Membrane in water
40344
    1TMC1    C1    1   1.370   2.439  11.272  0.2867  0.2093  0.2488
    1TMC1    C2    2   1.323   2.564  11.239 -0.0989  0.7932  0.3494
    1TMC1    C3    3   1.345   2.599  11.108  0.0134 -0.7517 -0.7615
    1TMC1    C4    4   1.410   2.347  11.178  0.9824  1.1352  0.1581
    1TMC1    C5    5   1.423   2.385  11.047  0.1588 -0.1842 -0.3321
    1TMC1    C6    6   1.393   2.512  11.009  0.8610 -0.3430 -0.0467
    1TMC1     C    7   1.341   2.391  11.405  0.3444  0.1628  0.2630
    1TMC1     O    8   1.273   2.468  11.477 -0.1348 -0.3259 -0.4283
    1TMC1     H    9   1.305   2.645  11.309  1.1078  1.6130 -0.2966
    1TMC1    H1   10   1.443   2.246  11.198 -0.9391  1.1148  3.3500
    1TMC1    H2   11   1.415   2.541  10.907 -0.5152  1.3191  0.1411
    1TMC1    C7   12   1.458   2.289  10.947 -0.3496  0.1366  0.0166
    1TMC1    C8   13   1.361   2.748  11.090  0.1712 -0.4739  0.3890
    1TMC1    O1   14   1.490   2.319  10.836 -0.2176  0.6272  0.5999
    1TMC1    O2   15   1.395   2.824  11.175 -0.7144 -0.1524  0.0487
    1TMC1    O3   16   1.410   2.168  10.983 -0.0274 -0.3486  0.2651
    1TMC1    H3   17   1.359   2.181  11.066  0.2174  1.9137  0.0768
    1TMC1    O5   18   1.351   2.777  10.961 -0.1075  0.2123  0.1508
    1TMC1    H5   19   1.284   2.719  10.919 -1.8387 -1.3458  5.0020
    2MPD2     C   20   1.314   2.029  11.764  0.2092 -0.6923 -0.0157
    2MPD2    C1   21   1.260   2.155  11.755 -0.2656 -0.2867 -0.2169
    2MPD2    C2   22   1.292   2.245  11.650 -0.5677  0.4473  0.4190
    2MPD2    C3   23   1.377   2.196  11.552  0.2925 -0.3201 -0.1813
    2MPD2    C4   24   1.436   2.071  11.562 -0.0081 -0.9863 -0.4531
    2MPD2    C5   25   1.400   1.991  11.667 -0.3390  0.4535 -0.1405
    2MPD2     H   26   1.251   2.345  11.650 -0.2569  0.5738  0.3071
    2MPD2    H1   27   1.492   2.025  11.482  1.1381  0.5521 -0.5447
    2MPD2    H2   28   1.297   1.953  11.839 -1.0253 -0.0796  0.3211
    2MPD2    H3   29   1.435   1.889  11.657  1.0068  1.0272 -1.4348
    2MPD2     N   30   1.398   2.273  11.432 -0.2415 -0.1159 -0.5555
    2MPD2    H5   31   1.452   2.231  11.358 -0.7625  1.4950 -1.8544
    2MPD2    N1   32   1.167   2.208  11.846 -0.2063  0.2017 -0.2831
    2MPD2    H7   33   1.134   2.301  11.822 -1.5251 -0.8585 -2.6362
    3TMC1    C1   34   0.353   2.926  11.039 -0.3892  0.1416 -0.4144
    3TMC1    C2   35   0.420   3.051  11.039 -0.0687 -0.1980 -0.3622
    3TMC1    C3   36   0.525   3.073  10.950  0.3576  0.6315  0.5627
    3TMC1    C4   37   0.400   2.822  10.962 -0.7801  0.2362  0.0371
    3TMC1    C5   38   0.513   2.847  10.886 -0.6578 -0.1401 -0.1417
    3TMC1    C6   39   0.568   2.967  10.874  0.7842  1.0039 -0.0174
    3TMC1     C   40   0.210   2.917  11.084  0.1057  0.3251  0.4216
    3TMC1     O   41   0.151   2.813  11.070 -0.0523  0.3897  0.3599
    3TMC1     H   42   0.391   3.133  11.103 -0.4859 -1.3238  0.9000
    3TMC1    H1   43   0.358   2.723  10.954  2.1466 -0.9383 -0.6405
    3TMC1    H2   44   0.643   2.991  10.799  0.0031  3.2406 -0.1070
    3TMC1    C7   45   0.547   2.755  10.788  0.3322 -0.8486 -0.2787
    3TMC1    C8   46   0.538   3.202  10.886  0.1096 -0.2042  0.0062
    3TMC1    O1   47   0.473   2.702  10.708 -0.4489 -0.1642  0.3297
    3TMC1    O2   48   0.517   3.306  10.947 -0.0874  0.3126 -0.1863
    3TMC1    O3   49   0.678   2.768  10.757  0.3432  0.0931 -0.2639
    3TMC1    H3   50   0.722   2.816  10.830  1.9471 -0.5291 -0.8290
    3TMC1    O5   51   0.505   3.196  10.757 -0.2119 -0.2925 -0.2390
    3TMC1    H5   52   0.504   3.106  10.718 -0.3743  0.5489 -2.1883
    4MPD2     C   53   4.538   3.127  11.316 -0.0027  0.5444 -0.3681
    4MPD2    C1   54   4.620   3.226  11.273 -0.0056  0.9979 -0.0438
    4MPD2    C2   55   0.001   3.190  11.207  0.2322 -0.0322  0.3255
    4MPD2    C3   56   0.042   3.056  11.194 -0.4305  0.6174 -0.5538
    4MPD2    C4   57   4.693   2.959  11.234  0.7330 -0.6162  0.3257
    4MPD2    C5   58   4.574   2.992  11.293  0.2591 -0.6497  0.3767
    4MPD2     H   59   0.072   3.269  11.184 -2.1292  1.9364 -0.1911
    4MPD2    H1   60   4.716   2.856  11.208 -0.1150 -0.6021 -0.4850
    4MPD2    H2   61   4.451   3.143  11.379  1.8217  2.3650  1.6708
    4MPD2    H3   62   4.510   2.911  11.327  1.4016 -1.6806  0.0735
    4MPD2     N   63   0.168   3.037  11.139  0.5261  0.7646 -0.1345
    4MPD2    H5   64   0.222   3.119  11.112 -0.1986  1.3873  0.2929
    4MPD2    N1   65   4.611   3.363  11.310  0.5598  0.3589 -0.0299
    4MPD2    H7   66   4.676   3.426  11.263  0.0090  1.2126  0.3652
    5TCq1    O1   67   0.206   0.732  11.286  0.5621 -1.0409  0.1508
    5TCq1    C1   68   0.271   0.623  11.337  0.4714  0.1992 -0.1185
    5TCq1    O2   69   0.333   0.621  11.442  0.4936  0.2854  0.5912
    5TCq1    C2   70   0.316   0.570  11.212 -0.6674  0.0144  0.0084
    5TCq1    C3   71   0.218   0.530  11.132 -0.9702  0.3405  0.2475
    5TCq1    C4   72   0.245   0.457  11.017  0.1237  0.1217 -0.6298
    5TCq1    C5   73   0.375   0.426  10.981 -0.3814 -0.3166 -0.4650
    5TCq1    C6   74   0.472   0.478  11.060  0.2703 -0.2977 -0.1114
    5TCq1    C7   75   0.445   0.543  11.179 -0.5248 -0.3409 -0.8823
    5TCq1    C8   76   0.606   0.426  11.036  0.3559  0.5017 -0.8714
    5TCq1    O4   77   0.608   0.336  10.947 -0.3439  0.4646 -0.4049
    5TCq1    C9   78   0.139   0.428  10.927 -0.5881  0.1390 -0.0490
    5TCq1    O5   79   0.168   0.379  10.818 -0.0836 -0.0261 -0.1405
    5TCq1    O6   80   0.017   0.439  10.966  0.2604 -0.2751  0.0106
    5TCq1    H1   81   0.191   0.718  11.191 -0.6086 -0.4229  0.2495
    5TCq1    H2   82   0.116   0.549  11.162 -0.7629 -1.0060  1.8096
    5TCq1    H3   83   0.398   0.385  10.883  0.2469 -0.9008 -0.0711
    5TCq1    H4   84   0.524   0.579  11.243  0.2984 -1.9057 -1.0278
    6MPD2     C   85   0.938   0.548  11.151 -0.5449  0.3118  0.9888
    6MPD2    C1   86   0.847   0.457  11.098 -0.2355 -0.0643  0.1369
    6MPD2    C2   87   0.890   0.336  11.037 -0.4763 -0.1888  0.3174
    6MPD2    C3   88   1.023   0.300  11.039  1.3535  0.0247 -0.6681
    6MPD2    C4   89   1.115   0.387  11.102 -0.5937  0.8878 -0.0612
    6MPD2    C5   90   1.073   0.504  11.157  0.0756  0.6851 -0.2023
    6MPD2     H   91   0.814   0.271  10.996 -0.3826 -0.0327 -0.1060
    6MPD2    H1   92   1.221   0.364  11.098 -0.4794  1.5431 -0.9859
    6MPD2    H2   93   0.922   0.646  11.193 -0.2574  1.1173 -0.7575
    6MPD2    H3   94   1.142   0.580  11.191  0.1582  0.6022 -0.1848
    6MPD2     N   95   1.052   0.176  10.974 -0.5718 -0.2265 -0.6401
    6MPD2    H5   96   0.975   0.133  10.924 -0.0325 -2.5174  0.5038
    6MPD2    N1   97   0.708   0.486  11.116  0.0413 -0.0272 -0.0460
    6MPD2    H7   98   0.694   0.566  11.177 -0.1807 -0.9437  1.0826
    7TCq1    O1   99   2.677   4.734  13.902  1.0668 -0.6145  0.5277
    7TCq1    C1  100   2.722   4.658  13.800  0.2670 -0.1532  0.8131
    7TCq1    O2  101   2.686   4.548  13.760  0.3667 -0.1026  0.1289
    7TCq1    C2  102   2.850   4.715  13.762 -0.1222 -0.4765  0.0200
    7TCq1    C3  103   2.869   0.113  13.756  0.3423  0.1642 -0.4220
    7TCq1    C4  104   2.985   0.163  13.719  0.4156 -0.3850 -0.2914
    7TCq1    C5  105   3.087   0.079  13.679 -0.2162  0.8292  0.2449
    7TCq1    C6  106   3.067   4.684  13.687  0.2218 -0.1348 -0.1850
    7TCq1    C7  107   2.951   4.622  13.720  0.0725 -0.0317  0.2795
    7TCq1    C8  108   3.183   4.594  13.677  0.4326  0.1664  0.2970
    7TCq1    O4  109   3.159   4.480  13.644 -0.0708  0.2634 -0.3207
    7TCq1    C9  110   3.006   0.304  13.727 -0.0664 -0.8177 -0.2390
    7TCq1    O5  111   3.125   0.349  13.735 -0.2152 -0.4117 -0.0788
    7TCq1    O6  112   2.902   0.377  13.724 -0.4259  0.0142 -0.7570
    7TCq1    H1  113   2.719   0.083  13.920  2.4294 -1.3812  1.0869
    7TCq1    H2  114   2.786   0.177  13.783 -0.6036 -0.8464 -0.9145
    7TCq1    H3  115   3.176   0.132  13.646 -1.2238  3.0145  1.0653
    7TCq1    H4  116   2.939   4.515  13.737  1.4488  0.0009  1.4274
    8MPD2     C  117   3.603   4.425  13.898 -0.4374  0.0650  0.1298
    8MPD2    C1  118   3.529   4.371  13.791  0.9222 -0.1193 -0.0578
    8MPD2    C2  119   3.433   4.442  13.731  0.2271 -0.1062  0.3012
    8MPD2    C3  120   3.400   4.566  13.789  0.1978  0.1124 -0.0254
    8MPD2    C4  121   3.473   4.618  13.891  0.2904  0.4547  0.0694
    8MPD2    C5  122   3.574   4.548  13.948  0.1478 -0.3887  0.0424
    8MPD2     H  123   3.390   4.406  13.638 -1.0804 -0.3950  1.0138
    8MPD2    H1  124   3.433   4.707  13.939  0.7036  1.4532 -1.4545
    8MPD2    H2  125   3.687   4.369  13.940  0.6406  1.4768 -0.1348
    8MPD2    H3  126   3.631   4.590  14.030  0.6934 -1.5252  0.2559
    8MPD2     N  127   3.289   4.641  13.749  0.3439  0.1820 -0.1115
    8MPD2    H5  128   3.268   4.732  13.789  1.1759 -0.0016  0.7459
    8MPD2    N1  129   3.560   4.238  13.753  0.3588 -0.2006  0.2329
    8MPD2    H7  130   3.646   4.201  13.792  0.3272  0.5995  1.0383
    9TMC1    C1  131   1.525   3.401  10.683 -0.8520  0.3160 -0.1797
    9TMC1    C2  132   1.638   3.418  10.609 -0.1874 -0.8430 -0.6409
    9TMC1    C3  133   1.658   3.345  10.494  0.9979 -0.6059  0.3248
    9TMC1    C4  134   1.425   3.311  10.643  0.1971 -0.0322  0.6442
    9TMC1    C5  135   1.456   3.239  10.523 -0.5863 -0.1866  0.4210
    9TMC1    C6  136   1.574   3.249  10.450 -0.0276  0.3816 -0.5840
    9TMC1     C  137   1.491   3.510  10.776  0.3718 -0.2678  0.9858
    9TMC1     O  138   1.575   3.599  10.791  0.3814  0.5170 -0.2086
    9TMC1     H  139   1.717   3.482  10.649 -1.9880  0.8720  0.1860
    9TMC1    H1  140   1.325   3.316  10.686  0.8528  3.6222  1.7491
    9TMC1    H2  141   1.593   3.182  10.367  0.9676  0.3841 -0.3552
    9TMC1    C7  142   1.376   3.124  10.489 -0.4956  0.3271  0.0723
    9TMC1    C8  143   1.785   3.358  10.435 -0.2302 -0.7397  0.1746
    9TMC1    O1  144   1.392   3.061  10.385  0.2464 -1.3777  0.2506
    9TMC1    O2  145   1.889   3.365  10.498 -0.0107  0.1980 -0.5363
    9TMC1    O3  146   1.290   3.095  10.590  0.2526 -0.2449  0.0373
    9TMC1    H3  147   1.287   3.150  10.671 -1.6093  1.3355 -1.1014
    9TMC1    O5  148   1.777   3.312  10.306  0.0150 -0.2017 -0.1078
    9TMC1    H5  149   1.685   3.310  10.272 -0.1795  0.0391  0.4002
   10MPD2     C  150   1.370   3.690  10.977 -0.2867  0.1900  0.1320
   10MPD2    C1  151   1.343   3.550  10.969  0.0853  0.2102  0.0489
   10MPD2    C2  152   1.268   3.484  11.066 -0.0279 -0.0254  0.0498
   10MPD2    C3  153   1.236   3.548  11.189 -0.5027  0.3062  0.2300
   10MPD2    C4  154   1.270   3.680  11.202 -0.8673 -0.3074  0.0449
   10MPD2    C5  155   1.339   3.744  11.098  0.1422 -0.4879 -0.3014
   10MPD2     H  156   1.229   3.386  11.044  0.8830 -0.0668 -1.3847
   10MPD2    H1  157   1.239   3.743  11.284 -2.0689  0.3102 -0.8770
   10MPD2    H2  158   1.413   3.750  10.898 -0.1672  0.7302  0.6012
   10MPD2    H3  159   1.379   3.844  11.114 -0.4910 -0.3725  0.5321
   10MPD2     N  160   1.168   3.487  11.290  0.1321 -0.2194  0.3751
   10MPD2    H5  161   1.169   3.540  11.377  2.1489 -0.0367  0.2531
   10MPD2    N1  162   1.385   3.481  10.858  0.3473  0.0938  0.9545
   10MPD2    H7  163   1.338   3.393  10.841 -0.8439  1.2121 -1.6069
   11TCq1    O1  164   0.850   3.501  13.704  0.3369  0.1578 -0.2207
   11TCq1    C1  165   0.768   3.398  13.725 -0.1010 -0.1523 -0.4515
   11TCq1    O2  166   0.673   3.366  13.658 -0.0702 -0.0347  0.3594
   11TCq1    C2  167   0.853   3.295  13.778 -0.2397 -0.2836 -0.3576
   11TCq1    C3  168   0.982   3.281  13.727  0.2449 -0.1770  0.4001
   11TCq1    C4  169   1.056   3.185  13.786 -0.6806  0.8962  0.2822
   11TCq1    C5  170   1.006   3.092  13.879 -0.8339 -0.0697 -0.7106
   11TCq1    C6  171   0.879   3.118  13.920 -0.5708  0.2910  0.4880
   11TCq1    C7  172   0.803   3.220  13.871  0.0952  0.2277  0.0572
   11TCq1    C8  173   0.801   2.998  13.951  0.3676 -0.5472  0.0019
   11TCq1    O4  174   0.679   2.992  13.962 -0.1983 -0.4959  0.0063
   11TCq1    C9  175   1.186   3.163  13.734  0.3056 -0.2206  0.6431
   11TCq1    O5  176   1.241   3.050  13.764  0.1221  0.0740 -0.2980
   11TCq1    O6  177   1.243   3.260  13.673 -0.2888 -0.0872 -0.2631
   11TCq1    H1  178   0.922   3.504  13.770 -0.1511  1.3568  0.2707
   11TCq1    H2  179   1.027   3.336  13.646  1.1859 -2.6369 -0.7635
   11TCq1    H3  180   1.084   3.031  13.924 -2.8888 -2.4293 -0.2960
   11TCq1    H4  181   0.700   3.234  13.899  0.6752  5.3201 -0.3951
   12MPD2     C  182   0.754   2.699  14.021 -0.3230  0.1051  1.2637
   12MPD2    C1  183   0.870   2.750  13.962  0.6157 -0.5089  0.3361
   12MPD2    C2  184   0.973   2.661  13.920 -0.5795  0.5769  0.1889
   12MPD2    C3  185   0.939   2.527  13.925 -0.5221  0.1164 -0.7941
   12MPD2    C4  186   0.819   2.486  13.972 -0.5871  0.1297  0.0607
   12MPD2    C5  187   0.724   2.568  14.026  1.3848 -0.1496 -0.0825
   12MPD2     H  188   1.067   2.707  13.893 -1.2422  1.1974 -1.0880
   12MPD2    H1  189   0.810   2.379  13.984  2.6392 -0.2690 -1.0996
   12MPD2    H2  190   0.673   2.767  14.044 -2.1182 -1.7885  0.5195
   12MPD2    H3  191   0.628   2.534  14.065  1.5428 -0.8408 -0.2849
   12MPD2     N  192   1.027   2.426  13.887 -0.2782 -0.0873  0.6897
   12MPD2    H5  193   0.989   2.333  13.883  0.1772 -0.1949 -1.2326
   12MPD2    N1  194   0.890   2.889  13.943  0.1903  0.3477 -0.5311
   12MPD2    H7  195   0.982   2.902  13.903 -0.1357 -1.3286 -1.8386
   13TCq1    O1  196   0.932   2.717  10.417 -0.5669  0.4274 -0.2862
   13TCq1    C1  197   0.881   2.591  10.431  0.0564  0.3103  0.3569
   13TCq1    O2  198   0.809   2.539  10.347  0.1848 -0.1669  0.0485
   13TCq1    C2  199   0.878   2.557  10.570  0.1119 -0.2818  0.0183
   13TCq1    C3  200   0.976   2.594  10.660  0.5435  0.0121 -0.6613
   13TCq1    C4  201   0.956   2.561  10.792 -0.6038 -0.0414  0.4651
   13TCq1    C5  202   0.850   2.494  10.838 -0.0404  0.1097  0.2856
   13TCq1    C6  203   0.753   2.461  10.751  0.2380  0.1941 -0.3818
   13TCq1    C7  204   0.767   2.492  10.619  0.3150 -0.2520  0.1817
   13TCq1    C8  205   0.636   2.403  10.816 -0.3430  0.6386 -0.3912
   13TCq1    O4  206   0.576   2.310  10.759 -0.6142  0.4860  0.1985
   13TCq1    C9  207   1.061   2.567  10.885  0.6270 -0.8718  0.2251
   13TCq1    O5  208   1.064   2.490  10.983 -0.3248 -0.0792 -0.0822
   13TCq1    O6  209   1.134   2.668  10.870  0.1779  0.6297  0.3421
   13TCq1    H1  210   0.975   2.752  10.497 -1.5558  1.2768 -0.1257
   13TCq1    H2  211   1.070   2.638  10.630  0.7020  0.0056 -0.1738
   13TCq1    H3  212   0.850   2.436  10.930  0.8129  0.8830  0.7699
   13TCq1    H4  213   0.686   2.470  10.551 -0.2653  1.2342  0.3963
   14MPD2     C  214   0.384   2.369  10.965 -0.5293 -0.2559 -0.6302
   14MPD2    C1  215   0.485   2.451  11.010  0.4395 -0.3871  0.3892
   14MPD2    C2  216   0.475   2.521  11.127  0.2278  0.3361 -0.3444
   14MPD2    C3  217   0.362   2.507  11.199 -0.4152 -0.0204  0.4049
   14MPD2    C4  218   0.261   2.419  11.164  0.1997  0.4040 -0.1442
   14MPD2    C5  219   0.269   2.353  11.044  0.1980  0.3898  0.3901
   14MPD2     H  220   0.556   2.587  11.157 -0.7511  1.2196  0.3331
   14MPD2    H1  221   0.172   2.400  11.223  0.6808 -1.6186 -0.0552
   14MPD2    H2  222   0.386   2.315  10.871 -2.1943 -0.7914 -0.3602
   14MPD2    H3  223   0.197   2.279  11.010  1.7453 -0.9400  0.0260
   14MPD2     N  224   0.349   2.590  11.307 -0.2450  0.3888  0.6988
   14MPD2    H5  225   0.423   2.659  11.317 -0.3110  0.3611  1.3408
   14MPD2    N1  226   0.606   2.463  10.938  0.1809  0.0279  0.5154
   14MPD2    H7  227   0.663   2.540  10.971 -0.4549 -0.2533  2.2754
   15TCq1    O1  228   1.256   1.471   1.461 -0.1749  0.2475 -0.2993
   15TCq1    C1  229   1.203   1.599   1.451  0.0506  0.2384 -0.2068
   15TCq1    O2  230   1.090   1.633   1.483  0.4787 -0.2403  0.3923
   15TCq1    C2  231   1.291   1.688   1.381  0.4329 -0.7798 -0.6388
   15TCq1    C3  232   1.321   1.816   1.425  0.6475 -0.2590 -0.2713
   15TCq1    C4  233   1.408   1.899   1.359  0.3155  0.2277 -0.8724
   15TCq1    C5  234   1.470   1.860   1.245 -0.0033  0.3119  0.2793
   15TCq1    C6  235   1.444   1.730   1.202  0.2378  0.1401 -0.1464
   15TCq1    C7  236   1.362   1.640   1.268  0.4651  0.0884  0.2532
   15TCq1    C8  237   1.530   1.666   1.104 -0.6956 -0.1069 -0.8794
   15TCq1    O4  238   1.639   1.715   1.088  0.7920 -0.3281  0.3376
   15TCq1    C9  239   1.429   2.034   1.403  0.1943  0.0080 -0.3645
   15TCq1    O5  240   1.368   2.073   1.505  0.0424  0.1115  0.4744
   15TCq1    O6  241   1.506   2.102   1.332  0.3910 -0.0209  0.0221
   15TCq1    H1  242   1.354   1.478   1.460 -0.1347 -0.1441  1.4877
   15TCq1    H2  243   1.284   1.850   1.520 -0.3128 -0.9592 -0.3966
   15TCq1    H3  244   1.537   1.921   1.186 -0.6660 -0.7499 -1.5654
   15TCq1    H4  245   1.342   1.538   1.237  2.5786 -1.1858  3.1231
   16MPD2     C  246   1.419   1.504   0.791 -0.2132  0.2146 -0.1943
   16MPD2    C1  247   1.506   1.531   0.901 -0.0975  0.4390 -0.3158
   16MPD2    C2  248   1.640   1.521   0.878  0.0131 -0.8408 -0.1872
   16MPD2    C3  249   1.688   1.490   0.753 -0.2264 -0.2735 -0.5468
   16MPD2    C4  250   1.604   1.479   0.643 -0.0589  0.2077  0.2066
   16MPD2    C5  251   1.472   1.491   0.662 -0.0064 -0.4485 -0.4373
   16MPD2     H  252   1.721   1.540   0.948 -0.9440  5.0529 -0.6853
   16MPD2    H1  253   1.632   1.450   0.542 -0.7560 -2.1795  0.6983
   16MPD2    H2  254   1.312   1.512   0.798 -0.3119 -1.2306 -0.0640
   16MPD2    H3  255   1.415   1.491   0.570 -1.1604 -0.1995  0.2614
   16MPD2     N  256   1.832   1.465   0.753  0.6858  0.0601 -0.0928
   16MPD2    H5  257   1.882   1.503   0.832  1.4705 -1.8945  0.3416
   16MPD2    N1  258   1.455   1.592   1.014  0.0868  0.1216 -0.6998
   16MPD2    H7  259   1.354   1.593   1.025 -0.1262  2.1918 -2.8828
   17TMC1    C1  260   0.304   1.561  10.533 -0.3006 -0.9444  0.1769
   17TMC1    C2  261   0.314   1.592  10.668 -0.8119 -0.1810  0.1011
   17TMC1    C3  262   0.289   1.489  10.752 -0.3963 -0.9128  0.0082
   17TMC1    C4  263   0.278   1.437  10.486  0.1618 -0.3686 -0.0758
   17TMC1    C5  264   0.274   1.333  10.571  0.2335 -0.1101  0.2508
   17TMC1    C6  265   0.285   1.363  10.706  0.1271  0.1270 -0.0381
   17TMC1     C  266   0.365   1.647  10.430  0.4022 -0.3074 -0.4518
   17TMC1     O  267   0.339   1.628  10.313 -0.2272 -0.1399  0.2240
   17TMC1     H  268   0.326   1.697  10.693  0.1076  0.3296 -2.5019
   17TMC1    H1  269   0.258   1.421  10.381 -0.5246 -0.0518  0.0122
   17TMC1    H2  270   0.283   1.271  10.764 -2.7074  0.1838 -0.0752
   17TMC1    C7  271   0.238   1.201  10.525 -0.4702  0.3680 -0.2253
   17TMC1    C8  272   0.321   1.502  10.888  0.1644 -0.7579 -0.7072
   17TMC1    O1  273   0.177   1.183  10.421  0.0901  0.2048  0.1424
   17TMC1    O2  274   0.273   1.434  10.976  0.2734  0.1726 -0.1864
   17TMC1    O3  275   0.331   1.112  10.563  0.3519  0.2157  0.1635
   17TMC1    H3  276   0.398   1.145  10.626  0.7775  0.8039 -0.5999
   17TMC1    O5  277   0.371   1.625  10.913 -0.0168 -0.2714  0.1240
   17TMC1    H5  278   0.435   1.658  10.846 -1.9744 -1.5174 -2.3500
   18MPD2     C  279   0.516   1.858  10.290  0.3554  0.4082 -0.5782
   18MPD2    C1  280   0.527   1.834  10.426  0.2642 -0.2855  0.3131
   18MPD2    C2  281   0.629   1.894  10.496  0.2536  0.4508 -0.0242
   18MPD2    C3  282   0.717   1.971  10.429 -0.4191 -0.6850 -0.6593
   18MPD2    C4  283   0.704   1.996  10.296 -0.7115  0.4231  0.1520
   18MPD2    C5  284   0.600   1.941  10.234  0.3005  0.0984  0.1477
   18MPD2     H  285   0.631   1.888  10.604 -2.6618 -0.7036 -0.0350
   18MPD2    H1  286   0.775   2.055  10.239 -2.0446  0.8522 -1.0665
   18MPD2    H2  287   0.441   1.808  10.230  0.3300  0.0136 -0.2158
   18MPD2    H3  288   0.586   1.956  10.128 -0.9344  0.6740  0.3910
   18MPD2     N  289   0.825   2.040  10.491 -0.1564 -0.7171 -0.7286
   18MPD2    H5  290   0.879   2.112  10.443 -0.5707  0.8271  1.1372
   18MPD2    N1  291   0.446   1.738  10.493  0.1915 -0.1305 -0.5304
   18MPD2    H7  292   0.463   1.738  10.593  1.5893 -2.4359 -0.7769
   19TMC2    C1  293   2.225   3.585  14.230 -0.0735 -0.0334  0.0265
   19TMC2    C2  294   2.156   3.671  14.148  0.5094  0.3721  0.3806
   19TMC2    C3  295   2.058   3.624  14.067 -0.0437 -0.3002  0.0852
   19TMC2    C4  296   2.201   3.448  14.226 -0.2781 -0.0026 -0.3555
   19TMC2    C5  297   2.106   3.407  14.139  0.2149 -0.0427 -0.5426
   19TMC2    C6  298   2.031   3.491  14.060  0.3307 -0.5625 -0.4322
   19TMC2     C  299   2.332   3.629  14.318 -0.2055 -0.5296  0.4068
   19TMC2     O  300   2.332   3.753  14.308  0.3121  0.2194 -0.7101
   19TMC2     H  301   2.166   3.779  14.154 -2.3208  0.5002  3.1249
   19TMC2    H1  302   2.270   3.377  14.271 -1.5227 -0.7301  0.3811
   19TMC2    H2  303   1.956   3.453  13.992  1.0063 -0.7264 -1.0863
   19TMC2    C7  304   2.095   3.267  14.119  0.2529  0.0796  0.1986
   19TMC2    C8  305   1.950   3.710  14.035 -0.3452 -0.1080  0.0547
   19TMC2    O1  306   2.199   3.199  14.132  0.1944 -0.4557  0.0685
   19TMC2    O2  307   1.964   3.829  14.016 -0.4235 -0.0308 -0.0688
   19TMC2    O5  308   1.837   3.661  14.095 -0.3595 -0.3161 -0.0756
   19TMC2    H5  309   1.851   3.565  14.111  1.9034 -0.1606 -1.0588
   20MPD2     C  310   2.588   3.661  14.462 -0.3143 -0.3238  0.5795
   20MPD2    C1  311   2.518   3.542  14.456 -0.8376 -0.2103 -0.3014
   20MPD2    C2  312   2.568   3.422  14.508 -0.0515 -0.2294 -0.3335
   20MPD2    C3  313   2.678   3.435  14.590  0.2865 -0.1374  0.6959
   20MPD2    C4  314   2.752   3.553  14.596 -0.6616 -0.0377 -0.0532
   20MPD2    C5  315   2.711   3.662  14.523 -0.3049 -0.4953 -0.2992
   20MPD2     H  316   2.510   3.331  14.505  0.3354 -0.4604 -0.7739
   20MPD2    H1  317   2.840   3.559  14.659  0.5542  1.4391 -1.9266
   20MPD2    H2  318   2.547   3.751  14.417 -2.4074 -1.5010  0.1558
   20MPD2    H3  319   2.772   3.750  14.537 -0.7704 -0.2141 -0.0239
   20MPD2     N  320   2.734   3.331  14.673  0.0686 -0.1571 -0.0556
   20MPD2    H5  321   2.811   3.353  14.735  0.2655  1.5700 -0.9271
   20MPD2    N1  322   2.403   3.529  14.377  0.0356  0.5678 -0.2167
   20MPD2    H7  323   2.367   3.435  14.366 -0.0380  0.4067  1.3603
   21TMC2    C1  324   4.376   3.190  14.751 -0.0967  0.2249  0.2897
   21TMC2    C2  325   4.406   3.120  14.868 -0.3134 -0.1859 -0.4902
   21TMC2    C3  326   4.339   3.166  14.978  1.1145 -0.0032 -0.6393
   21TMC2    C4  327   4.297   3.309  14.748 -0.7724  0.2434  0.2514
   21TMC2    C5  328   4.244   3.353  14.868  0.5237  0.2824 -0.2438
   21TMC2    C6  329   4.255   3.276  14.979 -0.3148 -0.3521 -0.6457
   21TMC2     C  330   4.473   3.164  14.646 -0.3395  0.2651 -0.3858
   21TMC2     O  331   4.504   3.051  14.626  0.2778 -0.0896  0.1375
   21TMC2     H  332   4.473   3.035  14.870 -1.3317 -1.0103 -0.7936
   21TMC2    H1  333   4.303   3.375  14.663  3.8093 -0.3597  0.0821
   21TMC2    H2  334   4.219   3.318  15.072 -1.4390 -2.5757 -0.0850
   21TMC2    C7  335   4.230   3.497  14.903  0.5823  0.5643  0.0180
   21TMC2    C8  336   4.323   3.079  15.091  0.5605 -0.1529  0.6802
   21TMC2    O1  337   4.241   3.532  15.023 -0.2924 -0.3610  0.0998
   21TMC2    O2  338   4.298   3.128  15.199 -0.2063  0.4307 -0.6921
   21TMC2    O5  339   4.301   2.954  15.041 -0.3766 -0.1011 -0.0414
   21TMC2    H5  340   4.292   2.944  14.944 -1.7120 -2.1950  0.2815
   22MPD2     C  341   0.079   3.312  14.295  0.1017  0.1778  0.3052
   22MPD2    C1  342   0.021   3.190  14.321  0.3747  0.1908  0.0110
   22MPD2    C2  343   4.659   3.176  14.412 -0.1157 -0.0153  0.0084
   22MPD2    C3  344   4.625   3.283  14.489 -0.0671 -1.1328 -0.1749
   22MPD2    C4  345   4.682   3.409  14.460 -0.0492 -0.0384  0.2610
   22MPD2    C5  346   0.034   3.423  14.359 -0.2377  0.7661 -0.1916
   22MPD2     H  347   4.600   3.085  14.418 -1.5459  0.8235 -1.3992
   22MPD2    H1  348   4.657   3.494  14.521  1.0284  1.2736 -1.1255
   22MPD2    H2  349   0.147   3.322  14.212 -0.6740 -0.1561 -0.3779
   22MPD2    H3  350   0.074   3.521  14.334  0.5782  1.1054  2.3763
   22MPD2     N  351   4.518   3.276  14.584  0.3965  0.2342 -0.2729
   22MPD2    H5  352   4.504   3.363  14.635  0.1295 -0.3214  0.5842
   22MPD2    N1  353   0.059   3.072  14.249 -0.2085 -0.0791  0.2787
   22MPD2    H7  354   4.736   2.993  14.265  1.0928 -1.3008 -0.6675
   23TMC2    C1  355   1.431   4.081  14.464 -0.3349 -0.3212 -0.6137
   23TMC2    C2  356   1.428   4.176  14.364 -0.0597 -0.5707  0.6834
   23TMC2    C3  357   1.317   4.185  14.285  0.0626  0.2557  0.3174
   23TMC2    C4  358   1.317   4.003  14.482 -0.5148  0.3136  0.7736
   23TMC2    C5  359   1.205   4.025  14.406 -0.2893  0.2102 -0.3594
   23TMC2    C6  360   1.199   4.119  14.307 -0.3351 -0.4703  0.4499
   23TMC2     C  361   1.510   4.091  14.585 -0.5192 -1.4243  0.6108
   23TMC2     O  362   1.490   4.011  14.672 -0.5068 -0.3129  0.0918
   23TMC2     H  363   1.511   4.240  14.337  0.8568 -1.1646  2.0756
   23TMC2    H1  364   1.301   3.930  14.560 -2.5635  0.2035  0.2709
   23TMC2    H2  365   1.118   4.119  14.235 -1.4603 -1.5906  1.7400
   23TMC2    C7  366   1.080   3.951  14.439 -0.4179  1.1829 -0.5812
   23TMC2    C8  367   1.327   4.284  14.179  0.1356  1.1092 -0.8851
   23TMC2    O1  368   1.082   3.859  14.521  0.5628  0.2224  0.2212
   23TMC2    O2  369   1.425   4.352  14.164 -0.2908  0.2823  0.3405
   23TMC2    O5  370   1.201   4.333  14.182 -0.2050 -0.6749 -0.8252
   23TMC2    H5  371   1.137   4.300  14.249  0.5116 -3.7868 -1.6819
   24MPD2     C  372   1.772   4.391  14.920  0.0946  0.1472 -0.0885
   24MPD2    C1  373   1.714   4.265  14.941  0.7431  0.3815  0.5683
   24MPD2    C2  374   1.653   4.197  14.832 -0.3540  0.3128 -0.0259
   24MPD2    C3  375   1.621   4.261  14.710 -0.7857 -0.2010 -0.6029
   24MPD2    C4  376   1.671   4.384  14.703 -0.0413  0.4419 -0.6350
   24MPD2    C5  377   1.745   4.451  14.796  0.0404 -0.8790  0.2895
   24MPD2     H  378   1.624   4.093  14.841 -2.3082  0.5848 -2.9320
   24MPD2    H1  379   1.650   4.446  14.616 -1.1963  0.0214 -0.6629
   24MPD2    H2  380   1.826   4.453  14.990 -0.1898  0.5021 -0.1818
   24MPD2    H3  381   1.775   4.551  14.768  0.4308 -0.9179  0.5670
   24MPD2     N  382   1.565   4.212  14.589  0.2982  0.4505 -0.5053
   24MPD2    H5  383   1.542   4.276  14.513  1.0374  1.0141 -0.2519
   24MPD2    N1  384   1.727   4.189  15.059 -0.3825 -0.2672  0.0765
   24MPD2    H7  385   1.675   4.102  15.057  2.2568 -1.8804  0.9437
   25TMC2    C1  386   0.542   1.532  11.704 -0.3327  0.3385 -0.1561
   25TMC2    C2  387   0.644   1.598  11.762  0.1500 -0.4415 -0.4104
   25TMC2    C3  388   0.614   1.705  11.837 -0.4161  0.5548 -0.7376
   25TMC2    C4  389   0.409   1.560  11.726  0.2067  0.4254 -0.3163
   25TMC2    C5  390   0.384   1.667  11.803  0.0955  0.0540 -0.7269
   25TMC2    C6  391   0.483   1.748  11.865 -0.5146  0.4568 -0.3564
   25TMC2     C  392   0.566   1.394  11.653  0.6136  0.3972  0.2107
   25TMC2     O  393   0.685   1.359  11.657  0.1107  0.1524  0.7243
   25TMC2     H  394   0.747   1.572  11.743  0.2678  1.6003 -2.5034
   25TMC2    H1  395   0.325   1.497  11.698  0.6273 -0.6941  0.9132
   25TMC2    H2  396   0.472   1.845  11.910  1.2905  1.1255 -1.3451
   25TMC2    C7  397   0.250   1.693  11.854 -0.4829 -0.6848  0.6849
   25TMC2    C8  398   0.721   1.803  11.864  0.0410 -0.2053 -0.1081
   25TMC2    O1  399   0.246   1.744  11.965  0.0435  0.3926 -0.2936
   25TMC2    O2  400   0.713   1.925  11.849 -0.0824 -0.2210 -0.6201
   25TMC2    O5  401   0.788   1.740  11.960 -0.4577 -0.3524  0.2302
   25TMC2    H5  402   0.754   1.654  11.994 -0.3972 -0.4654  0.0046
   26MPD2     C  403   0.412   0.938  11.480  0.5011  0.0060 -0.4580
   26MPD2    C1  404   0.312   1.031  11.469 -0.4227  0.0369  0.4354
   26MPD2    C2  405   0.330   1.158  11.509 -0.4042 -0.0269  0.8159
   26MPD2    C3  406   0.450   1.194  11.565  0.3900 -0.3175 -0.0591
   26MPD2    C4  407   0.555   1.112  11.576 -0.0541 -0.1505 -0.1778
   26MPD2    C5  408   0.533   0.979  11.540  0.0653  0.1025 -0.7191
   26MPD2     H  409   0.249   1.230  11.516  0.3122  0.8932 -0.1875
   26MPD2    H1  410   0.651   1.143  11.616 -0.4934 -1.0801  1.5724
   26MPD2    H2  411   0.403   0.835  11.448 -0.0650  0.0754 -0.5231
   26MPD2    H3  412   0.613   0.906  11.556  0.5147  0.4483 -1.4107
   26MPD2     N  413   0.456   1.326  11.610  0.2337 -0.1264 -0.2798
   26MPD2    H5  414   0.373   1.384  11.604  0.5891  0.5558  1.4880
   26MPD2    N1  415   0.190   0.981  11.419 -0.7030 -0.5489  0.7219
   26MPD2    H7  416   0.183   0.880  11.413  0.9619 -0.5302 -1.4579
   27TMC2    C1  417   3.313   3.193  12.127  0.0325 -0.4054  0.1820
   27TMC2    C2  418   3.400   3.150  12.028  0.4152 -0.1793 -0.0196
   27TMC2    C3  419   3.432   3.242  11.935  0.1200 -0.1967 -0.0718
   27TMC2    C4  420   3.269   3.328  12.132 -0.5254  0.3386  0.0856
   27TMC2    C5  421   3.318   3.415  12.040  0.1615  0.3105  0.2168
   27TMC2    C6  422   3.396   3.371  11.941  0.4929  0.8650 -0.4897
   27TMC2     C  423   3.309   3.116  12.255  0.3686 -0.0599 -0.2048
   27TMC2     O  424   3.381   3.016  12.250  0.0391 -0.3111  0.6851
   27TMC2     H  425   3.450   3.054  12.030  0.7562 -0.0140 -0.4431
   27TMC2    H1  426   3.200   3.370  12.203 -1.1508 -1.7664  0.7121
   27TMC2    H2  427   3.421   3.434  11.857  0.9447  0.5811 -0.5690
   27TMC2    C7  428   3.350   3.541  12.099 -0.4741 -0.1542 -0.0148
   27TMC2    C8  429   3.516   3.208  11.831  0.2608 -0.0494  0.1052
   27TMC2    O1  430   3.286   3.568  12.198 -0.2221 -0.2439  0.2489
   27TMC2    O2  431   3.598   3.269  11.768  0.1698 -0.3085  0.2985
   27TMC2    O5  432   3.448   3.118  11.769  0.3343 -0.1642  0.2703
   27TMC2    H5  433   3.363   3.098  11.814  0.4322 -1.2324  0.0002
   28MPD2     C  434   3.350   3.165  12.770 -0.1733  0.2924 -0.0553
   28MPD2    C1  435   3.276   3.271  12.731 -0.1791  0.9709 -0.2366
   28MPD2    C2  436   3.247   3.281  12.599 -0.2252 -0.1431 -0.5097
   28MPD2    C3  437   3.291   3.192  12.498 -0.1345 -0.2279  0.0018
   28MPD2    C4  438   3.352   3.081  12.546  0.0774 -0.3338 -0.1644
   28MPD2    C5  439   3.384   3.074  12.677  0.2389 -0.1377  0.4491
   28MPD2     H  440   3.191   3.370  12.571 -1.0531 -0.5278 -0.1059
   28MPD2    H1  441   3.392   3.004  12.482 -0.5433 -1.2747  0.5785
   28MPD2    H2  442   3.396   3.170  12.868  1.2952  0.5009 -0.7571
   28MPD2    H3  443   3.450   2.993  12.707 -0.3550 -0.0747  1.8949
   28MPD2     N  444   3.267   3.198  12.360  0.4780  0.1148  0.1134
   28MPD2    H5  445   3.198   3.269  12.333 -1.0324 -2.1033 -1.8793
   28MPD2    N1  446   3.234   3.361  12.833  0.3441 -0.2578  0.3656
   28MPD2    H7  447   3.264   3.332  12.926  0.2741  2.7058  1.3083
   29TMC2    C1  448   3.144   1.894  14.566 -0.0750 -0.2610 -1.0528
   29TMC2    C2  449   3.122   1.873  14.697  0.2972  0.0609  0.1752
   29TMC2    C3  450   3.079   1.977  14.769 -0.5710 -0.8961  0.3147
   29TMC2    C4  451   3.124   2.017  14.507  0.8855 -0.1277 -0.1256
   29TMC2    C5  452   3.077   2.119  14.586  0.1516 -0.1362 -0.3392
   29TMC2    C6  453   3.064   2.098  14.723  0.1978 -0.4000  0.4350
   29TMC2     C  454   3.230   1.805  14.492  0.5347 -0.3711  0.5994
   29TMC2     O  455   3.216   1.683  14.514 -0.5600  0.9818  0.1717
   29TMC2     H  456   3.114   1.772  14.736  4.1048 -1.2272 -2.4468
   29TMC2    H1  457   3.152   2.033  14.404 -0.0115 -1.6064 -0.5904
   29TMC2    H2  458   3.027   2.179  14.785 -0.2226 -0.0776 -0.2235
   29TMC2    C7  459   3.092   2.258  14.536 -0.1126 -0.3039  0.3590
   29TMC2    C8  460   3.051   1.956  14.911  0.3660  0.3909 -0.5642
   29TMC2    O1  461   3.068   2.269  14.418  0.2977 -0.3467 -0.2560
   29TMC2    O2  462   3.018   1.850  14.969 -0.2255  0.1698 -0.7538
   29TMC2    O5  463   3.085   2.063  14.981 -0.3238 -0.0801  0.4118
   29TMC2    H5  464   3.123   2.139  14.931  0.1847 -2.0392 -2.2205
   30MPD2     C  465   3.554   1.701  14.116  0.1049  0.2368  0.5264
   30MPD2    C1  466   3.494   1.616  14.208 -0.0475  0.5380 -0.7667
   30MPD2    C2  467   3.408   1.670  14.303 -0.2370  0.2139 -0.6431
   30MPD2    C3  468   3.401   1.805  14.318 -0.4849 -0.7707  0.0202
   30MPD2    C4  469   3.462   1.893  14.234 -0.4740  0.1169 -0.1851
   30MPD2    C5  470   3.538   1.841  14.133  0.6939  0.2186  0.5000
   30MPD2     H  471   3.358   1.600  14.369 -1.3268  0.5167 -1.1412
   30MPD2    H1  472   3.450   1.999  14.252  0.6939 -0.0721  1.7255
   30MPD2    H2  473   3.633   1.667  14.050  0.7308  1.1059  0.8180
   30MPD2    H3  474   3.598   1.915  14.081 -2.2279  0.6927 -2.2226
   30MPD2     N  475   3.317   1.865  14.409  0.0715  0.1333  0.1733
   30MPD2    H5  476   3.321   1.966  14.411  2.2963  0.0499  0.7179
   30MPD2    N1  477   3.520   1.473  14.202  0.0820 -0.1917  0.1880
   30MPD2    H7  478   3.468   1.414  14.266  0.8243  0.8346  1.7657
   31TMC2    C1  479   1.221   0.306  15.510  0.3208  0.0353 -0.6465
   31TMC2    C2  480   1.192   0.420  15.575  0.3863  0.2280 -0.6194
   31TMC2    C3  481   1.146   0.403  15.704 -0.3863  0.1521 -0.0437
   31TMC2    C4  482   1.224   0.182  15.570 -0.1381  0.1860  0.2108
   31TMC2    C5  483   1.191   0.175  15.701  0.1282  0.1183 -0.0807
   31TMC2    C6  484   1.145   0.286  15.769 -0.2786 -0.5810 -0.2874
   31TMC2     C  485   1.256   0.314  15.365 -0.5481  0.0879 -0.7673
   31TMC2     O  486   1.287   0.426  15.321 -0.4355 -0.4336 -0.1144
   31TMC2     H  487   1.176   0.518  15.532  1.6421 -0.0934 -1.8061
   31TMC2    H1  488   1.259   0.092  15.521 -1.4100 -0.6915  0.8969
   31TMC2    H2  489   1.104   0.287  15.869 -2.0172  2.0557 -1.0151
   31TMC2    C7  490   1.191   0.046  15.758 -0.4883  0.4751  0.1591
   31TMC2    C8  491   1.084   0.507  15.778  0.3090  0.3439  0.3540
   31TMC2    O1  492   1.282   4.709  15.733 -0.1219  0.3225  0.4162
   31TMC2    O2  493   1.014   0.594  15.729  0.0088 -0.0221 -0.1203
   31TMC2    O5  494   1.171   0.541  15.869  0.2151  0.2613 -0.4860
   31TMC2    H5  495   1.225   0.466  15.902 -0.6968  0.9311  2.5193
   32MPD2     C  496   1.096   0.184  14.908  0.4003 -0.3949 -0.3922
   32MPD2    C1  497   1.187   0.280  14.937 -0.3599  0.6916 -0.6310
   32MPD2    C2  498   1.229   0.288  15.071 -0.1186  0.4776  1.3648
   32MPD2    C3  499   1.188   0.192  15.163 -0.1692  0.3379  0.2259
   32MPD2    C4  500   1.116   0.083  15.121  0.0286  0.3985 -0.6112
   32MPD2    C5  501   1.061   0.080  14.999 -0.2347 -0.4974  0.1172
   32MPD2     H  502   1.302   0.364  15.095 -0.0556  1.3420 -1.6612
   32MPD2    H1  503   1.075   0.011  15.191  2.2709  0.8379  1.1540
   32MPD2    H2  504   1.072   0.159  14.805 -0.0980 -0.9006 -0.1557
   32MPD2    H3  505   1.002   4.730  14.976 -2.0546  1.0210 -1.1375
   32MPD2     N  506   1.202   0.208  15.301  0.5361  0.2143 -0.3405
   32MPD2    H5  507   1.165   0.138  15.365  0.6084  1.4617  1.0696
   32MPD2    N1  508   1.219   0.380  14.837  0.3852 -0.1630 -0.7789
   32MPD2    H7  509   1.166   0.379  14.750  0.8666  0.7730 -1.0770
   33TMC2    C1  510   1.166   2.876  10.159  0.0280 -0.0810  0.2064
   33TMC2    C2  511   1.044   2.847  10.104  0.8936 -0.2677  0.0957
   33TMC2    C3  512   1.016   2.916   9.991 -0.0042 -0.2444  0.0755
   33TMC2    C4  513   1.257   2.967  10.103  0.0174 -0.2890 -0.7941
   33TMC2    C5  514   1.214   3.038   9.994  0.3850  0.0155 -0.1349
   33TMC2    C6  515   1.094   3.013   9.933 -0.2682  0.1019  0.2902
   33TMC2     C  516   1.209   2.766  10.247 -0.1120  0.8121 -0.2390
   33TMC2     O  517   1.159   2.655  10.231 -0.3492 -0.1985  0.0473
   33TMC2     H  518   0.971   2.780  10.149  0.2485 -0.4193 -1.1592
   33TMC2    H1  519   1.359   2.980  10.139 -0.0287  1.1491 -1.1887
   33TMC2    H2  520   1.052   3.062   9.846  0.7109  0.1726 -0.1404
   33TMC2    C7  521   1.313   3.136   9.949 -0.1927  0.4890 -0.2093
   33TMC2    C8  522   0.881   2.900   9.935 -0.4746 -0.0558 -1.0741
   33TMC2    O1  523   1.404   3.164  10.025 -0.1430  0.2409 -0.4578
   33TMC2    O2  524   0.836   2.793   9.898  0.0517 -0.1922  0.0892
   33TMC2    O5  525   0.821   3.023   9.953  0.1464 -0.2182 -0.4383
   33TMC2    H5  526   0.889   3.087   9.984 -1.6477  1.4256  0.0806
   34MPD2     C  527   1.485   2.572  10.644  0.2466  0.6628 -0.0538
   34MPD2    C1  528   1.370   2.525  10.586  0.3166  0.4116 -0.4765
   34MPD2    C2  529   1.319   2.600  10.482  0.0333  0.5381  0.2719
   34MPD2    C3  530   1.376   2.718  10.428  0.4414  0.5357  0.4340
   34MPD2    C4  531   1.485   2.770  10.489 -0.4241  0.1951  0.2039
   34MPD2    C5  532   1.535   2.693  10.594  0.0655 -0.0581 -0.6474
   34MPD2     H  533   1.225   2.575  10.434  0.1260  1.4542 -0.3967
   34MPD2    H1  534   1.524   2.868  10.466  1.8228 -1.1369 -1.6369
   34MPD2    H2  535   1.529   2.513  10.723 -2.0397 -0.2866  0.5295
   34MPD2    H3  536   1.614   2.740  10.652 -0.1701 -1.9084  1.1787
   34MPD2     N  537   1.316   2.797  10.324  0.5518 -0.2093 -0.3608
   34MPD2    H5  538   1.364   2.886  10.314  0.0894 -0.1804 -2.3986
   34MPD2    N1  539   1.312   2.401  10.635 -0.5072  0.2545 -0.7338
   34MPD2    H7  540   1.358   2.359  10.715 -0.2642  1.8227 -0.0358
   35TMC2    C1  541   3.064   4.144  11.824 -0.2668 -0.0667 -0.0689
   35TMC2    C2  542   3.110   4.199  11.706 -0.2643 -0.4821 -1.3152
   35TMC2    C3  543   3.048   4.168  11.589 -0.6425 -0.0117 -0.0590
   35TMC2    C4  544   2.956   4.056  11.829 -0.1249  0.5735  0.7868
   35TMC2    C5  545   2.891   4.033  11.707 -0.1019  0.2786 -0.3266
   35TMC2    C6  546   2.937   4.089  11.585  0.6765  0.0661 -0.5394
   35TMC2     C  547   3.143   4.164  11.944 -0.2198 -0.6015 -0.4555
   35TMC2     O  548   3.258   4.190  11.919  0.1093  0.1408  0.4659
   35TMC2     H  549   3.198   4.262  11.711 -1.0604  0.6300 -1.3558
   35TMC2    H1  550   2.948   3.997  11.920  2.3559  0.9753  1.2499
   35TMC2    H2  551   2.894   4.064  11.488 -2.2548  0.7183  0.5827
   35TMC2    C7  552   2.770   3.957  11.710  0.5700 -0.0636  0.7414
   35TMC2    C8  553   3.114   4.214  11.473 -0.0343  0.2070  0.9392
   35TMC2    O1  554   2.743   3.885  11.808 -0.0608 -0.3603  0.5025
   35TMC2    O2  555   3.230   4.251  11.455 -0.0037  0.2727  0.0816
   35TMC2    O5  556   3.013   4.271  11.405 -0.4802  0.5527 -0.1485
   35TMC2    H5  557   2.919   4.247  11.423 -1.3546  1.7567 -3.0351
   36MPD2     C  558   3.299   4.111  12.430 -0.2246  1.0479  0.1630
   36MPD2    C1  559   3.158   4.093  12.436 -1.0431 -0.1391 -0.1325
   36MPD2    C2  560   3.091   4.087  12.309 -0.3762 -0.2515 -0.6869
   36MPD2    C3  561   3.153   4.137  12.196  0.3249 -0.2366 -0.6057
   36MPD2    C4  562   3.288   4.161  12.199  0.4640 -0.3803  0.1129
   36MPD2    C5  563   3.358   4.139  12.314 -0.0294 -0.2254  0.4179
   36MPD2     H  564   2.990   4.052  12.293  0.0232 -0.2670 -3.1094
   36MPD2    H1  565   3.342   4.209  12.118 -1.0673  0.4311 -0.4156
   36MPD2    H2  566   3.361   4.098  12.518 -1.4083 -1.6506  0.5986
   36MPD2    H3  567   3.465   4.155  12.316 -0.3048  1.4284  1.6066
   36MPD2     N  568   3.078   4.137  12.067  0.7845 -0.7280  0.1322
   36MPD2    H5  569   2.979   4.113  12.065  0.5714 -0.0255  2.0057
   36MPD2    N1  570   3.106   4.058  12.561  0.7006 -0.1347  0.9913
   36MPD2    H7  571   3.174   4.038  12.634  0.5960 -1.2730  0.7704
   37TMC2    C1  572   4.411   4.069  12.145 -0.8222  1.0337  0.4289
   37TMC2    C2  573   4.278   4.065  12.109 -0.5640 -0.0671 -0.2854
   37TMC2    C3  574   4.247   4.046  11.979  0.6813  0.5138  0.3517
   37TMC2    C4  575   4.509   4.053  12.053  0.1699 -0.2309  0.5393
   37TMC2    C5  576   4.473   4.036  11.918 -0.4973 -0.6972 -0.3098
   37TMC2    C6  577   4.343   4.045  11.876 -0.2685 -0.7225  0.5050
   37TMC2     C  578   4.442   4.071  12.291  0.0710 -0.0867  0.5305
   37TMC2     O  579   4.342   4.051  12.361 -0.0613 -0.5389  0.7038
   37TMC2     H  580   4.201   4.063  12.185 -0.1248 -0.0094  0.1581
   37TMC2    H1  581   4.615   4.064  12.074  0.2558 -0.8727  0.4531
   37TMC2    H2  582   4.321   4.000  11.779  0.6424  2.8048 -1.3398
   37TMC2    C7  583   4.579   4.062  11.824 -0.3289 -0.4664  0.3745
   37TMC2    C8  584   4.107   4.040  11.942  1.1700 -0.8820 -0.0961
   37TMC2    O1  585   4.690   4.071  11.871 -0.2245 -0.4626 -0.3391
   37TMC2    O2  586   4.019   4.020  12.025  0.0790  0.1149 -0.4446
   37TMC2    O5  587   4.097   4.133  11.847 -0.6765 -0.2135 -0.8358
   37TMC2    H5  588   4.183   4.149  11.802 -0.4402  0.7561 -0.0578
   38MPD2     C  589   4.722   4.030  12.708  0.0832 -0.0097  0.3792
   38MPD2    C1  590   0.050   3.968  12.601 -0.7642 -0.2340  0.2147
   38MPD2    C2  591   0.006   3.989  12.471 -0.4643  0.0186 -0.3619
   38MPD2    C3  592   4.620   4.050  12.452  0.5466 -0.5598  0.2695
   38MPD2    C4  593   4.547   4.101  12.554  0.4157  0.3083 -0.5118
   38MPD2    C5  594   4.605   4.091  12.681  0.4600 -0.2856 -0.5803
   38MPD2     H  595   0.058   3.950  12.384  0.7165 -1.1524  0.8551
   38MPD2    H1  596   4.463   4.168  12.537 -0.9316 -1.8544 -2.3414
   38MPD2    H2  597   0.019   4.015  12.809 -1.1555 -2.5098  0.4417
   38MPD2    H3  598   4.560   4.140  12.766  2.9487  1.5386 -0.3089
   38MPD2     N  599   4.567   4.045  12.319 -0.0104 -0.1254 -0.7553
   38MPD2    H5  600   4.626   4.023  12.239  0.6911 -2.6322  0.4623
   38MPD2    N1  601   0.170   3.887  12.623 -0.2664  0.1298 -0.8125
   38MPD2    H7  602   0.212   3.845  12.541 -1.4023  0.5777 -1.6193
   39TMC2    C1  603   2.456   1.406   1.143 -0.4663 -0.0009  0.2201
   39TMC2    C2  604   2.424   1.495   1.238  0.1106 -0.4757  0.7293
   39TMC2    C3  605   2.524   1.556   1.306  0.4432  0.1984 -0.8607
   39TMC2    C4  606   2.582   1.361   1.120 -0.2564 -0.2080  0.5978
   39TMC2    C5  607   2.680   1.403   1.203 -0.5739  0.4384  0.2520
   39TMC2    C6  608   2.654   1.504   1.296 -0.9248  0.0226 -0.2236
   39TMC2     C  609   2.341   1.332   1.079 -0.6909  0.6613 -0.3578
   39TMC2     O  610   2.225   1.382   1.072 -0.2140  0.2801 -0.1840
   39TMC2     H  611   2.319   1.511   1.256  0.0662  0.4046 -0.3475
   39TMC2    H1  612   2.614   1.282   1.053  1.5394  3.0651 -2.3618
   39TMC2    H2  613   2.726   1.519   1.376 -0.0430  0.3239 -1.0692
   39TMC2    C7  614   2.813   1.373   1.156 -0.1792 -0.0912  0.1017
   39TMC2    C8  615   2.492   1.648   1.420 -0.0934  0.4794 -0.4213
   39TMC2    O1  616   2.823   1.290   1.063 -0.6892  0.7910  0.0577
   39TMC2    O2  617   2.382   1.686   1.448  0.1548  0.5310  0.1221
   39TMC2    O5  618   2.597   1.723   1.433  0.1317 -0.6670  0.3586
   39TMC2    H5  619   2.670   1.687   1.378 -0.1238  0.3026 -0.5924
   40MPD2     C  620   2.348   0.989   0.952 -0.4490  0.5896  0.3419
   40MPD2    C1  621   2.297   1.110   0.972  0.0867 -0.4196  0.7801
   40MPD2    C2  622   2.162   1.129   0.933  0.1895 -0.3267 -0.3545
   40MPD2    C3  623   2.084   1.037   0.869  0.2505 -0.1587  0.2460
   40MPD2    C4  624   2.148   0.918   0.838 -0.2225 -0.3434 -0.2470
   40MPD2    C5  625   2.277   0.895   0.883 -0.2585 -0.5757  0.2152
   40MPD2     H  626   2.127   1.231   0.948 -0.5097 -0.4739 -1.0152
   40MPD2    H1  627   2.089   0.836   0.797  1.1953 -2.5309  2.0817
   40MPD2    H2  628   2.447   0.968   0.992 -0.9860 -0.9531  0.8542
   40MPD2    H3  629   2.315   0.795   0.867 -0.5310 -0.2437 -2.5318
   40MPD2     N  630   1.947   1.057   0.843  0.4413 -0.3533 -0.2175
   40MPD2    H5  631   1.899   0.984   0.792 -1.1600  0.9918 -0.6094
   40MPD2    N1  632   2.382   1.207   1.029  0.4499 -0.1424  0.0129
   40MPD2    H7  633   2.479   1.180   1.040  1.1089  1.1707 -2.6070
   41TMC2    C1  634   1.998   4.186  14.582 -0.0653  0.3350 -0.0890
   41TMC2    C2  635   2.126   4.225  14.583 -0.4499 -0.2670  0.4419
   41TMC2    C3  636   2.167   4.287  14.473 -0.3059  0.5505 -0.0021
   41TMC2    C4  637   1.913   4.214  14.478  0.3221 -0.5385 -0.4889
   41TMC2    C5  638   1.969   4.269  14.363 -0.3320  0.6118  0.3163
   41TMC2    C6  639   2.090   4.321  14.363  0.3181 -1.0199  0.2483
   41TMC2     C  640   1.966   4.078  14.666 -0.1372  0.6829 -0.0173
   41TMC2     O  641   1.892   3.987  14.635  0.5501  0.1954 -1.1621
   41TMC2     H  642   2.185   4.203  14.671  1.7213  0.3309 -0.8634
   41TMC2    H1  643   1.811   4.179  14.490  1.2236 -2.2377  2.2415
   41TMC2    H2  644   2.137   4.378  14.284 -1.4422 -1.3142 -0.9984
   41TMC2    C7  645   1.880   4.293  14.253 -0.6096  0.1203 -0.2327
   41TMC2    C8  646   2.308   4.293  14.438 -0.0965 -0.0950  0.2301
   41TMC2    O1  647   1.760   4.287  14.267 -0.2519 -0.1493  0.0953
   41TMC2    O2  648   2.356   4.385  14.377  0.2035  0.2180 -0.2133
   41TMC2    O5  649   2.375   4.191  14.495 -0.1596  0.1806  0.7694
   41TMC2    H5  650   2.320   4.118  14.531 -0.6065  0.3371  0.3911
   42MPD2     C  651   1.997   3.868  14.876 -0.0339 -0.5491 -0.1789
   42MPD2    C1  652   2.020   4.002  14.901  0.1725 -0.4197 -0.0152
   42MPD2    C2  653   2.058   4.036  15.030 -0.1125  0.3678  0.0386
   42MPD2    C3  654   2.074   3.947  15.136  0.3138 -0.3741 -0.1427
   42MPD2    C4  655   2.045   3.816  15.105  0.1544  0.0103  0.1349
   42MPD2    C5  656   2.011   3.776  14.978  0.8503 -0.1090 -0.2099
   42MPD2     H  657   2.074   4.140  15.055 -1.5496  0.5674  0.1497
   42MPD2    H1  658   2.051   3.747  15.188 -1.5347 -1.0270 -0.6001
   42MPD2    H2  659   1.980   3.837  14.773 -0.0664 -2.6391  0.4590
   42MPD2    H3  660   1.990   3.671  14.958  1.2295 -0.1940 -0.1594
   42MPD2     N  661   2.106   3.978  15.270  0.5673 -0.5309  0.1589
   42MPD2    H5  662   2.111   3.911  15.346 -1.7337 -0.1807  0.6160
   42MPD2    N1  663   2.025   4.095  14.794 -0.4442  0.1242  0.0585
   42MPD2    H7  664   2.079   4.180  14.810  1.0509 -0.6477 -0.9387
   43TMC2    C1  665   2.794   2.754   0.998  0.3279 -0.2288 -0.1526
   43TMC2    C2  666   2.673   2.826   1.024  0.0480  0.0082  0.5023
   43TMC2    C3  667   2.668   2.908   1.138  0.0745  0.4905  0.0016
   43TMC2    C4  668   2.894   2.750   1.091 -0.6359 -0.0268 -0.3823
   43TMC2    C5  669   2.878   2.824   1.205  0.3078 -0.4503  0.9842
   43TMC2    C6  670   2.773   2.917   1.225 -0.9667 -0.3771  0.0488
   43TMC2     C  671   2.811   2.676   0.881 -0.3458 -0.3054  0.4628
   43TMC2     O  672   2.926   2.652   0.857 -0.3055  0.0792  0.0137
   43TMC2     H  673   2.589   2.836   0.956 -0.2132  0.6605  0.9246
   43TMC2    H1  674   2.982   2.688   1.079 -0.3558  0.6508 -1.8983
   43TMC2    H2  675   2.774   2.974   1.317  0.9834  0.5558 -0.5516
   43TMC2    C7  676   3.000   2.839   1.281 -0.2924 -0.2256 -0.2281
   43TMC2    C8  677   2.539   2.976   1.170 -0.4406 -0.7513 -0.0270
   43TMC2    O1  678   3.108   2.825   1.224  0.5673 -0.3943 -0.3713
   43TMC2    O2  679   2.531   3.069   1.251  0.4971 -0.4506 -0.1258
   43TMC2    O5  680   2.432   2.896   1.132 -0.3930 -0.5716  0.4288
   43TMC2    H5  681   2.449   2.824   1.067  0.4483  2.0132 -2.1817
   44MPD2     C  682   2.639   2.480   0.440 -0.4066  0.2039  0.1771
   44MPD2    C1  683   2.762   2.531   0.485  0.0951  0.2093  0.4251
   44MPD2    C2  684   2.781   2.576   0.608  0.5453  0.3867 -0.8275
   44MPD2    C3  685   2.679   2.583   0.699 -0.0954  0.4622 -0.0475
   44MPD2    C4  686   2.551   2.547   0.657 -0.5741  0.0366 -0.0897
   44MPD2    C5  687   2.537   2.492   0.531  0.0077  0.3748 -0.0841
   44MPD2     H  688   2.877   2.609   0.647  1.6672 -1.9942 -1.5436
   44MPD2    H1  689   2.465   2.554   0.723 -1.0878  0.5508 -0.8089
   44MPD2    H2  690   2.622   2.423   0.349  0.2218 -2.3283  1.6576
   44MPD2    H3  691   2.441   2.454   0.497  0.2170  0.6054 -0.9380
   44MPD2     N  692   2.692   2.636   0.827 -0.3654  0.1623  0.3930
   44MPD2    H5  693   2.608   2.645   0.883 -1.6842 -0.9497 -1.4417
   44MPD2    N1  694   2.880   2.506   0.419  0.5414  0.7699  0.1231
   44MPD2    H7  695   2.962   2.545   0.465 -0.9236  0.0354  3.3836
   45TMC2    C1  696   0.062   4.137   9.749  0.7389 -0.4795 -0.1470
   45TMC2    C2  697   0.178   4.107   9.693 -1.0295 -0.0431 -0.6476
   45TMC2    C3  698   0.278   4.205   9.689  0.2550 -0.4760  0.1817
   45TMC2    C4  699   0.032   4.265   9.782  0.2581  0.1585 -0.0061
   45TMC2    C5  700   0.134   4.354   9.803 -0.1806  0.2381 -0.0400
   45TMC2    C6  701   0.257   4.324   9.757 -0.2854 -0.7029 -0.2656
   45TMC2     C  702   4.702   4.027   9.756  0.3289 -1.2738 -0.7118
   45TMC2     O  703   4.737   3.914   9.754  0.8007 -0.2805 -0.1103
   45TMC2     H  704   0.195   4.004   9.664  0.7878 -0.1204  0.7109
   45TMC2    H1  705   4.669   4.290   9.810 -0.2171 -0.3202 -1.3336
   45TMC2    H2  706   0.342   4.390   9.763  0.8419 -2.3519  1.8144
   45TMC2    C7  707   0.111   4.473   9.882  0.2341  0.0041 -0.1836
   45TMC2    C8  708   0.409   4.155   9.646 -0.5253  0.2041  0.2289
   45TMC2    O1  709   0.006   4.482   9.946  0.1883 -0.2000  0.7903
   45TMC2    O2  710   0.441   4.040   9.620  0.1716 -0.3824  0.0702
   45TMC2    O5  711   0.485   4.264   9.606 -0.2189 -0.0814 -0.0726
   45TMC2    H5  712   0.452   4.354   9.625  0.5144 -0.5012  3.2018
   46MPD2     C  713   4.450   3.855   9.718 -0.0175 -1.0967 -0.5471
   46MPD2    C1  714   4.453   3.989   9.746 -0.3132 -0.7354 -0.2011
   46MPD2    C2  715   4.331   4.053   9.779 -0.3352 -0.7531  0.2836
   46MPD2    C3  716   4.215   3.980   9.773  0.0739  0.2392  0.4366
   46MPD2    C4  717   4.216   3.847   9.738  0.6232  0.2680  0.0682
   46MPD2    C5  718   4.332   3.785   9.715  0.0611 -0.5388 -0.4129
   46MPD2     H  719   4.333   4.161   9.786 -1.0652 -0.8365  1.8151
   46MPD2    H1  720   4.128   3.784   9.741  0.2301  0.7422 -1.4722
   46MPD2    H2  721   4.543   3.803   9.701  0.6737  0.2168 -0.8054
   46MPD2    H3  722   4.337   3.677   9.703 -0.9527 -0.7905  1.4404
   46MPD2     N  723   4.098   4.048   9.806 -0.8092 -0.0946  0.4651
   46MPD2    H5  724   4.112   4.143   9.837 -1.6395  0.0353  0.4421
   46MPD2    N1  725   4.573   4.068   9.749 -0.2238 -0.3532 -0.7322
   46MPD2    H7  726   4.556   4.168   9.758 -0.1887 -0.3377 -0.8427
   47TMC2    C1  727   2.047   0.760   9.565  0.4651  0.1748  0.0593
   47TMC2    C2  728   2.112   0.736   9.449  0.5175  0.1747  0.2032
   47TMC2    C3  729   2.096   0.828   9.346 -0.9778 -1.2525 -0.4760
   47TMC2    C4  730   1.976   0.875   9.577 -0.0942  0.4462 -0.3330
   47TMC2    C5  731   1.974   0.971   9.478 -0.2768 -0.8028  0.2880
   47TMC2    C6  732   2.033   0.948   9.360 -0.1080  0.3603 -0.5563
   47TMC2     C  733   2.112   0.716   9.693 -0.3360  0.0858  0.1417
   47TMC2     O  734   2.082   0.772   9.796  0.1838 -0.0833 -0.2455
   47TMC2     H  735   2.166   0.643   9.435  0.2937  0.3483 -1.8773
   47TMC2    H1  736   1.942   0.902   9.676  0.1646 -0.8502  0.1022
   47TMC2    H2  737   2.021   1.023   9.283 -1.8236 -0.6445 -1.2520
   47TMC2    C7  738   1.877   1.079   9.482 -0.3106  0.2421  0.1586
   47TMC2    C8  739   2.201   0.811   9.246 -0.0857 -0.3356  0.0882
   47TMC2    O1  740   1.914   1.176   9.423 -0.2617  0.0154 -0.3382
   47TMC2    O2  741   2.302   0.744   9.267  0.2753 -0.5383 -0.0241
   47TMC2    O5  742   2.187   0.910   9.155  0.7254  0.0659  0.2164
   47TMC2    H5  743   2.093   0.937   9.148  0.5992 -0.9029 -1.6512
   48MPD2     C  744   2.304   0.629   9.880 -0.3543  0.3974  0.0877
   48MPD2    C1  745   2.244   0.539   9.793  0.4075 -0.2211 -0.5510
   48MPD2    C2  746   2.271   0.405   9.806  0.2841  0.4961 -0.0335
   48MPD2    C3  747   2.347   0.354   9.909 -0.1374 -0.4202  0.6953
   48MPD2    C4  748   2.408   0.447   9.994  0.1698 -0.4629  0.4622
   48MPD2    C5  749   2.393   0.583   9.976 -0.4845  0.2166 -0.3694
   48MPD2     H  750   2.221   0.338   9.738  0.1895  0.1789  0.3508
   48MPD2    H1  751   2.466   0.411  10.078  1.0663 -1.2531 -0.4999
   48MPD2    H2  752   2.302   0.736   9.864 -1.4776  0.3216 -0.2329
   48MPD2    H3  753   2.449   0.657  10.033  0.7798 -1.1762  0.1807
   48MPD2     N  754   2.345   0.212   9.926 -0.1163 -0.4074 -0.1960
   48MPD2    H5  755   2.304   0.154   9.854  1.4647 -0.4583 -1.0589
   48MPD2    N1  756   2.165   0.591   9.687 -0.6039 -0.5004  0.3687
   48MPD2    H7  757   2.144   0.534   9.605  1.7913  2.0774 -2.0524
   49TMC2    C1  758   4.685   1.743  10.280 -0.3700  0.7131  0.6568
   49TMC2    C2  759   4.717   1.653  10.376  0.1053  0.1870  0.3975
   49TMC2    C3  760   4.640   1.532  10.377 -0.0972 -0.1282 -0.0117
   49TMC2    C4  761   4.589   1.723  10.190  0.0877 -0.2832 -0.1556
   49TMC2    C5  762   4.516   1.608  10.196 -0.1267  0.1278 -0.0867
   49TMC2    C6  763   4.537   1.511  10.290 -0.3830  1.1758 -0.1738
   49TMC2     C  764   0.023   1.868  10.276  0.4990 -0.2155  0.6511
   49TMC2     O  765   0.018   1.920  10.167  0.1110 -0.0911  0.0676
   49TMC2     H  766   0.068   1.654  10.436 -0.2904 -1.5092  1.0041
   49TMC2    H1  767   4.584   1.784  10.100 -0.0458  0.3168  0.2593
   49TMC2    H2  768   4.473   1.426  10.310  1.2645  0.0523  0.3379
   49TMC2    C7  769   4.417   1.582  10.091 -0.1920  0.6586  0.5872
   49TMC2    C8  770   4.658   1.427  10.477  0.3845  0.3850 -0.2206
   49TMC2    O1  771   4.405   1.669  10.010 -0.0656  0.0244  0.7378
   49TMC2    O2  772   4.591   1.325  10.487  0.0947 -0.0629  0.0177
   49TMC2    O5  773   4.701   1.490  10.586  0.1978 -0.3371 -0.3021
   49TMC2    H5  774   4.733   1.582  10.575 -1.6710  0.6253  2.3333
   50MPD2     C  775   0.237   2.066  10.309  0.0709  0.1171 -0.0876
   50MPD2    C1  776   0.186   1.995  10.409  0.2039  0.6113  0.5341
   50MPD2    C2  777   0.237   2.014  10.538 -0.6908 -0.0781  0.6715
   50MPD2    C3  778   0.342   2.097  10.565  0.5791 -0.4347  0.6119
   50MPD2    C4  779   0.392   2.175  10.463  0.4831 -0.6904 -1.4485
   50MPD2    C5  780   0.339   2.154  10.336  0.1562  0.0370  0.2706
   50MPD2     H  781   0.194   1.953  10.617 -1.5006  0.3447  0.5567
   50MPD2    H1  782   0.472   2.244  10.485  1.4333 -2.7448  1.5286
   50MPD2    H2  783   0.217   2.043  10.205 -0.8545 -0.6532  0.2605
   50MPD2    H3  784   0.385   2.218  10.262 -2.2564  0.8952 -0.4590
   50MPD2     N  785   0.399   2.107  10.691 -0.0221  0.0252  0.2756
   50MPD2    H5  786   0.476   2.171  10.705  0.8086 -1.7082  3.5167
   50MPD2    N1  787   0.079   1.904  10.394 -0.0687 -0.1193  0.5882
   50MPD2    H7  788   0.059   1.858  10.482  0.1258 -0.1151  0.6342
   51TMC2    C1  789   0.621   0.201   1.909 -0.0783 -0.4696  0.1112
   51TMC2    C2  790   0.739   0.133   1.890  0.2725  0.1726 -0.4615
   51TMC2    C3  791   0.854   0.208   1.881  0.1034 -0.0547 -0.5200
   51TMC2    C4  792   0.612   0.334   1.921  0.6530  0.4522 -0.2366
   51TMC2    C5  793   0.727   0.399   1.901 -0.7134  0.3387  0.2029
   51TMC2    C6  794   0.846   0.341   1.866  0.3926  0.2343 -0.5582
   51TMC2     C  795   0.504   0.131   1.869 -0.1823  0.0844 -0.0973
   51TMC2     O  796   0.525   0.037   1.792  0.6548  0.1077  0.1103
   51TMC2     H  797   0.747   0.025   1.894 -0.4277  0.1884  1.0784
   51TMC2    H1  798   0.521   0.387   1.944 -0.6041 -1.1117 -1.4935
   51TMC2    H2  799   0.936   0.397   1.843  1.2104 -1.5394 -1.6673
   51TMC2    C7  800   0.736   0.546   1.917 -0.6517  0.7276  0.1360
   51TMC2    C8  801   0.988   0.150   1.892  0.0373  0.6674 -0.5649
   51TMC2    O1  802   0.635   0.604   1.884  0.2029 -0.4750  0.5190
   51TMC2    O2  803   1.089   0.203   1.843  0.7672 -0.4693 -0.5679
   51TMC2    O5  804   0.975   0.057   1.986  0.1894  0.4743  0.3310
   51TMC2    H5  805   0.888   0.039   2.028  0.0485  0.2465 -0.0619
   52MPD2     C  806   0.000   0.033   1.842 -0.0618  0.7881  0.0407
   52MPD2    C1  807   0.101   0.021   1.749 -0.1747  0.6173 -0.0187
   52MPD2    C2  808   0.232   0.065   1.780 -0.5140  0.6713  0.4704
   52MPD2    C3  809   0.263   0.134   1.897 -0.5146 -0.5310  0.6647
   52MPD2    C4  810   0.153   0.167   1.981 -0.4720 -0.4954 -0.1499
   52MPD2    C5  811   0.032   0.103   1.958  0.1643 -0.3056 -0.8492
   52MPD2     H  812   0.309   0.055   1.704 -1.0429  0.3595 -0.0289
   52MPD2    H1  813   0.161   0.219   2.075 -1.1074 -0.5469 -0.0718
   52MPD2    H2  814   4.640   4.728   1.849  0.0752  0.5295  0.3750
   52MPD2    H3  815   4.695   0.117   2.035 -0.5870  0.4901 -1.7333
   52MPD2     N  816   0.393   0.169   1.937 -0.4353 -0.5614  0.0848
   52MPD2    H5  817   0.404   0.232   2.016  1.7268 -0.8745  0.0252
   52MPD2    N1  818   0.084   4.698   1.619 -0.2438  1.4066 -0.1417
   52MPD2    H7  819   0.153   4.702   1.546 -0.4542  1.8492 -0.3169
   53TMC2    C1  820   0.429   4.253  11.468  0.0348  0.5693 -0.3844
   53TMC2    C2  821   0.541   4.206  11.410 -0.6639  0.6017  0.1983
   53TMC2    C3  822   0.649   4.183  11.500 -0.0194  0.6549 -0.1149
   53TMC2    C4  823   0.421   4.286  11.601  0.6210  0.7663  0.1169
   53TMC2    C5  824   0.534   4.266  11.680  0.6255 -0.4935  0.0702
   53TMC2    C6  825   0.639   4.203  11.630 -0.3293  0.9357  0.0826
   53TMC2     C  826   0.307   4.226  11.402  0.3117 -0.0653 -0.0975
   53TMC2     O  827   0.302   4.247  11.283  0.0319  0.0946 -0.0705
   53TMC2     H  828   0.552   4.208  11.302 -1.8325 -0.8192  0.0515
   53TMC2    H1  829   0.341   4.339  11.652 -0.3129 -0.4736 -0.0655
   53TMC2    H2  830   0.734   4.185  11.679 -0.7917  1.2290  1.0707
   53TMC2    C7  831   0.511   4.258  11.822 -0.5614  0.1703 -0.1002
   53TMC2    C8  832   0.763   4.113  11.449 -1.0432 -0.1628 -0.1848
   53TMC2    O1  833   0.422   4.337  11.858  0.3908  0.2787  0.3232
   53TMC2    O2  834   0.802   4.021  11.519 -0.1429  0.4707  0.1195
   53TMC2    O5  835   0.834   4.215  11.386  0.0387  0.6002  0.6699
   53TMC2    H5  836   0.777   4.292  11.365  0.9641  0.9050 -0.7237
   54MPD2     C  837   0.008   4.238  11.365 -0.5724 -0.0093  0.2931
   54MPD2    C1  838   0.077   4.180  11.469  0.5115  0.5573 -0.5604
   54MPD2    C2  839   0.013   4.132  11.580  0.5963  0.3906 -0.3777
   54MPD2    C3  840   4.613   4.134  11.592  0.5373  0.4407  0.0388
   54MPD2    C4  841   4.544   4.185  11.485 -0.6004 -0.3043  0.7337
   54MPD2    C5  842   4.610   4.246  11.381 -0.0415  0.1070 -0.5857
   54MPD2     H  843   0.079   4.097  11.659 -0.9864  0.4610  0.9598
   54MPD2    H1  844   4.436   4.189  11.487 -0.5367  1.8668 -0.2683
   54MPD2    H2  845   0.054   4.297  11.287  2.4141 -0.9664  1.3133
   54MPD2    H3  846   4.554   4.301  11.306  0.8264 -2.5512 -3.1929
   54MPD2     N  847   4.535   4.100  11.700  0.1388 -0.2860 -0.2138
   54MPD2    H5  848   4.435   4.116  11.691  0.4754  0.7542 -2.1311
   54MPD2    N1  849   0.216   4.191  11.494  0.6896 -0.4233 -0.5642
   54MPD2    H7  850   0.245   4.151  11.583 -1.0667  1.4605  0.8513
   55TMC2    C1  851   1.338   2.170   0.328  0.8949  0.2846 -0.0737
   55TMC2    C2  852   1.402   2.132   0.217  1.1216  0.4536 -0.2611
   55TMC2    C3  853   1.411   1.992   0.185  0.2328  0.6915 -0.1229
   55TMC2    C4  854   1.276   2.079   0.407  0.1129 -0.5048 -0.4283
   55TMC2    C5  855   1.289   1.946   0.375  0.1136  0.3861  0.1641
   55TMC2    C6  856   1.353   1.902   0.258  0.2137 -0.1661  0.4600
   55TMC2     C  857   1.283   2.305   0.333  0.1960 -0.2480  0.1918
   55TMC2     O  858   1.202   2.323   0.424  0.3608 -0.1405 -0.3355
   55TMC2     H  859   1.461   2.210   0.170 -0.6946 -0.0863 -3.4429
   55TMC2    H1  860   1.232   2.104   0.503 -1.4647  0.0337 -1.2885
   55TMC2    H2  861   1.364   1.799   0.226 -1.1161 -0.4176  0.7874
   55TMC2    C7  862   1.204   1.841   0.431 -0.1123  0.0029  0.1221
   55TMC2    C8  863   1.540   1.963   0.138 -0.5079 -0.0739 -0.3495
   55TMC2    O1  864   1.202   1.729   0.384  0.5814 -0.2202 -0.7066
   55TMC2    O2  865   1.621   1.885   0.191 -0.2447 -0.2514 -0.2822
   55TMC2    O5  866   1.567   2.044   0.039 -0.0744  0.2058  0.2867
   55TMC2    H5  867   1.488   2.088  17.752 -0.3742 -0.0016  0.6479
   56MPD2     C  868   1.352   2.581   0.107  0.2413 -0.5754  0.5642
   56MPD2    C1  869   1.287   2.520   0.212  0.5934  0.0735  0.4278
   56MPD2    C2  870   1.178   2.584   0.270 -0.4586  0.8167  0.4659
   56MPD2    C3  871   1.121   2.694   0.217 -0.3219  0.3205 -0.0149
   56MPD2    C4  872   1.177   2.749   0.093  0.7199  0.1799 -0.1115
   56MPD2    C5  873   1.296   2.700   0.053 -0.3258  0.0156  0.1391
   56MPD2     H  874   1.119   2.541   0.350 -0.8300 -0.8116 -0.7004
   56MPD2    H1  875   1.134   2.836   0.045 -0.3335  0.3657  1.1430
   56MPD2    H2  876   1.442   2.535   0.067 -0.8256 -0.9875 -1.3627
   56MPD2    H3  877   1.338   2.742  17.715  1.2695 -1.8287  0.0305
   56MPD2     N  878   0.998   2.726   0.270  0.4809  0.4549  0.2891
   56MPD2    H5  879   0.979   2.672   0.354 -2.7455  0.7196 -0.2732
   56MPD2    N1  880   1.342   2.395   0.252 -0.2249 -0.2539  0.1755
   56MPD2    H7  881   1.432   2.367   0.213 -1.1368 -1.2517 -1.2444
   57TMC2    C1  882   0.508   3.012  13.022  0.3410 -0.0086 -0.0818
   57TMC2    C2  883   0.464   2.962  12.905 -0.3087 -0.4345  0.5356
   57TMC2    C3  884   0.549   3.002  12.798 -0.3175 -0.5613  0.7105
   57TMC2    C4  885   0.624   3.085  13.041 -0.0238 -0.1414  0.0357
   57TMC2    C5  886   0.690   3.120  12.932 -0.2802 -0.0152  0.0924
   57TMC2    C6  887   0.653   3.086  12.807 -0.2824  0.2795 -0.2039
   57TMC2     C  888   0.420   2.996  13.140 -0.3505  0.6829  0.6545
   57TMC2     O  889   0.431   3.081  13.230 -0.1292 -0.0598 -0.3737
   57TMC2     H  890   0.369   2.912  12.891 -0.9524  0.7533  0.6731
   57TMC2    H1  891   0.639   3.134  13.137 -1.4747  0.3342  0.0183
   57TMC2    H2  892   0.712   3.112  12.720 -1.3360  0.0848 -0.9732
   57TMC2    C7  893   0.830   3.147  12.947  0.4762 -0.1117  0.3445
   57TMC2    C8  894   0.503   2.971  12.667 -0.6535  0.0245 -0.1026
   57TMC2    O1  895   0.875   3.247  12.890  0.1066  0.4098  0.0619
   57TMC2    O2  896   0.390   2.939  12.639  0.0877 -0.1989  0.5370
   57TMC2    O5  897   0.615   2.947  12.596 -0.2941 -0.5032 -0.2704
   57TMC2    H5  898   0.698   2.962  12.646 -0.8457  1.2329  0.0850
   58MPD2     C  899   4.736   2.826  13.327 -0.4105  0.0837  1.1625
   58MPD2    C1  900   0.076   2.932  13.372  0.5527  0.6211  0.6746
   58MPD2    C2  901   0.192   2.947  13.307 -1.5184 -0.5467 -0.7260
   58MPD2    C3  902   0.229   2.864  13.203 -0.4645  0.4928 -0.0613
   58MPD2    C4  903   0.155   2.757  13.175  0.4391  0.1739  0.3697
   58MPD2    C5  904   0.035   2.735  13.236 -0.1130  0.2345  0.3832
   58MPD2     H  905   0.255   3.029  13.341 -1.1446 -1.3809  0.5685
   58MPD2    H1  906   0.182   2.677  13.107  1.1168  2.2263 -1.7569
   58MPD2    H2  907   4.634   2.824  13.364 -0.6469 -0.8303  0.4584
   58MPD2    H3  908   4.717   2.646  13.213  0.2337  0.8522 -2.8114
   58MPD2     N  909   0.338   2.888  13.127  0.3775 -0.3278  0.3408
   58MPD2    H5  910   0.362   2.818  13.057 -1.7987 -0.8876  0.1530
   58MPD2    N1  911   0.031   3.044  13.452 -0.4291  0.1672  0.2221
   58MPD2    H7  912   0.101   3.112  13.480  0.5806 -0.3175 -1.1034
   59TMC2    C1  913   2.969   2.903  13.137  0.4492 -0.1075  0.6436
   59TMC2    C2  914   2.904   2.791  13.185  0.4555  0.3861  0.3042
   59TMC2    C3  915   2.772   2.786  13.174 -0.7121  0.6962  0.8958
   59TMC2    C4  916   2.899   3.005  13.073 -0.4779  0.6219  0.6362
   59TMC2    C5  917   2.760   2.993  13.058  0.2705 -0.0270 -0.2688
   59TMC2    C6  918   2.697   2.886  13.110  0.4791  1.0022  0.3674
   59TMC2     C  919   3.113   2.909  13.136 -0.7469  0.2277  0.0897
   59TMC2     O  920   3.170   2.801  13.133 -0.1728 -0.0510 -0.0404
   59TMC2     H  921   2.952   2.708  13.236  0.6646  0.1586 -0.2680
   59TMC2    H1  922   2.946   3.089  13.023 -1.3620 -0.1530 -1.5140
   59TMC2    H2  923   2.592   2.877  13.087  0.4717 -2.4072  1.6639
   59TMC2    C7  924   2.690   3.066  12.962  0.0647  0.7278  0.4284
   59TMC2    C8  925   2.706   2.662  13.187 -0.2833  0.2845  0.5640
   59TMC2    O1  926   2.610   3.017  12.883  0.2979  0.5062  0.4431
   59TMC2    O2  927   2.759   2.553  13.186  0.8621  0.0297 -0.1439
   59TMC2    O5  928   2.575   2.675  13.203 -0.2200 -0.0917 -0.4094
   59TMC2    H5  929   2.551   2.765  13.232  1.6564  0.0457  0.7064
   60MPD2     C  930   3.379   3.002  13.112 -1.2292  0.6840 -0.1711
   60MPD2    C1  931   3.279   3.082  13.146 -0.5124 -0.3310 -0.1332
   60MPD2    C2  932   3.304   3.208  13.184 -0.5068 -0.4209  0.3121
   60MPD2    C3  933   3.434   3.259  13.188  0.7872  1.0211 -0.1400
   60MPD2    C4  934   3.535   3.170  13.160 -0.1692 -0.0028  0.3469
   60MPD2    C5  935   3.510   3.043  13.120 -0.0214 -0.1601  0.1228
   60MPD2     H  936   3.218   3.265  13.217  1.0259  1.6041  0.7788
   60MPD2    H1  937   3.639   3.195  13.176 -0.5664  2.3901 -0.8832
   60MPD2    H2  938   3.370   2.901  13.074 -2.3443  0.3925  0.8604
   60MPD2    H3  939   3.595   2.981  13.095 -0.1686 -0.8065  1.2134
   60MPD2     N  940   3.469   3.393  13.225  0.6001  0.3191 -0.2391
   60MPD2    H5  941   3.565   3.426  13.235  1.0958 -1.4097  0.7174
   60MPD2    N1  942   3.148   3.039  13.143 -0.4707 -0.6536 -0.0023
   60MPD2    H7  943   3.076   3.110  13.150 -1.6145 -1.6535 -1.7926
   61TMC2    C1  944   2.486   4.617  15.667 -0.0028  0.2719 -0.3772
   61TMC2    C2  945   2.445   4.558  15.779  0.3164  0.8143  0.4728
   61TMC2    C3  946   2.376   4.634  15.871  0.0940 -0.3749  0.0643
   61TMC2    C4  947   2.473   0.016  15.642 -0.1846  0.4317  0.4532
   61TMC2    C5  948   2.385   0.081  15.725 -0.4736  1.0320 -0.0872
   61TMC2    C6  949   2.339   0.031  15.852  0.4705  0.0305 -0.5951
   61TMC2     C  950   2.486   4.527  15.553 -0.5424  0.2535  1.3266
   61TMC2     O  951   2.458   4.409  15.573  0.5714  0.5314 -0.0992
   61TMC2     H  952   2.461   4.455  15.809 -1.4801  0.1613 -0.7530
   61TMC2    H1  953   2.519   0.060  15.555 -0.1118  0.9647  0.7609
   61TMC2    H2  954   2.298   0.087  15.935  0.1908 -0.2465 -0.5457
   61TMC2    C7  955   2.333   0.203  15.673 -0.1445 -0.7213  0.2797
   61TMC2    C8  956   2.348   4.565  15.993 -0.1246  0.5425 -0.5822
   61TMC2    O1  957   2.368   0.237  15.564  0.2934  0.0592  0.3679
   61TMC2    O2  958   2.406   4.461  16.031  0.4189  0.0625 -0.2462
   61TMC2    O5  959   2.257   4.634  16.067  0.2298  0.3843 -0.5691
   61TMC2    H5  960   2.201   4.698  16.017 -0.2876  0.7957  0.5233
   62MPD2     C  961   2.449   4.390  15.291  0.4305  0.1587 -0.8013
   62MPD2    C1  962   2.492   4.517  15.310  0.0034 -0.0132  0.8273
   62MPD2    C2  963   2.507   4.597  15.200 -0.1675 -0.0153  0.7920
   62MPD2    C3  964   2.474   4.556  15.077 -0.0191  0.1345 -0.4548
   62MPD2    C4  965   2.436   4.423  15.056 -0.1632  0.9177 -0.0245
   62MPD2    C5  966   2.434   4.337  15.167  0.2838  0.2617  0.4882
   62MPD2     H  967   2.553   4.692  15.223  2.3243 -1.0321 -0.0096
   62MPD2    H1  968   2.417   4.367  14.965  0.0658  1.6141 -0.5079
   62MPD2    H2  969   2.436   4.322  15.374  1.3101 -0.6789 -1.3515
   62MPD2    H3  970   2.405   4.234  15.155 -0.2011  0.5120 -0.4979
   62MPD2     N  971   2.460   4.642  14.966 -0.3150 -0.1422  0.2223
   62MPD2    H5  972   2.397   4.613  14.891  1.0251 -0.6164 -0.7092
   62MPD2    N1  973   2.512   4.585  15.432 -0.1709  0.3015 -0.2725
   62MPD2    H7  974   2.513   4.686  15.422  3.1085  0.6191  3.3703
   63TMC2    C1  975   1.592   0.150  10.683  0.6268 -0.6250  0.1921
   63TMC2    C2  976   1.614   0.232  10.794 -0.1088 -0.8198 -0.0707
   63TMC2    C3  977   1.715   0.326  10.786  0.9060 -0.5921  0.8304
   63TMC2    C4  978   1.669   0.164  10.571  0.0827 -0.0749  0.0036
   63TMC2    C5  979   1.764   0.256  10.569 -0.3754  0.8321 -0.0224
   63TMC2    C6  980   1.795   0.337  10.680  0.3261 -0.0181  0.6746
   63TMC2     C  981   1.477   0.071  10.676 -0.1371  0.4329 -0.2037
   63TMC2     O  982   1.367   0.119  10.711 -0.5388  0.0335  0.2603
   63TMC2     H  983   1.543   0.234  10.876  0.8488 -0.3772  0.7330
   63TMC2    H1  984   1.644   0.109  10.481 -0.2625  1.0646 -0.6057
   63TMC2    H2  985   1.873   0.413  10.680 -0.0426  0.3592  1.3264
   63TMC2    C7  986   1.841   0.268  10.439  0.0553 -0.5135  0.2266
   63TMC2    C8  987   1.741   0.410  10.898  0.3480 -0.0715 -0.4758
   63TMC2    O1  988   1.804   0.189  10.351  0.1349  0.0348  0.4837
   63TMC2    O2  989   1.796   0.517  10.898  0.0717  0.1487  0.3721
   63TMC2    O5  990   1.768   0.319  10.995 -0.6953 -0.1638  0.1256
   63TMC2    H5  991   1.724   0.236  10.968 -1.9242  0.9149 -1.1517
   64MPD2     C  992   1.268   4.340  10.546 -0.0270  0.1063  0.6683
   64MPD2    C1  993   1.402   4.348  10.501 -0.1744 -0.5403  0.7041
   64MPD2    C2  994   1.477   4.463  10.529 -0.2964  0.1193 -0.2974
   64MPD2    C3  995   1.424   4.580  10.589  0.2851  0.0203 -0.4014
   64MPD2    C4  996   1.288   4.570  10.626 -0.2953  0.4391 -0.0479
   64MPD2    C5  997   1.221   4.448  10.614  0.2693 -0.0765  0.0005
   64MPD2     H  998   1.580   4.473  10.498 -0.3831  1.0634 -0.2740
   64MPD2    H1  999   1.235   4.653  10.671 -0.5451  0.2010  0.0952
   64MPD2    H2 1000   1.205   4.253  10.557 -0.4146  0.5725  2.1404
   64MPD2    H3 1001   1.118   4.438  10.647  0.9386  0.0439  2.1760
   64MPD2     N 1002   1.509   4.690  10.608 -0.0235  0.6774  0.5883
   64MPD2    H5 1003   1.605   4.668  10.585 -0.6027 -1.2202 -0.0398
   64MPD2    N1 1004   1.469   4.249  10.435 -0.4272 -0.4117 -0.0153
   64MPD2    H7 1005   1.571   4.254  10.435 -0.4875  1.2591  1.5853
   65TMC2    C1 1006   3.147   4.327  15.764 -0.5909 -0.3914  0.0065
   65TMC2    C2 1007   3.195   4.259  15.651  0.1211  0.0441 -0.0225
   65TMC2    C3 1008   3.205   4.340  15.539  0.3124 -0.7724 -0.4038
   65TMC2    C4 1009   3.124   4.459  15.768 -0.1954 -0.4449 -0.5901
   65TMC2    C5 1010   3.153   4.540  15.659  0.3631 -0.5585 -0.1946
   65TMC2    C6 1011   3.188   4.473  15.545 -0.2857 -1.2422  0.2189
   65TMC2     C 1012   3.064   4.253  15.862  0.2671  0.1313 -0.0046
   65TMC2     O 1013   3.025   4.299  15.968 -0.2004 -0.0666  0.6791
   65TMC2     H 1014   3.216   4.154  15.642  0.2267  0.0871 -0.2701
   65TMC2    H1 1015   3.086   4.507  15.857 -3.1954 -1.6434 -1.2359
   65TMC2    H2 1016   3.189   4.523  15.449  1.5991 -1.8812 -0.0862
   65TMC2    C7 1017   3.122   4.681  15.654 -0.6748 -0.1521  0.4616
   65TMC2    C8 1018   3.287   4.285  15.433  0.3713 -0.4385 -0.0489
   65TMC2    O1 1019   3.170   0.006  15.560  0.2910  0.0507 -0.3942
   65TMC2    O2 1020   3.347   4.357  15.350  0.3452 -0.2346 -1.0411
   65TMC2    O5 1021   3.252   4.159  15.403 -0.2846  0.3609 -0.3275
   65TMC2    H5 1022   3.166   4.125  15.435 -0.5704 -0.2168 -1.6747
   66MPD2     C 1023   2.892   4.046  15.994 -0.3284 -0.2383 -0.0180
   66MPD2    C1 1024   2.924   4.050  15.863  0.2075  0.6893  0.2943
   66MPD2    C2 1025   2.877   3.947  15.783 -0.5693  0.7378 -0.6323
   66MPD2    C3 1026   2.793   3.847  15.843  1.2395  0.0354 -0.2477
   66MPD2    C4 1027   2.767   3.854  15.974 -0.1769  0.9220 -1.3465
   66MPD2    C5 1028   2.826   3.948  16.051 -0.5706 -0.6711 -0.2745
   66MPD2     H 1029   2.914   3.946  15.681  1.8249 -1.1567  0.2481
   66MPD2    H1 1030   2.703   3.779  16.020  1.0808  1.1252  0.7364
   66MPD2    H2 1031   2.929   4.122  16.062  0.2113  0.8512 -1.5468
   66MPD2    H3 1032   2.803   3.957  16.157 -0.1039  1.0150 -0.3153
   66MPD2     N 1033   2.742   3.738  15.761 -0.3176 -0.4824  0.0111
   66MPD2    H5 1034   2.692   3.662  15.807  1.7163 -1.1173  1.1922
   66MPD2    N1 1035   3.014   4.142  15.799 -0.1814  0.2646  0.2167
   66MPD2    H7 1036   3.037   4.131  15.701 -2.8509  3.2214 -0.7650
   67TMC2    C1 1037   3.323   3.854  14.405 -0.2617 -0.3960 -0.4832
   67TMC2    C2 1038   3.254   3.976  14.412 -0.0898 -0.0943  0.3926
   67TMC2    C3 1039   3.303   4.064  14.496  0.0793 -0.1474 -0.0981
   67TMC2    C4 1040   3.438   3.833  14.468  0.1927 -0.8522  0.6935
   67TMC2    C5 1041   3.467   3.918  14.569 -0.0314  0.0941  0.4230
   67TMC2    C6 1042   3.397   4.034  14.585 -0.1129  0.1056 -0.3358
   67TMC2     C 1043   3.277   3.755  14.306  0.4464 -0.4124 -0.5168
   67TMC2     O 1044   3.369   3.685  14.268  0.3755  0.0822 -0.0854
   67TMC2     H 1045   3.175   3.996  14.341  0.1925 -0.0791  0.0813
   67TMC2    H1 1046   3.489   3.738  14.456  1.7321  0.1553 -0.8342
   67TMC2    H2 1047   3.427   4.098  14.667 -0.0883  1.3036 -1.2668
   67TMC2    C7 1048   3.586   3.889  14.656  0.8496 -0.5626  0.1521
   67TMC2    C8 1049   3.199   4.157  14.542 -0.0509  0.2048  0.7337
   67TMC2    O1 1050   3.672   3.812  14.621  0.1006 -0.1061 -0.4470
   67TMC2    O2 1051   3.087   4.114  14.569 -0.3905  0.3029  0.0932
   67TMC2    O5 1052   3.275   4.264  14.594 -0.3570 -0.4108 -0.3430
   67TMC2    H5 1053   3.362   4.259  14.549  0.6734 -1.3113  1.7075
   68MPD2     C 1054   3.144   3.626  14.078 -0.3863 -0.7270  0.6938
   68MPD2    C1 1055   3.083   3.712  14.164  0.1075  0.4083  0.4120
   68MPD2    C2 1056   2.950   3.744  14.139 -0.7855 -0.1413 -0.3438
   68MPD2    C3 1057   2.879   3.698  14.028 -0.5816  0.7104 -0.5478
   68MPD2    C4 1058   2.948   3.617  13.942 -0.0715  0.4959  0.7792
   68MPD2    C5 1059   3.082   3.578  13.968 -0.0660 -0.1152 -0.0356
   68MPD2     H 1060   2.897   3.807  14.210 -0.1590  0.0149 -0.0122
   68MPD2    H1 1061   2.900   3.583  13.851  0.3028  0.8478  0.4510
   68MPD2    H2 1062   3.247   3.592  14.089  0.4610  1.8891  0.7647
   68MPD2    H3 1063   3.127   3.509  13.897  1.0396  1.1504 -0.5633
   68MPD2     N 1064   2.745   3.737  13.999  0.2919 -0.0013 -0.6502
   68MPD2    H5 1065   2.705   3.680  13.925 -0.7795  0.5579 -0.5143
   68MPD2    N1 1066   3.148   3.776  14.272  0.4610  0.4236 -0.7611
   68MPD2    H7 1067   3.095   3.838  14.332  0.3346  0.1812 -0.6205
   69TMC2    C1 1068   0.579   4.506  12.301  0.3623 -0.1947  0.4828
   69TMC2    C2 1069   0.448   4.514  12.263  0.1055 -0.5230  0.3175
   69TMC2    C3 1070   0.423   4.552  12.134  0.5133 -0.3766  0.6186
   69TMC2    C4 1071   0.677   4.520  12.212  0.1432  0.3471 -0.4669
   69TMC2    C5 1072   0.650   4.554  12.083 -0.2980 -0.3320 -1.4039
   69TMC2    C6 1073   0.520   4.577  12.044  0.2790 -0.2414  0.5012
   69TMC2     C 1074   0.605   4.417  12.424 -0.6096 -0.5559  0.1131
   69TMC2     O 1075   0.519   4.419  12.511 -0.6942  0.4804  0.2645
   69TMC2     H 1076   0.364   4.483  12.323  0.8941  1.0640  2.2727
   69TMC2    H1 1077   0.780   4.506  12.243  0.2069 -1.2102 -1.3394
   69TMC2    H2 1078   0.490   4.595  11.942 -0.8214  3.6702  1.5376
   69TMC2    C7 1079   0.731   4.469  11.996 -0.1615  0.7030  0.1074
   69TMC2    C8 1080   0.287   4.527  12.087 -1.0529  0.6685  0.5546
   69TMC2    O1 1081   0.782   4.371  12.055  0.1650 -0.2777 -0.0372
   69TMC2    O2 1082   0.212   4.450  12.145 -0.3179 -0.0019  0.2429
   69TMC2    O5 1083   0.244   4.620  12.001 -0.0105  0.0927  0.3270
   69TMC2    H5 1084   0.319   4.682  11.993  0.0073  0.0573  0.2266
   70MPD2     C 1085   0.872   4.173  12.444  0.0374 -1.1375  0.2404
   70MPD2    C1 1086   0.753   4.223  12.477 -0.1254  0.0864 -0.6901
   70MPD2    C2 1087   0.687   4.179  12.590  0.3269  0.5673  0.2668
   70MPD2    C3 1088   0.749   4.077  12.670 -0.2792 -0.2722 -0.0097
   70MPD2    C4 1089   0.869   4.016  12.630 -0.1820 -0.4200  0.0891
   70MPD2    C5 1090   0.928   4.071  12.516 -0.4350  0.4465  0.1003
   70MPD2     H 1091   0.594   4.227  12.621  1.1575  1.9555  0.6219
   70MPD2    H1 1092   0.921   3.939  12.687 -1.3204  0.1628  1.9200
   70MPD2    H2 1093   0.916   4.204  12.350  3.5043  0.6192  2.4274
   70MPD2    H3 1094   1.014   4.019  12.474  1.1128  2.9873  0.0875
   70MPD2     N 1095   0.687   4.023  12.789 -0.0617 -0.3395 -0.0532
   70MPD2    H5 1096   0.734   3.945  12.834 -0.4116 -0.1076  0.7168
   70MPD2    N1 1097   0.712   4.338  12.405  0.5248 -0.1513  0.1086
   70MPD2    H7 1098   0.772   4.359  12.327 -0.5801  0.3782 -0.5899
   71TMC2    C1 1099   2.042   4.521   1.366  0.2623  0.1682  0.1878
   71TMC2    C2 1100   2.107   4.451   1.461 -0.3340  0.6118  0.1571
   71TMC2    C3 1101   2.025   4.387   1.557  0.5376 -0.1248  0.2825
   71TMC2    C4 1102   1.908   4.546   1.370  0.5508  0.4589  0.9739
   71TMC2    C5 1103   1.839   4.486   1.469  0.0085  0.0542 -0.4314
   71TMC2    C6 1104   1.890   4.397   1.560 -0.0839 -0.6130 -0.2405
   71TMC2     C 1105   2.122   4.607   1.270  0.0447  0.1722  0.3085
   71TMC2     O 1106   2.069   4.703   1.225  0.1788 -0.5159 -0.0842
   71TMC2     H 1107   2.215   4.439   1.461 -0.5135 -0.9911  1.3915
   71TMC2    H1 1108   1.869   4.622   1.304  3.1057  1.6835  0.8817
   71TMC2    H2 1109   1.827   4.334   1.622  0.8708 -0.7682  0.5568
   71TMC2    C7 1110   1.699   4.522   1.489 -0.6922 -0.2276 -0.9750
   71TMC2    C8 1111   2.089   4.299   1.647  0.6215 -0.2149 -0.5692
   71TMC2    O1 1112   1.636   4.460   1.573 -0.3305  1.2538 -0.6218
   71TMC2    O2 1113   2.197   4.239   1.628  0.5829 -0.0835 -0.1069
   71TMC2    O5 1114   2.023   4.303   1.758  0.5415 -0.0900 -0.2506
   71TMC2    H5 1115   1.942   4.357   1.749  0.0440 -0.7218  0.4466
   72MPD2     C 1116   2.562   0.035   1.046 -0.4534 -0.4394 -0.2007
   72MPD2    C1 1117   2.429   0.048   1.011 -0.7054 -0.1740 -0.3733
   72MPD2    C2 1118   2.330   4.721   1.081  0.0756 -0.4786 -0.2598
   72MPD2    C3 1119   2.364   4.638   1.187 -0.0807  0.1330 -0.9874
   72MPD2    C4 1120   2.497   4.613   1.214  0.1488  0.8814 -0.5260
   72MPD2    C5 1121   2.597   4.675   1.139 -0.0818 -0.3342 -0.7025
   72MPD2     H 1122   2.229   4.734   1.044  0.3940 -0.4376 -1.1094
   72MPD2    H1 1123   2.532   4.544   1.290  0.3469  0.5077 -0.9580
   72MPD2    H2 1124   2.632   0.082   0.978  2.0754 -2.9928  0.6100
   72MPD2    H3 1125   2.702   4.662   1.164 -0.2018  0.0873  0.0183
   72MPD2     N 1126   2.258   4.567   1.261  0.3950 -0.0435 -0.1181
   72MPD2    H5 1127   2.296   4.480   1.299 -0.2093  0.7169  2.2322
   72MPD2    N1 1128   2.390   0.137   0.908  0.0697  0.0745  0.0156
   72MPD2    H7 1129   2.293   0.166   0.913  0.6849  1.4832  3.7938
   73TMC2    C1 1130   1.606   2.919  13.605 -0.1985 -0.3209  0.0736
   73TMC2    C2 1131   1.517   2.936  13.706  0.5983 -0.5579  0.1898
   73TMC2    C3 1132   1.456   2.823  13.756  0.0180  0.3296 -0.0956
   73TMC2    C4 1133   1.644   2.795  13.556  0.1919 -0.3724  0.2642
   73TMC2    C5 1134   1.579   2.684  13.607 -0.4779  0.0675 -0.0372
   73TMC2    C6 1135   1.489   2.696  13.713  0.5052 -0.3942 -0.5796
   73TMC2     C 1136   1.723   2.999  13.634 -0.5858  0.4318  0.2083
   73TMC2     O 1137   1.829   2.948  13.607 -0.1644  0.0419 -0.1527
   73TMC2     H 1138   1.517   3.028  13.763 -0.4361  0.3912 -1.3605
   73TMC2    H1 1139   1.706   2.788  13.468 -1.8665  0.2675 -1.2556
   73TMC2    H2 1140   1.454   2.612  13.772  2.0729  0.3157  1.3670
   73TMC2    C7 1141   1.674   2.584  13.631  0.4556 -0.0583 -0.6775
   73TMC2    C8 1142   1.424   2.807  13.896 -0.6389  0.0243  0.3445
   73TMC2    O1 1143   1.641   2.465  13.620 -0.4999 -0.0409 -0.2009
   73TMC2    O2 1144   1.470   2.721  13.972  0.3975  0.5000  0.6946
   73TMC2    O5 1145   1.352   2.915  13.934  0.2727 -1.0367 -0.3019
   73TMC2    H5 1146   1.315   2.961  13.855  2.3458 -0.5094 -0.9621
   74MPD2     C 1147   2.005   3.408  13.714 -0.6194  0.3091 -0.4928
   74MPD2    C1 1148   2.031   3.275  13.731  0.1561  0.4052 -0.2351
   74MPD2    C2 1149   1.922   3.191  13.717  0.3881 -0.0743  0.0433
   74MPD2    C3 1150   1.799   3.223  13.669 -0.2255 -0.0353  0.4386
   74MPD2    C4 1151   1.782   3.357  13.639 -1.1326 -0.4186 -0.1137
   74MPD2    C5 1152   1.881   3.446  13.665 -0.4392  0.1221  0.1321
   74MPD2     H 1153   1.939   3.087  13.742 -1.0262 -0.3616 -0.2081
   74MPD2    H1 1154   1.691   3.395  13.594 -1.5098  1.1549  2.0090
   74MPD2    H2 1155   2.079   3.486  13.722  1.1822 -1.1837 -2.5638
   74MPD2    H3 1156   1.864   3.550  13.639 -0.1933 -0.0165 -0.5869
   74MPD2     N 1157   1.698   3.128  13.650  0.2361  0.4497 -0.6072
   74MPD2    H5 1158   1.612   3.166  13.610 -0.5460  0.2759  0.9204
   74MPD2    N1 1159   2.152   3.227  13.771  0.7124 -0.0479  0.3252
   74MPD2    H7 1160   2.224   3.295  13.794 -0.5717  1.9136 -1.3926
   75TMC2    C1 1161   2.530   3.837  14.039 -0.0832 -0.8424 -0.3274
   75TMC2    C2 1162   2.460   3.932  14.116 -0.1747 -0.8824  0.0410
   75TMC2    C3 1163   2.332   3.970  14.079 -0.4286 -0.2498 -0.9149
   75TMC2    C4 1164   2.462   3.783  13.929 -0.1317  0.8782  0.2224
   75TMC2    C5 1165   2.340   3.840  13.884  0.1305 -0.2220  0.0020
   75TMC2    C6 1166   2.281   3.943  13.961 -0.0433  0.3808  0.0781
   75TMC2     C 1167   2.667   3.819  14.080  0.2015 -0.3065  0.0222
   75TMC2     O 1168   2.694   3.875  14.185 -0.5098  0.2175  0.0906
   75TMC2     H 1169   2.509   3.992  14.192  3.3180 -1.5377 -1.6983
   75TMC2    H1 1170   2.493   3.698  13.869  0.8973  1.1368  0.3928
   75TMC2    H2 1171   2.186   3.991  13.943 -0.3626  0.3011  1.5904
   75TMC2    C7 1172   2.266   3.786  13.771  0.6240 -0.6676 -0.3260
   75TMC2    C8 1173   2.272   4.081  14.152  0.0689  0.0849  0.6020
   75TMC2    O1 1174   2.326   3.700  13.707  0.0161 -0.1085  0.4286
   75TMC2    O2 1175   2.222   4.178  14.100 -0.2975  0.5546 -1.0823
   75TMC2    O5 1176   2.236   4.037  14.272  0.2986  0.1435 -0.3296
   75TMC2    H5 1177   2.271   3.946  14.288 -2.0301 -0.4293  1.5823
   76TMC2    C1 1178   2.009   4.089  12.237  0.3041 -0.4415 -0.0083
   76TMC2    C2 1179   2.111   4.002  12.253  0.1953  0.0966 -0.1732
   76TMC2    C3 1180   2.174   3.992  12.370  0.2285 -0.3937  0.1218
   76TMC2    C4 1181   1.984   4.178  12.342 -0.3003  0.0250  0.0018
   76TMC2    C5 1182   2.062   4.173  12.451  0.0572 -0.1950 -0.3644
   76TMC2    C6 1183   2.151   4.077  12.471 -0.6734  0.4237  0.3039
   76TMC2     C 1184   1.894   4.044  12.172  0.7977  0.0498  0.6400
   76TMC2     O 1185   1.831   4.126  12.107  0.3928 -0.7036  0.0689
   76TMC2     H 1186   2.129   3.936  12.168  1.2301 -1.1364  1.0154
   76TMC2    H1 1187   1.914   4.259  12.321 -1.5084 -1.2696 -1.0142
   76TMC2    H2 1188   2.204   4.056  12.563  0.4580 -0.2074 -0.4939
   76TMC2    C7 1189   2.032   4.273  12.562  0.3277 -0.2939  0.3185
   76TMC2    C8 1190   2.287   3.910  12.392 -0.4205  0.3500 -0.6750
   76TMC2    O1 1191   2.003   4.383  12.522 -0.2258 -0.3692 -0.0748
   76TMC2    O2 1192   2.404   3.947  12.386 -0.3241 -0.6252 -0.5189
   76TMC2    O5 1193   2.241   3.788  12.436  0.1810 -0.2065  0.1636
   76TMC2    H5 1194   2.146   3.796  12.456  0.5021 -0.0821  1.6085
   77MPD2     C 1195   1.498   3.709  12.130  0.4044  0.2263  0.0800
   77MPD2    C1 1196   1.545   3.819  12.052 -0.3496  0.3471  0.5049
   77MPD2    C2 1197   1.655   3.894  12.083  0.0390 -0.0892 -0.2367
   77MPD2    C3 1198   1.735   3.856  12.190  1.0660  0.5552 -0.4352
   77MPD2    C4 1199   1.697   3.747  12.271 -0.1809  0.3837 -0.7307
   77MPD2    C5 1200   1.581   3.676  12.235  0.1885 -0.2916  0.5777
   77MPD2     H 1201   1.671   3.983  12.023  0.7353 -0.2195 -0.2418
   77MPD2    H1 1202   1.757   3.704  12.350 -0.9107  2.9395  1.1936
   77MPD2    H2 1203   1.417   3.641  12.108 -0.0278  0.9055 -0.4199
   77MPD2    H3 1204   1.554   3.594  12.300 -0.8377 -0.2129  0.2441
   77MPD2     N 1205   1.857   3.924  12.225  0.5012  0.2167  0.5053
   77MPD2    H5 1206   1.903   3.883  12.305  2.1079  0.2472 -0.4063
   77MPD2    N1 1207   1.465   3.866  11.955  0.5881 -0.1936  0.0691
   77MPD2    H7 1208   1.507   3.940  11.899 -0.6329 -0.2856 -0.9703
   78TMC2    C1 1209   2.028   4.123   1.272 -0.9959  0.5242 -0.1391
   78TMC2    C2 1210   1.976   4.006   1.325  0.1818  0.6163 -0.8267
   78TMC2    C3 1211   2.053   3.897   1.330  0.0400  0.1349  0.5177
   78TMC2    C4 1212   2.162   4.131   1.238 -0.5010 -0.6907 -1.0173
   78TMC2    C5 1213   2.232   4.016   1.237  0.5757 -0.1720 -0.0322
   78TMC2    C6 1214   2.183   3.896   1.284  0.1125  1.1704 -0.0915
   78TMC2     C 1215   1.942   4.225   1.212  0.7291 -0.7869 -0.1599
   78TMC2     O 1216   2.000   4.300   1.139 -0.0768 -0.1476 -0.3481
   78TMC2     H 1217   1.873   4.000   1.359  0.6482  0.5045  0.5700
   78TMC2    H1 1218   2.198   4.224   1.196  0.7491  0.7253  3.2427
   78TMC2    H2 1219   2.244   3.807   1.291 -0.1866  1.1271  2.0260
   78TMC2    C7 1220   2.368   4.011   1.185  0.0762  0.6577  0.1624
   78TMC2    C8 1221   2.012   3.788   1.419  0.3932 -0.5814 -0.6431
   78TMC2    O1 1222   2.422   4.116   1.163  0.3316  0.4858 -0.9740
   78TMC2    O2 1223   1.895   3.749   1.421 -0.2490 -0.6082 -0.8473
   78TMC2    O5 1224   2.117   3.778   1.506 -0.4413 -0.2245 -0.5290
   78TMC2    H5 1225   2.184   3.847   1.489 -0.6713  0.1249 -0.0011
   79MPD1     C 1226   1.481   4.415   1.105 -0.3442  0.1860  0.3904
   79MPD1    C1 1227   1.602   4.466   1.064  0.0981  0.2249 -0.4978
   79MPD1    C2 1228   1.710   4.399   1.114 -0.0949 -0.1525  0.2756
   79MPD1    C3 1229   1.708   4.290   1.202 -0.1333  0.4528  0.5203
   79MPD1    C4 1230   1.582   4.258   1.254  0.6526  0.3371  0.8505
   79MPD1    C5 1231   1.469   4.323   1.207  0.0813 -0.4167  0.1150
   79MPD1     H 1232   1.807   4.425   1.075  1.0398  2.0689  4.4825
   79MPD1    H1 1233   1.579   4.187   1.337  0.5043 -0.4425  0.1833
   79MPD1    H2 1234   1.391   4.465   1.073 -1.6310 -2.1893  0.3601
   79MPD1    H3 1235   1.372   4.298   1.247  0.2119  0.4778  0.9906
   79MPD1     N 1236   1.810   4.213   1.242 -0.3372  0.0084  0.1105
   79MPD1    H5 1237   1.799   4.156   1.326  0.8527  0.6698  0.7299
   79MPD1    N1 1238   1.622   4.569   0.965 -0.5433  0.0936  0.6293
   79MPD1    H6 1239   1.717   4.604   0.956 -0.2483 -0.5413  1.1732
   79MPD1    H7 1240   1.553   4.641   0.984  0.3366  0.6617  1.7169
   80TMC2    C1 1241   0.729   3.349  11.864 -0.3340  0.4024  0.3844
   80TMC2    C2 1242   0.753   3.418  11.743  0.0412  0.3251 -0.6661
   80TMC2    C3 1243   0.647   3.444  11.665  0.1712 -0.4058 -0.4221
   80TMC2    C4 1244   0.602   3.312  11.894  0.3307 -0.6198  0.0357
   80TMC2    C5 1245   0.508   3.331  11.800  0.1812  0.4021 -0.0191
   80TMC2    C6 1246   0.524   3.401  11.687  0.4641 -0.1062 -0.0973
   80TMC2     C 1247   0.824   3.385  11.968  0.2402 -0.4888 -1.2030
   80TMC2     O 1248   0.942   3.389  11.932  0.4483 -0.0999 -0.0985
   80TMC2     H 1249   0.852   3.459  11.729  0.2524  0.3711  0.8943
   80TMC2    H1 1250   0.581   3.270  11.992  2.0202  0.8222  1.0240
   80TMC2    H2 1251   0.447   3.405  11.611 -2.2189 -1.5519  2.5264
   80TMC2    C7 1252   0.370   3.300  11.849 -0.6462  0.1071  0.3752
   80TMC2    C8 1253   0.663   3.544  11.561 -0.2186  0.4410 -0.1400
   80TMC2    O1 1254   0.288   3.378  11.809  0.5211  0.2134  0.1382
   80TMC2    O2 1255   0.770   3.550  11.500  0.5111 -0.1458  0.0632
   80TMC2    O5 1256   0.593   3.653  11.602 -0.2450 -0.3271 -0.6530
   80TMC2    H5 1257   0.514   3.633  11.658 -0.6546 -0.7826 -1.3963
   81MPD2     C 1258   0.965   3.454  12.221  0.1939  0.1102  0.1801
   81MPD2    C1 1259   0.830   3.462  12.204 -0.3768 -0.0147 -0.0625
   81MPD2    C2 1260   0.743   3.511  12.300  0.0151 -0.1936 -0.4378
   81MPD2    C3 1261   0.800   3.565  12.411 -0.0702 -0.0618  1.0205
   81MPD2    C4 1262   0.936   3.545  12.435 -0.5131  0.0456  0.1187
   81MPD2    C5 1263   1.018   3.486  12.343  0.1217  0.4637  0.3905
   81MPD2     H 1264   0.637   3.517  12.280 -0.4069  0.2200  1.9433
   81MPD2    H1 1265   0.983   3.585  12.523 -0.0525 -0.6998  0.2136
   81MPD2    H2 1266   1.028   3.407  12.147 -0.8211 -2.5209  0.9738
   81MPD2    H3 1267   1.125   3.470  12.354  0.3227  0.2469 -1.8386
   81MPD2     N 1268   0.732   3.629  12.513 -0.1773  0.9149  0.4900
   81MPD2    H5 1269   0.779   3.653  12.600  0.6472 -0.3782  0.4119
   81MPD2    N1 1270   0.765   3.408  12.088  0.0627 -0.4831  1.0417
   81MPD2    H7 1271   0.664   3.415  12.089  0.1082 -0.0009  2.7419
   82TMC2    C1 1272   3.792   2.927  10.985 -0.1909  0.0210  0.3878
   82TMC2    C2 1273   3.873   3.004  11.061 -0.0797  0.4359  0.1390
   82TMC2    C3 1274   3.938   2.950  11.163 -0.3226 -0.6615 -0.2703
   82TMC2    C4 1275   3.781   2.795  11.016 -0.0777  0.3873  0.4940
   82TMC2    C5 1276   3.861   2.733  11.116 -0.3438 -0.0106 -0.5599
   82TMC2    C6 1277   3.937   2.815  11.193 -0.0836  0.1786  0.3948
   82TMC2     C 1278   3.678   3.003  10.953 -0.7499 -0.0376  0.5624
   82TMC2     O 1279   3.575   2.944  10.930  0.8194  0.0103  0.1671
   82TMC2     H 1280   3.895   3.110  11.050  0.0691  0.3829 -0.0727
   82TMC2    H1 1281   3.715   2.732  10.957 -1.1957  1.2852  0.8015
   82TMC2    H2 1282   3.989   2.772  11.278 -0.4189 -2.1958 -0.5884
   82TMC2    C7 1283   3.799   2.624  11.182  0.6556  0.1986  0.6292
   82TMC2    C8 1284   4.044   3.028  11.227 -0.4282 -0.1236  0.1518
   82TMC2    O1 1285   3.811   2.625  11.305  0.8048  0.3065 -0.9659
   82TMC2    O2 1286   4.164   3.035  11.203  0.4338 -0.0162 -0.2141
   82TMC2    O5 1287   3.979   3.131  11.278 -0.2706 -0.1191 -0.4381
   82TMC2    H5 1288   3.884   3.109  11.285 -0.2937  0.3308  0.7544
   83MPD2     C 1289   3.390   3.400  10.872  0.4789  0.2601 -0.5780
   83MPD2    C1 1290   3.378   3.296  10.972  0.3689 -0.0565  0.1171
   83MPD2    C2 1291   3.483   3.208  10.992  0.2527 -0.8207 -0.3541
   83MPD2    C3 1292   3.596   3.224  10.915 -0.9553  0.2091  0.6355
   83MPD2    C4 1293   3.617   3.332  10.835  0.2839 -0.3414 -0.3706
   83MPD2    C5 1294   3.517   3.418  10.812 -0.5347  0.3783  0.4973
   83MPD2     H 1295   3.486   3.131  11.068  0.3739  1.0791  1.5912
   83MPD2    H1 1296   3.711   3.348  10.783  1.7182  0.2140  2.4242
   83MPD2    H2 1297   3.305   3.465  10.856  0.5246 -0.1006 -2.2843
   83MPD2    H3 1298   3.530   3.506  10.750 -2.9865 -0.0291 -0.6203
   83MPD2     N 1299   3.705   3.136  10.923  0.0800 -0.0512  0.3822
   83MPD2    H5 1300   3.796   3.162  10.889 -0.8339 -0.2386 -2.1785
   83MPD2    N1 1301   3.255   3.288  11.046 -0.4946 -0.1388  0.3058
   83MPD2    H7 1302   3.184   3.354  11.017  0.5398  1.5613  1.6564
   84TMC2    C1 1303   0.468   2.047  11.149  0.4196  0.0343  0.2543
   84TMC2    C2 1304   0.607   2.071  11.140  0.0649  0.1840 -0.2821
   84TMC2    C3 1305   0.663   2.070  11.011  0.0171  0.2762 -0.2573
   84TMC2    C4 1306   0.393   2.040  11.036  0.4017 -0.8325  0.4907
   84TMC2    C5 1307   0.451   2.044  10.909 -0.1273 -0.3343 -0.1848
   84TMC2    C6 1308   0.588   2.055  10.895 -0.8807 -0.0036 -0.6159
   84TMC2     C 1309   0.399   2.103  11.263 -0.4815 -0.2325 -0.7150
   84TMC2     O 1310   0.279   2.095  11.262  0.4341 -0.0810 -0.3570
   84TMC2     H 1311   0.673   2.083  11.224  2.4283 -0.2317 -2.0817
   84TMC2    H1 1312   0.285   2.032  11.044  0.1981  1.0911 -0.4171
   84TMC2    H2 1313   0.631   2.053  10.795 -1.0389  0.3804 -0.6920
   84TMC2    C7 1314   0.359   2.027  10.802 -0.3445 -0.8174 -0.1606
   84TMC2    C8 1315   0.810   2.075  11.011  0.3653  0.8205  0.0566
   84TMC2    O1 1316   0.266   1.953  10.824 -0.2146 -0.1216 -0.2935
   84TMC2    O2 1317   0.872   2.038  10.915 -0.2456 -0.8251  0.4975
   84TMC2    O5 1318   0.845   2.179  11.084  0.2459 -0.3311  0.0058
   84TMC2    H5 1319   0.769   2.224  11.126  0.4955  0.5627 -0.4899
   85TMC2    C1 1320   0.473   1.037  15.975  0.0890  0.2980  0.3413
   85TMC2    C2 1321   0.484   1.171  15.938 -0.2733 -0.7018 -0.3096
   85TMC2    C3 1322   0.581   1.204  15.846 -0.1246 -0.6017 -0.3917
   85TMC2    C4 1323   0.551   0.933  15.919  0.7692 -0.0843 -0.0742
   85TMC2    C5 1324   0.646   0.972  15.835 -0.7556  0.2228  0.7654
   85TMC2    C6 1325   0.658   1.105  15.791 -0.2190  0.2234 -0.1683
   85TMC2     C 1326   0.378   1.007  16.082 -0.2136 -0.0360 -0.7580
   85TMC2     O 1327   0.337   1.102  16.147  0.6854 -0.3244 -0.0070
   85TMC2     H 1328   0.425   1.246  15.989  1.6453  0.2731  0.4645
   85TMC2    H1 1329   0.535   0.831  15.951 -1.4716  0.3155  0.1418
   85TMC2    H2 1330   0.741   1.135  15.728  0.3642  2.4335  1.6582
   85TMC2    C7 1331   0.712   0.871  15.760 -0.2760  0.2414  0.4981
   85TMC2    C8 1332   0.634   1.334  15.858  0.0378  0.2604  0.5621
   85TMC2    O1 1333   0.697   0.759  15.797 -0.4835  0.0070 -0.0516
   85TMC2    O2 1334   0.751   1.362  15.844 -0.2393  0.6310 -0.1727
   85TMC2    O5 1335   0.529   1.420  15.890 -0.0314 -0.1619 -0.2757
   85TMC2    H5 1336   0.440   1.379  15.887 -0.2986  0.4185 -0.1990
   86MPD2     C 1337   0.089   0.697  16.366  0.3609  0.9095 -0.1077
   86MPD2    C1 1338   0.166   0.620  16.282  0.7492 -0.1837 -0.0310
   86MPD2    C2 1339   0.246   0.684  16.187 -0.4251 -0.1237 -0.0736
   86MPD2    C3 1340   0.276   0.819  16.192  0.3618  0.1185 -0.0735
   86MPD2    C4 1341   0.229   0.891  16.304 -0.2350 -0.6462  0.6654
   86MPD2    C5 1342   0.127   0.826  16.374 -0.0489 -0.3462 -0.4642
   86MPD2     H 1343   0.283   0.626  16.104  0.5131  0.2066  0.1130
   86MPD2    H1 1344   0.251   0.995  16.325  1.9633 -0.1168 -4.2913
   86MPD2    H2 1345   0.010   0.647  16.421  0.3395  0.7546 -0.2801
   86MPD2    H3 1346   0.070   0.884  16.446  1.1705  1.1450 -0.6918
   86MPD2     N 1347   0.355   0.872  16.091 -0.2222  0.1939 -0.2460
   86MPD2    H5 1348   0.381   0.815  16.012  1.1698  1.0183 -0.3959
   86MPD2    N1 1349   0.136   0.480  16.254 -0.1607  0.8838  0.3458
   86MPD2    H7 1350   0.166   0.436  16.167  0.8799  0.5784  0.8646
   87TMC2    C1 1351   2.600   3.331   1.111  0.3909  0.1515 -0.0270
   87TMC2    C2 1352   2.689   3.419   1.168 -0.1535 -0.3954 -0.2916
   87TMC2    C3 1353   2.640   3.527   1.237 -0.4906 -0.5662 -0.4765
   87TMC2    C4 1354   2.465   3.355   1.113 -0.1186  0.5244 -0.7446
   87TMC2    C5 1355   2.421   3.469   1.179 -0.2403 -0.0716  0.0095
   87TMC2    C6 1356   2.506   3.555   1.244  0.5421 -0.2755  0.1239
   87TMC2     C 1357   2.642   3.257   0.989 -0.4259  0.2920 -0.3762
   87TMC2     O 1358   2.566   3.279   0.893  0.3161  0.2732  0.1835
   87TMC2     H 1359   2.796   3.400   1.168 -0.3107 -1.3022 -0.9126
   87TMC2    H1 1360   2.403   3.290   1.052 -0.9643 -0.4042  1.1091
   87TMC2    H2 1361   2.473   3.649   1.287  1.6553  0.1056  0.1325
   87TMC2    C7 1362   2.296   3.525   1.134 -0.4909  0.0530  0.6448
   87TMC2    C8 1363   2.724   3.604   1.321 -0.3662  0.3652  0.4408
   87TMC2    O1 1364   2.273   3.647   1.135  0.6328  0.1629  0.2166
   87TMC2    O2 1365   2.685   3.664   1.420 -0.2221 -0.7677 -0.1040
   87TMC2    O5 1366   2.851   3.604   1.282 -0.2280 -0.1336 -0.2267
   87TMC2    H5 1367   2.852   3.582   1.186 -1.2791 -0.1823 -0.2214
   88MPD2     C 1368   2.021   3.364   0.961  0.2321 -0.0923  0.5498
   88MPD2    C1 1369   2.090   3.464   1.018  0.3407  0.2866  0.3589
   88MPD2    C2 1370   2.033   3.590   1.014  0.3209  0.1809 -0.2089
   88MPD2    C3 1371   1.910   3.615   0.952 -0.7270  0.3411 -0.0328
   88MPD2    C4 1372   1.841   3.505   0.910 -0.1969 -0.3134 -0.0059
   88MPD2    C5 1373   1.895   3.383   0.916 -0.5019  0.1075  0.5545
   88MPD2     H 1374   2.074   3.679   1.061 -2.2142  1.3753 -0.2692
   88MPD2    H1 1375   1.745   3.516   0.860 -1.2071  0.4655  2.0436
   88MPD2    H2 1376   2.072   3.269   0.947 -1.8499 -1.2172  0.5100
   88MPD2    H3 1377   1.836   3.300   0.880 -0.0497  0.4776 -1.0578
   88MPD2     N 1378   1.863   3.740   0.914  0.4587 -0.4620  0.6146
   88MPD2    H5 1379   1.779   3.740   0.858  0.4706  2.8186  0.6136
   88MPD2    N1 1380   2.210   3.430   1.085 -0.0460 -0.3365  0.1098
   88MPD2    H7 1381   2.226   3.330   1.090 -1.3525 -0.5702 -0.2981
   89TMC2    C1 1382   3.549   1.779   1.151 -0.0515 -0.6722  0.1241
   89TMC2    C2 1383   3.642   1.807   1.056 -0.5364 -0.2936 -1.4308
   89TMC2    C3 1384   3.682   1.941   1.039  0.3467  0.7267 -1.0569
   89TMC2    C4 1385   3.486   1.879   1.212  0.4096  0.4106 -0.2598
   89TMC2    C5 1386   3.524   2.011   1.188 -0.0907  0.2157 -0.7070
   89TMC2    C6 1387   3.626   2.044   1.103 -0.6133 -0.0448  0.3529
   89TMC2     C 1388   3.495   1.644   1.153 -0.2116  0.3249  0.5958
   89TMC2     O 1389   3.557   1.549   1.109  0.3982 -0.1914 -0.0441
   89TMC2     H 1390   3.690   1.726   1.003 -1.9395 -0.6131 -2.1926
   89TMC2    H1 1391   3.420   1.859   1.296  1.0553 -0.8392 -0.0611
   89TMC2    H2 1392   3.660   2.146   1.092 -0.3963 -0.3170 -1.5118
   89TMC2    C7 1393   3.455   2.117   1.263 -0.3406 -0.5745 -0.2107
   89TMC2    C8 1394   3.796   1.970   0.958  0.0244 -0.7819 -0.2355
   89TMC2    O1 1395   3.398   2.090   1.371  0.3576  0.5642 -0.1946
   89TMC2    O2 1396   3.839   2.086   0.945  0.2557  0.1897  0.0916
   89TMC2    O5 1397   3.847   1.861   0.892 -0.0203 -0.0356  0.4193
   89TMC2    H5 1398   3.845   1.780   0.949 -1.5473 -0.7028 -0.6044
   90MPD2     C 1399   3.092   1.316   1.171  0.0544  0.4230  0.0871
   90MPD2    C1 1400   3.044   1.445   1.198 -0.0101  0.3853 -0.4391
   90MPD2    C2 1401   3.133   1.552   1.213 -0.5989 -0.5547 -0.7342
   90MPD2    C3 1402   3.275   1.532   1.199 -0.2960 -0.5966 -0.4294
   90MPD2    C4 1403   3.313   1.402   1.184 -0.9150  0.8233  0.7641
   90MPD2    C5 1404   3.227   1.299   1.160  0.0287  0.5371  0.0086
   90MPD2     H 1405   3.094   1.652   1.228  0.5979 -0.1902  0.0106
   90MPD2    H1 1406   3.419   1.378   1.191 -1.6110 -2.7927 -1.2620
   90MPD2    H2 1407   3.037   1.224   1.183 -1.2669  1.0068 -1.5125
   90MPD2    H3 1408   3.264   1.198   1.148 -0.5158  0.5414 -1.6302
   90MPD2     N 1409   3.362   1.641   1.191 -0.1476  0.5058  0.4543
   90MPD2    H5 1410   3.316   1.729   1.213  0.9568  1.0360  0.6419
   90MPD2    N1 1411   2.903   1.463   1.208 -0.1861 -0.3882  0.5212
   90MPD2    H7 1412   2.876   1.542   1.264  1.5642 -0.5214  1.5212
   91TMC2    C1 1413   0.252   1.940  16.265  0.1912 -0.0110  0.2696
   91TMC2    C2 1414   0.277   1.945  16.398 -0.4574 -0.4374  0.2789
   91TMC2    C3 1415   0.184   1.892  16.476 -0.1310  0.2956  0.0359
   91TMC2    C4 1416   0.145   1.875  16.210 -0.7811 -0.1794 -0.3931
   91TMC2    C5 1417   0.065   1.810  16.301  0.5239  0.3284  0.2455
   91TMC2    C6 1418   0.095   1.797  16.431 -0.2589  0.3792  0.3357
   91TMC2     C 1419   0.360   1.977  16.181  0.1944 -0.1543 -0.3750
   91TMC2     O 1420   0.348   1.980  16.058 -0.1255  0.3883 -0.9608
   91TMC2     H 1421   0.341   2.020  16.444  1.9924 -1.6713 -1.0965
   91TMC2    H1 1422   0.136   1.880  16.102  0.2776  0.8698 -0.4396
   91TMC2    H2 1423   0.046   1.718  16.486 -1.4459 -0.8740 -2.5394
   91TMC2    C7 1424   4.702   1.720  16.251 -0.6219  0.0061  0.5220
   91TMC2    C8 1425   0.226   1.881  16.613  0.3786 -0.3156  0.1819
   91TMC2    O1 1426   4.668   1.625  16.320  0.6438  0.3175 -0.1977
   91TMC2    O2 1427   0.337   1.846  16.633 -0.2298 -0.2363 -0.0381
   91TMC2    O5 1428   0.116   1.867  16.689  0.0623 -0.0884  0.1772
   91TMC2    H5 1429   0.034   1.902  16.650  1.1309  0.2529 -1.7740
   92MPD2     C 1430   0.609   2.090  16.085 -0.8282  0.1695 -0.7972
   92MPD2    C1 1431   0.596   2.020  16.204  0.0158  0.4414  0.1723
   92MPD2    C2 1432   0.710   1.993  16.286 -0.5476  0.0513 -0.1207
   92MPD2    C3 1433   0.830   2.030  16.247 -0.1851 -0.6042  1.0521
   92MPD2    C4 1434   0.840   2.095  16.122  0.8006 -0.3355 -0.0085
   92MPD2    C5 1435   0.733   2.117  16.040  0.2482 -0.1001 -0.1980
   92MPD2     H 1436   0.698   1.948  16.384  0.4813 -2.3802 -1.1136
   92MPD2    H1 1437   0.939   2.129  16.093  1.1896  1.7082  3.7436
   92MPD2    H2 1438   0.529   2.103  16.013  0.2922  4.0787 -1.3088
   92MPD2    H3 1439   0.745   2.164  15.943 -0.5804 -1.3518 -0.9107
   92MPD2     N 1440   0.939   1.992  16.322 -0.8847  0.3158 -0.9607
   92MPD2    H5 1441   0.922   1.939  16.407  1.8112 -1.3077 -1.4120
   92MPD2    N1 1442   0.472   1.981  16.256  0.0424 -0.0486 -0.7021
   92MPD2    H7 1443   0.476   1.928  16.343  1.4092 -0.0825 -0.7902
   93TMC2    C1 1444   2.096   1.792  13.988 -0.7608 -0.7028 -0.3619
   93TMC2    C2 1445   2.085   1.705  13.882  0.1934 -0.0053 -0.3139
   93TMC2    C3 1446   2.205   1.672  13.825 -0.2217  0.8230 -0.8677
   93TMC2    C4 1447   2.211   1.861  14.022  0.1907 -0.3262  0.6839
   93TMC2    C5 1448   2.323   1.825  13.955 -0.0153 -0.4503  0.4076
   93TMC2    C6 1449   2.323   1.731  13.851 -0.6476  0.0325 -0.1332
   93TMC2     C 1450   1.981   1.821  14.063 -0.3066  0.7444 -0.0362
   93TMC2     O 1451   1.982   1.921  14.130  0.2089  0.5294 -0.3390
   93TMC2     H 1452   1.995   1.654  13.853 -1.6212  1.5987  2.4312
   93TMC2    H1 1453   2.201   1.953  14.078  3.2562  0.1385  0.4695
   93TMC2    H2 1454   2.411   1.682  13.812  1.2384 -0.4649  4.7351
   93TMC2    C7 1455   2.455   1.862  14.002  0.2846  0.8524  0.3933
   93TMC2    C8 1456   2.211   1.548  13.746  0.6484 -0.5413  0.4808
   93TMC2    O1 1457   2.542   1.819  13.923  0.3365  0.3950  0.0403
   93TMC2    O2 1458   2.135   1.453  13.774 -0.1467  0.4086  0.1071
   93TMC2    O5 1459   2.254   1.580  13.625 -0.5054 -0.4791  0.2727
   93TMC2    H5 1460   2.283   1.674  13.620  2.4186 -1.1953  3.3144
   94MPD2     C 1461   1.689   1.887  14.093  0.0395 -0.0774 -1.3578
   94MPD2    C1 1462   1.737   1.770  14.045 -0.3213 -0.4964 -0.9267
   94MPD2    C2 1463   1.653   1.685  13.971  0.0353 -0.7817 -0.3001
   94MPD2    C3 1464   1.520   1.711  13.951  1.0905 -0.1898 -0.2200
   94MPD2    C4 1465   1.474   1.830  14.009 -0.3382 -0.3142 -0.2064
   94MPD2    C5 1466   1.556   1.913  14.078  0.2210  0.3616 -0.8268
   94MPD2     H 1467   1.695   1.596  13.924  2.3206  0.1962 -0.1093
   94MPD2    H1 1468   1.375   1.871  13.998  0.3396  1.5574  0.7741
   94MPD2    H2 1469   1.750   1.968  14.131 -0.0437 -0.6999  0.1066
   94MPD2    H3 1470   1.511   2.006  14.112 -0.9808  0.3943 -2.4681
   94MPD2     N 1471   1.437   1.635  13.872 -0.0086  0.5244 -0.1685
   94MPD2    H5 1472   1.491   1.569  13.817  1.3391 -0.6272  2.4990
   94MPD2    N1 1473   1.876   1.734  14.034 -0.4497  0.0699 -0.3036
   94MPD2    H7 1474   1.893   1.648  13.983 -0.9096  1.0307 -2.0893
   95TMC2    C1 1475   2.213   2.828  16.034  0.0285 -0.0853  0.6489
   95TMC2    C2 1476   2.094   2.849  16.089 -0.0146 -0.3772 -0.2942
   95TMC2    C3 1477   2.034   2.736  16.140  0.7547 -0.2495 -0.2394
   95TMC2    C4 1478   2.266   2.704  16.006 -0.6609 -0.4202 -0.6336
   95TMC2    C5 1479   2.191   2.597  16.036 -0.6335 -0.6375 -0.1629
   95TMC2    C6 1480   2.077   2.620  16.099  0.2542  0.3728 -0.5695
   95TMC2     C 1481   2.252   2.933  15.934 -0.4790  0.2851 -0.0195
   95TMC2     O 1482   2.374   2.946  15.911 -0.1734 -0.2906  0.1214
   95TMC2     H 1483   2.053   2.949  16.100 -1.5587 -1.0720  0.2659
   95TMC2    H1 1484   2.355   2.701  15.945 -0.3516 -1.5850 -0.1366
   95TMC2    H2 1485   2.018   2.540  16.142  1.2015 -0.0994 -0.1384
   95TMC2    C7 1486   2.260   2.472  16.054 -0.6688  0.1376 -0.0877
   95TMC2    C8 1487   1.901   2.735  16.203  0.0610 -0.1090 -0.1803
   95TMC2    O1 1488   2.201   2.399  16.133  0.0294  0.5553  0.0810
   95TMC2    O2 1489   1.832   2.639  16.228 -0.2620 -0.1982  0.2957
   95TMC2    O5 1490   1.901   2.833  16.292  0.3139  0.4252  0.2410
   95TMC2    H5 1491   1.973   2.897  16.277 -1.7577  2.3210 -1.5885
   96MPD2     C 1492   2.109   3.284  15.588 -0.0933  0.3917  0.5203
   96MPD2    C1 1493   2.231   3.264  15.646 -0.2101  0.9317 -0.3135
   96MPD2    C2 1494   2.245   3.162  15.745 -0.1672  0.4599 -0.3430
   96MPD2    C3 1495   2.135   3.083  15.776 -0.2179  0.2142  0.5667
   96MPD2    C4 1496   2.015   3.111  15.714 -0.3525  0.1923  0.4078
   96MPD2    C5 1497   2.003   3.200  15.606 -0.0451  0.0456  0.2171
   96MPD2     H 1498   2.341   3.158  15.796 -0.7970  1.1548  0.8819
   96MPD2    H1 1499   1.929   3.049  15.733 -0.6741  0.1766 -1.0581
   96MPD2    H2 1500   2.087   3.363  15.518  0.1378  0.0469  0.0587
   96MPD2    H3 1501   1.910   3.217  15.553 -1.8360  0.1487  3.3591
   96MPD2     N 1502   2.140   2.978  15.871  0.5223  0.1462  0.8184
   96MPD2    H5 1503   2.061   2.917  15.891 -0.5824  1.4401  0.3395
   96MPD2    N1 1504   2.346   3.344  15.607 -0.0843  0.3269 -0.4972
   96MPD2    H7 1505   2.337   3.410  15.530 -1.1713  3.3183  2.1884
   97TMC2    C1 1506   3.667   1.548  17.463 -0.4654  0.0693 -0.2931
   97TMC2    C2 1507   3.592   1.621  17.377  0.2580  0.6978 -0.0979
   97TMC2    C3 1508   3.648   1.737  17.330  1.0833 -0.2965  0.5060
   97TMC2    C4 1509   3.795   1.588  17.506  0.0636 -0.6615  0.4367
   97TMC2    C5 1510   3.840   1.712  17.458  0.0275 -0.1602 -0.8740
   97TMC2    C6 1511   3.766   1.788  17.369  0.0691 -0.3456  0.5462
   97TMC2     C 1512   3.606   1.428  17.523  0.0048  0.3537 -0.1836
   97TMC2     O 1513   3.672   1.346  17.583  0.3206  0.0301  0.0578
   97TMC2     H 1514   3.502   1.583  17.330 -0.7159 -0.9021  3.0772
   97TMC2    H1 1515   3.847   1.530  17.581  1.3659 -0.1738 -0.1005
   97TMC2    H2 1516   3.784   1.893  17.348  0.2300 -0.5090 -0.1098
   97TMC2    C7 1517   3.963   1.781  17.506 -0.0598 -0.3928 -0.0373
   97TMC2    C8 1518   3.575   1.817  17.244  0.3437 -0.1049  0.5562
   97TMC2    O1 1519   4.011   1.739  17.609 -0.0288  0.5424  0.0568
   97TMC2    O2 1520   3.463   1.783  17.221  0.2727  0.2091  0.1070
   97TMC2    O5 1521   3.662   1.849  17.151 -0.2967 -0.3783  0.0027
   97TMC2    H5 1522   3.754   1.867  17.179 -0.5432 -0.5118  0.9023
   98MPD2     C 1523   3.164   1.172  17.621  0.5572  0.7697  0.0246
   98MPD2    C1 1524   3.285   1.163  17.682  0.2366 -0.0221 -0.2070
   98MPD2    C2 1525   3.393   1.245  17.653  0.0117  0.1170  0.1900
   98MPD2    C3 1526   3.376   1.348  17.557 -0.2146 -0.0540  0.1547
   98MPD2    C4 1527   3.251   1.359  17.492  0.4801 -0.0181  0.0537
   98MPD2    C5 1528   3.152   1.271  17.526  0.2667 -1.1639  0.1161
   98MPD2     H 1529   3.485   1.234  17.708 -0.2699 -0.3865  0.5611
   98MPD2    H1 1530   3.230   1.433  17.416  2.4660 -0.8484 -1.3210
   98MPD2    H2 1531   3.078   1.109  17.643  2.2466 -1.1727  0.9687
   98MPD2    H3 1532   3.056   1.292  17.480  0.6910 -1.5612 -0.9584
   98MPD2     N 1533   3.471   1.441  17.522  0.7544  0.3254  0.2639
   98MPD2    H5 1534   3.440   1.521  17.468 -1.7440 -0.5214  0.4817
   98MPD2    N1 1535   3.301   1.066   0.033  0.8349 -0.5360 -0.6773
   98MPD2    H7 1536   3.217   1.034   0.080  0.7107  1.2791  0.3231
   99TMC2    C1 1537   2.953   3.259   2.002  0.0621 -0.1886 -0.2919
   99TMC2    C2 1538   2.991   3.370   2.070  0.0816  0.3262  0.1550
   99TMC2    C3 1539   2.893   3.440   2.145 -0.1143 -0.6443 -0.7269
   99TMC2    C4 1540   2.822   3.230   2.000 -0.3793 -0.1672 -0.3527
   99TMC2    C5 1541   2.732   3.297   2.079  0.8142  0.9306 -0.1317
   99TMC2    C6 1542   2.766   3.405   2.161  0.4251  0.3172 -0.6152
   99TMC2     C 1543   3.045   3.197   1.911 -0.1123  0.2321  0.0319
   99TMC2     O 1544   3.158   3.211   1.946 -0.0642  0.2684 -0.7575
   99TMC2     H 1545   3.092   3.410   2.066  0.0557  0.4413  0.6739
   99TMC2    H1 1546   2.799   3.132   1.960 -1.3043  0.8061 -2.2094
   99TMC2    H2 1547   2.703   3.483   2.202 -1.3498 -2.2874  1.6217
   99TMC2    C7 1548   2.588   3.262   2.088  0.0675  0.2687  0.3033
   99TMC2    C8 1549   2.934   3.553   2.218 -0.1746 -0.1047 -0.0398
   99TMC2    O1 1550   2.514   3.331   2.162  0.4132  0.2440 -0.2626
   99TMC2    O2 1551   2.950   3.658   2.157  0.0554  0.3444 -0.2376
   99TMC2    O5 1552   2.908   3.554   2.347 -0.1559  0.3314  0.5585
   99TMC2    H5 1553   2.882   3.471   2.393  0.9349 -0.4936 -0.3123
  100MPD2     C 1554   3.201   3.060   1.697  0.4426 -0.7645 -0.2949
  100MPD2    C1 1555   3.062   3.057   1.710  0.3437  0.0612 -0.4328
  100MPD2    C2 1556   3.000   2.972   1.625 -0.1895  0.1707 -0.1282
  100MPD2    C3 1557   3.062   2.921   1.508 -0.6016  0.4502  0.2494
  100MPD2    C4 1558   3.197   2.938   1.487 -0.3520  0.0855 -1.2398
  100MPD2    C5 1559   3.262   3.002   1.591 -0.2166  0.2843  0.1615
  100MPD2     H 1560   2.896   2.947   1.643 -0.5270  1.6170 -0.0579
  100MPD2    H1 1561   3.255   2.903   1.403  0.9656  1.8425 -1.0682
  100MPD2    H2 1562   3.265   3.116   1.764 -1.9455 -0.0691  1.3697
  100MPD2    H3 1563   3.370   3.001   1.577  0.0759  1.5048  2.2993
  100MPD2     N 1564   2.969   2.870   1.411  0.0644  0.0139  0.8918
  100MPD2    H5 1565   2.874   2.854   1.443 -0.2218 -0.2307 -0.0610
  100MPD2    N1 1566   2.989   3.125   1.809 -0.3947  0.0829  0.0417
  100MPD2    H7 1567   2.888   3.120   1.812 -0.4611  0.7524 -1.1214
  101TMC2    C1 1568   4.324   4.294  13.506 -0.8779  0.3369 -0.3005
  101TMC2    C2 1569   4.368   4.267  13.636 -0.0804 -1.1752 -0.4921
  101TMC2    C3 1570   4.502   4.254  13.660 -0.5112 -0.0384  0.1335
  101TMC2    C4 1571   4.407   4.313  13.403 -0.4328  0.0722 -0.2303
  101TMC2    C5 1572   4.540   4.288  13.432 -0.6559  0.1221 -0.4964
  101TMC2    C6 1573   4.589   4.259  13.556 -0.1301  0.0430  1.0936
  101TMC2     C 1574   4.216   4.218  13.465 -0.6736  0.5288  0.3395
  101TMC2     O 1575   4.134   4.185  13.545  0.3949 -0.1023  0.6703
  101TMC2     H 1576   4.282   4.252  13.700 -1.0329 -1.9308 -1.9352
  101TMC2    H1 1577   4.387   4.361  13.308 -0.7300 -1.5927 -0.9959
  101TMC2    H2 1578   4.688   4.218  13.569  0.3957  0.7831 -0.5493
  101TMC2    C7 1579   4.634   4.302  13.329  0.4798 -0.0924  0.0751
  101TMC2    C8 1580   4.539   4.165  13.767 -0.2262  1.1702  0.5294
  101TMC2    O1 1581   4.590   4.338  13.219 -0.4762  0.1644  0.2312
  101TMC2    O2 1582   4.638   4.092  13.783 -0.3210  0.0073  0.0463
  101TMC2    O5 1583   4.435   4.165  13.859 -0.2050 -0.4834  0.1443
  101TMC2    H5 1584   4.371   4.239  13.850  0.1301 -0.4413 -1.8635
  102MPD2     C 1585   4.200   4.032  13.151 -0.2364 -0.1909  0.2430
  102MPD2    C1 1586   4.159   4.069  13.275  0.1733  0.3022 -0.2660
  102MPD2    C2 1587   4.047   4.002  13.330 -0.2452  0.5755  0.2775
  102MPD2    C3 1588   3.978   3.909  13.248  0.0023  0.9220 -0.4393
  102MPD2    C4 1589   4.023   3.873  13.127 -0.4127 -0.6559  0.7319
  102MPD2    C5 1590   4.139   3.934  13.079 -0.5098  0.3123 -0.4831
  102MPD2     H 1591   4.011   4.025  13.429 -1.1894 -0.7870  0.2487
  102MPD2    H1 1592   3.976   3.797  13.065  0.4984 -1.1538  0.6540
  102MPD2    H2 1593   4.294   4.071  13.113  0.2040 -1.9391 -0.4664
  102MPD2    H3 1594   4.189   3.909  12.987 -3.3422 -0.5131 -1.8007
  102MPD2     N 1595   3.862   3.849  13.306  0.3303  0.0217 -0.1020
  102MPD2    H5 1596   3.825   3.889  13.392 -1.8426  1.5443 -1.7368
  102MPD2    N1 1597   4.235   4.170  13.336 -0.4676  0.0315  0.1109
  102MPD2    H7 1598   4.319   4.193  13.285 -0.3190 -1.5683 -0.3631
  103TMC2    C1 1599   2.123   4.048  13.329 -0.7945 -0.1320  0.0835
  103TMC2    C2 1600   2.233   3.967  13.333  0.2776  0.0178  0.0846
  103TMC2    C3 1601   2.305   3.957  13.448 -0.6662 -0.5855  0.8046
  103TMC2    C4 1602   2.078   4.117  13.437 -0.5737 -0.5424 -0.4090
  103TMC2    C5 1603   2.155   4.112  13.553  0.0428  0.2076 -0.2294
  103TMC2    C6 1604   2.267   4.030  13.556  0.5841 -0.5050 -0.0508
  103TMC2     C 1605   2.090   4.097  13.195  0.6211 -1.2805 -0.0501
  103TMC2     O 1606   2.100   4.006  13.111  0.4147 -0.5481  0.5052
  103TMC2     H 1607   2.264   3.894  13.258 -0.5220 -0.6829  0.4359
  103TMC2    H1 1608   1.993   4.184  13.431 -0.2405 -0.1275 -0.4410
  103TMC2    H2 1609   2.312   4.014  13.654 -0.8136 -1.9407  0.3422
  103TMC2    C7 1610   2.113   4.162  13.682  0.1556 -0.3292 -0.2080
  103TMC2    C8 1611   2.433   3.879  13.438  0.5779  0.3113 -0.2709
  103TMC2    O1 1612   2.194   4.165  13.777  0.2165  0.2126  0.0867
  103TMC2    O2 1613   2.466   3.821  13.336  0.0402  1.2962 -0.0176
  103TMC2    O5 1614   2.529   3.936  13.515 -0.3832  0.3816 -0.3522
  103TMC2    H5 1615   2.499   3.995  13.588  1.6298  2.1110 -0.9310
  104MPD2     C 1616   2.083   4.434  13.052  0.3574  0.7095 -0.2633
  104MPD2    C1 1617   2.075   4.296  13.054 -0.3126 -0.4410  0.4408
  104MPD2    C2 1618   2.069   4.227  12.929 -0.0044 -0.6325 -0.6841
  104MPD2    C3 1619   2.060   4.295  12.812 -0.4522 -0.2824 -0.5172
  104MPD2    C4 1620   2.068   4.429  12.811 -0.5476 -0.1894 -0.2526
  104MPD2    C5 1621   2.079   4.492  12.926  0.1510  0.0224  0.7045
  104MPD2     H 1622   2.060   4.119  12.923 -2.2269 -0.5365  0.7645
  104MPD2    H1 1623   2.054   4.488  12.721 -0.9909  0.7281  0.4130
  104MPD2    H2 1624   2.094   4.503  13.134  1.8973  0.4538 -0.2589
  104MPD2    H3 1625   2.086   4.600  12.919 -1.2127  0.2052  2.1640
  104MPD2     N 1626   2.050   4.223  12.691  1.3478  0.5333  0.1698
  104MPD2    H5 1627   2.072   4.125  12.699  3.0818  0.7551 -1.8568
  104MPD2    N1 1628   2.074   4.235  13.181  0.0104 -0.1903  0.2306
  104MPD2    H7 1629   2.080   4.300  13.259 -2.0154 -1.8400  1.7666
  105TMC2    C1 1630   2.685   2.865   0.116  0.3892  0.0978  0.5833
  105TMC2    C2 1631   2.565   2.813   0.145 -0.1210 -0.0013  1.3743
  105TMC2    C3 1632   2.527   2.814   0.277 -0.1174  0.4515  0.3230
  105TMC2    C4 1633   2.774   2.924   0.210  0.1847  0.0158  0.1516
  105TMC2    C5 1634   2.727   2.926   0.339  0.5214  0.1893 -0.3249
  105TMC2    C6 1635   2.606   2.870   0.376  0.1737 -0.3088  0.4349
  105TMC2     C 1636   2.747   2.843  17.740 -0.1611 -0.9683  0.2025
  105TMC2     O 1637   2.706   2.745  17.677  0.0785 -0.1580 -0.3320
  105TMC2     H 1638   2.497   2.768   0.073  0.4314  2.0819 -0.4389
  105TMC2    H1 1639   2.873   2.965   0.195 -0.8969  1.2852 -3.3700
  105TMC2    H2 1640   2.588   2.861   0.483  2.1557 -0.5931  0.7490
  105TMC2    C7 1641   2.827   2.957   0.442 -0.1617  0.1839  0.4133
  105TMC2    C8 1642   2.390   2.782   0.314 -0.1986 -0.8064  0.1987
  105TMC2    O1 1643   2.944   2.940   0.412 -0.5202  0.2782  0.7332
  105TMC2    O2 1644   2.346   2.803   0.425  0.5527  0.1908 -0.0574
  105TMC2    O5 1645   2.367   2.666   0.249  0.1423 -0.6023 -0.4265
  105TMC2    H5 1646   2.443   2.639   0.193  0.8067  0.6901 -0.1516
  106MPD2     C 1647   3.036   2.950  17.320  0.0998 -0.1582 -0.1089
  106MPD2    C1 1648   3.057   3.049  17.414  0.2403  0.2083 -0.2145
  106MPD2    C2 1649   2.976   3.046  17.522 -0.0835 -0.2513  0.5368
  106MPD2    C3 1650   2.896   2.946  17.564  0.6062 -0.2959  0.1491
  106MPD2    C4 1651   2.886   2.844  17.470  0.0498  0.3138 -0.3035
  106MPD2    C5 1652   2.955   2.848  17.354 -0.0218 -0.4062 -0.3226
  106MPD2     H 1653   2.992   3.127  17.593 -0.0173 -0.0381  0.2765
  106MPD2    H1 1654   2.827   2.756  17.491  2.0386 -1.1224 -0.8209
  106MPD2    H2 1655   3.080   2.934  17.223 -0.0578  0.3257 -0.2594
  106MPD2    H3 1656   2.932   2.770  17.282 -2.3038  0.8902 -1.0007
  106MPD2     N 1657   2.832   2.939  17.694  0.6149  0.0133 -0.3009
  106MPD2    H5 1658   2.847   3.024  17.747  0.5592 -1.2588  1.7678
  106MPD2    N1 1659   3.131   3.166  17.383 -0.7273 -0.5983  0.6767
  106MPD2    H7 1660   3.139   3.237  17.455 -1.2164  0.3499 -0.2093
  107TMC2    C1 1661   4.493   2.448  11.886 -0.0001 -0.4177  0.2479
  107TMC2    C2 1662   4.451   2.542  11.794  0.6183  0.2157 -0.2096
  107TMC2    C3 1663   4.538   2.554  11.685 -0.1240  0.2151  0.7852
  107TMC2    C4 1664   4.600   2.359  11.867 -0.8176  0.0469 -0.0400
  107TMC2    C5 1665   4.679   2.372  11.755 -0.3163  0.5112  0.1451
  107TMC2    C6 1666   4.646   2.469  11.665 -0.0526 -1.1845 -0.1817
  107TMC2     C 1667   4.407   2.427  11.999 -0.3130 -0.8936 -0.3482
  107TMC2     O 1668   4.293   2.474  11.995  0.1006 -0.0628  0.2010
  107TMC2     H 1669   4.378   2.616  11.827  0.8434 -0.6147  2.1387
  107TMC2    H1 1670   4.628   2.283  11.940 -1.8693  1.3376  1.7054
  107TMC2    H2 1671   4.718   2.497  11.589 -0.8731 -0.1498 -0.5728
  107TMC2    C7 1672   0.080   2.330  11.771  0.7651  0.3034 -0.0354
  107TMC2    C8 1673   4.521   2.678  11.609 -0.1190 -0.0251  0.3341
  107TMC2    O1 1674   0.132   2.332  11.884 -0.2459  0.0036 -0.1565
  107TMC2    O2 1675   4.498   2.777  11.676 -0.4503  0.2768 -0.4276
  107TMC2    O5 1676   4.576   2.678  11.488 -0.1798 -0.1584 -0.0015
  107TMC2    H5 1677   4.566   2.593  11.440 -0.0603  0.4626 -1.1320
  108MPD2     C 1678   4.481   2.280  12.332  0.5553  0.1656  0.5097
  108MPD2    C1 1679   4.419   2.364  12.240  0.5072 -0.3083 -0.6004
  108MPD2    C2 1680   4.310   2.440  12.274 -0.2112 -0.4061  0.1544
  108MPD2    C3 1681   4.259   2.418  12.411  0.3903  0.0560  0.5083
  108MPD2    C4 1682   4.327   2.344  12.505  0.3337 -0.3534 -0.5853
  108MPD2    C5 1683   4.436   2.270  12.465 -0.3246  0.2152  0.4649
  108MPD2     H 1684   4.258   2.508  12.208 -1.3191 -2.5952 -1.1994
  108MPD2    H1 1685   4.296   2.338  12.609 -1.7613 -2.4588 -1.3472
  108MPD2    H2 1686   4.567   2.220  12.302  1.4249  1.2101  0.9130
  108MPD2    H3 1687   4.488   2.210  12.539  0.8545  1.2505  0.4987
  108MPD2     N 1688   4.157   2.494  12.467  0.0021 -0.1757  0.1289
  108MPD2    H5 1689   4.113   2.460  12.552 -0.0957  0.3610  0.2915
  108MPD2    N1 1690   4.475   2.367  12.106  0.3413  0.2693 -0.0874
  108MPD2    H7 1691   4.571   2.339  12.091  0.1845  0.5386 -1.5369
  109TMC2    C1 1692   3.459   4.493   0.042  0.3329  0.0532  0.5445
  109TMC2    C2 1693   3.536   4.475  17.678  0.3090  0.7986 -0.4521
  109TMC2    C3 1694   3.616   4.578  17.636 -0.3204 -0.4650 -0.2357
  109TMC2    C4 1695   3.469   4.601   0.126 -0.9603  0.0430 -0.6980
  109TMC2    C5 1696   3.554   4.692   0.083 -0.1639  0.7578 -0.8688
  109TMC2    C6 1697   3.628   4.686  17.720 -0.2867  0.7141 -0.5867
  109TMC2     C 1698   3.393   4.370   0.098  0.3329  0.2741 -0.4626
  109TMC2     O 1699   3.388   4.274   0.024 -0.0243 -0.5492 -0.3204
  109TMC2     H 1700   3.519   4.392  17.611  1.7087 -0.4897  0.7922
  109TMC2    H1 1701   3.403   4.612   0.211  0.9994  1.0201  0.7021
  109TMC2    H2 1702   3.682   0.033  17.682 -1.7428  1.5401 -0.8108
  109TMC2    C7 1703   3.560   0.086   0.156 -0.1855 -0.0416  0.4428
  109TMC2    C8 1704   3.650   4.589  17.502  0.2040  0.7117  0.0376
  109TMC2    O1 1705   3.585   0.192   0.099  0.3148 -0.2853 -0.2376
  109TMC2    O2 1706   3.676   4.691  17.443  0.3816 -0.0243 -0.1253
  109TMC2    O5 1707   3.667   4.466  17.449 -0.6658  0.1421  0.3363
  109TMC2    H5 1708   3.660   4.391  17.511  0.1036  0.6769  1.0662
  110MPD2     C 1709   3.103   4.106   0.437 -0.6265 -0.1759  0.0840
  110MPD2    C1 1710   3.163   4.209   0.509 -0.1104  0.3018  0.2866
  110MPD2    C2 1711   3.237   4.304   0.437  0.2513  0.2379 -0.5097
  110MPD2    C3 1712   3.259   4.288   0.299  0.0724 -0.2573  0.1474
  110MPD2    C4 1713   3.198   4.178   0.235  0.1509 -0.1172 -0.1984
  110MPD2    C5 1714   3.116   4.096   0.299  0.2770 -0.3816  0.5363
  110MPD2     H 1715   3.277   4.399   0.470 -1.3201  0.3251  1.1531
  110MPD2    H1 1716   3.212   4.160   0.129 -1.1378 -1.9822 -0.0439
  110MPD2    H2 1717   3.049   4.026   0.485 -0.7915 -0.6162 -0.8257
  110MPD2    H3 1718   3.081   4.008   0.247  0.8171 -0.3343  0.0995
  110MPD2     N 1719   3.346   4.382   0.229  0.1233  0.4175 -0.1390
  110MPD2    H5 1720   3.365   4.469   0.276  2.5869  1.0598 -2.3589
  110MPD2    N1 1721   3.142   4.209   0.650 -0.4425 -0.3942  0.6312
  110MPD2    H7 1722   3.072   4.137   0.669 -1.5261  0.3677 -0.4240
  111TMC2    C1 1723   3.845   4.647  12.090  0.3046  0.8883  0.1394
  111TMC2    C2 1724   3.777   4.737  12.170 -0.2551  0.1954 -0.7484
  111TMC2    C3 1725   3.849   0.061  12.268 -0.4200 -0.1578  0.3812
  111TMC2    C4 1726   3.971   4.607  12.124 -0.2292  0.2472  0.5487
  111TMC2    C5 1727   4.036   4.661  12.228 -0.2885  0.1668  0.3792
  111TMC2    C6 1728   3.977   0.031  12.297 -0.0103 -0.0283 -1.0970
  111TMC2     C 1729   3.803   4.620  11.956 -0.3714  0.4074 -0.0319
  111TMC2     O 1730   3.752   4.711  11.883  0.8075 -0.5269  0.3039
  111TMC2     H 1731   3.680   0.034  12.138 -0.1973  0.1020 -1.0280
  111TMC2    H1 1732   4.016   4.525  12.069  0.7253 -0.3680  2.2407
  111TMC2    H2 1733   4.020   0.086  12.380  1.4320 -2.3373 -0.3216
  111TMC2    C7 1734   4.176   4.644  12.247  0.6256  0.0897  0.8108
  111TMC2    C8 1735   3.783   0.166  12.350  0.3024  0.6664 -0.5156
  111TMC2    O1 1736   4.228   4.660  12.359  0.0878 -0.2045  0.3502
  111TMC2    O2 1737   3.739   0.149  12.464 -0.4117 -0.4343 -0.1055
  111TMC2    O5 1738   3.831   0.282  12.307  0.2860 -0.4295 -0.0011
  111TMC2    H5 1739   3.888   0.273  12.228 -1.3395 -2.2357 -0.9745
  112MPD2     C 1740   3.871   4.358  11.522 -0.6278 -0.4311  0.5626
  112MPD2    C1 1741   3.893   4.492  11.543 -0.2600 -0.1145 -0.0804
  112MPD2    C2 1742   3.868   4.542  11.671 -0.5335  0.8367  0.0751
  112MPD2    C3 1743   3.838   4.455  11.776 -0.1448  0.5342  0.2256
  112MPD2    C4 1744   3.841   4.322  11.752 -0.0148  0.0121  0.0491
  112MPD2    C5 1745   3.842   4.272  11.627  0.2454  0.1258 -0.3005
  112MPD2     H 1746   3.884   4.647  11.693  0.8399  0.9128 -1.3454
  112MPD2    H1 1747   3.832   4.257  11.838  2.7786 -1.8650 -1.0940
  112MPD2    H2 1748   3.882   4.308  11.426  0.8895 -1.1539  1.1063
  112MPD2    H3 1749   3.818   4.169  11.604  0.0540  0.0195  0.3811
  112MPD2     N 1750   3.833   4.491  11.914  0.4859  0.0602 -0.2518
  112MPD2    H5 1751   3.839   4.421  11.987 -0.3514 -0.7666 -0.9699
  112MPD2    N1 1752   3.948   4.575  11.435  0.1220  0.1698  0.0473
  112MPD2    H7 1753   3.974   4.670  11.456  1.5171 -0.4070  0.9388
  113TMC2    C1 1754   1.615   2.732   0.626  0.9384  0.1757  0.0677
  113TMC2    C2 1755   1.485   2.777   0.640  0.0060 -0.8202  0.0513
  113TMC2    C3 1756   1.385   2.698   0.605  0.1861 -0.2258 -0.4284
  113TMC2    C4 1757   1.644   2.609   0.584  0.4939  0.9959 -0.0562
  113TMC2    C5 1758   1.534   2.520   0.565 -0.2900  0.1324 -0.0230
  113TMC2    C6 1759   1.403   2.563   0.571 -0.1246  0.5260  0.4200
  113TMC2     C 1760   1.712   2.800   0.723 -0.5883  0.0728 -0.3240
  113TMC2     O 1761   1.662   2.853   0.819 -0.4105 -0.3894 -0.4537
  113TMC2     H 1762   1.463   2.878   0.673 -2.1847 -1.0218 -0.7876
  113TMC2    H1 1763   1.741   2.563   0.571  0.5372  1.0376  0.1131
  113TMC2    H2 1764   1.329   2.490   0.539 -0.4417 -0.3494  3.1862
  113TMC2    C7 1765   1.562   2.378   0.576  0.3493 -0.4584  0.0399
  113TMC2    C8 1766   1.255   2.738   0.622 -0.6598 -0.1037  0.2925
  113TMC2    O1 1767   1.643   2.323   0.508  0.2616 -0.7899  0.3431
  113TMC2    O2 1768   1.160   2.679   0.572 -0.3611  0.2349 -0.5495
  113TMC2    O5 1769   1.247   2.807   0.736 -0.5589  0.5380 -0.2816
  113TMC2    H5 1770   1.326   2.830   0.790 -0.0715 -0.2570 -0.6629
  114MPD2     C 1771   2.157   3.029   0.839  0.6297 -0.7334  0.2740
  114MPD2    C1 1772   2.055   2.982   0.921 -0.3323  0.2096  0.3571
  114MPD2    C2 1773   1.950   2.914   0.864 -0.0981 -0.1299 -0.3678
  114MPD2    C3 1774   1.948   2.886   0.728  0.4094 -0.3363  0.7620
  114MPD2    C4 1775   2.051   2.922   0.649  0.4463 -0.4017 -0.4396
  114MPD2    C5 1776   2.149   3.005   0.703  0.3298 -0.1147  0.1229
  114MPD2     H 1777   1.874   2.866   0.925  0.1848 -1.1518 -0.8248
  114MPD2    H1 1778   2.045   2.903   0.542  0.3619 -0.0488 -0.5007
  114MPD2    H2 1779   2.240   3.085   0.879  0.2489 -0.1416  0.2271
  114MPD2    H3 1780   2.232   3.042   0.643  0.0803 -0.1548 -0.2454
  114MPD2     N 1781   1.839   2.818   0.664  0.5376  0.1512  0.4663
  114MPD2    H5 1782   1.849   2.787   0.568  0.2783  1.5903 -0.0264
  114MPD2    N1 1783   2.052   2.988   1.064 -0.4913  0.1785  0.3694
  114MPD2    H7 1784   1.986   2.926   1.109 -0.5482  2.0205  2.9026
  115TMC2    C1 1785   2.710   0.671  17.720 -0.5720  0.3070 -0.6149
  115TMC2    C2 1786   2.832   0.689   0.034 -0.4033  0.6245 -0.1884
  115TMC2    C3 1787   2.908   0.801   0.025  0.4265 -1.1359  0.1740
  115TMC2    C4 1788   2.667   0.768  17.637  0.0942  0.0775  0.0824
  115TMC2    C5 1789   2.748   0.880  17.624  0.1463  0.1791  0.2116
  115TMC2    C6 1790   2.864   0.898  17.691 -0.1433  0.1062 -0.0329
  115TMC2     C 1791   2.627   0.552  17.713 -0.5220  0.5751  0.3198
  115TMC2     O 1792   2.527   0.551  17.644  0.2157  0.1592  0.1422
  115TMC2     H 1793   2.863   0.609   0.100 -0.6610  0.9104  0.2847
  115TMC2    H1 1794   2.571   0.758  17.587  0.5445 -0.8303 -0.5896
  115TMC2    H2 1795   2.925   0.986  17.681  1.2052 -0.6985  1.1709
  115TMC2    C7 1796   2.700   0.981  17.524  0.1538 -0.7492 -0.3840
  115TMC2    C8 1797   3.011   0.843   0.117  0.5024  0.4596 -1.0584
  115TMC2    O1 1798   2.585   0.971  17.481 -0.2265 -0.2876  0.7346
  115TMC2    O2 1799   3.057   0.958   0.133  0.4153  0.0750 -0.0031
  115TMC2    O5 1800   3.041   0.732   0.195 -0.6471  0.3494 -0.0125
  115TMC2    H5 1801   3.043   0.649   0.142  1.0676  1.2569 -1.3772
  116MPD2     C 1802   2.638   0.036  17.711 -0.2962 -0.0745 -0.7387
  116MPD2    C1 1803   2.544   0.118  17.649  0.3840 -0.6455  0.1757
  116MPD2    C2 1804   2.563   0.256  17.665  0.6246  0.2238  0.1471
  116MPD2    C3 1805   2.662   0.308  17.744 -0.3892 -0.5688  0.0811
  116MPD2    C4 1806   2.745   0.220   0.056 -0.3906  0.4157 -0.5676
  116MPD2    C5 1807   2.737   0.089   0.040 -0.5029 -0.5535  0.3870
  116MPD2     H 1808   2.492   0.323  17.617  0.7907  1.1076  1.1484
  116MPD2    H1 1809   2.818   0.267   0.122 -0.7724  2.1917 -1.4097
  116MPD2    H2 1810   2.632   4.667  17.703 -1.8805 -0.0081 -0.3133
  116MPD2    H3 1811   2.809   0.027   0.091 -0.0059 -0.5780 -0.3360
  116MPD2     N 1812   2.688   0.447   0.019 -0.9229 -1.0954 -0.5932
  116MPD2    H5 1813   2.761   0.466   0.088 -1.1724  2.0558 -1.1987
  116MPD2    N1 1814   2.445   0.054  17.569 -0.2647  0.1042 -0.4196
  116MPD2    H7 1815   2.444   4.692  17.560 -0.0765  0.2192 -1.8241
  117TMC2    C1 1816   2.259   2.376  14.084  0.5831  0.4969  0.4527
  117TMC2    C2 1817   2.367   2.357  14.170  0.6135 -0.5238 -0.7576
  117TMC2    C3 1818   2.400   2.467  14.242 -0.9560  0.2233 -0.4972
  117TMC2    C4 1819   2.191   2.494  14.068 -0.2456 -0.2342 -0.5971
  117TMC2    C5 1820   2.217   2.599  14.150 -0.0077  0.2912 -0.2062
  117TMC2    C6 1821   2.332   2.592  14.230 -0.6752 -0.4080 -0.1120
  117TMC2     C 1822   2.221   2.259  14.001 -0.3566  0.7385  0.3815
  117TMC2     O 1823   2.309   2.176  13.979  0.1481  0.3041  0.6466
  117TMC2     H 1824   2.428   2.268  14.178  0.2113 -0.8288 -1.1152
  117TMC2    H1 1825   2.111   2.503  13.996 -0.9558  0.8433  0.3203
  117TMC2    H2 1826   2.346   2.671  14.303  2.1246 -0.0885 -0.9898
  117TMC2    C7 1827   2.154   2.729  14.131  0.1550  0.1058  1.2364
  117TMC2    C8 1828   2.519   2.454  14.317 -0.1566  0.5053 -0.1048
  117TMC2    O1 1829   2.225   2.821  14.173  0.3092 -0.3328 -0.1224
  117TMC2    O2 1830   2.603   2.381  14.265 -0.2159 -0.0883  0.0579
  117TMC2    O5 1831   2.526   2.561  14.396 -0.0200  0.1236  0.1762
  117TMC2    H5 1832   2.448   2.566  14.455  0.2458  0.3080  0.5124
  118MPD2     C 1833   1.830   2.842  13.978  0.2163 -0.6134 -0.1248
  118MPD2    C1 1834   1.951   2.855  14.033 -0.0918  0.0967 -0.5760
  118MPD2    C2 1835   1.994   2.980  14.071 -0.0729 -0.1309  0.0391
  118MPD2    C3 1836   1.914   3.092  14.072 -0.0091  0.4144  0.5781
  118MPD2    C4 1837   1.786   3.084  14.027 -0.0079 -0.0975  0.2485
  118MPD2    C5 1838   1.748   2.961  13.976  0.3743  1.0359 -0.3686
  118MPD2     H 1839   2.088   2.987  14.123  1.0729 -2.4623 -1.7162
  118MPD2    H1 1840   1.713   3.162  14.010  1.3116  0.6355 -2.1239
  118MPD2    H2 1841   1.794   2.749  13.938 -0.8278  0.0612 -0.7493
  118MPD2    H3 1842   1.649   2.954  13.932 -0.2978 -2.8231  1.7708
  118MPD2     N 1843   1.964   3.225  14.112  0.0735 -0.3406 -0.5323
  118MPD2    H5 1844   1.887   3.290  14.128  1.0593  0.5733  0.4828
  118MPD2    N1 1845   2.037   2.739  14.056  0.5368 -0.4536  0.3938
  118MPD2    H7 1846   1.992   2.655  14.021  1.6368 -0.6020 -0.6696
  119TMC2    C1 1847   4.156   3.529  13.157 -0.5372 -0.9957 -0.0371
  119TMC2    C2 1848   4.124   3.522  13.030 -0.2914  0.2009  0.3111
  119TMC2    C3 1849   4.006   3.470  12.989 -0.4341  0.4637  0.2739
  119TMC2    C4 1850   4.068   3.498  13.260  0.2561 -0.2396 -0.5174
  119TMC2    C5 1851   3.949   3.437  13.227 -0.2313  0.2065  0.1278
  119TMC2    C6 1852   3.920   3.428  13.091 -0.1143 -0.3015  0.0298
  119TMC2     C 1853   4.296   3.518  13.196  0.9405 -0.6675 -0.2457
  119TMC2     O 1854   4.323   3.451  13.294 -0.4151 -0.2687 -0.0453
  119TMC2     H 1855   4.200   3.554  12.959 -1.3605  1.8785 -0.0610
  119TMC2    H1 1856   4.089   3.520  13.364 -1.7262  1.7053 -0.5420
  119TMC2    H2 1857   3.821   3.393  13.063  0.0471 -2.5560  2.3068
  119TMC2    C7 1858   3.861   3.387  13.332 -0.4105  0.3486  0.2961
  119TMC2    C8 1859   3.954   3.526  12.863  0.0667  0.4990 -0.3409
  119TMC2    O1 1860   3.739   3.394  13.302 -0.4470  0.5247  0.7600
  119TMC2    O2 1861   4.021   3.571  12.773 -0.5830  0.0929  0.2758
  119TMC2    O5 1862   3.837   3.583  12.901  0.9124 -0.1506  0.7916
  119TMC2    H5 1863   3.824   3.591  12.998 -3.6115 -0.7789  0.2559
  120MPD2     C 1864   0.068   3.583  13.168 -0.3643  0.3273  0.5567
  120MPD2    C1 1865   4.725   3.538  13.270 -0.1032  0.6251 -0.0175
  120MPD2    C2 1866   4.585   3.543  13.252 -0.3203 -0.0848 -0.2343
  120MPD2    C3 1867   4.525   3.588  13.141 -0.1858 -0.4884  0.1457
  120MPD2    C4 1868   4.607   3.625  13.031  0.3679 -0.3269 -0.1270
  120MPD2    C5 1869   0.007   3.623  13.046 -0.0584 -0.6725  0.2469
  120MPD2     H 1870   4.533   3.489  13.330  0.8889  0.7882  1.1729
  120MPD2    H1 1871   4.563   3.656  12.938 -0.5571  1.4384  0.8961
  120MPD2    H2 1872   0.175   3.566  13.177 -0.7075 -1.6873  0.8543
  120MPD2    H3 1873   0.077   3.658  12.971 -0.5093 -1.4207 -0.5216
  120MPD2     N 1874   4.388   3.588  13.118  0.1865 -0.3013 -0.7130
  120MPD2    H5 1875   4.350   3.642  13.041 -0.5539  0.5667  0.2635
  120MPD2    N1 1876   0.032   3.482  13.394 -0.5985  0.3143  0.1405
  120MPD2    H7 1877   0.116   3.425  13.385 -2.2353 -2.4126  2.0024
  121TMC2    C1 1878   1.468   0.438  14.377 -0.4776 -0.0625  0.1340
  121TMC2    C2 1879   1.449   0.332  14.466 -0.5202  0.3163 -0.0699
  121TMC2    C3 1880   1.320   0.270  14.479  0.3703 -0.8783  0.3884
  121TMC2    C4 1881   1.365   0.482  14.308  0.5735 -0.0814  0.5047
  121TMC2    C5 1882   1.242   0.424  14.317  0.1721  0.0696  0.6878
  121TMC2    C6 1883   1.221   0.309  14.390 -0.4327  0.1970 -0.1579
  121TMC2     C 1884   1.596   0.491  14.366  0.3805  1.3090  0.6190
  121TMC2     O 1885   1.661   0.503  14.471  0.4201  0.0218  1.2914
  121TMC2     H 1886   1.529   0.293  14.528 -0.5401  1.0858  0.4441
  121TMC2    H1 1887   1.383   0.567  14.244 -3.6901 -0.5902 -1.3589
  121TMC2    H2 1888   1.131   0.250  14.384  1.1575 -1.9459 -2.5615
  121TMC2    C7 1889   1.146   0.458  14.215 -0.1011  0.0454 -0.4296
  121TMC2    C8 1890   1.317   0.143  14.543  0.2451  0.4102  0.3494
  121TMC2    O1 1891   1.191   0.518  14.118 -0.4271 -0.7899  0.2110
  121TMC2    O2 1892   1.412   0.076  14.571 -0.2239 -0.1041 -0.0473
  121TMC2    O5 1893   1.201   0.135  14.602 -0.1988  0.5098 -0.1961
  121TMC2    H5 1894   1.145   0.212  14.580 -0.6733  0.0026 -0.7667
  122MPD2     C 1895   1.808   0.681  14.300  1.3875  0.4080  0.1541
  122MPD2    C1 1896   1.738   0.613  14.202 -0.5501 -0.5623  0.1224
  122MPD2    C2 1897   1.769   0.639  14.068  0.3379 -0.0457 -0.3703
  122MPD2    C3 1898   1.857   0.744  14.033  0.2781 -0.0962  0.4081
  122MPD2    C4 1899   1.918   0.814  14.131  0.0336 -0.0240  0.7236
  122MPD2    C5 1900   1.908   0.771  14.258 -0.2272 -0.5485 -0.2557
  122MPD2     H 1901   1.709   0.578  14.001 -1.8955 -0.3459  1.8843
  122MPD2    H1 1902   1.998   0.887  14.119 -0.2072  0.2339  0.6642
  122MPD2    H2 1903   1.808   0.661  14.406 -0.4996  1.6604  0.4134
  122MPD2    H3 1904   1.974   0.815  14.332 -0.7251  0.6466 -0.5277
  122MPD2     N 1905   1.888   0.772  13.900 -0.7330  0.5193 -0.6264
  122MPD2    H5 1906   1.968   0.835  13.888  2.1139 -2.4409  2.9229
  122MPD2    N1 1907   1.626   0.534  14.236  0.1718 -0.1454 -0.1157
  122MPD2    H7 1908   1.568   0.493  14.164 -0.5022  0.3728  0.1321
  123TMC2    C1 1909   0.627   3.672  10.813  0.3861 -0.3180  0.0173
  123TMC2    C2 1910   0.696   3.788  10.789 -0.2105 -0.0681  0.7073
  123TMC2    C3 1911   0.783   3.795  10.684  0.7683  0.3699  0.3665
  123TMC2    C4 1912   0.641   3.567  10.719  0.1531  0.0373  0.0405
  123TMC2    C5 1913   0.733   3.581  10.615  1.0323 -0.0017 -0.3684
  123TMC2    C6 1914   0.809   3.690  10.601  0.2325 -0.0294  0.3688
  123TMC2     C 1915   0.504   3.684  10.891  0.0211 -0.3505  0.9637
  123TMC2     O 1916   0.470   3.798  10.928 -0.1011  0.0982 -0.1832
  123TMC2     H 1917   0.682   3.878  10.847 -5.5687  0.6387 -1.5983
  123TMC2    H1 1918   0.573   3.483  10.727 -0.6055  0.7211  0.9722
  123TMC2    H2 1919   0.895   3.700  10.535 -0.5107  1.2719 -0.4167
  123TMC2    C7 1920   0.724   3.482  10.502 -0.6779  0.5843 -0.1820
  123TMC2    C8 1921   0.891   3.896  10.687  0.2280 -0.2086 -0.0353
  123TMC2    O1 1922   0.657   3.385  10.520 -0.1945  0.7420  0.5476
  123TMC2    O2 1923   1.013   3.878  10.693 -0.0634 -0.2149 -0.3473
  123TMC2    O5 1924   0.831   3.996  10.750 -0.3055 -0.2250  0.5225
  123TMC2    H5 1925   0.735   4.011  10.736  0.0800  1.0184 -0.8050
  124MPD2     C 1926   0.025   3.513  10.972  0.3280 -0.2718  0.9448
  124MPD2    C1 1927   0.100   3.409  10.932 -0.2538  0.1263 -1.2860
  124MPD2    C2 1928   0.236   3.429  10.919  1.4376 -0.1254  0.0110
  124MPD2    C3 1929   0.297   3.552  10.946 -0.9704  0.5038 -0.3382
  124MPD2    C4 1930   0.219   3.659  10.985 -0.1342 -0.1083 -0.0410
  124MPD2    C5 1931   0.081   3.637  10.997 -0.4725  0.2696 -0.5327
  124MPD2     H 1932   0.292   3.342  10.887  1.1031 -0.7923  1.2303
  124MPD2    H1 1933   0.257   3.757  11.012  0.2903 -0.7679  1.7094
  124MPD2    H2 1934   4.656   3.510  10.976  0.1919 -0.4693 -2.2544
  124MPD2    H3 1935   0.022   3.721  11.032 -0.1432  0.2516  0.0484
  124MPD2     N 1936   0.425   3.575  10.897  0.2712  0.2900  0.6555
  124MPD2    H5 1937   0.474   3.491  10.867 -1.3578 -0.9354  1.3836
  124MPD2    N1 1938   0.028   3.291  10.906 -0.0984 -0.1367 -0.8400
  124MPD2    H7 1939   4.665   3.294  10.909 -0.2285 -4.0436 -0.6494
  125TMC2    C1 1940   1.525   1.915   9.453  1.0036  0.4092 -0.0194
  125TMC2    C2 1941   1.422   1.985   9.511  0.4176 -0.6541  0.6380
  125TMC2    C3 1942   1.348   1.926   9.606  0.1343  0.2466  0.3195
  125TMC2    C4 1943   1.564   1.797   9.508 -1.1128 -0.1289 -0.2338
  125TMC2    C5 1944   1.489   1.733   9.603  0.3097  0.0109 -0.3241
  125TMC2    C6 1945   1.384   1.804   9.650  0.9608  0.1415 -0.9461
  125TMC2     C 1946   1.608   1.998   9.371  0.4744 -0.1801 -0.0607
  125TMC2     O 1947   1.728   1.974   9.370  0.0449  0.0926 -1.0635
  125TMC2     H 1948   1.403   2.091   9.493 -1.4293 -1.3339 -1.3647
  125TMC2    H1 1949   1.650   1.750   9.461 -1.8645  0.1412 -1.8733
  125TMC2    H2 1950   1.329   1.765   9.734 -1.3373  1.3901 -1.8841
  125TMC2    C7 1951   1.465   1.589   9.609 -0.4051 -0.0597 -0.1983
  125TMC2    C8 1952   1.257   2.013   9.684 -0.4566 -0.0574  0.3461
  125TMC2    O1 1953   1.351   1.558   9.633 -0.1370 -0.0820 -0.0498
  125TMC2    O2 1954   1.272   2.133   9.676  0.1938  0.4717  0.0050
  125TMC2    O5 1955   1.188   1.952   9.783  0.3420 -0.0622 -0.0279
  125TMC2    H5 1956   1.164   1.862   9.753  2.2248 -0.7167  0.4113
  126MPD1     C 1957   1.755   2.443   9.172  0.3050 -0.0598 -0.4240
  126MPD1    C1 1958   1.627   2.429   9.139 -0.3363  0.5264 -0.5755
  126MPD1    C2 1959   1.557   2.323   9.192 -0.1032 -0.5312 -0.3439
  126MPD1    C3 1960   1.621   2.223   9.267 -0.3198  0.5720  0.1348
  126MPD1    C4 1961   1.754   2.246   9.296 -0.1678  0.3672 -0.3228
  126MPD1    C5 1962   1.826   2.345   9.237 -0.3839  0.4499  0.7068
  126MPD1     H 1963   1.449   2.308   9.192 -0.7235  3.7319  0.5537
  126MPD1    H1 1964   1.819   2.178   9.348 -0.8869  0.9299  1.3113
  126MPD1    H2 1965   1.811   2.528   9.133 -0.7285  1.2029  0.8184
  126MPD1    H3 1966   1.933   2.359   9.249 -0.0567 -0.8391 -0.7783
  126MPD1     N 1967   1.547   2.104   9.311  0.1680 -0.1992 -0.2365
  126MPD1    H5 1968   1.446   2.110   9.300  0.5455  1.4060 -2.9337
  126MPD1    N1 1969   1.561   2.536   9.077 -0.3498  0.1844  0.3208
  126MPD1    H6 1970   1.473   2.515   9.031  1.1298 -0.8853 -2.0487
  126MPD1    H7 1971   1.621   2.564   8.999 -0.0086 -0.1203  0.4747
  127TMC2    C1 1972   2.032   3.745   9.756 -0.6758 -0.0483 -0.2783
  127TMC2    C2 1973   2.102   3.662   9.838  0.4653 -0.1428 -0.2270
  127TMC2    C3 1974   2.054   3.532   9.847  0.9389  0.6153 -0.0023
  127TMC2    C4 1975   1.905   3.721   9.708  0.1946 -0.1740  0.2544
  127TMC2    C5 1976   1.857   3.596   9.734  0.0141  0.3065 -0.2069
  127TMC2    C6 1977   1.937   3.495   9.793  0.1550  0.0164  0.0943
  127TMC2     C 1978   2.074   3.885   9.752 -0.5957 -0.1022 -0.4837
  127TMC2     O 1979   2.159   3.914   9.835  0.0611 -0.1222 -0.3500
  127TMC2     H 1980   2.190   3.693   9.893  0.1738 -0.7518  0.6043
  127TMC2    H1 1981   1.852   3.783   9.637  3.2071 -0.7261 -2.4516
  127TMC2    H2 1982   1.925   3.387   9.787  0.2389 -0.0077  0.3805
  127TMC2    C7 1983   1.727   3.567   9.671 -0.4534 -0.1814  0.0276
  127TMC2    C8 1984   2.117   3.437   9.943 -0.6242 -0.3656 -0.5159
  127TMC2    O1 1985   1.672   3.643   9.589 -0.1092 -0.1640  0.4343
  127TMC2    O2 1986   2.048   3.403  10.037 -0.1269 -0.5103 -0.1828
  127TMC2    O5 1987   2.249   3.462   9.945  0.2566 -0.0622  0.2172
  127TMC2    H5 1988   2.281   3.497   9.859 -0.8652  0.5333  0.0492
  128MPD2     C 1989   2.004   4.146   9.511 -0.6110  0.1479  0.2075
  128MPD2    C1 1990   2.037   4.096   9.635  0.2084  0.3350  0.4266
  128MPD2    C2 1991   2.096   4.174   9.724  0.1191 -0.5917  0.6414
  128MPD2    C3 1992   2.134   4.309   9.701  0.0104 -0.0580 -0.0342
  128MPD2    C4 1993   2.109   4.353   9.576  0.1295 -0.3838  0.7682
  128MPD2    C5 1994   2.040   4.278   9.487 -0.0753  0.0639 -0.5374
  128MPD2     H 1995   2.107   4.131   9.823 -0.3505 -1.0145  0.5091
  128MPD2    H1 1996   2.116   4.458   9.551 -3.1459 -0.2376  0.4198
  128MPD2    H2 1997   1.949   4.082   9.442 -0.8722 -1.2560  1.7085
  128MPD2    H3 1998   2.010   4.324   9.394 -0.0150  1.3562  0.0849
  128MPD2     N 1999   2.208   4.380   9.796 -0.1853 -0.7154 -0.4352
  128MPD2    H5 2000   2.223   4.347   9.891 -1.6523  0.2472  0.1319
  128MPD2    N1 2001   2.016   3.961   9.655 -0.4481  0.0096  0.1883
  128MPD2    H7 2002   1.963   3.916   9.581 -0.7610 -1.3831  1.2550
  129TMC2    C1 2003   0.523   3.786   1.566  0.5375  0.4354  0.4110
  129TMC2    C2 2004   0.632   3.714   1.610  0.2166  0.2234 -0.6494
  129TMC2    C3 2005   0.617   3.615   1.704 -0.0367 -0.4539 -0.0904
  129TMC2    C4 2006   0.402   3.735   1.609 -0.0534  0.0995 -0.0254
  129TMC2    C5 2007   0.392   3.641   1.705  0.3614 -0.2313 -0.6691
  129TMC2    C6 2008   0.501   3.572   1.748 -0.5064 -0.2054  0.1701
  129TMC2     C 2009   0.544   3.870   1.450 -0.4489 -1.1991 -0.1281
  129TMC2     O 2010   0.657   3.877   1.394  0.1876 -0.2767  0.9209
  129TMC2     H 2011   0.736   3.740   1.592  0.6748 -1.6803 -0.8319
  129TMC2    H1 2012   0.309   3.778   1.572 -0.9405 -0.0229  2.0306
  129TMC2    H2 2013   0.492   3.485   1.813  2.7164 -0.5953  0.1059
  129TMC2    C7 2014   0.263   3.608   1.753  0.3509  0.5588  0.7994
  129TMC2    C8 2015   0.729   3.526   1.720 -0.0718  0.0451 -0.3497
  129TMC2    O1 2016   0.173   3.614   1.667 -0.0685 -0.2575  0.2653
  129TMC2    O2 2017   0.739   3.466   1.826  0.4285  0.4668 -0.5768
  129TMC2    O5 2018   0.721   3.457   1.602 -0.0984 -0.2155 -0.1342
  129TMC2    H5 2019   0.744   3.524   1.534  0.1056 -1.0062 -0.8401
  130MPD2     C 2020   0.492   4.046   1.205  0.7380 -0.8095 -0.3415
  130MPD2    C1 2021   0.432   4.057   1.332  0.0257  0.5337 -0.4962
  130MPD2    C2 2022   0.349   4.163   1.351 -0.2544 -0.0934 -0.3836
  130MPD2    C3 2023   0.318   4.253   1.252  0.1623  0.5998 -0.8057
  130MPD2    C4 2024   0.378   4.239   1.126 -0.5484 -0.1467  0.3609
  130MPD2    C5 2025   0.467   4.138   1.106  0.1021 -0.5635 -0.5986
  130MPD2     H 2026   0.293   4.182   1.442 -0.7555  1.0028 -0.9219
  130MPD2    H1 2027   0.361   4.306   1.043  2.5310  0.6936  0.4090
  130MPD2    H2 2028   0.556   3.962   1.179 -0.7121 -2.7933  2.5248
  130MPD2    H3 2029   0.523   4.128   1.014 -0.1641  2.8221 -1.1141
  130MPD2     N 2030   0.229   4.360   1.282 -0.1933 -0.2981  0.4685
  130MPD2    H5 2031   0.201   4.381   1.377 -0.6099  0.2283  0.2312
  130MPD2    N1 2032   0.446   3.959   1.432  0.3667  0.1225  0.4134
  130MPD2    H7 2033   0.383   3.966   1.511  1.3050 -1.0902  1.2779
  131TMC2    C1 2034   0.009   3.836  10.291 -0.8671  0.1283  0.5832
  131TMC2    C2 2035   4.692   3.916  10.387 -0.1907 -0.2019  0.9353
  131TMC2    C3 2036   4.736   4.043  10.396 -0.9096  0.8507 -0.5574
  131TMC2    C4 2037   0.119   3.875  10.219 -0.2824  0.0045  0.2279
  131TMC2    C5 2038   0.150   4.002  10.224  0.9659 -0.0637  0.4675
  131TMC2    C6 2039   0.094   4.087  10.316 -0.0613  0.5576 -0.4999
  131TMC2     C 2040   4.718   3.696  10.307  0.4011 -1.4024  0.7782
  131TMC2     O 2041   4.645   3.667  10.404 -0.7512  0.0445  0.5046
  131TMC2     H 2042   4.595   3.888  10.429 -0.0819 -2.3680 -0.2590
  131TMC2    H1 2043   0.170   3.809  10.150  0.3702  0.6956  0.0457
  131TMC2    H2 2044   0.119   4.191  10.326 -2.2076  1.2123 -1.7379
  131TMC2    C7 2045   0.249   4.051  10.126 -0.1098 -0.2000  0.4543
  131TMC2    C8 2046   4.670   4.139  10.483 -0.2017 -0.5525  0.0247
  131TMC2    O1 2047   0.287   3.973  10.037 -0.1219  0.9280  0.4309
  131TMC2    O2 2048   4.694   4.257  10.484  0.3168 -0.0512 -0.2514
  131TMC2    O5 2049   4.659   4.073  10.592  0.0980 -0.1657  0.0127
  131TMC2    H5 2050   4.651   3.977  10.576  0.6044  0.3493 -3.2753
  132MPD2     C 2051   4.715   3.413  10.068  0.8468 -0.0078 -0.2401
  132MPD2    C1 2052   4.713   3.476  10.193 -0.0565  0.0726 -0.6057
  132MPD2    C2 2053   4.683   3.399  10.300 -0.5273 -0.1178 -0.4296
  132MPD2    C3 2054   4.659   3.262  10.294  0.4547 -0.3693  0.0966
  132MPD2    C4 2055   4.655   3.204  10.172  0.4829 -0.5565 -0.2042
  132MPD2    C5 2056   4.692   3.277  10.060  0.2190 -0.7822 -0.1855
  132MPD2     H 2057   4.703   3.441  10.398 -0.4924  0.1961 -0.5726
  132MPD2    H1 2058   4.643   3.096  10.163  1.0892 -0.6668  0.2588
  132MPD2    H2 2059   0.008   3.467   9.979  0.4318  0.2967 -0.2029
  132MPD2    H3 2060   4.693   3.218   9.969  1.9297 -0.6113 -0.2626
  132MPD2     N 2061   4.657   3.202  10.423  0.1882 -0.0990 -0.4768
  132MPD2    H5 2062   4.687   3.251  10.507  1.5955 -1.2619 -0.2999
  132MPD2    N1 2063   0.010   3.617  10.199  0.0669 -0.4156  0.1212
  132MPD2    H7 2064   0.060   3.650  10.117  0.5273 -1.6701 -0.1006
  133TMC2    C1 2065   4.222   0.352   9.702  0.4180 -0.4392 -0.0069
  133TMC2    C2 2066   4.348   0.334   9.644  0.7013 -0.4570 -0.0861
  133TMC2    C3 2067   4.409   0.438   9.591  0.3994  1.3875 -0.4213
  133TMC2    C4 2068   4.160   0.477   9.696 -0.4524 -0.4019  0.5041
  133TMC2    C5 2069   4.227   0.584   9.640 -0.4207 -0.2802  0.1684
  133TMC2    C6 2070   4.345   0.560   9.575 -0.1560  0.3297 -0.5733
  133TMC2     C 2071   4.163   0.236   9.755 -0.6141 -0.2752  0.1655
  133TMC2     O 2072   4.204   0.128   9.714  0.0402  0.3574  0.0610
  133TMC2     H 2073   4.397   0.238   9.661  0.5306 -0.4904  0.2158
  133TMC2    H1 2074   4.059   0.486   9.735 -1.1821 -0.1863 -1.4235
  133TMC2    H2 2075   4.385   0.650   9.530  1.3640 -1.4896 -2.8634
  133TMC2    C7 2076   4.154   0.709   9.636  0.3361  0.1799  0.7341
  133TMC2    C8 2077   4.551   0.445   9.569 -0.0269  0.2708  0.0883
  133TMC2    O1 2078   4.196   0.784   9.549  0.5602 -1.1469 -0.2350
  133TMC2    O2 2079   4.620   0.374   9.640 -0.4855 -0.2401 -0.1613
  133TMC2    O5 2080   4.576   0.468   9.436  0.0958  0.7608  0.1237
  133TMC2    H5 2081   4.495   0.497   9.390  0.5574 -0.2775 -1.3547
  134MPD2     C 2082   3.963   0.221  10.061  0.0661  1.1556 -0.7209
  134MPD2    C1 2083   4.010   0.174   9.934 -0.0112  0.2140  0.7230
  134MPD2    C2 2084   3.971   0.046   9.889  0.2562  0.3845  0.7066
  134MPD2    C3 2085   3.889   4.708   9.973  0.5163 -0.0659  0.0619
  134MPD2    C4 2086   3.848   0.019  10.090  0.3277 -0.0634  0.3519
  134MPD2    C5 2087   3.876   0.144  10.136  0.2242  0.3528 -0.4051
  134MPD2     H 2088   3.995   0.015   9.788  0.7267 -0.6372  1.1318
  134MPD2    H1 2089   3.793   4.689  10.154  1.1565  0.1081  1.2422
  134MPD2    H2 2090   3.995   0.319  10.092  1.3822  0.9216 -1.3301
  134MPD2    H3 2091   3.842   0.177  10.234 -1.1322  1.4076 -1.2394
  134MPD2     N 2092   3.854   4.578   9.946 -0.2461 -0.3574  0.1527
  134MPD2    H5 2093   3.790   4.530  10.007  0.0539 -1.6406 -0.5399
  134MPD2    N1 2094   4.086   0.264   9.865  0.4170 -0.2494  0.1785
  134MPD2    H7 2095   4.084   0.362   9.894  1.0859 -0.0376 -0.4848
  135TMC2    C1 2096   1.526   1.043  10.145 -0.6669 -0.2449  0.0353
  135TMC2    C2 2097   1.429   1.054  10.240 -0.0075  1.0529 -0.3978
  135TMC2    C3 2098   1.327   0.967  10.243  0.1999  0.6905  0.9930
  135TMC2    C4 2099   1.533   0.937  10.057 -0.3910  0.3188 -0.0274
  135TMC2    C5 2100   1.426   0.857  10.053 -0.1125 -0.0227 -0.3478
  135TMC2    C6 2101   1.319   0.863  10.146  0.1911  1.4022 -0.2194
  135TMC2     C 2102   1.585   1.167  10.098  0.4445 -0.4086 -0.3284
  135TMC2     O 2103   1.520   1.268  10.126  0.2783 -0.4896  0.4607
  135TMC2     H 2104   1.436   1.119  10.327 -0.7029 -0.1709  0.5644
  135TMC2    H1 2105   1.612   0.915   9.986 -0.6562 -1.7865  0.3297
  135TMC2    H2 2106   1.226   0.816  10.116  1.1356  0.6981 -2.0584
  135TMC2    C7 2107   1.420   0.763   9.950  0.0781  0.3636 -0.0936
  135TMC2    C8 2108   1.226   0.988  10.343  0.1050  0.2719 -0.3806
  135TMC2    O1 2109   1.488   0.786   9.851  1.0030 -0.1754 -0.2775
  135TMC2    O2 2110   1.209   1.089  10.407  0.3890 -0.1399 -0.4780
  135TMC2    O5 2111   1.170   0.871  10.366 -0.1278 -0.0860  0.3102
  135TMC2    H5 2112   1.192   0.798  10.305  0.2210 -0.2424  0.6247
  136MPD2     C 2113   1.739   1.374   9.955  0.1489 -1.0884  0.1315
  136MPD2    C1 2114   1.775   1.243   9.956 -0.4005  0.1174  0.7184
  136MPD2    C2 2115   1.887   1.210   9.889  0.0796  0.1714  0.2246
  136MPD2    C3 2116   1.960   1.304   9.817 -0.5241  0.2995  0.5110
  136MPD2    C4 2117   1.908   1.432   9.803 -0.1447  0.4239 -0.1936
  136MPD2    C5 2118   1.796   1.469   9.876 -0.6070  0.6362  0.7284
  136MPD2     H 2119   1.923   1.108   9.897 -0.8460 -0.3081 -1.8368
  136MPD2    H1 2120   1.960   1.505   9.742 -0.2670 -0.6558 -1.5815
  136MPD2    H2 2121   1.657   1.408  10.018  2.3062  0.4500  2.1014
  136MPD2    H3 2122   1.765   1.572   9.883 -1.2846  0.3279  2.3314
  136MPD2     N 2123   2.084   1.275   9.752  0.1289  0.3377 -0.1820
  136MPD2    H5 2124   2.119   1.337   9.680  2.0118  1.9078  2.0746
  136MPD2    N1 2125   1.699   1.143  10.025 -0.3024  0.5473  0.4006
  136MPD2    H7 2126   1.742   1.051  10.023  3.4798  2.3389 -2.0385
  137TMC2    C1 2127   1.128   0.480   9.571  0.3407 -0.3604  0.0127
  137TMC2    C2 2128   1.234   0.539   9.510  0.6668 -0.5279  0.4743
  137TMC2    C3 2129   1.275   0.661   9.553  0.0613  0.0119  0.4392
  137TMC2    C4 2130   1.060   0.541   9.670  0.1716 -0.1583 -0.0202
  137TMC2    C5 2131   1.102   0.664   9.705 -0.1638 -0.1055 -0.0954
  137TMC2    C6 2132   1.210   0.733   9.653  0.5399 -0.6061 -0.0429
  137TMC2     C 2133   1.081   0.350   9.525 -0.1044 -0.1513  0.0714
  137TMC2     O 2134   1.016   0.274   9.593 -0.4468  0.2181  0.0925
  137TMC2     H 2135   1.288   0.498   9.425  0.1475 -2.5283  1.1095
  137TMC2    H1 2136   0.970   0.485   9.696  0.9217 -0.2193  2.4302
  137TMC2    H2 2137   1.246   0.825   9.698 -0.6100  0.0988 -0.5856
  137TMC2    C7 2138   1.053   0.715   9.834 -0.1249  0.2478  0.3610
  137TMC2    C8 2139   1.404   0.693   9.495  0.0816  0.0860 -0.2908
  137TMC2    O1 2140   1.107   0.814   9.872  0.0737  0.1998  0.3403
  137TMC2    O2 2141   1.486   0.611   9.468 -0.1008 -0.3358  0.1343
  137TMC2    O5 2142   1.439   0.816   9.536 -0.0791  0.3147  0.2119
  137TMC2    H5 2143   1.361   0.876   9.525  1.3102  1.8699 -1.1727
  138MPD2     C 2144   1.139   0.190   9.198 -0.3337  0.0899 -0.3761
  138MPD2    C1 2145   1.111   0.193   9.331 -0.4219  0.2878 -0.0384
  138MPD2    C2 2146   1.095   0.075   9.400 -0.3304 -0.5422 -0.5641
  138MPD2    C3 2147   1.097   4.693   9.326  0.4937 -0.0980  0.1652
  138MPD2    C4 2148   1.118   4.697   9.192 -0.2477 -0.1735  0.7308
  138MPD2    C5 2149   1.134   0.074   9.127  0.7697 -0.4782 -0.0920
  138MPD2     H 2150   1.060   0.077   9.502 -0.5485 -1.0567 -0.6266
  138MPD2    H1 2151   1.122   4.611   9.125 -1.7514 -0.2698  0.7487
  138MPD2    H2 2152   1.151   0.278   9.135 -1.4694  0.8165  0.4125
  138MPD2    H3 2153   1.154   0.082   9.021 -1.7179  0.8752 -0.4620
  138MPD2     N 2154   1.093   4.572   9.403  0.0160  0.1917 -0.2762
  138MPD2    H5 2155   1.093   4.580   9.504  0.0994  0.5520 -0.3030
  138MPD2    N1 2156   1.106   0.320   9.395 -0.0794  0.1028  0.9529
  138MPD2    H7 2157   1.120   0.404   9.341  0.0006 -0.5679 -0.0698
  139TMC2    C1 2158   1.305   2.889  13.333  0.4587  0.0247  0.6196
  139TMC2    C2 2159   1.398   2.990  13.329 -0.1695  0.5084  0.5379
  139TMC2    C3 2160   1.359   3.105  13.388  0.0276  1.1020  0.2142
  139TMC2    C4 2161   1.174   2.911  13.355 -0.3143  0.1641  0.3617
  139TMC2    C5 2162   1.140   3.040  13.397  0.6160  0.1471  0.3879
  139TMC2    C6 2163   1.228   3.145  13.408  0.0587  0.0121 -0.9761
  139TMC2     C 2164   1.361   2.750  13.335  0.1592  0.1491  0.6499
  139TMC2     O 2165   1.480   2.739  13.305 -0.0873 -0.0974 -0.1787
  139TMC2     H 2166   1.503   2.972  13.313 -0.2392  2.4258 -2.0704
  139TMC2    H1 2167   1.107   2.826  13.355  0.2311 -0.2758 -0.1605
  139TMC2    H2 2168   1.209   3.252  13.410  1.1762  0.2136 -1.0809
  139TMC2    C7 2169   1.000   3.077  13.418  0.0829 -0.4390 -0.1681
  139TMC2    C8 2170   1.459   3.203  13.406 -0.4026 -0.4803 -0.3746
  139TMC2    O1 2171   0.978   3.201  13.430  0.3704  0.2436 -0.3921
  139TMC2    O2 2172   1.559   3.210  13.338  0.8754  0.6557  0.1529
  139TMC2    O5 2173   1.462   3.229  13.541 -0.6889 -0.7475  0.3400
  139TMC2    H5 2174   1.374   3.235  13.584  0.0966  1.4940  1.6288
  140MPD2     C 2175   1.185   2.440  13.404 -0.1747  0.0935  0.0179
  140MPD2    C1 2176   1.296   2.521  13.380  0.6758 -0.3552 -0.8244
  140MPD2    C2 2177   1.422   2.462  13.378 -0.0323 -0.0342 -0.6192
  140MPD2    C3 2178   1.445   2.327  13.407 -0.4449 -0.5922  0.0154
  140MPD2    C4 2179   1.333   2.249  13.416  0.9203  0.4908  0.6894
  140MPD2    C5 2180   1.207   2.306  13.413  0.6483 -0.2635 -0.3262
  140MPD2     H 2181   1.509   2.526  13.378 -0.9691  1.2492  1.0471
  140MPD2    H1 2182   1.344   2.141  13.416 -0.6305  0.3273 -1.1534
  140MPD2    H2 2183   1.082   2.473  13.416  0.1736  1.1392  0.1929
  140MPD2    H3 2184   1.129   2.235  13.438 -0.1324  0.9375  0.6829
  140MPD2     N 2185   1.581   2.282  13.413 -0.0950 -0.1572 -0.1688
  140MPD2    H5 2186   1.654   2.348  13.385 -1.1358  1.2015  0.3392
  140MPD2    N1 2187   1.269   2.655  13.367  0.2164 -0.1015 -0.2727
  140MPD2    H7 2188   1.172   2.687  13.366 -0.1574 -1.2039  0.5725
  141TMC2    C1 2189   2.146   4.121  15.464  0.4637 -0.0187 -0.3781
  141TMC2    C2 2190   2.111   4.030  15.558  0.6144 -0.1768 -0.8343
  141TMC2    C3 2191   2.089   4.073  15.683  0.0791  0.2975 -0.2559
  141TMC2    C4 2192   2.175   4.253  15.500  0.4344  0.1322 -0.6165
  141TMC2    C5 2193   2.148   4.298  15.623  0.3671  0.9245  0.1641
  141TMC2    C6 2194   2.100   4.205  15.717  0.9199 -0.5293  0.1281
  141TMC2     C 2195   2.135   4.103  15.321  0.1517  0.1979 -0.1353
  141TMC2     O 2196   2.169   4.197  15.250  0.5029 -0.0149  0.2698
  141TMC2     H 2197   2.132   3.927  15.533 -0.4225 -0.8596  1.0972
  141TMC2    H1 2198   2.199   4.325  15.423 -0.3927 -1.4089 -2.3050
  141TMC2    H2 2199   2.070   4.237  15.816 -2.2154 -2.2909 -0.2741
  141TMC2    C7 2200   2.126   4.442  15.642 -0.5691 -0.4650 -0.5011
  141TMC2    C8 2201   2.086   3.965  15.780  0.8711  0.4309  0.7560
  141TMC2    O1 2202   2.096   4.488  15.751 -0.4185 -0.0882 -0.3427
  141TMC2    O2 2203   2.039   3.858  15.756  0.3265 -0.4417  0.7705
  141TMC2    O5 2204   2.122   4.007  15.897  0.0879 -0.3593  0.2385
  141TMC2    H5 2205   2.158   4.098  15.903  1.2908 -0.8045 -0.2634
  142TMC2    C1 2206   0.159   2.911  10.181  1.2962 -0.6237  0.8678
  142TMC2    C2 2207   0.108   2.921  10.052 -0.3899 -0.2233 -0.5667
  142TMC2    C3 2208   0.175   3.008   9.972  0.0038  0.6278  0.1151
  142TMC2    C4 2209   0.269   2.981  10.215 -0.3212  0.0515  0.3192
  142TMC2    C5 2210   0.338   3.063  10.124  0.1542  0.7312 -0.1659
  142TMC2    C6 2211   0.280   3.092  10.005  0.1244  0.6585  0.7954
  142TMC2     C 2212   0.120   2.790  10.250  0.5973  0.0442  0.1104
  142TMC2     O 2213   0.063   2.711  10.182 -0.0467  0.0144  0.2615
  142TMC2     H 2214   0.020   2.862  10.027  0.5346 -1.0209 -1.9623
  142TMC2    H1 2215   0.320   2.954  10.307 -0.6678 -1.7622 -0.0264
  142TMC2    H2 2216   0.324   3.154   9.928 -1.0559 -2.4423 -2.3532
  142TMC2    C7 2217   0.445   3.156  10.179 -0.1975  0.8103 -0.0450
  142TMC2    C8 2218   0.128   2.988   9.836  0.3591  0.2452  0.0620
  142TMC2    O1 2219   0.454   3.161  10.297  0.7779  0.5011  0.8457
  142TMC2    O2 2220   0.034   3.050   9.785  0.2407 -0.6434  0.2449
  142TMC2    O5 2221   0.238   2.953   9.774 -0.4053  0.3783 -0.1076
  142TMC2    H5 2222   0.289   2.886   9.824 -0.9772  0.6868  0.8975
  143MPD2     C 2223   0.098   2.494  10.662 -0.8206  0.2468  0.3638
  143MPD2    C1 2224   0.050   2.472  10.534  0.4290 -0.0722 -0.4971
  143MPD2    C2 2225   0.073   2.572  10.441  1.0172  0.2994 -0.1510
  143MPD2    C3 2226   0.133   2.687  10.479 -0.1099 -0.5140 -0.4865
  143MPD2    C4 2227   0.185   2.701  10.607  0.5978 -0.5066  0.3454
  143MPD2    C5 2228   0.170   2.600  10.691  0.0390  0.7555  0.2572
  143MPD2     H 2229   0.047   2.561  10.336 -2.7610  0.8481  0.7271
  143MPD2    H1 2230   0.249   2.786  10.627  0.7187 -0.2379 -1.1216
  143MPD2    H2 2231   0.088   2.421  10.742  0.3309 -0.8303 -0.4598
  143MPD2    H3 2232   0.220   2.616  10.786  0.3497 -1.8312  0.5184
  143MPD2     N 2233   0.154   2.790  10.388 -0.1136  0.0893  0.8095
  143MPD2    H5 2234   0.201   2.873  10.422  0.1662  0.5080 -0.5797
  143MPD2    N1 2235   4.715   2.355  10.503 -0.0549 -0.6390 -0.0466
  143MPD2    H7 2236   4.711   2.293  10.583  0.0697  0.8786  1.1383
  144TMC2    C1 2237   2.587   2.009   0.619 -0.2379 -0.6426  0.3428
  144TMC2    C2 2238   2.659   2.021   0.504  0.3506 -0.1540  0.7588
  144TMC2    C3 2239   2.770   2.097   0.508 -0.1612 -0.0782 -0.2159
  144TMC2    C4 2240   2.616   2.066   0.737  0.1869  0.0011  0.1497
  144TMC2    C5 2241   2.734   2.141   0.742 -0.0887  0.1838  0.4722
  144TMC2    C6 2242   2.809   2.156   0.621 -0.3733  0.3582  0.1982
  144TMC2     C 2243   2.461   1.940   0.600 -0.3068  0.3494 -0.3390
  144TMC2     O 2244   2.463   1.846   0.518 -0.1583 -0.4092  0.7675
  144TMC2     H 2245   2.617   1.987   0.411  0.4307  1.2861  0.1909
  144TMC2    H1 2246   2.563   2.043   0.829 -0.3281  0.9313  0.0874
  144TMC2    H2 2247   2.892   2.226   0.612  1.0090 -1.3897 -0.6853
  144TMC2    C7 2248   2.780   2.213   0.864 -0.5732  0.6469  0.2241
  144TMC2    C8 2249   2.834   2.126   0.381 -0.7349  0.2770  0.4991
  144TMC2    O1 2250   2.903   2.214   0.875 -0.6642 -0.7395  0.2924
  144TMC2    O2 2251   2.779   2.095   0.279 -0.1852 -0.3136  0.4879
  144TMC2    O5 2252   2.966   2.137   0.397  0.0975  0.1288 -0.2434
  144TMC2    H5 2253   2.991   2.139   0.492  1.4447 -1.9770 -0.5567
  145MPD2     C 2254   1.954   1.896   0.650  0.2752 -0.8069 -0.4539
  145MPD2    C1 2255   2.045   1.833   0.558 -0.9861  0.2519 -0.2852
  145MPD2    C2 2256   2.179   1.859   0.574 -0.2247 -0.1408  0.6556
  145MPD2    C3 2257   2.222   1.954   0.661 -0.7525 -0.1264 -0.2208
  145MPD2    C4 2258   2.139   2.034   0.733  0.0031 -1.0818 -0.6408
  145MPD2    C5 2259   2.007   2.002   0.718  0.0362  0.5045 -0.7592
  145MPD2     H 2260   2.245   1.807   0.506  1.2852  0.3667  1.7409
  145MPD2    H1 2261   2.167   2.115   0.800  0.9528 -0.9995 -1.1366
  145MPD2    H2 2262   1.851   1.866   0.667  0.1556  0.5001  1.0784
  145MPD2    H3 2263   1.930   2.055   0.773 -0.0875 -0.2701 -0.1921
  145MPD2     N 2264   2.355   1.995   0.672  0.0536  0.4317  0.8959
  145MPD2    H5 2265   2.376   2.064   0.743  0.1072 -0.2920  1.5891
  145MPD2    N1 2266   2.002   1.724   0.472  0.1424 -0.4158 -0.0042
  145MPD2    H7 2267   2.071   1.680   0.413 -0.2740 -0.3862 -0.5141
  146TMC2    C1 2268   4.333   0.262  12.571  0.6151 -0.4111  0.2258
  146TMC2    C2 2269   4.304   0.255  12.434  0.3493  0.1028 -0.4575
  146TMC2    C3 2270   4.392   0.178  12.356  0.5597 -0.5721 -0.1264
  146TMC2    C4 2271   4.443   0.206  12.626  0.0222  0.0744  0.5144
  146TMC2    C5 2272   4.516   0.120  12.552 -0.1512  0.2489 -0.1116
  146TMC2    C6 2273   4.492   0.104  12.420  0.2691 -0.0866  0.2350
  146TMC2     C 2274   4.250   0.348  12.650  0.0751 -0.9469 -0.3635
  146TMC2     O 2275   4.173   0.424  12.588 -0.3405 -0.0391 -0.3119
  146TMC2     H 2276   4.234   0.324  12.388 -0.1806  0.2594  0.5788
  146TMC2    H1 2277   4.464   0.224  12.731  2.7604  0.5379 -0.1017
  146TMC2    H2 2278   4.539   0.028  12.358  0.7805  0.2542  0.2084
  146TMC2    C7 2279   4.645   0.084  12.602  0.2929 -0.5393 -0.7008
  146TMC2    C8 2280   4.353   0.168  12.221 -0.2551  0.1343  0.4899
  146TMC2    O1 2281   4.732   0.093  12.518 -0.3337 -0.3332  0.3269
  146TMC2    O2 2282   4.243   0.196  12.177  0.3768 -0.5241 -0.2091
  146TMC2    O5 2283   4.463   0.132  12.152 -0.0087  0.1483  0.3008
  146TMC2    H5 2284   4.540   0.122  12.212  1.3386  2.2723 -1.0917
  147MPD2     C 2285   0.251   4.694  12.950  0.0072  0.2528  0.0958
  147MPD2    C1 2286   0.128   4.669  12.998 -0.0836  0.9284  0.1756
  147MPD2    C2 2287   0.016   4.701  12.920 -0.0684  0.0363  0.1713
  147MPD2    C3 2288   0.031   0.021  12.796  0.2279  0.3308 -0.0313
  147MPD2    C4 2289   0.160   0.042  12.744 -0.2114 -0.2842  0.3797
  147MPD2    C5 2290   0.271   0.004  12.821 -0.3692  0.7164 -0.0790
  147MPD2     H 2291   4.655   4.675  12.955  0.4171  0.0325  1.5513
  147MPD2    H1 2292   0.187   0.079  12.645 -0.6932 -3.1425 -0.8038
  147MPD2    H2 2293   0.338   4.672  13.011 -0.5989 -0.1880  0.7914
  147MPD2    H3 2294   0.375   0.019  12.792  0.1562  1.0114  1.9412
  147MPD2     N 2295   4.650   0.068  12.740  0.8737  0.1603  0.5020
  147MPD2    H5 2296   4.564   0.060  12.794  0.6285 -0.5470  0.0144
  147MPD2    N1 2297   0.121   4.629  13.130  0.1402  0.2144 -0.3199
  147MPD2    H7 2298   0.206   4.596  13.175  1.3488  1.9360 -1.3343
  148TMC2    C1 2299   4.323   4.139  11.019  0.3721  0.7736  0.0647
  148TMC2    C2 2300   4.452   4.191  11.037 -0.4481  0.1956 -0.0867
  148TMC2    C3 2301   4.555   4.101  11.034 -0.4587 -1.2229  0.3953
  148TMC2    C4 2302   4.300   4.001  11.032  0.0603  0.8110 -1.3595
  148TMC2    C5 2303   4.409   3.921  11.019 -0.6307  0.5443  0.0082
  148TMC2    C6 2304   4.542   3.964  11.016  0.3507 -0.4683  0.0468
  148TMC2     C 2305   4.218   4.230  10.978  0.5096  0.7275  0.7654
  148TMC2     O 2306   4.235   4.346  11.011 -0.4018  0.2829  0.1798
  148TMC2     H 2307   4.469   4.298  11.027 -0.8275  0.2450 -0.2105
  148TMC2    H1 2308   4.200   3.959  11.036  0.1358  0.8639  0.8501
  148TMC2    H2 2309   4.624   3.894  11.019 -0.0784 -0.9288  1.2550
  148TMC2    C7 2310   4.402   3.780  11.045  0.3149  0.2414 -0.2828
  148TMC2    C8 2311   4.687   4.159  11.013 -0.0750 -0.0259  0.0394
  148TMC2    O1 2312   4.498   3.710  11.023  0.1744  0.0708 -0.1679
  148TMC2    O2 2313   4.706   4.278  11.048 -0.3143 -0.2286  0.6918
  148TMC2    O5 2314   0.001   4.100  10.905 -0.7213 -0.4484 -0.0691
  148TMC2    H5 2315   4.726   4.003  10.895  0.9605 -0.6057 -0.8258
  149MPD2     C 2316   4.016   4.359  10.799 -0.2702  0.5635  0.3335
  149MPD2    C1 2317   4.012   4.224  10.822 -0.2096  0.4265  0.0870
  149MPD2    C2 2318   3.929   4.139  10.753 -0.5373 -0.6109  0.1096
  149MPD2    C3 2319   3.838   4.193  10.660 -0.2740 -0.2629 -0.2655
  149MPD2    C4 2320   3.839   4.330  10.649  0.2072 -0.4221  0.3643
  149MPD2    C5 2321   3.923   4.411  10.720 -0.2867 -0.0146  0.1756
  149MPD2     H 2322   3.927   4.031  10.764 -0.1142 -0.4657  1.5871
  149MPD2    H1 2323   3.762   4.382  10.594  2.5944  2.2610 -0.3976
  149MPD2    H2 2324   4.082   4.427  10.850  1.2478 -1.3681  0.9375
  149MPD2    H3 2325   3.916   4.519  10.705  1.3351  0.3591  2.0703
  149MPD2     N 2326   3.752   4.115  10.581  0.0993  0.1714  0.5512
  149MPD2    H5 2327   3.684   4.166  10.526  0.2195 -0.2532 -0.0006
  149MPD2    N1 2328   4.116   4.166  10.904  0.2441 -0.2630 -0.7192
  149MPD2    H7 2329   4.124   4.066  10.892 -1.3854 -0.1233 -2.9322
  150TMC2    C1 2330   1.834   3.392  12.156 -0.0680 -0.5481  0.0736
  150TMC2    C2 2331   1.840   3.502  12.069 -0.6624  0.6084 -0.6808
  150TMC2    C3 2332   1.960   3.559  12.061 -1.1349 -0.9107 -1.1132
  150TMC2    C4 2333   1.935   3.352  12.235  0.1504 -0.5112  0.0488
  150TMC2    C5 2334   2.057   3.411  12.223  0.3385 -0.0376  0.1755
  150TMC2    C6 2335   2.074   3.513  12.129 -0.2167  0.3522  0.2291
  150TMC2     C 2336   1.706   3.337  12.192  0.2959 -0.2023 -0.3596
  150TMC2     O 2337   1.699   3.291  12.306  0.6699 -0.1056 -0.4009
  150TMC2     H 2338   1.753   3.545  12.020 -0.1588  1.4842 -0.8054
  150TMC2    H1 2339   1.921   3.256  12.283 -1.5140 -1.5479 -2.4963
  150TMC2    H2 2340   2.164   3.572  12.119 -0.3502  0.6187  0.6182
  150TMC2    C7 2341   2.165   3.397  12.318 -1.1312  0.3271 -0.2343
  150TMC2    C8 2342   1.975   3.691  11.994 -0.9415 -0.7374 -0.6909
  150TMC2    O1 2343   2.259   3.474  12.298 -0.2430 -0.3393 -0.0374
  150TMC2    O2 2344   2.072   3.766  12.004 -0.6956  0.3703  0.1875
  150TMC2    O5 2345   1.899   3.689  11.882  0.1778  0.8681  0.2810
  150TMC2    H5 2346   1.820   3.633  11.864  0.0905  1.4518 -1.2021
  151MPD2     C 2347   1.209   3.213  12.102  0.5277 -0.1085 -0.8330
  151MPD2    C1 2348   1.279   3.238  11.980  0.3007 -0.4606 -0.1748
  151MPD2    C2 2349   1.409   3.276  11.983 -0.0540 -0.4524 -0.0799
  151MPD2    C3 2350   1.475   3.283  12.101  0.0343  0.4179  0.1674
  151MPD2    C4 2351   1.408   3.256  12.221  0.3862 -0.2779  0.8753
  151MPD2    C5 2352   1.274   3.218  12.225 -0.3898 -0.0899 -0.8178
  151MPD2     H 2353   1.446   3.310  11.887 -2.1667 -0.9692 -1.0655
  151MPD2    H1 2354   1.459   3.260  12.317  0.0098  1.8410  0.9672
  151MPD2    H2 2355   1.101   3.203  12.108  0.5978 -1.7807 -2.2686
  151MPD2    H3 2356   1.221   3.213  12.319  0.8039 -2.2846 -0.2514
  151MPD2     N 2357   1.610   3.333  12.093  0.5389  0.1104 -0.6400
  151MPD2    H5 2358   1.642   3.368  12.003 -2.2821  2.8639 -0.5743
  151MPD2    N1 2359   1.198   3.240  11.861 -0.1458  0.2732 -0.2175
  151MPD2    H7 2360   1.101   3.211  11.866  0.4191 -1.2786  1.5758
  152TMC2    C1 2361   1.092   2.856  12.648 -0.2799 -0.5775  0.7072
  152TMC2    C2 2362   1.202   2.771  12.659 -0.4401  0.1198  0.0920
  152TMC2    C3 2363   1.330   2.820  12.623 -0.0320 -0.5925  0.1322
  152TMC2    C4 2364   1.108   2.988  12.619  0.3697 -0.0561 -0.3807
  152TMC2    C5 2365   1.234   3.035  12.598  0.7645 -0.5779  0.0239
  152TMC2    C6 2366   1.348   2.951  12.589  0.1164  0.3558  0.2519
  152TMC2     C 2367   0.959   2.803  12.651  0.3136 -0.7279  0.1553
  152TMC2     O 2368   0.867   2.883  12.642  0.1331 -0.6936  0.4415
  152TMC2     H 2369   1.196   2.663  12.656  0.7515  0.0542  0.2651
  152TMC2    H1 2370   1.022   3.053  12.622  2.7013  2.9133  2.2537
  152TMC2    H2 2371   1.445   2.997  12.571 -0.2234  0.0450 -2.3405
  152TMC2    C7 2372   1.247   3.177  12.578  0.2229 -0.0835 -0.0957
  152TMC2    C8 2373   1.441   2.729  12.640  0.0472 -0.0202  0.3049
  152TMC2    O1 2374   1.146   3.246  12.555  1.1623  0.3603 -0.7091
  152TMC2    O2 2375   1.433   2.613  12.672 -0.2124  0.1253 -0.6217
  152TMC2    O5 2376   1.557   2.790  12.614  0.0655  0.1473  0.1824
  152TMC2    H5 2377   1.552   2.887  12.600  0.2473  0.3034  1.2316
  153MPD2     C 2378   0.856   2.473  12.774  0.7367  0.8111  0.0925
  153MPD2    C1 2379   0.846   2.592  12.707 -0.4750 -0.3970 -0.1191
  153MPD2    C2 2380   0.719   2.636  12.672 -0.6379  0.5698 -0.3568
  153MPD2    C3 2381   0.607   2.560  12.689 -0.8391  0.3037 -0.2587
  153MPD2    C4 2382   0.623   2.434  12.741 -0.8688 -0.1956  0.7514
  153MPD2    C5 2383   0.747   2.391  12.791  0.2455  0.0060 -0.0129
  153MPD2     H 2384   0.711   2.731  12.621  0.6274  0.4854 -0.7019
  153MPD2    H1 2385   0.539   2.366  12.743 -0.7413 -0.4238 -1.7483
  153MPD2    H2 2386   0.954   2.431  12.794 -0.2176 -1.2600  0.3901
  153MPD2    H3 2387   0.752   2.303  12.854  1.0069  0.3804  0.4479
  153MPD2     N 2388   0.486   2.604  12.640  0.1266 -0.4452  0.0774
  153MPD2    H5 2389   0.481   2.686  12.581 -0.8381 -0.1956  0.5032
  153MPD2    N1 2390   0.958   2.675  12.694  0.2687  0.3313  0.4248
  153MPD2    H7 2391   1.045   2.641  12.734  0.0276  0.7904  1.3209
  154TMC2    C1 2392   1.810   3.139   0.421 -0.7285  0.5141  0.7712
  154TMC2    C2 2393   1.909   3.189   0.506  0.2994 -0.0592  0.3597
  154TMC2    C3 2394   2.024   3.225   0.450 -0.5199 -0.1901  0.0426
  154TMC2    C4 2395   1.831   3.118   0.287  0.5654 -0.4030  0.2945
  154TMC2    C5 2396   1.957   3.155   0.242  0.4711  0.1736  0.3196
  154TMC2    C6 2397   2.051   3.207   0.320 -0.4101  0.0945  0.0824
  154TMC2     C 2398   1.679   3.107   0.480 -0.0501  0.1496  0.0106
  154TMC2     O 2399   1.678   3.129   0.601 -0.0885  0.1455 -0.6136
  154TMC2     H 2400   1.884   3.201   0.611  0.3391  0.0446  0.3582
  154TMC2    H1 2401   1.749   3.094   0.220 -2.5475  1.4301  3.4474
  154TMC2    H2 2402   2.157   3.219   0.304 -0.8086  1.8928 -1.2860
  154TMC2    C7 2403   2.003   3.117   0.109  1.3967  0.5667  0.6132
  154TMC2    C8 2404   2.123   3.291   0.536  0.3262  0.1779 -0.2525
  154TMC2    O1 2405   2.093   3.182   0.059 -0.1682  0.3415 -0.6272
  154TMC2    O2 2406   2.244   3.265   0.545 -0.0331 -0.0060 -0.1130
  154TMC2    O5 2407   2.053   3.390   0.599  0.2078  0.1447 -0.1000
  154TMC2    H5 2408   1.965   3.407   0.558 -0.2537 -1.9860 -0.0261
  155MPD2     C 2409   1.355   3.038   0.337  1.0222  0.1013  0.3966
  155MPD2    C1 2410   1.440   3.087   0.435  0.1721  0.2974 -0.1751
  155MPD2    C2 2411   1.394   3.129   0.560 -0.3541  0.0785 -0.1905
  155MPD2    C3 2412   1.266   3.135   0.583 -0.8368  0.5323  0.0054
  155MPD2    C4 2413   1.177   3.100   0.490  0.5105 -1.1333  0.3888
  155MPD2    C5 2414   1.222   3.039   0.380  0.1415 -0.1658 -0.0545
  155MPD2     H 2415   1.464   3.169   0.633  0.3858  2.8401 -2.3951
  155MPD2    H1 2416   1.072   3.116   0.509  0.1373 -0.9468 -1.8225
  155MPD2    H2 2417   1.389   2.997   0.242  2.1915 -1.0991  1.3332
  155MPD2    H3 2418   1.150   3.002   0.308  0.5295  0.5301 -0.7871
  155MPD2     N 2419   1.228   3.177   0.710 -0.2363 -0.2543 -0.3309
  155MPD2    H5 2420   1.300   3.194   0.780 -2.9030 -0.4966  2.5033
  155MPD2    N1 2421   1.574   3.068   0.401 -0.3869 -0.3819 -0.1126
  155MPD2    H7 2422   1.608   3.049   0.308  0.9449 -0.0135  0.2990
  156TMC2    C1 2423   1.010   0.505  12.081 -0.5126  0.1878 -0.8206
  156TMC2    C2 2424   0.894   0.427  12.061 -0.0394  0.1825 -0.7656
  156TMC2    C3 2425   0.833   0.441  11.938 -0.1701  0.2900  0.4917
  156TMC2    C4 2426   1.060   0.588  11.985  0.1187 -0.1068  0.7139
  156TMC2    C5 2427   0.990   0.603  11.871  0.1607 -0.0409  0.3489
  156TMC2    C6 2428   0.876   0.532  11.849  0.6670  1.5754  0.1201
  156TMC2     C 2429   1.070   0.512  12.211 -0.2794 -0.2854 -0.4886
  156TMC2     O 2430   1.132   0.611  12.240  0.5669 -0.1490 -0.4407
  156TMC2     H 2431   0.834   0.392  12.144 -0.0827  0.7914 -0.5380
  156TMC2    H1 2432   1.158   0.633  11.995 -0.1379  0.6573 -0.2062
  156TMC2    H2 2433   0.810   0.568  11.771  1.3370 -1.1787 -1.7331
  156TMC2    C7 2434   1.006   0.735  11.813 -0.4379 -0.6170 -0.5132
  156TMC2    C8 2435   0.693   0.402  11.929 -0.2201  0.6463 -0.1353
  156TMC2    O1 2436   1.086   0.813  11.863 -0.0731 -0.4689  0.1398
  156TMC2    O2 2437   0.620   0.403  12.028 -0.1468  0.4582  0.4300
  156TMC2    O5 2438   0.655   0.381  11.802  0.2309 -0.5834 -0.7969
  156TMC2    H5 2439   0.726   0.329  11.759  1.4768  0.4921 -0.0214
  157MPD2     C 2440   1.107   0.242  12.459  0.0539  0.4053  0.0047
  157MPD2    C1 2441   1.141   0.358  12.385 -1.0880  0.6199 -0.4551
  157MPD2    C2 2442   1.257   0.426  12.413 -0.4573  0.4555  0.1491
  157MPD2    C3 2443   1.337   0.384  12.518 -0.5464  0.2201 -0.1343
  157MPD2    C4 2444   1.300   0.277  12.604  0.0189  0.0947  0.3968
  157MPD2    C5 2445   1.190   0.209  12.566 -0.6490 -0.6183  0.5352
  157MPD2     H 2446   1.297   0.511  12.359 -1.1682  0.3258 -0.5860
  157MPD2    H1 2447   1.352   0.255  12.696  1.6262  0.1043 -0.5111
  157MPD2    H2 2448   1.014   0.190  12.434 -0.5303  1.1238  0.6742
  157MPD2    H3 2449   1.162   0.126  12.629  0.8233 -2.1539 -0.8697
  157MPD2     N 2450   1.449   0.467  12.539  0.1268  0.2124  0.7291
  157MPD2    H5 2451   1.474   0.540  12.473  1.3032 -0.9005 -0.0539
  157MPD2    N1 2452   1.064   0.388  12.275 -0.1931 -0.4058  0.2200
  157MPD2    H7 2453   0.988   0.326  12.249 -0.3115 -0.4858  0.7663
  158TMC2    C1 2454   1.067   4.182  13.671 -0.6517 -0.2048 -0.2215
  158TMC2    C2 2455   1.136   4.191  13.551 -0.2814 -0.8629  0.6947
  158TMC2    C3 2456   1.062   4.201  13.440  0.0388  0.4277 -0.4882
  158TMC2    C4 2457   0.931   4.171  13.669 -0.0741 -0.2458  0.0665
  158TMC2    C5 2458   0.866   4.177  13.551  0.4295 -0.2324  0.3199
  158TMC2    C6 2459   0.927   4.182  13.432 -0.1704  0.8037  0.6199
  158TMC2     C 2460   1.128   4.149  13.795  0.0430 -0.6196 -0.1340
  158TMC2     O 2461   1.054   4.091  13.874  0.0800 -0.2077 -0.8254
  158TMC2     H 2462   1.244   4.198  13.543 -0.4308 -0.8183 -1.1331
  158TMC2    H1 2463   0.887   4.181  13.768 -0.1735 -2.1810  0.2237
  158TMC2    H2 2464   0.859   4.215  13.354  1.8025  4.1903  0.3095
  158TMC2    C7 2465   0.720   4.157  13.548 -0.3852  0.0575 -0.2872
  158TMC2    C8 2466   1.135   4.245  13.322 -0.5941 -0.1394 -0.4148
  158TMC2    O1 2467   0.661   4.191  13.446 -0.3827 -0.6064 -0.4399
  158TMC2    O2 2468   1.234   4.313  13.322  0.1699 -0.1906 -0.0518
  158TMC2    O5 2469   1.059   4.217  13.214  0.9136  0.4424 -0.0705
  158TMC2    H5 2470   0.984   4.160  13.240 -2.0041  3.8565 -1.1063
  159MPD2     C 2471   1.538   3.962  14.043  0.1707 -0.9390 -0.6256
  159MPD2    C1 2472   1.404   3.927  14.049  0.7138  0.3358  0.2442
  159MPD2    C2 2473   1.316   3.988  13.969  0.4037  0.4691  0.0890
  159MPD2    C3 2474   1.356   4.096  13.884  0.5301 -0.8509 -0.2304
  159MPD2    C4 2475   1.483   4.140  13.891  0.3864  0.3361 -0.8082
  159MPD2    C5 2476   1.570   4.076  13.969 -0.2726  0.5113  0.2240
  159MPD2     H 2477   1.212   3.960  13.952  0.4405  1.3592 -1.5487
  159MPD2    H1 2478   1.527   4.216  13.827 -1.6193  0.4659 -2.0510
  159MPD2    H2 2479   1.611   3.908  14.102 -0.8783 -0.0139  1.5215
  159MPD2    H3 2480   1.676   4.099  13.972 -0.1523  0.0641 -0.8182
  159MPD2     N 2481   1.266   4.172  13.804  0.1962 -0.4566 -0.5495
  159MPD2    H5 2482   1.313   4.236  13.740  0.2029 -0.0993 -0.1861
  159MPD2    N1 2483   1.370   3.829  14.150 -0.4549 -0.5104 -0.5177
  159MPD2    H7 2484   1.444   3.776  14.194  1.0445  1.9755 -0.0998
  160TMC2    C1 2485   0.362   2.089   1.414 -0.0997  0.2233  0.5803
  160TMC2    C2 2486   0.323   1.963   1.444 -0.6666  0.1952 -0.3659
  160TMC2    C3 2487   0.397   1.856   1.409 -0.0242  0.1390  0.0368
  160TMC2    C4 2488   0.486   2.110   1.354  0.6183  0.0349  0.2848
  160TMC2    C5 2489   0.556   1.998   1.315  0.2395 -0.5972  0.2317
  160TMC2    C6 2490   0.509   1.873   1.337  0.2459 -0.1447 -0.6159
  160TMC2     C 2491   0.278   2.203   1.441  0.1583  0.8149 -0.3472
  160TMC2     O 2492   0.193   2.200   1.533 -0.1331  0.9528 -0.0565
  160TMC2     H 2493   0.224   1.949   1.485  0.0461  1.1770  1.6959
  160TMC2    H1 2494   0.532   2.209   1.349 -0.3003  0.5168  1.5844
  160TMC2    H2 2495   0.563   1.785   1.306 -2.0770 -2.2004  1.1285
  160TMC2    C7 2496   0.650   2.013   1.200 -0.1265 -0.1622 -0.3805
  160TMC2    C8 2497   0.378   1.728   1.475  0.4627  0.0622 -0.4559
  160TMC2    O1 2498   0.677   1.910   1.137 -0.3437  0.3322 -0.3642
  160TMC2    O2 2499   0.437   1.623   1.451 -0.1388 -0.1136 -0.3664
  160TMC2    O5 2500   0.335   1.760   1.602 -0.8525 -0.0605 -0.0602
  160TMC2    H5 2501   0.326   1.857   1.608 -0.5717  0.0860 -1.9610
  161MPD2     C 2502   0.164   2.471   1.447 -0.0666  0.1631 -0.5084
  161MPD2    C1 2503   0.235   2.425   1.340 -0.3377  0.2882 -0.2904
  161MPD2    C2 2504   0.249   2.514   1.232  0.2751  0.2989 -0.1485
  161MPD2    C3 2505   0.180   2.635   1.233 -0.1851  0.5921  0.9023
  161MPD2    C4 2506   0.127   2.680   1.346 -0.1855  0.1326  0.1119
  161MPD2    C5 2507   0.122   2.601   1.454  0.8131 -0.3658  0.3549
  161MPD2     H 2508   0.305   2.471   1.149 -1.2940 -0.2505 -0.9122
  161MPD2    H1 2509   0.077   2.775   1.357 -2.1150 -0.7625 -0.7856
  161MPD2    H2 2510   0.136   2.415   1.536  0.3847  0.3604 -0.2406
  161MPD2    H3 2511   0.079   2.651   1.540 -0.8434  1.8181 -1.7249
  161MPD2     N 2512   0.173   2.715   1.115 -0.3473  0.3468  0.1343
  161MPD2    H5 2513   0.125   2.804   1.123 -1.3560 -0.0563 -1.5008
  161MPD2    N1 2514   0.289   2.292   1.337 -0.1605  0.0506  0.2912
  161MPD2    H7 2515   0.356   2.272   1.263  1.7421  1.3786  1.6612
  162TMC2    C1 2516   3.892   4.362   1.254  0.2236  0.4073  0.2405
  162TMC2    C2 2517   3.859   4.376   1.385  0.4399 -0.5005  0.5959
  162TMC2    C3 2518   3.953   4.354   1.485 -0.7284 -0.5552  0.2149
  162TMC2    C4 2519   4.014   4.315   1.215 -0.1611  0.1483 -1.0022
  162TMC2    C5 2520   4.095   4.279   1.316 -0.4695  0.5082  0.0041
  162TMC2    C6 2521   4.074   4.302   1.452  0.7752  0.3797 -0.5421
  162TMC2     C 2522   3.799   4.351   1.149 -0.2099 -0.4950  0.2363
  162TMC2     O 2523   3.831   4.376   1.034 -0.1867  0.4357 -0.4293
  162TMC2     H 2524   3.758   4.407   1.410  0.7714 -0.3711  1.7959
  162TMC2    H1 2525   4.029   4.282   1.113 -0.1314  1.3447 -1.3805
  162TMC2    H2 2526   4.150   4.292   1.528  1.3062 -0.4480 -1.1756
  162TMC2    C7 2527   4.201   4.192   1.279 -0.3416  0.3333  0.1883
  162TMC2    C8 2528   3.921   4.383   1.627  0.5168  0.0992 -0.3997
  162TMC2    O1 2529   4.251   4.201   1.172 -0.5346  0.2802 -0.5147
  162TMC2    O2 2530   4.005   4.408   1.710 -0.1786 -0.2987  0.6462
  162TMC2    O5 2531   3.815   4.302   1.652 -0.0334 -0.1775 -0.4735
  162TMC2    H5 2532   3.747   4.276   1.586 -0.2773 -1.6324  0.3697
  163MPD2     C 2533   3.406   4.086   0.941  0.4625 -0.2271  0.3644
  163MPD2    C1 2534   3.498   4.169   0.883 -1.1493  0.2946 -0.1554
  163MPD2    C2 2535   3.580   4.242   0.965  0.8119  0.2526 -0.0370
  163MPD2    C3 2536   3.583   4.232   1.104  0.5059 -0.0432  0.2716
  163MPD2    C4 2537   3.486   4.146   1.156 -0.0522 -0.4421 -0.4128
  163MPD2    C5 2538   3.398   4.081   1.075  0.1473  0.5916 -0.6866
  163MPD2     H 2539   3.662   4.290   0.914  1.3192  1.5329  1.9696
  163MPD2    H1 2540   3.484   4.129   1.263  1.5262  2.2238  0.0261
  163MPD2    H2 2541   3.350   4.010   0.888 -0.3167  0.2647  0.4828
  163MPD2    H3 2542   3.325   4.011   1.115  0.8712 -1.9451 -3.8531
  163MPD2     N 2543   3.686   4.286   1.187  0.2277 -0.0922  0.8542
  163MPD2    H5 2544   3.677   4.261   1.285  1.5622 -0.6169  0.8353
  163MPD2    N1 2545   3.510   4.168   0.742  0.5099  0.1475 -1.0294
  163MPD2    H7 2546   3.464   4.093   0.691 -0.2649 -0.4384  0.5256
  164TMC2    C1 2547   4.527   3.567  11.398 -0.4815 -0.5068 -1.1016
  164TMC2    C2 2548   4.639   3.629  11.340 -0.1562  0.7110 -0.0432
  164TMC2    C3 2549   4.637   3.762  11.328  0.1386  0.2645 -0.7303
  164TMC2    C4 2550   4.425   3.641  11.446  0.1504  0.3103  0.3636
  164TMC2    C5 2551   4.439   3.783  11.437  0.6383 -0.5664 -0.1512
  164TMC2    C6 2552   4.549   3.844  11.384 -0.6170 -0.1913  0.3888
  164TMC2     C 2553   4.520   3.420  11.397 -0.1187  0.1394 -0.6460
  164TMC2     O 2554   4.438   3.359  11.464  0.4250  0.5692 -0.0105
  164TMC2     H 2555   4.729   3.580  11.304 -0.3413  0.1800  0.2274
  164TMC2    H1 2556   4.343   3.596  11.500  0.3750  1.2829  1.5030
  164TMC2    H2 2557   4.552   3.952  11.385  0.3248 -0.2049 -1.4908
  164TMC2    C7 2558   4.323   3.867  11.455  0.3688 -1.1539 -0.6358
  164TMC2    C8 2559   0.020   3.833  11.309  0.0324 -0.4738 -1.0876
  164TMC2    O1 2560   4.308   3.961  11.377 -0.7582  0.2380  0.2994
  164TMC2    O2 2561   0.052   3.892  11.207 -0.2922 -0.3508 -0.0829
  164TMC2    O5 2562   0.083   3.837  11.425 -0.2661 -0.3042  0.1647
  164TMC2    H5 2563   0.038   3.780  11.491  0.2471  2.0820  2.5433
  165TMC2    C1 2564   0.534   1.207   1.950 -0.3187  0.1947  0.1255
  165TMC2    C2 2565   0.396   1.205   1.922 -0.2942  0.4561 -0.3759
  165TMC2    C3 2566   0.342   1.315   1.867  0.7081 -0.3435 -0.2953
  165TMC2    C4 2567   0.605   1.319   1.930  0.4433  0.6899 -0.1964
  165TMC2    C5 2568   0.551   1.429   1.871 -0.1012 -0.3637 -0.5157
  165TMC2    C6 2569   0.411   1.430   1.843 -0.3642 -0.3838  0.1863
  165TMC2     C 2570   0.591   1.077   1.967 -0.2506  0.3112  0.0729
  165TMC2     O 2571   0.515   0.980   1.959 -0.8462  0.2864 -0.0165
  165TMC2     H 2572   0.337   1.114   1.932  0.4797  0.1357  1.3440
  165TMC2    H1 2573   0.709   1.327   1.960 -0.0516  0.4880  1.5871
  165TMC2    H2 2574   0.362   1.519   1.803 -1.7833 -1.9312 -1.5348
  165TMC2    C7 2575   0.644   1.530   1.820  0.7918 -0.0686 -0.8830
  165TMC2    C8 2576   0.202   1.311   1.859 -0.2046 -0.3495 -0.6840
  165TMC2    O1 2577   0.758   1.489   1.801  0.0009  0.1441  0.1677
  165TMC2    O2 2578   0.121   1.261   1.940 -0.7286 -0.0591  0.1857
  165TMC2    O5 2579   0.181   1.318   1.729  0.0887  0.2147  0.0212
  165TMC2    H5 2580   0.262   1.331   1.674 -0.0633  1.5770  0.1313
  166MPD2     C 2581   1.012   0.770   2.016  1.2294 -0.1099 -0.8745
  166MPD2    C1 2582   0.880   0.738   1.986  0.0733  0.2073  0.5811
  166MPD2    C2 2583   0.780   0.835   1.976 -0.2856 -0.0466  0.4911
  166MPD2    C3 2584   0.821   0.973   1.991 -0.3558 -0.1895  0.5685
  166MPD2    C4 2585   0.951   1.000   2.012  0.6884  0.4330  0.0893
  166MPD2    C5 2586   1.052   0.902   2.024  0.0148  0.3223 -0.6125
  166MPD2     H 2587   0.679   0.805   1.952 -0.3702  1.7946 -1.4418
  166MPD2    H1 2588   0.982   1.103   2.026  0.2319  0.6020 -0.1258
  166MPD2    H2 2589   1.093   0.698   2.026  0.6845 -0.5567  0.3961
  166MPD2    H3 2590   1.155   0.928   2.045 -0.5649  1.6970  0.5625
  166MPD2     N 2591   0.730   1.082   1.991  0.7142  0.0721 -0.1568
  166MPD2    H5 2592   0.776   1.172   2.001  0.2592  0.3949 -0.9233
  166MPD2    N1 2593   0.857   0.600   1.961 -0.2923 -0.2453 -0.0207
  166MPD2    H7 2594   0.937   0.538   1.966  0.0408  0.2817  1.1152
  167TMC2    C1 2595   3.624   3.889  12.651 -0.1583  0.3111 -0.2799
  167TMC2    C2 2596   3.674   3.962  12.755 -0.9261 -0.3376  0.1511
  167TMC2    C3 2597   3.664   3.913  12.885  0.7179 -0.4276 -0.2198
  167TMC2    C4 2598   3.566   3.767  12.678  0.2979  0.5120 -0.2424
  167TMC2    C5 2599   3.555   3.719  12.804  0.2445 -1.0337  0.5593
  167TMC2    C6 2600   3.588   3.795  12.913  0.0759 -0.2301  0.6115
  167TMC2     C 2601   3.656   3.933  12.514  1.1171  0.7466  0.5416
  167TMC2     O 2602   3.721   4.034  12.498 -0.1840  0.2376  0.4682
  167TMC2     H 2603   3.712   4.061  12.733  0.6569 -0.7653  0.9113
  167TMC2    H1 2604   3.537   3.703  12.596  1.2439  2.5984 -2.2367
  167TMC2    H2 2605   3.576   3.755  13.013  0.4547 -2.1046 -0.0998
  167TMC2    C7 2606   3.545   3.575  12.825 -0.2089 -0.8926 -0.1480
  167TMC2    C8 2607   3.739   3.979  12.991 -0.3604 -0.1021  0.2967
  167TMC2    O1 2608   3.507   3.538  12.933 -0.5928  1.0593  1.1339
  167TMC2    O2 2609   3.823   4.064  12.962 -0.0846  0.5330 -0.4241
  167TMC2    O5 2610   3.664   3.981  13.107  0.3144 -0.0984  0.2358
  167TMC2    H5 2611   3.587   3.920  13.105  0.0454  0.3294 -1.8968
  168MPD2     C 2612   3.681   3.921  12.207  0.4037 -0.1083 -0.2142
  168MPD2    C1 2613   3.589   3.850  12.288  0.6383  0.1294  0.2393
  168MPD2    C2 2614   3.505   3.761  12.228 -0.9529  0.0171  0.9920
  168MPD2    C3 2615   3.517   3.725  12.096 -0.5302  0.2115  0.6318
  168MPD2    C4 2616   3.604   3.793  12.016  0.3143  0.2267  0.2027
  168MPD2    C5 2617   3.683   3.894  12.074  0.3695  0.3523  0.6573
  168MPD2     H 2618   3.434   3.715  12.295 -1.3480 -1.9415 -0.7731
  168MPD2    H1 2619   3.613   3.780  11.909  4.2415 -1.6035  0.7726
  168MPD2    H2 2620   3.732   4.004  12.256 -0.3901  0.3140 -0.1012
  168MPD2    H3 2621   3.739   3.952  12.001 -1.0725  2.0490  0.8893
  168MPD2     N 2622   3.445   3.618  12.033 -0.3591  0.0321  0.1172
  168MPD2    H5 2623   3.461   3.595  11.936  1.2993 -2.5069  1.0021
  168MPD2    N1 2624   3.572   3.868  12.425  0.1531 -0.0400  0.0552
  168MPD2    H7 2625   3.489   3.825  12.463  0.8055  1.0495  2.7041
  169MPD1     C 2626   1.269   3.093   8.831 -0.5451  0.2640  0.0279
  169MPD1    C1 2627   1.284   2.973   8.887 -0.1468  0.8674 -0.2976
  169MPD1    C2 2628   1.354   2.954   9.002 -0.0274  0.3017  0.5229
  169MPD1    C3 2629   1.421   3.057   9.069 -0.3218 -0.3561 -1.3045
  169MPD1    C4 2630   1.425   3.180   9.000 -0.0781 -0.7175 -0.0516
  169MPD1    C5 2631   1.340   3.198   8.892  0.1669  0.3562  0.0805
  169MPD1     H 2632   1.341   2.862   9.059 -3.4104 -0.8009 -2.0749
  169MPD1    H1 2633   1.477   3.270   9.031 -0.0765 -0.9028  0.4829
  169MPD1    H2 2634   1.197   3.119   8.754  0.7532 -0.3606 -1.4067
  169MPD1    H3 2635   1.342   3.297   8.849 -1.4922  0.8666  1.1982
  169MPD1     N 2636   1.472   3.028   9.194 -0.4838 -0.1604 -0.2847
  169MPD1    H5 2637   1.457   2.932   9.223  3.3299 -0.7372 -0.1350
  169MPD1    N1 2638   1.203   2.869   8.834 -0.7716  0.1779  0.3435
  169MPD1    H6 2639   1.180   2.887   8.737  1.2028 -0.1791 -0.1746
  169MPD1    H7 2640   1.232   2.771   8.842  0.7355  0.6083  0.1328
  170MPD1     C 2641   3.926   2.603  13.486  0.5272  0.1817 -0.4377
  170MPD1    C1 2642   4.058   2.633  13.492  0.4290 -0.5101  0.6451
  170MPD1    C2 2643   4.150   2.532  13.477 -0.7234  0.4302  0.5475
  170MPD1    C3 2644   4.105   2.405  13.458  0.0206  0.4273 -0.2222
  170MPD1    C4 2645   3.974   2.378  13.436 -0.6074 -0.5473  0.2579
  170MPD1    C5 2646   3.881   2.477  13.457 -1.1861 -0.3288 -0.1292
  170MPD1     H 2647   4.256   2.555  13.485 -0.1477 -2.0767  0.2809
  170MPD1    H1 2648   3.947   2.278  13.404  0.5234 -0.9119  0.4444
  170MPD1    H2 2649   3.848   2.676  13.501 -0.8510 -1.3750 -0.0884
  170MPD1    H3 2650   3.776   2.454  13.448 -1.1772  0.6278 -2.8155
  170MPD1     N 2651   4.207   2.305  13.460 -0.4929  0.7817 -0.1231
  170MPD1    H5 2652   4.301   2.344  13.464  0.1092 -0.6707 -0.2341
  170MPD1    N1 2653   4.102   2.765  13.493 -0.1634 -0.8366 -0.0118
  170MPD1    H6 2654   4.034   2.830  13.532 -0.8102 -0.7760 -1.2427
  170MPD1    H7 2655   4.184   2.769  13.554 -1.1845  1.9674  1.1610
  171MPD1     C 2656   3.282   3.024  15.391 -0.2026 -0.5102  0.3570
  171MPD1    C1 2657   3.193   2.924  15.392  0.2652 -0.0658  0.2171
  171MPD1    C2 2658   3.247   2.799  15.420 -0.2393  0.0390 -0.1370
  171MPD1    C3 2659   3.379   2.768  15.461  0.4533  0.6153 -0.1998
  171MPD1    C4 2660   3.463   2.878  15.454 -0.3119  0.2020  0.0746
  171MPD1    C5 2661   3.417   3.003  15.414 -0.3042  0.1482 -0.0299
  171MPD1     H 2662   3.180   2.714  15.425 -1.5600  1.1432  1.3276
  171MPD1    H1 2663   3.569   2.874  15.471 -0.6186  0.3539  1.9752
  171MPD1    H2 2664   3.255   3.123  15.359 -0.9160 -0.5007  0.9940
  171MPD1    H3 2665   3.495   3.078  15.406  1.6013 -1.8372 -0.1593
  171MPD1     N 2666   3.420   2.647  15.516 -0.2524  0.0847  0.1625
  171MPD1    H5 2667   3.513   2.646  15.556 -0.7005 -2.0044  1.1561
  171MPD1    N1 2668   3.055   2.954  15.382 -0.0132  0.8454 -0.2575
  171MPD1    H6 2669   2.995   2.874  15.360  1.4399 -0.1314 -0.7073
  171MPD1    H7 2670   3.039   3.037  15.326  1.9052  1.6427  0.3673
  172MPD1     C 2671   3.199   1.627   0.482  0.0211 -0.2161 -0.1366
  172MPD1    C1 2672   3.083   1.557   0.492  0.2272 -0.3722  0.4820
  172MPD1    C2 2673   2.963   1.606   0.430 -0.4813  0.0248 -0.8097
  172MPD1    C3 2674   2.973   1.737   0.368 -0.2257 -0.8456  0.1026
  172MPD1    C4 2675   3.094   1.800   0.366 -0.3143 -0.3742 -0.2200
  172MPD1    C5 2676   3.203   1.756   0.434 -0.0894 -0.0318 -0.4063
  172MPD1     H 2677   2.875   1.544   0.433 -0.6207  0.1628 -2.2915
  172MPD1    H1 2678   3.085   1.896   0.316 -0.3105 -0.8986 -1.2208
  172MPD1    H2 2679   3.287   1.592   0.535  0.1777 -0.7631 -0.7596
  172MPD1    H3 2680   3.299   1.807   0.431 -1.0288  1.8261  1.0116
  172MPD1     N 2681   2.865   1.798   0.307  0.0941  0.3643 -0.5533
  172MPD1    H5 2682   2.880   1.893   0.276  0.9604  0.9976  1.7545
  172MPD1    N1 2683   3.078   1.429   0.554  0.1050  0.7265  0.1592
  172MPD1    H6 2684   2.992   1.412   0.606  0.4014 -0.1529  0.3588
  172MPD1    H7 2685   3.152   1.417   0.623  0.2870 -0.3263 -0.2313
  173MPD1     C 2686   4.088   2.508  14.180 -0.0850 -0.8595  0.5976
  173MPD1    C1 2687   4.165   2.398  14.194 -0.6189  0.2580 -0.0303
  173MPD1    C2 2688   4.105   2.282  14.241 -0.1577  0.1380  0.2208
  173MPD1    C3 2689   3.976   2.271  14.275 -0.3877 -0.6319 -0.1892
  173MPD1    C4 2690   3.895   2.384  14.268  0.6390 -0.6431  0.2289
  173MPD1    C5 2691   3.953   2.494  14.205 -0.5379  0.1383 -0.7167
  173MPD1     H 2692   4.169   2.195  14.243  0.7700  0.7950 -0.9118
  173MPD1    H1 2693   3.788   2.392  14.286  1.0103  1.0581  1.7330
  173MPD1    H2 2694   4.130   2.601  14.142 -3.5926 -0.1228 -1.4194
  173MPD1    H3 2695   3.885   2.577  14.190 -0.7191  0.4297  1.6962
  173MPD1     N 2696   3.926   2.145  14.316 -0.0304 -0.2992 -0.1791
  173MPD1    H5 2697   4.000   2.075  14.322 -1.2697 -1.8276 -2.7723
  173MPD1    N1 2698   4.295   2.391  14.149 -0.1257  0.1638  0.3462
  173MPD1    H6 2699   4.339   2.482  14.157 -3.2695  1.7611 -0.6287
  173MPD1    H7 2700   4.355   2.319  14.189  1.7699  1.5639  0.0462
  174MPD1     C 2701   4.084   1.430  13.907  0.0634 -0.6085 -0.2939
  174MPD1    C1 2702   4.069   1.378  14.031 -0.0541  1.0456 -0.1745
  174MPD1    C2 2703   4.032   1.464  14.129  0.2191 -0.4729 -0.6085
  174MPD1    C3 2704   3.977   1.584  14.106  0.2648  0.0923 -0.6770
  174MPD1    C4 2705   3.996   1.634  13.978  0.2484 -0.1808  0.4748
  174MPD1    C5 2706   4.046   1.558  13.884  0.2431  0.5326  0.5705
  174MPD1     H 2707   4.029   1.429  14.232 -3.2479  0.8805 -0.2439
  174MPD1    H1 2708   3.949   1.727  13.946  0.3741 -0.2064  0.2177
  174MPD1    H2 2709   4.128   1.381  13.820  0.2932 -0.4128 -0.2898
  174MPD1    H3 2710   4.060   1.602  13.786 -0.5216 -0.0242  0.2094
  174MPD1     N 2711   3.931   1.681  14.197 -0.5714 -0.2175 -0.3858
  174MPD1    H5 2712   3.908   1.774  14.164  0.8985  0.9182  1.8003
  174MPD1    N1 2713   4.131   1.255  14.062 -0.1021 -0.3540 -0.9497
  174MPD1    H6 2714   4.090   1.199  14.136  1.0911 -2.2402 -1.7274
  174MPD1    H7 2715   4.142   1.189  13.986 -2.3081 -0.6611 -1.0200
  175MPD1     C 2716   2.281   3.105  14.832  0.2379 -0.5765 -0.3373
  175MPD1    C1 2717   2.155   3.049  14.861  0.0390 -0.2034 -0.0957
  175MPD1    C2 2718   2.149   2.994  14.991  0.0406 -0.2357  0.1927
  175MPD1    C3 2719   2.251   3.016  15.083 -0.7782  0.6205  0.3086
  175MPD1    C4 2720   2.364   3.084  15.055  0.5535  0.2879 -0.1354
  175MPD1    C5 2721   2.384   3.118  14.923  0.2462  0.0668 -0.1809
  175MPD1     H 2722   2.061   2.942  15.027 -0.8928  0.8652 -0.4977
  175MPD1    H1 2723   2.444   3.108  15.125  0.3736  2.8572 -0.8166
  175MPD1    H2 2724   2.308   3.156  14.740  1.0416  0.0510  0.2483
  175MPD1    H3 2725   2.470   3.180  14.900 -0.8709  1.6396 -0.1691
  175MPD1     N 2726   2.244   2.971  15.213  0.5942 -0.1488 -0.4346
  175MPD1    H5 2727   2.325   2.988  15.272 -0.2341 -0.6693  0.8570
  175MPD1    N1 2728   2.056   3.018  14.765  0.1504  0.1567 -0.0476
  175MPD1    H6 2729   1.959   3.035  14.791 -0.5342  0.6152 -2.9788
  175MPD1    H7 2730   2.072   3.073  14.681  1.1780 -2.1996 -1.3957
  176MPD1     C 2731   2.654   4.331   0.923  0.5652  0.2774 -0.7889
  176MPD1    C1 2732   2.659   4.335   0.790  0.2367 -0.0969  0.2596
  176MPD1    C2 2733   2.766   4.399   0.728  0.4889  0.8881  0.3808
  176MPD1    C3 2734   2.858   4.475   0.800 -0.3742 -0.6411  0.2264
  176MPD1    C4 2735   2.845   4.473   0.936  1.2772  0.2484  0.0937
  176MPD1    C5 2736   2.744   4.397   0.995 -0.2420 -0.3405  0.4322
  176MPD1     H 2737   2.782   4.398   0.621 -0.3105  0.6802  0.2661
  176MPD1    H1 2738   2.909   4.528   1.004 -1.1195  1.0584  1.6957
  176MPD1    H2 2739   2.575   4.282   0.979  2.0574  0.0744  1.1272
  176MPD1    H3 2740   2.728   4.404   1.102  0.0641 -2.4045  0.6101
  176MPD1     N 2741   2.950   4.557   0.728  0.0951  0.4656 -0.0782
  176MPD1    H5 2742   2.942   4.542   0.628 -1.8547 -1.1137  0.3155
  176MPD1    N1 2743   2.585   4.244   0.717  0.1284 -0.2649  0.1611
  176MPD1    H6 2744   2.496   4.212   0.754  1.0101 -0.6990  1.8875
  176MPD1    H7 2745   2.571   4.267   0.619  2.0120 -3.4374 -0.8497
  177MPD1     C 2746   2.660   4.395  10.691  0.4789  0.2707 -0.1080
  177MPD1    C1 2747   2.677   4.529  10.650  0.0729  0.3241 -0.1147
  177MPD1    C2 2748   2.629   4.556  10.522 -0.8793  0.3192 -0.0688
  177MPD1    C3 2749   2.561   4.464  10.448  0.4356  0.1122  0.8294
  177MPD1    C4 2750   2.535   4.335  10.492  0.1809 -0.2721  0.3064
  177MPD1    C5 2751   2.573   4.309  10.623 -0.3818 -0.2729  0.5961
  177MPD1     H 2752   2.643   4.652  10.474 -0.5147 -0.5244 -1.6551
  177MPD1    H1 2753   2.483   4.263  10.430 -0.4863  1.3281 -0.9910
  177MPD1    H2 2754   2.690   4.352  10.786 -0.0796  1.1207  0.4630
  177MPD1    H3 2755   2.550   4.209  10.658 -2.1468  0.5112  1.6928
  177MPD1     N 2756   2.526   4.515  10.320 -0.4167  0.2665  1.1794
  177MPD1    H5 2757   2.562   4.606  10.291  0.0439  0.8174  3.4813
  177MPD1    N1 2758   2.781   4.610  10.702 -0.4948 -0.4241 -0.4184
  177MPD1    H6 2759   2.777   4.708  10.672 -0.7322 -0.7465 -1.4661
  177MPD1    H7 2760   2.804   4.589  10.798 -2.7458  0.5710  0.3514
  178MPD1     C 2761   3.959   1.560  17.035 -0.1210  0.4391 -0.0821
  178MPD1    C1 2762   4.039   1.493  16.941  0.3921 -0.4849 -0.5229
  178MPD1    C2 2763   4.081   1.371  16.967  0.5459  0.3247 -0.4918
  178MPD1    C3 2764   4.028   1.300  17.076  0.2579  0.5273  0.2204
  178MPD1    C4 2765   3.942   1.367  17.160 -0.0932 -0.4166  0.5033
  178MPD1    C5 2766   3.905   1.502  17.147 -0.2963 -0.5196 -0.2039
  178MPD1     H 2767   4.136   1.318  16.890  0.3631 -0.4627 -0.0719
  178MPD1    H1 2768   3.890   1.313  17.238 -0.6881 -0.5854 -0.0116
  178MPD1    H2 2769   3.919   1.660  17.019 -1.4167  0.1223  1.2519
  178MPD1    H3 2770   3.832   1.555  17.206  1.6199  0.9756  0.8588
  178MPD1     N 2771   4.049   1.162  17.106 -0.4848  0.0663 -0.9813
  178MPD1    H5 2772   3.993   1.124  17.182  1.3888 -1.8908 -0.5850
  178MPD1    N1 2773   4.086   1.550  16.826 -0.2642  0.1576  0.5966
  178MPD1    H6 2774   4.025   1.616  16.777 -0.0775 -0.3155 -0.2794
  178MPD1    H7 2775   4.107   1.476  16.760 -0.9968  0.0405  0.4938
  179MPD1     C 2776   0.330   3.659  15.923 -0.0304 -0.4906  0.9646
  179MPD1    C1 2777   0.225   3.732  15.877  0.2157  0.3287 -0.4806
  179MPD1    C2 2778   0.099   3.680  15.898 -0.1674  0.4963 -0.3513
  179MPD1    C3 2779   0.079   3.555  15.939 -0.3361  0.7215 -0.0514
  179MPD1    C4 2780   0.182   3.476  15.975  0.3653 -0.8953 -0.6687
  179MPD1    C5 2781   0.308   3.533  15.974 -0.7648 -0.0161  0.5369
  179MPD1     H 2782   0.017   3.747  15.876 -1.0980 -0.3645  0.5482
  179MPD1    H1 2783   0.174   3.375  16.015 -2.6133 -0.3295  0.1373
  179MPD1    H2 2784   0.429   3.702  15.929 -1.0009  1.6353  1.6566
  179MPD1    H3 2785   0.386   3.465  16.007 -0.3306  0.5678  0.7048
  179MPD1     N 2786   4.682   3.501  15.942  0.2113  0.4600 -0.5639
  179MPD1    H5 2787   4.678   3.404  15.972  1.6983  0.1606 -1.3614
  179MPD1    N1 2788   0.235   3.866  15.835 -0.4163  0.2914  0.1089
  179MPD1    H6 2789   0.324   3.898  15.799  0.3470  1.6480  3.2508
  179MPD1    H7 2790   0.155   3.888  15.775  0.1632 -1.2920 -1.2332
  180MPD1     C 2791   4.395   4.692  15.673  0.2219  0.0126 -0.5864
  180MPD1    C1 2792   4.476   4.648  15.574  0.1599 -0.1788 -0.1390
  180MPD1    C2 2793   4.453   4.695  15.449 -0.0250  0.2471  0.2054
  180MPD1    C3 2794   4.353   0.046  15.431 -0.0793  0.6188  0.1470
  180MPD1    C4 2795   4.275   0.091  15.533  0.2454  0.6219  0.2491
  180MPD1    C5 2796   4.299   0.047  15.661 -0.1616 -0.4846 -0.2801
  180MPD1     H 2797   4.522   4.668  15.371  2.1069  0.5022  1.9999
  180MPD1    H1 2798   4.192   0.160  15.524 -0.9307 -0.9142 -0.5257
  180MPD1    H2 2799   4.405   4.649  15.772 -0.4613  1.2339  0.0153
  180MPD1    H3 2800   4.230   0.082  15.737  0.1942 -0.5899  0.0878
  180MPD1     N 2801   4.339   0.094  15.299 -0.5734 -0.6284 -0.0242
  180MPD1    H5 2802   4.404   0.056  15.231 -0.1910  0.9386 -0.5225
  180MPD1    N1 2803   4.576   4.545  15.587  0.0656  0.0084  0.1727
  180MPD1    H6 2804   4.614   4.535  15.681 -0.6022 -0.7149  0.3623
  180MPD1    H7 2805   4.534   4.458  15.556 -2.2698  0.2029  2.7440
  181MPD1     C 2806   0.982   1.138  10.036  0.0074  0.1290 -0.9702
  181MPD1    C1 2807   0.943   1.218  10.142 -0.6495  0.3656 -0.7221
  181MPD1    C2 2808   1.027   1.310  10.205 -0.6884 -0.9684 -0.2433
  181MPD1    C3 2809   1.160   1.311  10.163 -1.0045 -0.2737 -0.3439
  181MPD1    C4 2810   1.205   1.238  10.054  0.5329 -0.4010  0.0350
  181MPD1    C5 2811   1.113   1.152   9.996  0.0337  0.2247 -0.2487
  181MPD1     H 2812   0.992   1.368  10.290 -2.3263 -2.6383  0.2111
  181MPD1    H1 2813   1.310   1.241  10.025  0.6936  0.9483  0.7459
  181MPD1    H2 2814   0.926   1.063   9.981  1.1462  0.6315 -2.8096
  181MPD1    H3 2815   1.142   1.082   9.918  2.0610  1.8258 -0.9038
  181MPD1     N 2816   1.260   1.385  10.232  0.1506  0.0378  0.7373
  181MPD1    H5 2817   1.352   1.394  10.191 -0.2352 -0.9590 -0.3228
  181MPD1    N1 2818   0.812   1.223  10.177 -0.1224  0.1699 -0.2860
  181MPD1    H6 2819   0.759   1.139  10.154 -0.8238  0.2591  1.0182
  181MPD1    H7 2820   0.798   1.233  10.277  1.9663  3.0797 -0.2992
  182MPD1     C 2821   2.016   0.878   1.404  0.4310  0.7457  0.0123
  182MPD1    C1 2822   1.990   0.924   1.279 -0.4327  0.9224  0.0398
  182MPD1    C2 2823   1.866   0.899   1.225 -0.9015  0.0426 -0.6540
  182MPD1    C3 2824   1.767   0.830   1.295  0.0533  0.5920  0.5599
  182MPD1    C4 2825   1.790   0.800   1.425 -1.1601  0.3407 -0.0741
  182MPD1    C5 2826   1.918   0.821   1.478  0.0611 -0.6921  0.4438
  182MPD1     H 2827   1.844   0.930   1.124  1.6375  0.3884 -1.0919
  182MPD1    H1 2828   1.714   0.744   1.478  0.2364 -0.9949  0.5073
  182MPD1    H2 2829   2.113   0.887   1.452 -0.4767  0.5732  1.8852
  182MPD1    H3 2830   1.944   0.792   1.579 -0.1968 -0.4474  0.5810
  182MPD1     N 2831   1.636   0.806   1.245  0.5004 -0.4847  0.7086
  182MPD1    H5 2832   1.561   0.775   1.306  0.9441 -1.8338  0.5788
  182MPD1    N1 2833   2.101   0.961   1.205  0.1013  0.6396 -0.8082
  182MPD1    H6 2834   2.172   1.012   1.256 -0.3314 -1.6193  2.0475
  182MPD1    H7 2835   2.082   1.018   1.123 -0.5885  0.1466 -1.0008
  183MPD1     C 2836   3.097   2.228   9.906  0.1136 -0.0171  0.1491
  183MPD1    C1 2837   3.011   2.157   9.822 -0.7088  0.2402 -0.5306
  183MPD1    C2 2838   2.884   2.130   9.868  0.4264 -0.2499  0.3299
  183MPD1    C3 2839   2.843   2.168   9.992 -0.3087 -0.4967  0.0317
  183MPD1    C4 2840   2.925   2.244  10.073 -0.0947  0.8488 -0.2837
  183MPD1    C5 2841   3.053   2.270  10.028  0.6080 -0.6209  0.2342
  183MPD1     H 2842   2.812   2.086   9.801  0.2314  0.3537  0.1390
  183MPD1    H1 2843   2.885   2.296  10.160 -1.9203 -0.3115 -0.4298
  183MPD1    H2 2844   3.198   2.252   9.872 -0.6863  0.7838 -1.6602
  183MPD1    H3 2845   3.124   2.321  10.093  0.1177 -1.0419  1.0975
  183MPD1     N 2846   2.715   2.123  10.025  0.3516  0.3467 -0.0389
  183MPD1    H5 2847   2.664   2.061   9.962 -0.1349 -0.6061  1.2782
  183MPD1    N1 2848   3.068   2.109   9.697  0.0553 -0.4235  0.2941
  183MPD1    H6 2849   3.000   2.079   9.627  1.4266 -1.4200 -0.5964
  183MPD1    H7 2850   3.143   2.160   9.652  0.1025  1.1489  2.1344
  184MPD1     C 2851   1.762   3.619  10.110 -0.6638  0.5378 -0.7778
  184MPD1    C1 2852   1.881   3.692  10.125 -0.5806 -0.8036 -0.0146
  184MPD1    C2 2853   1.873   3.827  10.090  0.1302 -0.1695  0.3374
  184MPD1    C3 2854   1.765   3.887  10.022 -0.1738 -0.4605 -0.0735
  184MPD1    C4 2855   1.658   3.802  10.002 -0.4721 -0.6447 -0.0263
  184MPD1    C5 2856   1.657   3.669  10.037 -0.6487 -0.2104 -0.3779
  184MPD1     H 2857   1.961   3.886  10.114 -0.3586  0.0241  1.6712
  184MPD1    H1 2858   1.566   3.838   9.956 -0.9248  2.3053  3.1914
  184MPD1    H2 2859   1.757   3.516  10.142  0.7636  0.7443  0.1591
  184MPD1    H3 2860   1.567   3.612  10.016 -2.6751  2.7251  0.3272
  184MPD1     N 2861   1.761   4.025   9.981 -0.0150  0.0116 -0.2928
  184MPD1    H5 2862   1.684   4.057   9.923  0.6332  0.6041 -0.8121
  184MPD1    N1 2863   1.987   3.650  10.206 -0.2667  0.3717  0.4385
  184MPD1    H6 2864   2.077   3.698  10.205 -1.0132  1.7813  1.2339
  184MPD1    H7 2865   1.999   3.551  10.185 -1.2242  0.6431 -1.4739
  185MPD1     C 2866   1.396   4.264   9.248 -0.0304  0.3166  0.0906
  185MPD1    C1 2867   1.433   4.386   9.293  0.8919  0.2637  0.2286
  185MPD1    C2 2868   1.515   4.392   9.405  0.1110 -0.2985 -0.4541
  185MPD1    C3 2869   1.533   4.284   9.487 -0.3351 -0.4612 -0.2491
  185MPD1    C4 2870   1.480   4.165   9.441  0.4646  0.1433 -0.2025
  185MPD1    C5 2871   1.407   4.154   9.325 -0.3934  0.4517  0.1512
  185MPD1     H 2872   1.550   4.491   9.432  0.2798 -0.6330  0.5622
  185MPD1    H1 2873   1.495   4.068   9.487 -1.9586  0.0569  0.4232
  185MPD1    H2 2874   1.349   4.262   9.150  2.9809  0.6780 -1.3821
  185MPD1    H3 2875   1.385   4.054   9.292  0.7468  0.0471  0.6161
  185MPD1     N 2876   1.603   4.284   9.610  0.1150 -0.3054  0.3701
  185MPD1    H5 2877   1.597   4.195   9.657  0.7256 -0.6394 -0.1894
  185MPD1    N1 2878   1.414   4.501   9.215 -0.0203  0.2011 -0.2485
  185MPD1    H6 2879   1.332   4.489   9.157 -1.4129 -0.7967  1.9161
  185MPD1    H7 2880   1.419   4.583   9.275  3.4401 -0.0712 -0.1448
  186MPD1     C 2881   0.119   3.272  16.277 -0.0160  0.4501 -0.5521
  186MPD1    C1 2882   0.211   3.374  16.286 -0.0813 -0.2785 -1.0915
  186MPD1    C2 2883   0.169   3.502  16.302 -1.1217  0.6510  0.5164
  186MPD1    C3 2884   0.038   3.528  16.334  0.5510  0.3150 -0.1866
  186MPD1    C4 2885   4.688   3.429  16.334  0.6282  0.3856 -0.3186
  186MPD1    C5 2886   4.728   3.302  16.298 -0.4078  0.5103  0.0539
  186MPD1     H 2887   0.250   3.573  16.287 -0.7499  0.3202  0.9596
  186MPD1    H1 2888   4.583   3.447  16.355  1.1786  0.0376  2.6542
  186MPD1    H2 2889   0.142   3.167  16.259 -1.7647  0.1909 -1.3477
  186MPD1    H3 2890   4.658   3.220  16.303  2.2020 -1.7209 -0.4311
  186MPD1     N 2891   4.722   3.660  16.359  0.0840  0.7754  0.0576
  186MPD1    H5 2892   4.624   3.666  16.383  0.3167 -0.0847  1.2493
  186MPD1    N1 2893   0.342   3.342  16.253  0.5695 -0.1105  0.5255
  186MPD1    H6 2894   0.406   3.421  16.255 -0.0382  0.3688  1.0998
  186MPD1    H7 2895   0.358   3.275  16.178  0.4708  1.1865 -0.6449
  187MPD1     C 2896   4.049   0.671  17.625  0.8877 -0.5012 -0.2590
  187MPD1    C1 2897   4.093   0.763  17.529  0.3783 -0.2032 -0.0523
  187MPD1    C2 2898   4.000   0.831  17.449  0.1601 -0.5349  0.0972
  187MPD1    C3 2899   3.860   0.804  17.457  0.4091 -0.2201  0.5627
  187MPD1    C4 2900   3.819   0.712  17.549 -0.4255 -0.2967  0.2636
  187MPD1    C5 2901   3.916   0.650  17.625  0.1722  0.4023 -0.4548
  187MPD1     H 2902   4.038   0.892  17.368 -0.2493  1.4842  1.4089
  187MPD1    H1 2903   3.717   0.680  17.566 -0.3531  0.7130  2.6316
  187MPD1    H2 2904   4.108   0.611  17.692 -1.2519  0.1654  2.2539
  187MPD1    H3 2905   3.884   0.563  17.681 -1.6667  1.6976  0.5206
  187MPD1     N 2906   3.760   0.877  17.389  0.5188 -0.0086  0.2019
  187MPD1    H5 2907   3.665   0.843  17.400 -0.3765  1.9939 -1.1801
  187MPD1    N1 2908   4.227   0.771  17.503  0.1802  0.7535 -0.4067
  187MPD1    H6 2909   4.272   0.771  17.594 -3.8869  1.2986  1.6270
  187MPD1    H7 2910   4.252   0.854  17.449  0.3733  0.5558 -0.6207
  188MPD1     C 2911   4.432   0.436   9.993 -0.1833  0.5946  0.3771
  188MPD1    C1 2912   4.354   0.434  10.104 -0.8014 -0.0323  0.3504
  188MPD1    C2 2913   4.317   0.307  10.155 -0.0941 -0.4096 -0.3411
  188MPD1    C3 2914   4.374   0.195  10.104  0.0237  0.7130 -0.4740
  188MPD1    C4 2915   4.473   0.200  10.007  0.4568  0.3831 -0.1743
  188MPD1    C5 2916   4.488   0.326   9.947  0.1940 -0.2026 -0.3664
  188MPD1     H 2917   4.244   0.299  10.234 -1.0539 -1.7049 -1.3415
  188MPD1    H1 2918   4.519   0.112   9.964 -0.4684  0.5714 -1.5399
  188MPD1    H2 2919   4.452   0.533   9.948  0.4306  0.8755  1.2493
  188MPD1    H3 2920   4.558   0.341   9.866  2.1845 -3.4379  0.7453
  188MPD1     N 2921   4.337   0.069  10.154  0.9253 -0.6743  0.0618
  188MPD1    H5 2922   4.397   4.735  10.118  0.4507 -1.3910  0.7327
  188MPD1    N1 2923   4.291   0.552  10.148  0.1683  0.9953 -0.1032
  188MPD1    H6 2924   4.280   0.549  10.249  2.4915  2.3492  0.1927
  188MPD1    H7 2925   4.339   0.641  10.139 -2.5808  2.3184 -1.6049
  189MPD1     C 2926   0.153   1.537   0.418  0.4214 -0.5248 -0.2277
  189MPD1    C1 2927   0.152   1.644   0.506  0.0208 -0.8498 -0.2988
  189MPD1    C2 2928   0.073   1.762   0.478  0.2250  0.2642  0.4762
  189MPD1    C3 2929   4.728   1.749   0.361 -0.0076 -0.1942  0.0692
  189MPD1    C4 2930   4.727   1.633   0.285  0.5730  0.2899 -0.4231
  189MPD1    C5 2931   0.067   1.524   0.313 -0.7757 -0.0407 -0.1867
  189MPD1     H 2932   0.075   1.854   0.535 -1.7850  0.4195  0.2954
  189MPD1    H1 2933   4.666   1.634   0.195 -2.0112 -2.7221  1.2956
  189MPD1    H2 2934   0.216   1.451   0.437  1.5087 -0.3793 -3.0498
  189MPD1    H3 2935   0.050   1.428   0.266 -0.8863  0.0453 -0.3215
  189MPD1     N 2936   4.671   1.863   0.304  0.9246  0.1535 -0.5842
  189MPD1    H5 2937   4.598   1.841   0.237 -0.9665 -2.0817  2.1670
  189MPD1    N1 2938   0.238   1.642   0.614  0.2854  0.1782  0.0254
  189MPD1    H6 2939   0.253   1.547   0.648  1.1717 -0.5603 -2.4758
  189MPD1    H7 2940   0.203   1.687   0.699  5.3496  0.8056  1.7888
  190MPD1     C 2941   4.214   4.602  16.230 -0.2618  0.5061 -0.1141
  190MPD1    C1 2942   4.184   4.736  16.248 -0.0466  0.2762  0.5093
  190MPD1    C2 2943   4.269   0.091  16.197 -0.1494 -0.1912  0.5748
  190MPD1    C3 2944   4.363   0.053  16.097 -0.4278 -0.3685  0.3786
  190MPD1    C4 2945   4.384   4.660  16.078  0.0287 -1.3280 -0.4511
  190MPD1    C5 2946   4.315   4.562  16.145 -0.8196  0.5198  0.3380
  190MPD1     H 2947   4.265   0.196  16.222  2.4484  0.4176 -1.6619
  190MPD1    H1 2948   4.457   4.622  16.008  0.4797 -0.6065 -0.3714
  190MPD1    H2 2949   4.153   4.527  16.278  0.8219 -1.5471 -1.9264
  190MPD1    H3 2950   4.329   4.455  16.133 -0.3178  0.7259 -0.9593
  190MPD1     N 2951   4.434   0.152  16.023  0.5085  0.8927  0.2698
  190MPD1    H5 2952   4.404   0.245  16.051  1.0093  0.7271  1.3643
  190MPD1    N1 2953   4.087   0.037  16.336  0.5045 -0.1076  0.0652
  190MPD1    H6 2954   4.003   4.718  16.331  0.6012 -0.0351 -2.6349
  190MPD1    H7 2955   4.058   0.134  16.324 -1.5828 -0.8336 -0.8069
  191MPD1     C 2956   3.941   1.404  12.518 -0.3067 -0.3907 -0.4617
  191MPD1    C1 2957   3.948   1.347  12.391 -0.4072  0.3508  0.3867
  191MPD1    C2 2958   3.965   1.432  12.284  0.0841  1.1505  0.8414
  191MPD1    C3 2959   3.967   1.570  12.294 -0.0374 -0.1318 -0.4611
  191MPD1    C4 2960   3.971   1.624  12.424 -0.5645  0.2069 -0.1091
  191MPD1    C5 2961   3.968   1.536  12.530 -0.3127 -0.0081 -0.3257
  191MPD1     H 2962   3.971   1.386  12.186  0.0015 -1.1344  1.9052
  191MPD1    H1 2963   3.994   1.727  12.449 -0.4334  0.0957  0.2227
  191MPD1    H2 2964   3.918   1.338  12.601  1.6836  0.7631  1.0147
  191MPD1    H3 2965   3.976   1.578  12.629  0.8736 -0.5719 -0.1844
  191MPD1     N 2966   3.976   1.647  12.176 -0.9493  0.0978 -0.6644
  191MPD1    H5 2967   3.975   1.592  12.091 -0.2429  1.1985 -1.3843
  191MPD1    N1 2968   3.913   1.212  12.368  0.1091 -0.6579 -0.1757
  191MPD1    H6 2969   3.940   1.162  12.452 -1.3186  0.2632  0.8446
  191MPD1    H7 2970   3.969   1.194  12.286 -0.4717 -1.2128 -0.4488
  192MPD1     C 2971   3.775   1.616  11.213 -0.3354 -0.0320  0.4639
  192MPD1    C1 2972   3.712   1.579  11.326 -0.1683  0.2211 -0.3635
  192MPD1    C2 2973   3.775   1.610  11.445  0.2304  0.3753  0.9102
  192MPD1    C3 2974   3.887   1.694  11.452 -0.3487 -0.2960 -0.7200
  192MPD1    C4 2975   3.937   1.733  11.334  0.0064 -0.1899 -0.1995
  192MPD1    C5 2976   3.884   1.696  11.214  0.2690  0.4551  0.0578
  192MPD1     H 2977   3.730   1.583  11.540  0.2730  0.3808  0.9321
  192MPD1    H1 2978   4.014   1.808  11.341  0.7422 -1.2762  3.1393
  192MPD1    H2 2979   3.740   1.594  11.113 -0.2561 -1.2509  0.7075
  192MPD1    H3 2980   3.925   1.726  11.118  2.3376  1.1846  1.1817
  192MPD1     N 2981   3.955   1.735  11.573  0.4159  0.2448  0.0648
  192MPD1    H5 2982   4.040   1.789  11.563  0.8421 -0.3981  0.2312
  192MPD1    N1 2983   3.605   1.495  11.314  0.4282 -0.1664 -0.2305
  192MPD1    H6 2984   3.554   1.487  11.402 -0.0317  0.7733 -0.4141
  192MPD1    H7 2985   3.543   1.519  11.238  0.9784 -0.0617 -0.6426
  193MPD1     C 2986   3.239   1.954  16.100 -0.3359 -0.2030  0.4141
  193MPD1    C1 2987   3.204   2.080  16.057  0.2859  0.2579  0.5494
  193MPD1    C2 2988   3.269   2.189  16.118 -0.1738 -0.3440  0.3880
  193MPD1    C3 2989   3.361   2.169  16.217 -0.0521 -0.5011 -0.1585
  193MPD1    C4 2990   3.380   2.039  16.271  0.6785  0.0775 -0.3802
  193MPD1    C5 2991   3.321   1.931  16.204 -1.1498  0.1181  0.0112
  193MPD1     H 2992   3.255   2.287  16.075 -0.9292 -0.3334  0.6477
  193MPD1    H1 2993   3.450   2.027  16.352  0.1662 -1.5413 -0.1741
  193MPD1    H2 2994   3.221   1.864  16.042 -1.1298 -0.9418  1.8087
  193MPD1    H3 2995   3.340   1.831  16.242 -1.7207 -0.7751 -2.1073
  193MPD1     N 2996   3.434   2.274  16.277  0.2453  0.6527 -0.7036
  193MPD1    H5 2997   3.519   2.248  16.325 -0.8707  0.3655  1.1231
  193MPD1    N1 2998   3.099   2.099  15.965  0.8522 -0.1999 -0.0201
  193MPD1    H6 2999   3.128   2.181  15.911 -0.1309  0.3245  0.2547
  193MPD1    H7 3000   3.090   2.025  15.896 -1.4252  2.0498 -2.1331
  194MPD1     C 3001   0.084   3.478  17.047 -0.4014  0.3033 -0.1989
  194MPD1    C1 3002   0.113   3.347  17.029 -0.3511 -0.1524 -0.3910
  194MPD1    C2 3003   0.245   3.313  17.007  0.0240 -0.4404 -0.0553
  194MPD1    C3 3004   0.353   3.401  17.024 -1.0830  0.0746 -0.2584
  194MPD1    C4 3005   0.323   3.534  17.037  0.5092 -0.3931  0.0446
  194MPD1    C5 3006   0.188   3.567  17.038 -0.3506 -0.1826  0.3794
  194MPD1     H 3007   0.271   3.208  16.998 -0.4359 -0.6327  0.9172
  194MPD1    H1 3008   0.397   3.611  17.058 -0.2581 -0.4107  2.8123
  194MPD1    H2 3009   4.728   3.527  17.064 -0.5980 -0.6626  1.4061
  194MPD1    H3 3010   0.152   3.668  17.053  3.2794  1.1147  0.2047
  194MPD1     N 3011   0.486   3.347  17.031 -0.7130 -0.2458 -0.1056
  194MPD1    H5 3012   0.500   3.247  17.019 -2.2081 -0.5945  1.1513
  194MPD1    N1 3013   0.017   3.256  17.062  0.5995 -0.0144  0.3461
  194MPD1    H6 3014   0.027   3.175  17.001 -3.8172  0.1417 -0.5789
  194MPD1    H7 3015   4.661   3.289  17.047  0.6449  0.5175  1.2077
  195MPD1     C 3016   2.957   1.601  17.654 -1.0129 -0.8093 -0.2430
  195MPD1    C1 3017   2.878   1.506  17.599 -0.2434  0.7284  0.0503
  195MPD1    C2 3018   2.834   1.406  17.683 -0.3731 -0.1510  0.0444
  195MPD1    C3 3019   2.879   1.393   0.061  0.1450 -0.4794 -0.0541
  195MPD1    C4 3020   2.974   1.478   0.107 -0.3682  0.2368 -0.1679
  195MPD1    C5 3021   2.998   1.592   0.033  0.4537 -0.0395 -0.0782
  195MPD1     H 3022   2.759   1.341  17.639 -1.4891 -0.5932  2.6043
  195MPD1    H1 3023   3.017   1.477   0.206  0.7367  0.2976 -0.6419
  195MPD1    H2 3024   2.987   1.690  17.600 -2.2802 -1.5098 -2.1071
  195MPD1    H3 3025   3.069   1.663   0.073  0.3266 -0.2160  0.4713
  195MPD1     N 3026   2.848   1.278   0.139 -0.4785  0.9082 -0.2639
  195MPD1    H5 3027   2.897   1.279   0.227 -2.1446  1.6320  0.6468
  195MPD1    N1 3028   2.831   1.522  17.465  0.0240 -0.2316 -0.1193
  195MPD1    H6 3029   2.897   1.556  17.395 -1.1891  1.0078 -0.6728
  195MPD1    H7 3030   2.803   1.434  17.421  1.2464 -0.4396 -0.4693
  196MPD1     C 3031   1.732   0.177   0.132 -0.3590  0.2087  0.2762
  196MPD1    C1 3032   1.793   0.088   0.220  0.0402  0.0733  0.3972
  196MPD1    C2 3033   1.899   0.131   0.302 -0.6523  1.2199  0.9047
  196MPD1    C3 3034   1.938   0.264   0.311  0.0506  0.1562 -0.4545
  196MPD1    C4 3035   1.876   0.358   0.225 -0.1826 -0.2941 -0.6533
  196MPD1    C5 3036   1.782   0.310   0.137  0.3702 -0.3783 -0.2523
  196MPD1     H 3037   1.955   0.060   0.361 -0.4285 -0.6728 -1.5941
  196MPD1    H1 3038   1.909   0.461   0.218 -0.8856 -0.0648 -0.5329
  196MPD1    H2 3039   1.648   0.151   0.070  1.3190 -1.4350 -1.3236
  196MPD1    H3 3040   1.744   0.388   0.072 -0.2601  0.6341  1.3360
  196MPD1     N 3041   2.039   0.312   0.397 -0.2535 -0.0086 -0.2178
  196MPD1    H5 3042   2.062   0.411   0.403  1.6543 -0.5814  2.0711
  196MPD1    N1 3043   1.751   4.689   0.231 -0.2082  0.1124 -0.5407
  196MPD1    H6 3044   1.655   4.692   0.196 -0.8857  1.9165  1.5022
  196MPD1    H7 3045   1.760   4.640   0.319 -2.9216 -0.9047 -0.8317
  197MPD1     C 3046   2.230   2.176  17.247 -0.2461  0.6967 -0.0923
  197MPD1    C1 3047   2.162   2.210  17.131 -0.4317 -0.3387  0.0905
  197MPD1    C2 3048   2.230   2.271  17.033  0.9281  0.2070 -0.0835
  197MPD1    C3 3049   2.355   2.329  17.063  0.0611 -0.2271  0.2187
  197MPD1    C4 3050   2.421   2.310  17.180 -0.0983 -0.4396  0.2763
  197MPD1    C5 3051   2.356   2.226  17.268  0.2105 -0.4624  0.3080
  197MPD1     H 3052   2.188   2.277  16.934 -1.7055  0.1846  1.0381
  197MPD1    H1 3053   2.512   2.359  17.210  0.3845 -0.3851 -1.2843
  197MPD1    H2 3054   2.174   2.118  17.319 -1.8934  0.9292 -1.1695
  197MPD1    H3 3055   2.407   2.199  17.360  0.2867  0.1697  0.4576
  197MPD1     N 3056   2.418   2.413  16.970 -1.1596  0.4163 -0.6559
  197MPD1    H5 3057   2.484   2.481  17.007 -0.5419 -1.1098  1.0702
  197MPD1    N1 3058   2.029   2.162  17.105 -0.1854 -0.5796 -0.1370
  197MPD1    H6 3059   2.032   2.097  17.027 -1.1377  1.2427 -1.6929
  197MPD1    H7 3060   1.998   2.099  17.178 -0.3377  0.8970  1.0721
  198MPD1     C 3061   3.864   1.235  15.094 -0.0338 -0.4014 -0.5123
  198MPD1    C1 3062   3.972   1.285  15.024  0.2724 -0.1365  0.2954
  198MPD1    C2 3063   4.033   1.399  15.074  0.3005 -0.3705  0.0045
  198MPD1    C3 3064   3.976   1.474  15.173 -0.0709 -0.0365 -0.7705
  198MPD1    C4 3065   3.865   1.431  15.238 -0.6237 -0.0468 -0.3406
  198MPD1    C5 3066   3.810   1.310  15.194 -0.2459  0.2508 -0.0077
  198MPD1     H 3067   4.128   1.427  15.030  0.6909  1.6194  2.0877
  198MPD1    H1 3068   3.823   1.494  15.316 -1.2309 -2.8974  1.6765
  198MPD1    H2 3069   3.810   1.144  15.069  2.1482 -2.0009  0.5152
  198MPD1    H3 3070   3.720   1.277  15.245  0.8886 -1.8166  0.6635
  198MPD1     N 3071   4.046   1.586  15.210 -0.0025 -0.3695 -0.7012
  198MPD1    H5 3072   4.145   1.585  15.187  0.3525 -0.8197  0.8069
  198MPD1    N1 3073   4.037   1.207  14.931  0.2699  0.0148  0.3689
  198MPD1    H6 3074   4.091   1.260  14.862 -1.0305  0.0931 -0.5841
  198MPD1    H7 3075   3.960   1.166  14.879 -0.5693 -0.0433  1.6719
  199MPD1     C 3076   2.422   2.125  10.557  0.6165  0.4182 -0.1548
  199MPD1    C1 3077   2.394   2.239  10.482  0.2946 -1.0579  0.2481
  199MPD1    C2 3078   2.269   2.234  10.425  0.9617  0.2585 -0.5727
  199MPD1    C3 3079   2.192   2.119  10.416 -0.1453 -0.1534 -0.5363
  199MPD1    C4 3080   2.232   2.008  10.494 -0.4447 -0.2294 -0.0652
  199MPD1    C5 3081   2.347   2.012  10.564 -0.2021  0.0187 -0.4832
  199MPD1     H 3082   2.236   2.329  10.383  0.3876  1.6975  3.1918
  199MPD1    H1 3083   2.168   1.924  10.519 -0.7667  0.4229  1.2664
  199MPD1    H2 3084   2.514   2.119  10.614  0.5346 -3.4047 -0.3812
  199MPD1    H3 3085   2.382   1.929  10.625  0.0497 -0.5658 -1.4304
  199MPD1     N 3086   2.072   2.104  10.344 -0.2766 -0.3682 -0.2487
  199MPD1    H5 3087   2.019   2.017  10.349 -0.3619 -0.1653  2.1948
  199MPD1    N1 3088   2.451   2.363  10.513 -0.0638 -0.0353  0.2825
  199MPD1    H6 3089   2.547   2.353  10.547 -0.0545  2.0027  0.8247
  199MPD1    H7 3090   2.451   2.409  10.422  1.7547 -0.2093  0.1853
  200MPD1     C 3091   0.249   2.003  15.448 -0.2234 -0.6661  0.0267
  200MPD1    C1 3092   0.139   1.943  15.400 -0.1943 -1.0427  0.1906
  200MPD1    C2 3093   0.120   1.945  15.262 -0.2714 -0.0655  0.1654
  200MPD1    C3 3094   0.208   2.006  15.180  0.4608  0.6755 -0.4087
  200MPD1    C4 3095   0.313   2.075  15.236  0.6121  0.9105  0.2213
  200MPD1    C5 3096   0.333   2.072  15.367  0.0074  0.0249  0.1045
  200MPD1     H 3097   0.035   1.895  15.218 -1.4381  0.8790  1.3226
  200MPD1    H1 3098   0.384   2.133  15.178 -0.9253  0.9414 -1.6351
  200MPD1    H2 3099   0.255   2.007  15.556 -0.2449  0.3170 -0.0086
  200MPD1    H3 3100   0.412   2.130  15.414  1.7611 -1.1220 -1.4794
  200MPD1     N 3101   0.181   2.011  15.040 -0.2359  0.0818  0.0514
  200MPD1    H5 3102   0.105   1.956  15.001 -0.9113  0.7423  0.4462
  200MPD1    N1 3103   0.064   1.856  15.485 -0.3694  0.1393  0.2841
  200MPD1    H6 3104   0.040   1.908  15.569  2.9699 -3.0636  3.2467
  200MPD1    H7 3105   4.717   1.831  15.437 -1.8710  3.2602  1.3924
  201MPD1     C 3106   2.389   1.534  13.187  0.2595  0.1543  0.1114
  201MPD1    C1 3107   2.459   1.530  13.305 -0.0335  0.2743 -0.9120
  201MPD1    C2 3108   2.536   1.417  13.330 -0.0205  0.5201  0.4868
  201MPD1    C3 3109   2.529   1.299  13.254  0.1530 -0.2181  0.6906
  201MPD1    C4 3110   2.453   1.303  13.140 -0.6625 -0.3261  0.2555
  201MPD1    C5 3111   2.396   1.424  13.105 -0.7019  0.2460  0.0983
  201MPD1     H 3112   2.585   1.420  13.426 -0.4734 -0.6331  0.7560
  201MPD1    H1 3113   2.428   1.223  13.071  0.9324 -0.5735 -0.0282
  201MPD1    H2 3114   2.330   1.620  13.158 -1.6979 -0.1266  3.2887
  201MPD1    H3 3115   2.338   1.427  13.013 -1.0589  0.7162  0.3405
  201MPD1     N 3116   2.600   1.188  13.295  0.2343  0.3713  0.2452
  201MPD1    H5 3117   2.666   1.208  13.368 -0.1101 -2.2490  1.2833
  201MPD1    N1 3118   2.476   1.652  13.375  0.0404 -0.1726  0.5002
  201MPD1    H6 3119   2.475   1.628  13.474 -1.9488 -1.9306  0.0653
  201MPD1    H7 3120   2.393   1.710  13.368  1.1123  1.3216  0.3815
  202MPD1     C 3121   3.475   1.575   9.919 -0.6501 -0.1736  0.0618
  202MPD1    C1 3122   3.536   1.464   9.971  0.0615  0.5118  0.3733
  202MPD1    C2 3123   3.447   1.366  10.009 -0.2826 -0.9838  0.4008
  202MPD1    C3 3124   3.315   1.400  10.033  0.4353 -0.1473  0.0002
  202MPD1    C4 3125   3.263   1.523  10.001 -0.3745  0.1099  0.7457
  202MPD1    C5 3126   3.346   1.610   9.937 -0.2514 -0.1613 -0.0670
  202MPD1     H 3127   3.481   1.272  10.051 -0.8030 -0.5673  1.7588
  202MPD1    H1 3128   3.157   1.546  10.006 -0.6591 -1.2341  1.0982
  202MPD1    H2 3129   3.541   1.642   9.865  0.3957 -0.9616  0.3523
  202MPD1    H3 3130   3.314   1.710   9.910  0.4310  0.0612 -0.0560
  202MPD1     N 3131   3.221   1.329  10.098 -0.5971 -0.2837 -0.4534
  202MPD1    H5 3132   3.134   1.378  10.117 -0.2997  0.1650 -0.2395
  202MPD1    N1 3133   3.655   1.421   9.915 -0.0160  0.0593  0.3163
  202MPD1    H6 3134   3.722   1.495   9.893  0.8592 -0.5918  0.7798
  202MPD1    H7 3135   3.698   1.350   9.974 -0.2449 -1.0258 -0.8281
  203MPD1     C 3136   1.261   1.706  12.444  0.6941 -0.0080 -0.3297
  203MPD1    C1 3137   1.321   1.614  12.361  0.5053 -0.3297 -0.3220
  203MPD1    C2 3138   1.427   1.536  12.403 -0.3780  0.0615  0.2235
  203MPD1    C3 3139   1.472   1.543  12.533 -0.2785  0.2972 -0.3132
  203MPD1    C4 3140   1.425   1.643  12.610 -0.2065  0.5173 -0.3488
  203MPD1    C5 3141   1.323   1.729  12.566 -0.2052  0.1651  0.0323
  203MPD1     H 3142   1.476   1.456  12.349  0.1812 -0.3811  1.3867
  203MPD1    H1 3143   1.456   1.661  12.713  0.0982  0.4022 -0.4197
  203MPD1    H2 3144   1.171   1.758  12.413 -0.6535 -0.9379  2.0549
  203MPD1    H3 3145   1.296   1.811  12.631  0.5714 -0.6434  1.3697
  203MPD1     N 3146   1.584   1.468  12.569  0.4337 -0.3658 -0.5415
  203MPD1    H5 3147   1.641   1.431  12.494  0.4714 -0.2325 -0.5792
  203MPD1    N1 3148   1.264   1.594  12.237  0.5585  0.1518 -0.0659
  203MPD1    H6 3149   1.230   1.681  12.196  0.2229  0.6800  1.3255
  203MPD1    H7 3150   1.333   1.557  12.172  0.7285  1.1539 -0.4618
  204MPD1     C 3151   0.462   3.066  17.420  0.0029 -0.4818 -0.6423
  204MPD1    C1 3152   0.477   3.045  17.556  0.7135  0.1999  0.7486
  204MPD1    C2 3153   0.588   2.970  17.592 -0.2750  0.2746  0.3965
  204MPD1    C3 3154   0.686   2.933  17.503 -0.3834 -0.0034 -0.2091
  204MPD1    C4 3155   0.668   2.958  17.370 -0.1587  1.0995 -0.0469
  204MPD1    C5 3156   0.554   3.022  17.326  0.4907  0.9212  0.5160
  204MPD1     H 3157   0.603   2.946  17.696  0.5614 -0.0163  0.2083
  204MPD1    H1 3158   0.731   2.926  17.288 -2.0464 -0.1829 -0.9890
  204MPD1    H2 3159   0.368   3.100  17.377 -1.1412  2.5481  4.2225
  204MPD1    H3 3160   0.539   3.052  17.223  1.4047  2.7403  0.9224
  204MPD1     N 3161   0.804   2.870  17.548 -0.2181  0.9207 -0.5975
  204MPD1    H5 3162   0.814   2.878  17.649 -2.2602 -0.1915 -0.3163
  204MPD1    N1 3163   0.364   3.065  17.636 -0.4011  0.2253  0.0643
  204MPD1    H6 3164   0.388   3.055  17.735 -2.0207  0.7224  0.5195
  204MPD1    H7 3165   0.332   3.158  17.608  0.7173  0.1154 -1.5602
  205MPD1     C 3166   0.692   1.230   0.784 -0.4219 -0.4810  0.0385
  205MPD1    C1 3167   0.645   1.357   0.771 -0.5500 -0.4430  0.2036
  205MPD1    C2 3168   0.679   1.430   0.652 -0.1161 -0.3272  0.0955
  205MPD1    C3 3169   0.768   1.375   0.561 -0.3914  0.1174  0.2135
  205MPD1    C4 3170   0.838   1.259   0.588  0.0259  0.1622  0.3839
  205MPD1    C5 3171   0.791   1.186   0.698 -0.8281 -0.7654  0.0750
  205MPD1     H 3172   0.640   1.530   0.636 -1.2143 -0.2117  3.3709
  205MPD1    H1 3173   0.922   1.234   0.525 -0.5031 -0.5101 -0.0607
  205MPD1    H2 3174   0.664   1.165   0.866 -1.0962  0.1714  0.3292
  205MPD1    H3 3175   0.837   1.088   0.702 -0.8984 -0.7292  2.3295
  205MPD1     N 3176   0.817   1.446   0.447 -1.0392 -0.4919  0.3141
  205MPD1    H5 3177   0.896   1.399   0.404  0.1339  2.6999 -1.0010
  205MPD1    N1 3178   0.536   1.391   0.857  0.3622 -0.1490  0.3084
  205MPD1    H6 3179   0.531   1.339   0.944 -2.1116 -1.1395 -0.4130
  205MPD1    H7 3180   0.528   1.491   0.875  0.3396 -0.2096  0.6269
  206MPD1     C 3181   1.494   3.974  16.962 -0.1206  0.1167  0.0091
  206MPD1    C1 3182   1.451   3.888  16.863 -0.7431  0.1704 -0.6314
  206MPD1    C2 3183   1.464   3.916  16.725  0.0159 -0.3969  0.1746
  206MPD1    C3 3184   1.532   4.036  16.689 -0.8207 -0.1913  0.5230
  206MPD1    C4 3185   1.573   4.125  16.790 -1.1703  0.2869  0.0625
  206MPD1    C5 3186   1.553   4.089  16.921 -0.3911  0.7256 -1.7452
  206MPD1     H 3187   1.431   3.841  16.655  0.2616  0.7075 -1.1174
  206MPD1    H1 3188   1.625   4.220  16.778  3.5031 -1.9530  2.6665
  206MPD1    H2 3189   1.471   3.958  17.067 -1.5766  1.3485 -0.1209
  206MPD1    H3 3190   1.597   4.164  16.985 -0.8138 -1.3536  0.9649
  206MPD1     N 3191   1.555   4.080  16.557 -0.1454  0.4972  0.2741
  206MPD1    H5 3192   1.600   4.168  16.536  1.4286 -0.5830 -0.8728
  206MPD1    N1 3193   1.366   3.786  16.899 -0.3434 -0.3061  0.3734
  206MPD1    H6 3194   1.366   3.719  16.823 -0.0796  3.1864 -2.7339
  206MPD1    H7 3195   1.408   3.752  16.985  0.5787  1.7387  0.7331
  207MPD1     C 3196   3.971   1.824   9.875 -0.2973  0.1742  0.6747
  207MPD1    C1 3197   4.033   1.946   9.856 -0.6137 -0.8125  0.2350
  207MPD1    C2 3198   4.129   1.981   9.955  0.0623  0.3634 -0.1422
  207MPD1    C3 3199   4.164   1.899  10.060  0.1001  0.7468  0.3856
  207MPD1    C4 3200   4.100   1.782  10.076  0.0211  0.3532 -0.0769
  207MPD1    C5 3201   4.006   1.741   9.984  0.6249 -0.1754  0.5361
  207MPD1     H 3202   4.181   2.075   9.939 -0.5961  0.5610 -1.1413
  207MPD1    H1 3203   4.134   1.707  10.147  2.7273  1.9219  0.2723
  207MPD1    H2 3204   3.889   1.789   9.813  0.9917 -0.5671 -0.6187
  207MPD1    H3 3205   3.958   1.646  10.004 -3.7754  2.0575  0.4639
  207MPD1     N 3206   4.266   1.932  10.153 -0.2686 -0.3677 -0.1166
  207MPD1    H5 3207   4.279   1.871  10.233  1.3492  0.5434  0.3127
  207MPD1    N1 3208   3.987   2.033   9.759  0.3877  0.0509 -0.3373
  207MPD1    H6 3209   4.044   2.115   9.737  0.7027 -0.4657 -1.4762
  207MPD1    H7 3210   3.894   2.065   9.784 -0.9150 -1.8880 -2.6731
  208MPD1     C 3211   0.504   0.046  17.417 -0.1155  0.4570  0.7670
  208MPD1    C1 3212   0.532   0.179  17.372 -0.0598 -0.4296  0.2717
  208MPD1    C2 3213   0.607   0.263  17.452 -0.1604  0.0831 -0.3585
  208MPD1    C3 3214   0.627   0.233  17.586 -0.2331 -0.1988 -0.0135
  208MPD1    C4 3215   0.583   0.115  17.633 -0.1029 -0.3802 -0.5966
  208MPD1    C5 3216   0.535   0.017  17.545 -0.0763 -1.2773 -0.3930
  208MPD1     H 3217   0.640   0.357  17.410  0.6673 -0.8185 -1.7145
  208MPD1    H1 3218   0.608   0.085  17.734  1.9812 -0.7932 -1.2444
  208MPD1    H2 3219   0.457   4.707  17.359  0.0338  1.2869 -0.4588
  208MPD1    H3 3220   0.518   4.657  17.588 -1.5719 -0.5073  0.7892
  208MPD1     N 3221   0.704   0.329  17.656 -0.0645  0.0100 -0.1254
  208MPD1    H5 3222   0.733   0.410  17.603 -0.0657 -0.1967 -0.4392
  208MPD1    N1 3223   0.521   0.203  17.237 -0.4064  0.3740  0.3871
  208MPD1    H6 3224   0.507   0.301  17.214 -0.2614  0.2779 -0.0993
  208MPD1    H7 3225   0.437   0.157  17.202  0.4525  0.2623 -1.5111
  209MPD1     C 3226   4.445   0.969  11.677  0.2824  0.0894 -0.1401
  209MPD1    C1 3227   4.574   1.001  11.702  0.1509 -0.1509  0.4847
  209MPD1    C2 3228   4.615   1.121  11.651 -1.0325 -0.1357 -0.4853
  209MPD1    C3 3229   4.533   1.207  11.574  0.2166  0.2512  0.7093
  209MPD1    C4 3230   4.414   1.162  11.532  0.3196  0.2447 -0.6894
  209MPD1    C5 3231   4.369   1.047  11.585 -0.6828  0.1693  0.1722
  209MPD1     H 3232   4.712   1.164  11.673 -0.1362 -1.4567 -1.8465
  209MPD1    H1 3233   4.354   1.203  11.451 -0.9161 -2.2450 -1.0222
  209MPD1    H2 3234   4.406   0.875  11.713  1.2854 -0.1672  0.2694
  209MPD1    H3 3235   4.269   1.017  11.556  0.1624 -0.6598 -1.8725
  209MPD1     N 3236   4.593   1.323  11.520  0.5950 -0.3121 -0.9818
  209MPD1    H5 3237   4.693   1.325  11.535  0.3951 -0.4962  0.3329
  209MPD1    N1 3238   4.646   0.936  11.802  0.6237 -0.0035  0.0268
  209MPD1    H6 3239   4.617   0.838  11.797 -0.7089  0.5065 -2.3992
  209MPD1    H7 3240   0.006   0.955  11.787  0.5192  0.3953 -0.1540
  210MPD1     C 3241   0.741   1.713  11.303 -0.2185  0.0299 -0.0765
  210MPD1    C1 3242   0.644   1.741  11.399  0.2564 -0.1859 -0.1907
  210MPD1    C2 3243   0.514   1.698  11.381 -0.0090  0.1930  0.4069
  210MPD1    C3 3244   0.480   1.644  11.259  0.1541 -0.4919 -0.5230
  210MPD1    C4 3245   0.577   1.628  11.157 -0.1221  0.1636  0.5830
  210MPD1    C5 3246   0.710   1.656  11.181 -0.5369 -0.1332 -0.1028
  210MPD1     H 3247   0.436   1.718  11.454  0.5999  0.2978  1.0276
  210MPD1    H1 3248   0.550   1.575  11.066  0.8485  0.3561  0.1835
  210MPD1    H2 3249   0.844   1.738  11.323  0.2592 -1.0391 -1.1693
  210MPD1    H3 3250   0.782   1.633  11.104 -0.4452  1.2744 -0.4273
  210MPD1     N 3251   0.348   1.597  11.242  0.5069  0.1487 -0.1981
  210MPD1    H5 3252   0.322   1.567  11.148  0.8891  0.4240 -0.3910
  210MPD1    N1 3253   0.679   1.823  11.507 -0.3550  0.1223 -0.0478
  210MPD1    H6 3254   0.592   1.852  11.551  0.0763  2.4982 -0.8125
  210MPD1    H7 3255   0.733   1.902  11.476 -3.1927  1.6355 -1.1315
  211MPD1     C 3256   1.975   1.834  16.206  0.0036  0.1241 -0.2000
  211MPD1    C1 3257   1.899   1.939  16.147  0.4739  0.0396 -0.1955
  211MPD1    C2 3258   1.765   1.949  16.175 -0.2042  0.5308 -0.3541
  211MPD1    C3 3259   1.703   1.852  16.248 -0.4241 -0.4238  0.2686
  211MPD1    C4 3260   1.769   1.744  16.297 -0.5410 -0.4143 -0.4612
  211MPD1    C5 3261   1.904   1.738  16.279 -0.0786  0.1695  0.6129
  211MPD1     H 3262   1.707   2.029  16.131 -0.1463 -0.0675 -1.5218
  211MPD1    H1 3263   1.725   1.661  16.349 -2.5031 -0.2699 -1.9017
  211MPD1    H2 3264   2.083   1.830  16.200 -0.0079 -0.4979  0.0368
  211MPD1    H3 3265   1.966   1.656  16.313 -1.5299 -0.7788  0.9824
  211MPD1     N 3266   1.570   1.877  16.290 -0.0086 -0.1289 -0.5445
  211MPD1    H5 3267   1.516   1.944  16.236  1.5232  1.4102 -0.1633
  211MPD1    N1 3268   1.971   2.048  16.082 -0.1592 -0.2919  0.1145
  211MPD1    H6 3269   2.047   2.017  16.022  1.6022  0.9892  1.6949
  211MPD1    H7 3270   1.902   2.107  16.036  1.7386  1.8885  0.0842
  212MPD1     C 3271   0.925   4.734  16.950 -0.4456 -0.6400  0.5233
  212MPD1    C1 3272   0.796   0.040  16.954 -0.1624  0.2131 -0.0724
  212MPD1    C2 3273   0.705   4.688  17.008  0.1661 -0.1091  0.1962
  212MPD1    C3 3274   0.730   4.558  17.023  0.1296 -0.0594 -0.4106
  212MPD1    C4 3275   0.862   4.511  17.007  0.7581 -0.1023 -0.4528
  212MPD1    C5 3276   0.956   4.602  16.971 -0.2343  0.6742  0.3070
  212MPD1     H 3277   0.607   4.732  17.027  0.1940  0.4906 -1.0468
  212MPD1    H1 3278   0.893   4.409  17.026 -0.0210  0.2571  2.7936
  212MPD1    H2 3279   1.002   0.061  16.913 -1.6210 -0.3445 -1.3614
  212MPD1    H3 3280   1.057   4.562  16.966 -1.2546 -2.0982  1.7117
  212MPD1     N 3281   0.638   4.458  17.049 -0.0295  0.4467 -0.1305
  212MPD1    H5 3282   0.676   4.365  17.042 -0.3459  0.0881  2.6625
  212MPD1    N1 3283   0.767   0.178  16.944 -0.0627 -0.3041  0.1261
  212MPD1    H6 3284   0.675   0.194  16.904  0.7846 -1.9030 -2.4547
  212MPD1    H7 3285   0.839   0.215  16.881 -1.9483  0.2368 -1.7208
  213MPD1     C 3286   3.804   0.771  15.840 -0.6079 -0.1975  0.5722
  213MPD1    C1 3287   3.682   0.707  15.859 -0.3404 -0.1389 -0.5859
  213MPD1    C2 3288   3.600   0.673  15.752 -0.4664  0.4040 -0.1832
  213MPD1    C3 3289   3.648   0.687  15.622  1.1835  0.6617  0.0428
  213MPD1    C4 3290   3.776   0.732  15.602 -0.2691  0.2032 -0.1718
  213MPD1    C5 3291   3.847   0.782  15.714  0.0665 -0.3765 -0.4920
  213MPD1     H 3292   3.504   0.625  15.764  0.1947 -0.9469 -0.3293
  213MPD1    H1 3293   3.810   0.759  15.503 -2.2453  1.8465 -0.3871
  213MPD1    H2 3294   3.854   0.831  15.915  1.1401 -0.8667 -0.0505
  213MPD1    H3 3295   3.939   0.836  15.694 -2.9964  4.7898 -0.6743
  213MPD1     N 3296   3.565   0.639  15.519  1.2269 -0.7066  0.7632
  213MPD1    H5 3297   3.466   0.625  15.535  1.4810  0.1090  3.0614
  213MPD1    N1 3298   3.621   0.738  15.985 -0.8908  0.1192 -0.7273
  213MPD1    H6 3299   3.543   0.678  16.011  1.1431 -1.7813  1.0455
  213MPD1    H7 3300   3.683   0.754  16.065 -0.7987 -0.9681 -0.5804
  214MPD1     C 3301   2.612   0.491  15.332 -0.5100  0.9707 -0.9011
  214MPD1    C1 3302   2.705   0.418  15.402 -0.0929  0.2399  0.4148
  214MPD1    C2 3303   2.842   0.414  15.363 -0.2178 -0.4805  0.5521
  214MPD1    C3 3304   2.891   0.506  15.271 -1.2872 -0.2640  0.0241
  214MPD1    C4 3305   2.797   0.587  15.217 -0.3505  0.3146 -0.4398
  214MPD1    C5 3306   2.660   0.582  15.241  0.1444  0.5751  0.0788
  214MPD1     H 3307   2.899   0.349  15.429 -0.4027 -0.5959  0.5987
  214MPD1    H1 3308   2.835   0.657  15.144  0.2968  0.5214  0.0963
  214MPD1    H2 3309   2.508   0.470  15.355 -0.0069 -0.7512 -0.1412
  214MPD1    H3 3310   2.594   0.652  15.191 -2.6642 -0.5843  2.2028
  214MPD1     N 3311   3.028   0.529  15.243 -0.0511  0.3393 -0.0728
  214MPD1    H5 3312   3.052   0.601  15.176 -1.6196  0.5066 -0.4578
  214MPD1    N1 3313   2.666   0.329  15.502  0.0232  0.0964  0.4864
  214MPD1    H6 3314   2.744   0.327  15.568 -1.0730  3.4592  1.8940
  214MPD1    H7 3315   2.583   0.364  15.549 -0.7226 -2.0551  0.7730
  215MPD1     C 3316   3.995   0.645  10.769 -0.3030 -0.1016  0.8952
  215MPD1    C1 3317   4.040   0.639  10.897 -0.0123  0.0368 -0.1282
  215MPD1    C2 3318   4.064   0.756  10.966 -0.0087  0.1259 -0.7399
  215MPD1    C3 3319   4.062   0.879  10.899  0.4103  0.2098 -0.9857
  215MPD1    C4 3320   4.032   0.882  10.767  0.6331 -0.7810  0.4470
  215MPD1    C5 3321   3.985   0.762  10.709 -0.0276 -0.4959  0.1043
  215MPD1     H 3322   4.099   0.753  11.069  1.2247 -1.1331 -1.1942
  215MPD1    H1 3323   4.031   0.966  10.699 -2.9661 -0.3437  1.0375
  215MPD1    H2 3324   3.965   0.555  10.716 -0.7256 -1.1131  2.8701
  215MPD1    H3 3325   3.942   0.758  10.609 -0.0994  0.4861  0.0976
  215MPD1     N 3326   4.101   0.996  10.971  0.2448 -0.8970  0.5327
  215MPD1    H5 3327   4.095   0.998  11.072 -1.4765 -1.2412  0.4297
  215MPD1    N1 3328   4.058   0.507  10.953 -0.1284  0.5175  0.0286
  215MPD1    H6 3329   4.037   0.506  11.052 -1.3565  3.3974 -0.2066
  215MPD1    H7 3330   3.992   0.449  10.900  0.9096 -1.3034  0.7540
  216MPD1     C 3331   4.605   0.163   0.282 -0.0035  0.6168  0.0311
  216MPD1    C1 3332   4.616   0.109   0.157  0.1234 -0.1086  0.4858
  216MPD1    C2 3333   4.650   4.714   0.142 -0.1555 -0.3496  0.1498
  216MPD1    C3 3334   4.665   4.632   0.251  0.3395 -0.2609 -0.3713
  216MPD1    C4 3335   4.648   4.685   0.378  0.2284  0.8373 -0.1254
  216MPD1    C5 3336   4.611   0.082   0.391  0.5843 -0.2510 -0.4817
  216MPD1     H 3337   4.666   4.673   0.043 -2.3623  0.9395 -0.7535
  216MPD1    H1 3338   4.662   4.626   0.469  2.6720  0.7310 -0.5600
  216MPD1    H2 3339   4.577   0.267   0.293 -3.1451 -0.1840 -0.3529
  216MPD1    H3 3340   4.604   0.135   0.485  1.1136 -2.4786  0.7953
  216MPD1     N 3341   4.716   4.501   0.227  0.2000 -0.6617  0.1593
  216MPD1    H5 3342   0.004   4.471   0.134 -2.2390 -3.4345  0.3629
  216MPD1    N1 3343   4.621   0.185   0.046 -0.0362  0.0862  0.5584
  216MPD1    H6 3344   4.582   0.279   0.050  0.5103  0.4170 -1.8284
  216MPD1    H7 3345   4.590   0.137  17.714 -0.9324 -1.8308  1.9564
  217MPD1     C 3346   2.362   1.316   8.848  0.8152 -0.5254  0.9296
  217MPD1    C1 3347   2.260   1.356   8.930 -0.4472  0.1196 -0.3231
  217MPD1    C2 3348   2.264   1.306   9.056  0.2189  0.0917 -0.5243
  217MPD1    C3 3349   2.362   1.216   9.104 -0.6027 -0.5155 -0.0429
  217MPD1    C4 3350   2.451   1.168   9.011  0.5200 -0.5248  0.3700
  217MPD1    C5 3351   2.457   1.220   8.883 -0.2918  0.0664  0.6479
  217MPD1     H 3352   2.188   1.337   9.127  1.1761 -1.8813  1.3696
  217MPD1    H1 3353   2.535   1.106   9.041  0.6852 -0.2761  0.4181
  217MPD1    H2 3354   2.366   1.363   8.750  0.7063 -0.3600  1.0038
  217MPD1    H3 3355   2.533   1.186   8.814  0.5422  1.8814  0.6548
  217MPD1     N 3356   2.362   1.164   9.231  0.4362  0.1083  0.0661
  217MPD1    H5 3357   2.435   1.094   9.243 -0.1744 -0.6714 -0.7689
  217MPD1    N1 3358   2.159   1.441   8.887  0.2428  0.1064 -0.0434
  217MPD1    H6 3359   2.105   1.493   8.955  1.3167 -3.3720  3.4456
  217MPD1    H7 3360   2.186   1.514   8.822  0.9524  0.6739  0.8899
  218MPD1     C 3361   3.727   2.360  12.623 -0.4008  0.1040  0.5678
  218MPD1    C1 3362   3.750   2.262  12.715 -0.0450 -0.4068 -0.3555
  218MPD1    C2 3363   3.749   2.135  12.673  0.0594 -0.8401  0.1178
  218MPD1    C3 3364   3.705   2.104  12.544 -0.5287 -0.0476  0.5095
  218MPD1    C4 3365   3.668   2.201  12.459  0.2869 -0.4967  0.0093
  218MPD1    C5 3366   3.686   2.332  12.493  0.0236  0.0828 -0.4214
  218MPD1     H 3367   3.770   2.047  12.733 -0.0890 -2.5539 -2.3930
  218MPD1    H1 3368   3.637   2.177  12.357  2.3997 -0.1678 -0.7130
  218MPD1    H2 3369   3.741   2.463  12.655 -1.2155  0.3130  0.2409
  218MPD1    H3 3370   3.680   2.416  12.425  0.1311 -0.1124 -0.6709
  218MPD1     N 3371   3.689   1.964  12.520  0.8525  0.2843 -0.1442
  218MPD1    H5 3372   3.729   1.907  12.594  1.9078 -0.9158 -1.6561
  218MPD1    N1 3373   3.801   2.302  12.837  1.0525 -0.1850 -0.0930
  218MPD1    H6 3374   3.762   2.240  12.909  0.2410 -0.4727 -0.7810
  218MPD1    H7 3375   3.792   2.401  12.859 -0.0794 -0.2167 -0.3922
  219MPD1     C 3376   3.680   1.172  11.806  0.1087  0.2368  0.0782
  219MPD1    C1 3377   3.722   1.298  11.802  0.2158 -0.3886 -1.2584
  219MPD1    C2 3378   3.699   1.374  11.918 -0.0624 -0.6150 -0.4738
  219MPD1    C3 3379   3.662   1.313  12.036 -0.0401 -0.7271 -0.5796
  219MPD1    C4 3380   3.649   1.178  12.041  0.5285  0.3394  0.4627
  219MPD1    C5 3381   3.652   1.112  11.925 -0.2022  0.5957  0.2432
  219MPD1     H 3382   3.692   1.481  11.903 -1.7374 -0.5303  0.9711
  219MPD1    H1 3383   3.629   1.124  12.133  1.5784 -0.1276  0.4097
  219MPD1    H2 3384   3.690   1.115  11.715 -0.3177  0.6946 -0.2523
  219MPD1    H3 3385   3.625   1.007  11.914 -2.4769  1.1260  0.8596
  219MPD1     N 3386   3.646   1.385  12.154 -0.2130 -0.2809 -0.8031
  219MPD1    H5 3387   3.653   1.336  12.243 -1.3856 -2.0876 -1.7077
  219MPD1    N1 3388   3.743   1.353  11.671  0.0425 -0.2455  0.2354
  219MPD1    H6 3389   3.796   1.290  11.610 -0.6145  0.4039 -1.0070
  219MPD1    H7 3390   3.807   1.432  11.679  1.7686 -1.6259  0.2545
  220MPD1     C 3391   3.788   2.346   9.676  0.5094  1.1991 -0.5349
  220MPD1    C1 3392   3.861   2.369   9.791  0.2114 -0.2282  0.7358
  220MPD1    C2 3393   3.831   2.287   9.904 -0.3954  0.2087  0.2044
  220MPD1    C3 3394   3.748   2.176   9.893 -0.2398  0.5399  0.7881
  220MPD1    C4 3395   3.684   2.157   9.771 -0.4080 -0.5039  1.0825
  220MPD1    C5 3396   3.696   2.249   9.668  0.8147 -1.0296 -0.0326
  220MPD1     H 3397   3.890   2.303   9.994 -0.3054 -2.6756  0.6561
  220MPD1    H1 3398   3.598   2.093   9.762 -0.1232 -0.6587 -0.6219
  220MPD1    H2 3399   3.799   2.409   9.589 -0.5760  0.1372 -1.4616
  220MPD1    H3 3400   3.642   2.246   9.573  0.3473  0.1372  0.1973
  220MPD1     N 3401   3.747   2.092  10.008  0.0706 -0.3299 -0.0661
  220MPD1    H5 3402   3.785   2.127  10.095  2.6177 -2.2604 -0.4132
  220MPD1    N1 3403   3.934   2.483   9.803 -0.6650 -0.3383  0.1904
  220MPD1    H6 3404   4.002   2.466   9.877  0.5252  1.2710 -0.5391
  220MPD1    H7 3405   3.981   2.524   9.722 -0.0267  0.2066  0.8444
  221MPD1     C 3406   0.936   0.714  17.254 -0.4591  0.0056  0.1126
  221MPD1    C1 3407   0.853   0.622  17.186  0.1895  0.3760 -0.2118
  221MPD1    C2 3408   0.908   0.542  17.091 -0.7425 -0.3363  0.2973
  221MPD1    C3 3409   1.041   0.557  17.049  0.6054  0.5369  0.2761
  221MPD1    C4 3410   1.119   0.643  17.120  0.2067 -0.0037 -0.3431
  221MPD1    C5 3411   1.066   0.725  17.221  0.1902 -0.3509 -0.9398
  221MPD1     H 3412   0.852   0.463  17.044  0.2441 -1.2772  0.6924
  221MPD1    H1 3413   1.226   0.655  17.106  0.2013 -0.7594 -1.0895
  221MPD1    H2 3414   0.896   0.776  17.334 -0.6407 -0.3249  0.2798
  221MPD1    H3 3415   1.124   0.796  17.279  0.1141  0.1200 -1.4420
  221MPD1     N 3416   1.101   0.478  16.947 -0.1369 -0.5252 -0.4548
  221MPD1    H5 3417   1.198   0.492  16.922 -0.7565  1.5799 -1.6074
  221MPD1    N1 3418   0.716   0.606  17.219  0.2379 -0.6550  0.0934
  221MPD1    H6 3419   0.661   0.555  17.151 -1.0655  0.8812  0.0090
  221MPD1    H7 3420   0.671   0.692  17.251 -0.4435 -1.6298  1.7749
  222MPD1     C 3421   0.955   3.526   0.584  0.0610  0.2620  1.1142
  222MPD1    C1 3422   0.907   3.648   0.626  0.3729 -0.1049 -0.0310
  222MPD1    C2 3423   0.820   3.715   0.538  0.6410 -0.5498 -0.0250
  222MPD1    C3 3424   0.801   3.679   0.410  0.2596  0.3416 -1.0031
  222MPD1    C4 3425   0.865   3.569   0.367  0.3117 -0.1586 -0.0800
  222MPD1    C5 3426   0.942   3.494   0.451  0.2631 -0.0077  0.6043
  222MPD1     H 3427   0.760   3.796   0.578  2.4857  1.1678 -0.7953
  222MPD1    H1 3428   0.841   3.534   0.267  2.0090  0.2582 -0.6454
  222MPD1    H2 3429   1.012   3.467   0.654 -1.8816 -1.2339  1.4406
  222MPD1    H3 3430   0.988   3.401   0.421 -0.0969  0.1126 -0.3467
  222MPD1     N 3431   0.711   3.736   0.318 -0.2129  0.6995  0.2663
  222MPD1    H5 3432   0.694   3.688   0.230  1.8019  0.0031  0.2507
  222MPD1    N1 3433   0.917   3.691   0.761  0.0321 -0.2827 -0.0773
  222MPD1    H6 3434   1.004   3.658   0.803  0.5673  0.9969 -0.1543
  222MPD1    H7 3435   0.916   3.793   0.765 -1.2197 -0.2587 -1.1700
  223MPD1     C 3436   0.090   3.235   0.114  0.4767 -0.2429 -0.2990
  223MPD1    C1 3437   0.152   3.257   0.235 -0.4944  0.7075  0.3760
  223MPD1    C2 3438   0.227   3.377   0.243 -0.2047 -0.2175 -0.2528
  223MPD1    C3 3439   0.216   3.472   0.145  0.4164 -0.0710  0.1361
  223MPD1    C4 3440   0.137   3.454   0.036  0.0501  0.3143  0.2868
  223MPD1    C5 3441   0.078   3.330   0.021  0.0181  0.1878  0.3705
  223MPD1     H 3442   0.289   3.399   0.329  0.0142  3.2291 -1.2729
  223MPD1    H1 3443   0.126   3.519  17.703 -0.4866  2.0650  1.6983
  223MPD1    H2 3444   0.055   3.136   0.086  0.5233 -1.0238  2.4117
  223MPD1    H3 3445   0.019   3.310  17.685  1.1395  0.5011 -0.4485
  223MPD1     N 3446   0.293   3.597   0.149  0.3797  0.3227 -0.8975
  223MPD1    H5 3447   0.346   3.612   0.235 -1.0940  0.5505 -0.0273
  223MPD1    N1 3448   0.168   3.150   0.329  0.0570  0.3343  0.1911
  223MPD1    H6 3449   0.246   3.092   0.300  1.2761  0.5277  3.0858
  223MPD1    H7 3450   0.088   3.087   0.325 -0.6069  1.1238  1.0123
  224MPD1     C 3451   2.597   1.365   9.447  0.6485  0.6725 -0.5099
  224MPD1    C1 3452   2.542   1.469   9.520 -0.2626  0.2051  0.0426
  224MPD1    C2 3453   2.572   1.450   9.656 -0.6132  0.1154 -0.2834
  224MPD1    C3 3454   2.619   1.338   9.719  0.4246  0.3528 -0.7823
  224MPD1    C4 3455   2.651   1.232   9.638 -0.2904 -0.3890  0.1075
  224MPD1    C5 3456   2.645   1.250   9.503 -0.8434 -0.4138 -0.6134
  224MPD1     H 3457   2.539   1.535   9.715 -1.8726 -0.4049 -0.2305
  224MPD1    H1 3458   2.678   1.134   9.675  1.7961  0.3098  0.3988
  224MPD1    H2 3459   2.594   1.377   9.339  0.4877 -0.6965 -0.6552
  224MPD1    H3 3460   2.691   1.174   9.441 -0.1975 -0.2693 -0.3193
  224MPD1     N 3461   2.621   1.321   9.860 -0.2836 -0.0769  0.0490
  224MPD1    H5 3462   2.645   1.228   9.892 -0.2418  0.3316  1.1982
  224MPD1    N1 3463   2.510   1.595   9.463 -0.0164 -0.1038 -0.2805
  224MPD1    H6 3464   2.458   1.597   9.375 -1.5973 -1.3183  0.6263
  224MPD1    H7 3465   2.459   1.652   9.530  0.4264 -1.5781  1.3010
  225MPD1     C 3466   3.809   2.050  13.175 -0.3695 -0.1820 -0.2103
  225MPD1    C1 3467   3.760   1.951  13.096  0.2456 -0.5828 -0.3155
  225MPD1    C2 3468   3.654   1.979  13.013  0.2487  0.3892 -0.1361
  225MPD1    C3 3469   3.593   2.102  13.013  0.5188  0.3816  0.0968
  225MPD1    C4 3470   3.634   2.197  13.110 -0.0779  0.8504  0.7954
  225MPD1    C5 3471   3.746   2.170  13.182 -0.2123 -0.7051  0.0244
  225MPD1     H 3472   3.641   1.905  12.935  1.6429 -0.2009  0.2017
  225MPD1    H1 3473   3.590   2.296  13.111  0.4780  1.1057 -0.3511
  225MPD1    H2 3474   3.893   2.035  13.242 -0.5800  1.6622  0.4933
  225MPD1    H3 3475   3.788   2.249  13.243 -1.3531  1.0268 -1.4251
  225MPD1     N 3476   3.479   2.138  12.935 -0.0536 -0.3694 -0.0269
  225MPD1    H5 3477   3.456   2.235  12.948 -1.8635 -0.9058  0.7441
  225MPD1    N1 3478   3.823   1.826  13.083  0.8716 -0.0778  0.6151
  225MPD1    H6 3479   3.871   1.804  13.170 -0.2975  1.1907  1.5825
  225MPD1    H7 3480   3.764   1.748  13.057 -0.3247  1.3465 -0.9802
  226MPD1     C 3481   0.866   2.444   9.445 -0.1931 -0.2392  0.5417
  226MPD1    C1 3482   0.916   2.328   9.496  0.4526  0.2168  0.0724
  226MPD1    C2 3483   1.056   2.319   9.520  0.0855 -0.5015  0.6147
  226MPD1    C3 3484   1.131   2.435   9.506  1.2116  1.0470 -0.3898
  226MPD1    C4 3485   1.072   2.559   9.473  0.3453  0.1414 -0.1520
  226MPD1    C5 3486   0.943   2.561   9.439  0.5482 -0.4821  0.0180
  226MPD1     H 3487   1.105   2.229   9.556 -1.5634 -1.1871  1.1528
  226MPD1    H1 3488   1.133   2.649   9.479  1.4912 -0.6136 -0.4035
  226MPD1    H2 3489   0.763   2.452   9.414 -0.4548 -0.7715  1.2826
  226MPD1    H3 3490   0.893   2.653   9.409  0.0270 -0.4870  0.8886
  226MPD1     N 3491   1.266   2.422   9.536 -0.1949  0.7493 -0.3386
  226MPD1    H5 3492   1.300   2.341   9.588 -0.9071 -0.2619 -1.4418
  226MPD1    N1 3493   0.831   2.215   9.495  0.1960  0.0148 -0.0005
  226MPD1    H6 3494   0.858   2.157   9.574  1.4637 -0.0750 -0.5011
  226MPD1    H7 3495   0.734   2.247   9.501 -0.2611 -1.5025  0.6629
  227MPD1     C 3496   1.960   3.031   9.196  0.2620 -0.4549  0.3674
  227MPD1    C1 3497   1.847   2.976   9.134  0.1239 -0.1378 -0.4818
  227MPD1    C2 3498   1.795   2.858   9.178  0.2403 -0.5356 -0.5096
  227MPD1    C3 3499   1.848   2.809   9.302 -0.1601  0.2246 -0.0548
  227MPD1    C4 3500   1.960   2.858   9.358  0.0598 -0.3096  0.4878
  227MPD1    C5 3501   2.010   2.978   9.309 -0.0079 -0.1404  0.0908
  227MPD1     H 3502   1.714   2.807   9.126  0.5003 -3.1172  1.6414
  227MPD1    H1 3503   2.008   2.817   9.446  0.8986  3.4212  1.7812
  227MPD1    H2 3504   2.004   3.117   9.147 -0.8387  0.0571  0.3042
  227MPD1    H3 3505   2.098   3.025   9.352  1.9032 -0.2378 -3.7073
  227MPD1     N 3506   1.774   2.708   9.369  0.1896  0.1599  0.1574
  227MPD1    H5 3507   1.690   2.673   9.323  0.3614  0.3909 -0.3306
  227MPD1    N1 3508   1.812   3.039   9.007 -0.1130 -0.0278 -0.5051
  227MPD1    H6 3509   1.725   3.003   8.968  0.5928  1.0034 -3.0042
  227MPD1    H7 3510   1.818   3.141   9.007 -0.7065  0.0070 -0.5663
  228MPD1     C 3511   0.836   4.504  13.591 -0.3749  0.1612  0.4602
  228MPD1    C1 3512   0.796   4.538  13.463 -0.5936  0.1575  0.4037
  228MPD1    C2 3513   0.660   4.549  13.448 -0.5153  0.0134  0.1008
  228MPD1    C3 3514   0.560   4.538  13.549  0.8289 -0.5955 -0.0173
  228MPD1    C4 3515   0.606   4.503  13.676  0.0364 -0.4099  0.5795
  228MPD1    C5 3516   0.741   4.485  13.693  0.2660  0.1958 -0.2061
  228MPD1     H 3517   0.629   4.570  13.347 -0.0065  0.0808 -0.0410
  228MPD1    H1 3518   0.543   4.483  13.762 -0.9905  1.4865  0.2803
  228MPD1    H2 3519   0.942   4.493  13.614  0.1608  3.0081 -0.6848
  228MPD1    H3 3520   0.778   4.466  13.793  0.3140  0.4744 -0.1702
  228MPD1     N 3521   0.421   4.565  13.508  0.5029  0.0513  0.6658
  228MPD1    H5 3522   0.403   4.599  13.414 -0.1216 -0.3755  0.6322
  228MPD1    N1 3523   0.882   4.577  13.358  0.0778 -0.1074  0.1987
  228MPD1    H6 3524   0.971   4.530  13.367 -0.6876 -1.3953  1.0468
  228MPD1    H7 3525   0.851   4.586  13.261  0.8168 -0.0889 -0.0308
  229MPD1     C 3526   4.125   4.052  15.302  0.6225 -0.2023 -0.9330
  229MPD1    C1 3527   4.101   3.952  15.396  0.0534 -0.4676 -0.3237
  229MPD1    C2 3528   4.185   3.845  15.410  0.1847  0.6277  0.2119
  229MPD1    C3 3529   4.282   3.827  15.317 -0.1764 -0.1259  0.3201
  229MPD1    C4 3530   4.293   3.915  15.209  0.1604 -0.1396  0.4563
  229MPD1    C5 3531   4.222   4.033  15.208  0.0357  0.1062  0.7278
  229MPD1     H 3532   4.176   3.775  15.492  1.3493  0.4921  0.2266
  229MPD1    H1 3533   4.369   3.894  15.134 -1.1648 -1.7275 -0.4324
  229MPD1    H2 3534   4.070   4.144  15.288 -1.0532 -0.8346  1.4725
  229MPD1    H3 3535   4.234   4.113  15.136 -1.1667  0.1716  0.5998
  229MPD1     N 3536   4.369   3.720  15.323 -0.4168 -0.1842 -0.7931
  229MPD1    H5 3537   4.439   3.717  15.250  1.3347 -0.0840  0.8651
  229MPD1    N1 3538   4.004   3.971  15.493 -0.3162  0.5150  0.6175
  229MPD1    H6 3539   3.964   3.886  15.532 -0.6788 -0.3042 -1.5353
  229MPD1    H7 3540   3.923   3.999  15.437  1.4186  0.9022 -1.7078
  230MPD1     C 3541   0.351   3.111  15.832 -0.2466 -0.1472 -0.2767
  230MPD1    C1 3542   0.397   3.185  15.722 -0.1237  0.8020  0.7325
  230MPD1    C2 3543   0.295   3.231  15.638 -0.4099 -0.3934 -0.4586
  230MPD1    C3 3544   0.162   3.228  15.677 -0.0006 -0.1950  0.0733
  230MPD1    C4 3545   0.126   3.165  15.797  0.2936  0.3458 -0.2482
  230MPD1    C5 3546   0.220   3.104  15.873  0.3008  0.2137  0.7125
  230MPD1     H 3547   0.323   3.261  15.538  0.4528 -2.6124 -0.9027
  230MPD1    H1 3548   0.024   3.141  15.823  0.3648  0.1463 -0.1512
  230MPD1    H2 3549   0.422   3.050  15.888  1.0480  2.5278  1.0295
  230MPD1    H3 3550   0.183   3.036  15.949 -1.1560 -0.4315 -0.5486
  230MPD1     N 3551   0.072   3.276  15.578 -0.0230 -0.8046 -0.3097
  230MPD1    H5 3552   0.109   3.318  15.493 -1.4103  0.2088 -0.4158
  230MPD1    N1 3553   0.531   3.176  15.688 -0.4181 -0.3313 -0.6133
  230MPD1    H6 3554   0.580   3.181  15.777  2.4524  0.8840 -2.2755
  230MPD1    H7 3555   0.564   3.252  15.629  1.7628 -0.5138  0.3844
  231MPD1     C 3556   3.261   0.835  15.689 -0.5863  1.3494  0.1576
  231MPD1    C1 3557   3.349   0.916  15.624 -0.0522 -0.1377 -0.1082
  231MPD1    C2 3558   3.329   0.948  15.492 -0.4097 -0.1132 -0.0313
  231MPD1    C3 3559   3.219   0.898  15.418 -0.5668 -0.5173  0.2343
  231MPD1    C4 3560   3.142   0.804  15.477 -0.5788  0.2550 -0.8218
  231MPD1    C5 3561   3.163   0.776  15.610  0.4825  0.6412 -0.5705
  231MPD1     H 3562   3.393   1.023  15.448 -2.4557  0.3320 -2.3009
  231MPD1    H1 3563   3.073   0.737  15.427 -0.8998 -0.1482  0.1704
  231MPD1    H2 3564   3.273   0.807  15.793  1.2129  2.1111  0.1602
  231MPD1    H3 3565   3.094   0.716  15.666  1.1633  1.0452  0.6954
  231MPD1     N 3566   3.220   0.925  15.275 -0.3239  0.3791 -0.6674
  231MPD1    H5 3567   3.300   0.977  15.241  0.9568 -0.2807  1.2879
  231MPD1    N1 3568   3.449   0.980  15.701  0.4218 -0.1680  0.5886
  231MPD1    H6 3569   3.532   1.001  15.647 -0.6361  1.2476 -0.5019
  231MPD1    H7 3570   3.482   0.927  15.781  0.6311 -0.6395  0.1859
  232MPD1     C 3571   4.209   3.539   0.347 -0.6558 -0.1936 -0.3325
  232MPD1    C1 3572   4.250   3.409   0.359 -0.2037  0.5622  0.2461
  232MPD1    C2 3573   4.164   3.314   0.295  0.3114 -0.5287 -0.1626
  232MPD1    C3 3574   4.049   3.353   0.220 -0.0201  0.2607 -0.2843
  232MPD1    C4 3575   4.011   3.490   0.222 -0.1675 -0.0431  0.2848
  232MPD1    C5 3576   4.089   3.578   0.296 -0.3040  0.4648 -0.1555
  232MPD1     H 3577   4.200   3.213   0.307 -1.2922 -1.1354 -0.4406
  232MPD1    H1 3578   3.928   3.535   0.169 -0.0215 -0.7627 -0.5468
  232MPD1    H2 3579   4.273   3.620   0.380  1.1088 -0.6480 -2.5617
  232MPD1    H3 3580   4.074   3.685   0.297 -0.0068  0.5107 -0.5477
  232MPD1     N 3581   3.985   3.255   0.141 -0.2377 -0.0478 -0.0709
  232MPD1    H5 3582   4.012   3.159   0.162  1.8674  0.9610  1.8849
  232MPD1    N1 3583   4.385   3.381   0.387  0.1843 -0.5063  0.0536
  232MPD1    H6 3584   4.397   3.282   0.408 -1.5788 -1.1764 -2.1410
  232MPD1    H7 3585   4.435   3.435   0.458 -0.9168 -2.0870  2.0523
  233MPD1     C 3586   4.407   0.342   1.757 -0.1675  0.2592 -0.1908
  233MPD1    C1 3587   4.496   0.411   1.837  0.4568 -0.3684 -0.4233
  233MPD1    C2 3588   4.625   0.428   1.783  0.0642 -0.1873  0.0089
  233MPD1    C3 3589   4.665   0.369   1.667  1.0101  0.6166  0.7772
  233MPD1    C4 3590   4.574   0.294   1.596  0.7408 -0.5000 -0.4434
  233MPD1    C5 3591   4.444   0.289   1.638 -0.3532 -0.3707  0.6568
  233MPD1     H 3592   4.700   0.481   1.841 -0.3430  1.5474 -1.0565
  233MPD1    H1 3593   4.602   0.253   1.499  0.2379  1.3193 -1.3521
  233MPD1    H2 3594   4.305   0.322   1.788  0.6141 -2.6653  0.4296
  233MPD1    H3 3595   4.374   0.225   1.585  0.5003 -0.5594 -0.2458
  233MPD1     N 3596   0.060   0.381   1.618 -0.0755 -0.4874  0.1741
  233MPD1    H5 3597   0.077   0.328   1.533 -0.2615 -1.6805  0.8897
  233MPD1    N1 3598   4.458   0.480   1.952 -0.2213  0.0464  0.3574
  233MPD1    H6 3599   4.535   0.483   2.018 -0.8484 -1.5219  1.1655
  233MPD1    H7 3600   4.386   0.422   1.994  0.2671 -1.1771 -0.4544
  234MPD1     C 3601   2.644   4.269   9.833 -0.1794  0.1190 -0.0692
  234MPD1    C1 3602   2.610   4.367   9.742 -0.4309  0.5614 -0.0210
  234MPD1    C2 3603   2.645   4.493   9.771 -0.0712  0.9844  0.1208
  234MPD1    C3 3604   2.676   4.528   9.900  0.8783  0.1138 -0.0485
  234MPD1    C4 3605   2.700   4.429   9.996 -0.2776  0.7512  0.2075
  234MPD1    C5 3606   2.687   4.298   9.961 -0.2182  0.5351  0.3093
  234MPD1     H 3607   2.633   4.566   9.692 -1.2887 -0.9167 -1.4405
  234MPD1    H1 3608   2.739   4.447  10.095  2.2939 -0.5524 -0.5688
  234MPD1    H2 3609   2.638   4.167   9.799 -0.3970  0.2351 -0.3840
  234MPD1    H3 3610   2.711   4.215  10.027 -0.3451  1.2497  1.2578
  234MPD1     N 3611   2.705   4.667   9.921 -0.6751  0.9890 -0.0861
  234MPD1    H5 3612   2.685   4.732   9.847 -0.0920  0.1537 -0.9818
  234MPD1    N1 3613   2.576   4.324   9.615  0.8234  0.1380 -0.6490
  234MPD1    H6 3614   2.503   4.254   9.625  0.5964  0.2360 -1.6696
  234MPD1    H7 3615   2.543   4.404   9.561 -2.9849 -2.7043 -2.5076
  235MPD1     C 3616   4.506   2.387  11.149 -0.3974  0.4229  0.3816
  235MPD1    C1 3617   4.603   2.459  11.203 -0.0790 -1.0028  0.4438
  235MPD1    C2 3618   4.647   2.564  11.120  0.0280 -0.1060 -0.2588
  235MPD1    C3 3619   4.601   2.588  10.988  0.0133 -0.1443  0.0649
  235MPD1    C4 3620   4.503   2.502  10.943  0.3339 -0.1863 -0.1232
  235MPD1    C5 3621   4.457   2.405  11.026 -0.5298  0.6483  0.0272
  235MPD1     H 3622   4.723   2.630  11.162  0.6234  0.1527 -1.7357
  235MPD1    H1 3623   4.451   2.505  10.847 -1.0057  0.5877  0.6234
  235MPD1    H2 3624   4.462   2.311  11.212  0.5037  0.1477  0.6702
  235MPD1    H3 3625   4.363   2.353  11.008 -1.8010  2.2141  2.1539
  235MPD1     N 3626   4.648   2.704  10.923 -0.3214  0.1365 -0.4545
  235MPD1    H5 3627   4.722   2.747  10.978 -0.8967  0.0885  0.3696
  235MPD1    N1 3628   4.639   2.443  11.340  0.1615 -0.6799 -0.2005
  235MPD1    H6 3629   4.652   2.345  11.362  0.7086 -0.0379  2.2789
  235MPD1    H7 3630   4.728   2.486  11.364  0.8556 -2.2698  0.0308
  236MPD1     C 3631   2.900   4.218  10.454 -0.4999  0.1335  0.5555
  236MPD1    C1 3632   2.909   4.079  10.445 -0.2029 -0.0661 -0.7501
  236MPD1    C2 3633   3.036   4.017  10.442  0.2732 -0.2729 -0.1504
  236MPD1    C3 3634   3.151   4.095  10.440 -0.0277 -0.3983 -0.0989
  236MPD1    C4 3635   3.144   4.234  10.449 -0.2830  0.1072 -0.2223
  236MPD1    C5 3636   3.017   4.290  10.465 -0.3368 -0.0795  0.3884
  236MPD1     H 3637   3.039   3.910  10.429 -0.0561 -0.2389 -0.5071
  236MPD1    H1 3638   3.235   4.293  10.448 -0.5168  0.5203  1.9423
  236MPD1    H2 3639   2.804   4.268  10.452 -0.8756 -0.5895  0.5642
  236MPD1    H3 3640   3.013   4.398  10.480  0.7959  0.3897 -2.6857
  236MPD1     N 3641   3.285   4.036  10.420 -0.9089  0.1567 -0.3414
  236MPD1    H5 3642   3.367   4.096  10.429  0.5482 -1.6445 -1.5218
  236MPD1    N1 3643   2.790   4.010  10.413  0.4411 -0.2813 -0.4542
  236MPD1    H6 3644   2.790   3.914  10.447 -1.1558  0.4011  1.4729
  236MPD1    H7 3645   2.707   4.063  10.439  0.4993  0.2281 -1.3244
  237MPD1     C 3646   3.083   1.569  15.442 -0.2719 -0.3487  0.6470
  237MPD1    C1 3647   2.992   1.633  15.518  0.5397 -1.0196 -0.0215
  237MPD1    C2 3648   2.912   1.723  15.455 -0.1842  0.4286 -0.1522
  237MPD1    C3 3649   2.927   1.746  15.323  0.1173  0.2026  0.2962
  237MPD1    C4 3650   3.019   1.680  15.253 -1.0086  0.1561  0.1396
  237MPD1    C5 3651   3.103   1.589  15.312 -0.2757  0.1411  0.2227
  237MPD1     H 3652   2.833   1.765  15.517 -2.8533 -0.3963 -2.9886
  237MPD1    H1 3653   3.032   1.694  15.147 -3.7899  1.5483 -0.0154
  237MPD1    H2 3654   3.147   1.492  15.484 -3.4124 -2.9191  0.7795
  237MPD1    H3 3655   3.183   1.535  15.263 -0.7023  2.2618 -2.8101
  237MPD1     N 3656   2.848   1.830  15.247 -0.3032  0.1063  0.7694
  237MPD1    H5 3657   2.863   1.824  15.146 -1.2777 -1.1385  0.6955
  237MPD1    N1 3658   2.952   1.581  15.650 -0.0525 -0.4421 -0.2442
  237MPD1    H6 3659   3.030   1.523  15.681  1.6499  1.1637 -1.5105
  237MPD1    H7 3660   2.929   1.657  15.713 -3.1798 -1.6100  0.0114
  238MPD1     C 3661   0.784   0.271  15.137 -0.3567 -0.0655  0.4184
  238MPD1    C1 3662   0.684   0.194  15.192  0.0662  0.3938  0.4155
  238MPD1    C2 3663   0.559   0.251  15.181  0.0346 -0.2553 -0.1862
  238MPD1    C3 3664   0.523   0.363  15.104  0.0017 -0.0464 -0.5973
  238MPD1    C4 3665   0.624   0.424  15.050  0.2085 -0.6302 -0.0867
  238MPD1    C5 3666   0.751   0.385  15.070 -0.0676 -0.0280 -0.5802
  238MPD1     H 3667   0.476   0.185  15.205  0.6225 -0.6162  0.8425
  238MPD1    H1 3668   0.611   0.519  14.998 -1.4931 -1.1525 -0.6074
  238MPD1    H2 3669   0.881   0.225  15.124 -0.8788 -1.4018  1.1661
  238MPD1    H3 3670   0.837   0.435  15.028  1.3639  0.7143  3.1850
  238MPD1     N 3671   0.383   0.394  15.078  0.1828  1.3013 -0.1241
  238MPD1    H5 3672   0.362   0.467  15.010 -0.3402  1.9716  0.7607
  238MPD1    N1 3673   0.710   0.060  15.224  0.1099 -0.1622 -0.6237
  238MPD1    H6 3674   0.798   0.067  15.275 -1.3092 -0.6592  1.8490
  238MPD1    H7 3675   0.631   0.021  15.273  1.7312 -0.5380  1.7073
  239MPD1     C 3676   4.542   1.251  14.899 -0.3145 -0.3814 -0.2643
  239MPD1    C1 3677   4.671   1.294  14.884  0.3633  0.3316 -0.4284
  239MPD1    C2 3678   4.693   1.381  14.768 -0.5397  0.3158 -0.3377
  239MPD1    C3 3679   4.597   1.400  14.676 -0.8862  0.6325  0.4320
  239MPD1    C4 3680   4.474   1.342  14.690  0.5012 -0.4049 -0.2165
  239MPD1    C5 3681   4.448   1.264  14.799  0.8096  0.1738  0.8564
  239MPD1     H 3682   0.051   1.428  14.756 -0.8133  0.8576 -0.4081
  239MPD1    H1 3683   4.402   1.355  14.609  1.0465  0.0742 -0.6217
  239MPD1    H2 3684   4.512   1.183  14.978  1.8399 -1.2474 -0.1761
  239MPD1    H3 3685   4.352   1.214  14.794  1.3051 -0.8235  1.1273
  239MPD1     N 3686   4.605   1.493  14.569  0.2558 -0.3091 -0.5366
  239MPD1    H5 3687   4.520   1.514  14.518  0.3784  0.3156 -0.4829
  239MPD1    N1 3688   0.032   1.271  14.979  0.1002 -0.5326  0.6229
  239MPD1    H6 3689   0.121   1.282  14.931 -0.9719 -0.5106 -1.3526
  239MPD1    H7 3690   0.033   1.176  15.013 -1.2432 -0.5285  0.6644
  240MPD1     C 3691   0.239   1.184  13.753 -0.6687 -0.5345  0.1530
  240MPD1    C1 3692   0.104   1.207  13.776  0.0477  0.6233 -0.2372
  240MPD1    C2 3693   0.061   1.209  13.908 -0.3551  0.9470  0.1516
  240MPD1    C3 3694   0.133   1.159  14.015  0.6017 -0.3881 -0.6422
  240MPD1    C4 3695   0.263   1.124  13.985 -0.7969  0.0338 -0.3682
  240MPD1    C5 3696   0.315   1.150  13.862  0.3905  0.6943  0.1219
  240MPD1     H 3697   4.702   1.252  13.930 -0.8963 -2.1859  3.9984
  240MPD1    H1 3698   0.325   1.071  14.056 -1.2499 -0.1343 -0.1004
  240MPD1    H2 3699   0.281   1.200  13.654 -2.5171  0.0167 -0.5436
  240MPD1    H3 3700   0.418   1.117  13.849 -0.0383 -1.3035  1.6654
  240MPD1     N 3701   0.079   1.153  14.149  0.2051  0.0668 -1.0538
  240MPD1    H5 3702   4.727   1.197  14.162  0.7647  0.3987  1.6384
  240MPD1    N1 3703   0.028   1.263  13.677  0.2318  0.2239 -0.1111
  240MPD1    H6 3704   4.667   1.253  13.695  0.1248  0.7967 -0.4181
  240MPD1    H7 3705   0.058   1.246  13.581  0.0157 -2.4742  0.2821
  241MPD1     C 3706   0.142   0.882  15.222  1.0873 -0.2859  0.0886
  241MPD1    C1 3707   0.246   0.892  15.131  0.3695 -0.0463  0.4302
  241MPD1    C2 3708   0.196   0.914  15.007 -0.0762 -0.0886 -0.0539
  241MPD1    C3 3709   0.067   0.930  14.966 -0.0310  0.2745  0.4908
  241MPD1    C4 3710   4.706   0.911  15.055  0.2229  0.1430 -0.3181
  241MPD1    C5 3711   0.010   0.882  15.180  0.3055  0.7157 -0.5423
  241MPD1     H 3712   0.276   0.932  14.935  0.9512 -1.8256  0.6418
  241MPD1    H1 3713   4.601   0.927  15.033  0.3054  0.8659 -0.2000
  241MPD1    H2 3714   0.163   0.874  15.328  0.4600  0.9223  0.2960
  241MPD1    H3 3715   4.681   0.886  15.265 -0.2910  0.8785 -1.0296
  241MPD1     N 3716   0.031   0.963  14.835 -0.2476 -0.0044 -0.3999
  241MPD1    H5 3717   4.670   0.944  14.826 -0.3684  0.4620 -0.0638
  241MPD1    N1 3718   0.379   0.869  15.160 -0.1366  0.1405 -0.0366
  241MPD1    H6 3719   0.408   0.931  15.236 -0.8265  1.4426 -0.8460
  241MPD1    H7 3720   0.436   0.898  15.081 -2.1628 -1.5059 -2.1102
  242MPD1     C 3721   3.883   0.016  16.030 -0.1750 -0.6753  0.3988
  242MPD1    C1 3722   3.845   0.090  15.924 -0.2436 -0.3917  0.2613
  242MPD1    C2 3723   3.872   0.037  15.798  0.1037 -0.3946 -0.2821
  242MPD1    C3 3724   3.934   4.658  15.784  0.1337  0.3145 -0.3402
  242MPD1    C4 3725   3.974   4.586  15.892 -0.2684  0.4462 -0.2570
  242MPD1    C5 3726   3.941   4.633  16.017 -0.0164 -0.3450  0.4428
  242MPD1     H 3727   3.863   0.100  15.710  1.7011  1.7906  1.1057
  242MPD1    H1 3728   4.028   4.492  15.888 -0.5320  0.3156 -0.7383
  242MPD1    H2 3729   3.872   0.051  16.132  2.5636  0.5393  0.2870
  242MPD1    H3 3730   3.963   4.576  16.106  1.6532 -0.8534 -0.2967
  242MPD1     N 3731   3.954   4.600  15.658  0.0896 -0.0079  0.0252
  242MPD1    H5 3732   4.001   4.510  15.656 -1.1207 -0.6151 -0.5286
  242MPD1    N1 3733   3.812   0.221  15.942 -0.0957  0.1267  0.0056
  242MPD1    H6 3734   3.755   0.259  15.867  1.1580  1.9572 -0.0284
  242MPD1    H7 3735   3.761   0.233  16.030  2.6372  0.3605  1.5638
  243MPD1     C 3736   4.295   3.202   0.002 -0.5071 -0.0964  0.1323
  243MPD1    C1 3737   4.432   3.216   0.015 -0.4225  0.8483 -0.5551
  243MPD1    C2 3738   4.508   3.142  17.682 -0.2546 -0.7869  0.1023
  243MPD1    C3 3739   4.451   3.039  17.608 -0.3738 -0.2225  0.2521
  243MPD1    C4 3740   4.316   3.022  17.602 -1.1728  0.1486 -0.2710
  243MPD1    C5 3741   4.239   3.103  17.682  0.3882 -0.3136 -0.8467
  243MPD1     H 3742   4.611   3.174  17.674 -0.5411  0.1781  0.3771
  243MPD1    H1 3743   4.266   2.950  17.539  0.4696 -1.4405  0.2248
  243MPD1    H2 3744   4.228   3.263   0.061  1.6965 -0.4417  3.0338
  243MPD1    H3 3745   4.130   3.097  17.678  0.3203 -1.6211  2.3578
  243MPD1     N 3746   4.544   2.950  17.545 -1.2680  0.7548 -0.3220
  243MPD1    H5 3747   4.639   2.977  17.568 -0.5104  0.1640 -2.6929
  243MPD1    N1 3748   4.489   3.326   0.087  0.7053 -0.2571  0.2534
  243MPD1    H6 3749   4.445   3.339   0.177 -2.1708 -0.4362 -1.1153
  243MPD1    H7 3750   4.588   3.311   0.108  0.8267 -1.5837 -1.2266
  244MPD1     C 3751   0.082   1.931   0.013 -0.2378  0.2502  1.3924
  244MPD1    C1 3752   0.184   2.013   0.043  0.8187  0.1089  0.0835
  244MPD1    C2 3753   0.176   2.139  17.733 -0.7168 -0.1981  0.1245
  244MPD1    C3 3754   0.072   2.183  17.651 -0.3307  0.2962 -0.9606
  244MPD1    C4 3755   4.712   2.092  17.618 -0.5041 -0.8356 -0.5278
  244MPD1    C5 3756   4.716   1.963  17.673 -0.7658 -0.5906  0.0874
  244MPD1     H 3757   0.255   2.212  17.749  0.0564 -0.5232 -2.1371
  244MPD1    H1 3758   4.634   2.125  17.550  0.6833  3.1092 -0.0282
  244MPD1    H2 3759   0.077   1.835   0.062  0.0603  0.7061  2.3127
  244MPD1    H3 3760   4.631   1.899  17.654  0.0600 -1.9578  1.0217
  244MPD1     N 3761   0.061   2.318  17.605  0.4215 -0.6750  0.1749
  244MPD1    H5 3762   0.135   2.382  17.634  0.4427 -0.8579  0.5226
  244MPD1    N1 3763   0.298   1.967   0.108 -0.0971  0.6009 -0.1077
  244MPD1    H6 3764   0.353   2.048   0.138  0.0030  0.6637 -0.4611
  244MPD1    H7 3765   0.280   1.904   0.186 -0.8763 -1.0946 -1.6868
  245MPD1     C 3766   2.828   3.519  13.593 -0.3149 -0.1696  0.4937
  245MPD1    C1 3767   2.751   3.636  13.598 -0.4743  0.2162 -0.3145
  245MPD1    C2 3768   2.822   3.755  13.584 -0.2157  0.3039 -0.1044
  245MPD1    C3 3769   2.956   3.761  13.555  0.7268  0.1131 -0.0870
  245MPD1    C4 3770   3.033   3.648  13.541  0.1310  0.2750 -0.5347
  245MPD1    C5 3771   2.964   3.526  13.566 -0.1505 -0.4560 -0.6166
  245MPD1     H 3772   2.767   3.848  13.595 -0.6531 -0.0322  0.5365
  245MPD1    H1 3773   3.140   3.647  13.528  0.1348 -0.2411 -0.4477
  245MPD1    H2 3774   2.788   3.425  13.630  2.3638 -1.6269 -0.3238
  245MPD1    H3 3775   3.023   3.435  13.574 -1.2247 -0.8555  2.6773
  245MPD1     N 3776   3.008   3.892  13.528  0.2810 -0.4629 -0.3578
  245MPD1    H5 3777   2.935   3.963  13.530 -0.9508 -1.7170 -1.5214
  245MPD1    N1 3778   2.625   3.631  13.651 -0.0774  0.0543 -0.0502
  245MPD1    H6 3779   2.574   3.714  13.621 -0.8831 -0.3014  0.3542
  245MPD1    H7 3780   2.572   3.552  13.615 -3.3124  0.7865  3.1330
  246MPD1     C 3781   3.788   1.013   9.802  0.1505 -0.3914 -0.6566
  246MPD1    C1 3782   3.798   0.915   9.898  0.4669  0.0292  0.2419
  246MPD1    C2 3783   3.896   0.823   9.875  0.6506  0.1134  0.5311
  246MPD1    C3 3784   3.972   0.826   9.758 -1.1752 -0.0359  0.2970
  246MPD1    C4 3785   3.954   0.918   9.657 -0.1745  0.8003 -0.5498
  246MPD1    C5 3786   3.858   1.020   9.683  0.1294 -0.0819  0.4161
  246MPD1     H 3787   3.906   0.751   9.955  0.9201  1.0298  1.3169
  246MPD1    H1 3788   4.003   0.910   9.561  0.8747  2.1033 -0.1232
  246MPD1    H2 3789   3.722   1.096   9.823 -0.4571 -0.2069 -3.3385
  246MPD1    H3 3790   3.838   1.094   9.606 -3.0010 -1.9407 -0.5468
  246MPD1     N 3791   4.060   0.722   9.735  0.0291 -0.6629 -0.1314
  246MPD1    H5 3792   4.060   0.655   9.812  2.4693 -0.0504  0.3929
  246MPD1    N1 3793   3.725   0.931  10.016  0.1348  0.0350 -0.1694
  246MPD1    H6 3794   3.708   0.847  10.070  0.6871 -1.1275 -1.8145
  246MPD1    H7 3795   3.632   0.968   9.995 -0.4018 -1.2802 -0.1045
  247MPD1     C 3796   2.636   2.139  15.946 -0.1703  0.4848 -1.2693
  247MPD1    C1 3797   2.557   2.149  16.058  0.0890 -0.5767 -0.3522
  247MPD1    C2 3798   2.466   2.252  16.069  0.0769 -0.0688  0.3634
  247MPD1    C3 3799   2.464   2.354  15.976 -0.4816 -0.0497 -1.2838
  247MPD1    C4 3800   2.558   2.357  15.873  0.1911  0.2163 -0.5796
  247MPD1    C5 3801   2.645   2.247  15.857 -0.8201 -0.5650  0.1448
  247MPD1     H 3802   2.396   2.253  16.152  0.3157 -0.7146  0.5764
  247MPD1    H1 3803   2.564   2.432  15.795  0.1397  0.6326 -0.1834
  247MPD1    H2 3804   2.700   2.051  15.938 -2.1386 -0.9872 -0.9733
  247MPD1    H3 3805   2.714   2.232  15.775 -0.3739 -0.3986  0.4892
  247MPD1     N 3806   2.372   2.460  15.978  0.2777  0.0592 -0.4006
  247MPD1    H5 3807   2.391   2.541  15.919 -0.5668  1.1925  0.8573
  247MPD1    N1 3808   2.549   2.041  16.137 -0.0706 -0.1278  0.1978
  247MPD1    H6 3809   2.598   1.954  16.120  0.9034  0.6998 -1.2567
  247MPD1    H7 3810   2.528   2.068  16.233 -0.0581  0.4000  0.0524
  248MPD1     C 3811   1.998   2.797  17.472 -0.3381 -0.0212 -0.4343
  248MPD1    C1 3812   1.913   2.747  17.568 -0.2574 -0.2947 -0.1520
  248MPD1    C2 3813   1.896   2.827  17.681 -0.4566  0.5491 -0.6292
  248MPD1    C3 3814   1.963   2.945  17.695  0.2957 -0.6010 -0.2760
  248MPD1    C4 3815   2.050   2.990  17.601 -0.5705  0.2047 -0.1382
  248MPD1    C5 3816   2.066   2.916  17.488 -0.5858  0.1976 -0.4869
  248MPD1     H 3817   1.828   2.798   0.007 -0.1802 -1.6204 -1.2072
  248MPD1    H1 3818   2.117   3.075  17.607  2.1751 -1.9250 -0.4291
  248MPD1    H2 3819   2.007   2.745  17.378  0.6298 -1.3405  0.3867
  248MPD1    H3 3820   2.149   2.945  17.424 -1.0613  1.0031 -0.7381
  248MPD1     N 3821   1.938   3.005   0.065  0.5197 -0.8553 -0.5416
  248MPD1    H5 3822   1.878   2.947   0.124 -0.4445 -0.3655 -1.0331
  248MPD1    N1 3823   1.829   2.640  17.532 -0.3525  0.0706 -0.2123
  248MPD1    H6 3824   1.805   2.578  17.610  4.2209 -4.4817 -2.4037
  248MPD1    H7 3825   1.869   2.584  17.457 -1.6694 -0.5182 -0.4848
  249MPD1     C 3826   4.050   1.336   9.844 -0.0645 -0.6336 -0.1657
  249MPD1    C1 3827   4.116   1.241   9.923 -0.8427 -0.3236 -0.0050
  249MPD1    C2 3828   4.220   1.281  10.010  0.1691 -0.2828 -0.2591
  249MPD1    C3 3829   4.265   1.414  10.001 -0.3482  0.4939  0.0187
  249MPD1    C4 3830   4.195   1.496   9.914 -0.7305  0.2361 -0.2685
  249MPD1    C5 3831   4.087   1.463   9.839  0.1118  0.4051 -0.9284
  249MPD1     H 3832   4.265   1.211  10.078  2.3498  2.5090  1.1866
  249MPD1    H1 3833   4.214   1.603   9.913  0.0036  0.1312  2.2530
  249MPD1    H2 3834   3.976   1.292   9.779  0.4860 -0.5097 -0.8662
  249MPD1    H3 3835   4.045   1.538   9.772 -3.4609 -0.7965 -0.0441
  249MPD1     N 3836   4.361   1.455  10.091  0.1125 -0.0324  0.0997
  249MPD1    H5 3837   4.406   1.387  10.152 -2.1515  0.2083  2.0488
  249MPD1    N1 3838   4.078   1.111   9.918  0.1390 -0.5048  0.0151
  249MPD1    H6 3839   4.155   1.044   9.923 -1.1969 -2.1122 -1.0697
  249MPD1    H7 3840   4.031   1.096   9.829  1.2081  1.1745 -0.8441
  250MPD2     C 3841   1.370   1.865  13.223  0.6204  0.5528 -0.0842
  250MPD2    C1 3842   1.288   1.939  13.144 -0.5012 -0.8940  0.0154
  250MPD2    C2 3843   1.212   1.868  13.051  0.1904  0.3722 -0.4476
  250MPD2    C3 3844   1.214   1.734  13.049 -0.5402 -0.5184 -0.4146
  250MPD2    C4 3845   1.294   1.661  13.134  0.3078 -0.0461 -0.4212
  250MPD2    C5 3846   1.377   1.732  13.210  0.0814 -0.0715  0.3493
  250MPD2     H 3847   1.145   1.914  12.979  2.4906  0.4673 -2.5389
  250MPD2    H1 3848   1.293   1.553  13.149  1.1736  0.0261  0.1729
  250MPD2    H2 3849   1.439   1.917  13.289  0.2414 -1.0685  1.5946
  250MPD2    H3 3850   1.435   1.674  13.281  1.1755 -0.6907 -1.0487
  250MPD2     N 3851   1.130   1.656  12.962  0.1469  0.7244  0.7144
  250MPD2    H5 3852   1.121   1.559  12.990 -2.3300  1.4525  2.4402
  250MPD2    N1 3853   1.296   2.077  13.144 -0.1254  0.1770  0.3185
  250MPD2    H7 3854   1.367   2.118  13.204 -0.3956  1.5693 -0.3025
  251TMC3    C1 3855   1.296   2.286  13.064 -0.4190 -0.1509 -0.6944
  251TMC3    C2 3856   1.233   2.402  13.029 -0.1235  0.2709  0.1047
  251TMC3    C3 3857   1.299   2.514  13.009 -0.0590  0.2419  0.6945
  251TMC3    C4 3858   1.436   2.280  13.053  0.1889 -0.1471  0.1073
  251TMC3    C5 3859   1.500   2.396  13.016 -0.7485  0.3735  0.1251
  251TMC3    C6 3860   1.435   2.515  13.000 -0.6239  0.3399 -0.0598
  251TMC3     C 3861   1.229   2.161  13.064  0.6326  0.0109 -0.3850
  251TMC3     O 3862   1.127   2.144  12.998 -0.1193  0.3520 -0.1568
  251TMC3     H 3863   1.125   2.393  13.034  0.0291 -2.3403 -1.0624
  251TMC3    H1 3864   1.484   2.183  13.048  0.8424  0.2189 -0.6689
  251TMC3    H2 3865   1.483   2.607  12.970  0.2967 -0.7272 -1.9059
  251TMC3    C7 3866   1.632   2.403  13.071  0.5221  0.0099 -0.4430
  251TMC3    C8 3867   1.212   2.630  12.987 -0.5295  0.0222 -0.2089
  251TMC3    O1 3868   1.673   2.290  13.100  0.3318 -0.2830 -0.3370
  251TMC3    O2 3869   1.098   2.605  12.943 -0.1302  0.1781 -0.3511
  252TMC3    C1 3870   1.580   3.070   9.394  0.2448 -0.0311 -0.0618
  252TMC3    C2 3871   1.703   3.110   9.441  0.0894 -0.3001 -0.7743
  252TMC3    C3 3872   1.733   3.082   9.572 -0.2014  0.1086 -0.9048
  252TMC3    C4 3873   1.489   2.993   9.465 -0.2859 -0.7314  0.2273
  252TMC3    C5 3874   1.522   2.984   9.603 -0.2601 -0.3255  0.3974
  252TMC3    C6 3875   1.646   3.017   9.653  0.6536  0.2300 -0.5058
  252TMC3     C 3876   1.550   3.110   9.263 -0.4191 -0.6279 -0.3402
  252TMC3     O 3877   1.598   3.216   9.228 -0.2723  0.3503  0.1060
  252TMC3     H 3878   1.765   3.157   9.366  1.7575 -1.6784 -0.2653
  252TMC3    H1 3879   1.389   2.975   9.427 -0.6194  1.1846  0.1906
  252TMC3    H2 3880   1.661   3.004   9.759  0.4262  1.6696 -0.3022
  252TMC3    C7 3881   1.430   2.912   9.684 -0.2820 -0.1968 -0.2322
  252TMC3    C8 3882   1.868   3.102   9.605 -0.4588  0.2876 -0.3255
  252TMC3    O1 3883   1.313   2.932   9.659 -0.3910 -0.4488  0.9357
  252TMC3    O2 3884   1.932   3.167   9.525  0.2436 -0.3500 -0.2155
  253MPD2     C 3885   2.383   2.451  14.982  0.4268 -0.0072  0.0554
  253MPD2    C1 3886   2.244   2.437  15.002  0.4389  0.7337  0.1100
  253MPD2    C2 3887   2.187   2.442  15.134 -0.4916  0.1108  0.1232
  253MPD2    C3 3888   2.269   2.446  15.246 -0.2019  0.2757 -0.8188
  253MPD2    C4 3889   2.403   2.456  15.225  0.5026  0.0604  0.0748
  253MPD2    C5 3890   2.457   2.460  15.096 -0.2206  0.4252  0.6287
  253MPD2     H 3891   2.079   2.440  15.136 -0.4091  0.0350  3.6870
  253MPD2    H1 3892   2.469   2.457  15.311 -0.7775 -0.9724  1.0657
  253MPD2    H2 3893   2.438   2.444  14.888  0.6643 -0.9124  0.2586
  253MPD2    H3 3894   2.560   2.486  15.075 -0.9908  1.8528 -1.4219
  253MPD2     N 3895   2.225   2.433  15.379 -0.2655 -0.4099  0.1874
  253MPD2    H5 3896   2.291   2.422  15.456 -2.0336  0.1346  1.7879
  253MPD2    N1 3897   2.156   2.416  14.895 -0.1791 -0.1522  0.3967
  253MPD2    H7 3898   2.058   2.418  14.919 -0.7013 -0.6446 -1.6553
  254TMC3    C1 3899   2.084   2.355  15.551  0.0203 -0.5752 -0.0388
  254TMC3    C2 3900   1.971   2.398  15.627  0.5917 -0.4961 -0.0148
  254TMC3    C3 3901   1.973   2.360  15.760  0.4567  0.1163  0.5777
  254TMC3    C4 3902   2.190   2.284  15.594  0.2735 -0.1282 -0.2777
  254TMC3    C5 3903   2.181   2.249  15.733  0.0132  0.9532  0.3658
  254TMC3    C6 3904   2.079   2.291  15.813  0.0577  0.1008 -0.0412
  254TMC3     C 3905   2.094   2.412  15.417 -0.5219  1.0755 -0.6263
  254TMC3     O 3906   1.991   2.458  15.365  0.6299  0.0401  0.3165
  254TMC3     H 3907   1.886   2.448  15.583 -0.4807 -1.4097  1.0216
  254TMC3    H1 3908   2.256   2.237  15.521  1.6162  3.0793 -1.1461
  254TMC3    H2 3909   2.087   2.269  15.919 -0.9836 -0.9444 -0.1801
  254TMC3    C7 3910   2.243   2.128  15.782 -0.3082 -0.0903  0.2984
  254TMC3    C8 3911   1.855   2.373  15.853  0.0370  0.5383 -0.7763
  254TMC3    O1 3912   2.184   2.067  15.869 -0.7575  0.1692  0.1630
  254TMC3    O2 3913   1.883   2.366  15.971  0.5047  0.3976  0.3090
  255MPD2     C 3914   0.912   4.042  10.044  0.1758 -0.6013  1.0263
  255MPD2    C1 3915   0.918   4.143   9.957 -0.4446  0.1016 -0.2555
  255MPD2    C2 3916   0.899   4.120   9.822  0.0797  0.0669  0.5050
  255MPD2    C3 3917   0.884   3.990   9.776 -0.2488  0.6363 -0.5072
  255MPD2    C4 3918   0.884   3.882   9.866 -0.0130  0.2001 -0.5866
  255MPD2    C5 3919   0.895   3.914  10.000  0.1419 -0.5461  0.2202
  255MPD2     H 3920   0.890   4.192   9.741  0.0041 -0.1232  0.3429
  255MPD2    H1 3921   0.879   3.776   9.843 -0.9313 -0.2365  1.5399
  255MPD2    H2 3922   0.923   4.064  10.150  2.1811 -1.4183  0.9883
  255MPD2    H3 3923   0.894   3.832  10.070 -0.0870  0.8438  1.8372
  255MPD2     N 3924   0.861   3.958   9.642  1.0089 -0.8723 -0.5292
  255MPD2    H5 3925   0.822   3.866   9.627  1.0031 -0.8070 -0.9236
  255MPD2    N1 3926   0.930   4.277  10.008 -0.1474  0.4259  0.8793
  255MPD2    H7 3927   0.956   4.273  10.106 -0.9491 -2.4607  0.9778
  256TMC3    C1 3928   0.978   4.505  10.002 -0.1321 -0.0300  0.1331
  256TMC3    C2 3929   1.038   4.603   9.929 -0.2201 -0.3588  0.4510
  256TMC3    C3 3930   1.099   4.708   9.994  0.1593  0.1317 -0.2125
  256TMC3    C4 3931   0.943   4.526  10.135  0.1475  0.5188 -0.3889
  256TMC3    C5 3932   0.991   4.642  10.196  0.0101 -0.4940 -0.4838
  256TMC3    C6 3933   1.069   4.732  10.127  0.4574  0.1016 -0.1117
  256TMC3     C 3934   0.953   4.385   9.929  0.3549 -0.3526 -0.0435
  256TMC3     O 3935   0.952   4.399   9.810 -0.1341  0.0264 -0.0328
  256TMC3     H 3936   1.065   4.586   9.825  1.1844  2.4872  0.3521
  256TMC3    H1 3937   0.888   4.449  10.187 -1.7168  0.9375 -1.7666
  256TMC3    H2 3938   1.106   0.082  10.178 -1.7083 -0.7975  3.0129
  256TMC3    C7 3939   0.917   4.690  10.311 -0.4758 -0.4781 -0.2957
  256TMC3    C8 3940   1.170   0.080   9.917 -0.0486  0.1245 -0.0955
  256TMC3    O1 3941   0.800   4.652  10.330 -0.0786  0.0080 -0.3655
  256TMC3    O2 3942   1.179   0.050   9.797 -0.2388 -0.5557  0.2189
  257MPD2     C 3943   0.216   2.363  13.081  0.2478 -0.5932  0.1078
  257MPD2    C1 3944   0.124   2.288  13.018  0.3063 -0.5184  0.1193
  257MPD2    C2 3945   0.020   2.238  13.104  0.2614 -0.1484 -0.0256
  257MPD2    C3 3946   0.020   2.258  13.244  1.1797  0.4448 -0.7792
  257MPD2    C4 3947   0.109   2.353  13.296 -0.6642  0.1895  0.0656
  257MPD2    C5 3948   0.205   2.402  13.212  0.2293  0.7006  0.2170
  257MPD2     H 3949   4.682   2.169  13.068  0.8419 -0.7336 -0.1434
  257MPD2    H1 3950   0.103   2.390  13.398  0.1255  0.6963 -0.0746
  257MPD2    H2 3951   0.298   2.401  13.020 -0.0911  1.0482  0.6946
  257MPD2    H3 3952   0.272   2.478  13.248  0.3357  0.8503 -0.2977
  257MPD2     N 3953   4.657   2.183  13.311 -0.0413 -0.0423 -0.4463
  257MPD2    H5 3954   4.588   2.145  13.247  0.2765 -0.7673 -0.3552
  257MPD2    N1 3955   0.151   2.250  12.886  0.3683 -0.2136 -0.1239
  257MPD2    H7 3956   0.237   2.289  12.849  0.2184  0.8604  0.6870
  258TMC3    C1 3957   4.530   2.115  13.495  0.5682  0.2730 -1.1057
  258TMC3    C2 3958   4.418   2.172  13.439 -0.1639  0.3630 -0.1407
  258TMC3    C3 3959   4.311   2.100  13.455 -0.3977  0.5714 -0.1984
  258TMC3    C4 3960   4.528   1.999  13.574  0.5051  0.5499  0.0650
  258TMC3    C5 3961   4.411   1.934  13.583 -0.7891 -0.7716 -0.4361
  258TMC3    C6 3962   4.301   1.978  13.514 -0.1856 -0.0986  0.1263
  258TMC3     C 3963   4.655   2.166  13.449  0.3567  0.8549 -0.2075
  258TMC3     O 3964   0.007   2.178  13.533 -0.0118  0.0653  0.1968
  258TMC3     H 3965   4.422   2.254  13.369 -0.4569  2.6690  2.5727
  258TMC3    H1 3966   4.612   1.982  13.640 -0.1133 -3.4154 -0.2074
  258TMC3    H2 3967   4.214   1.914  13.518  0.2370 -0.7149 -0.4174
  258TMC3    C7 3968   4.386   1.828  13.682 -0.1694  0.1635  0.1883
  258TMC3    C8 3969   4.186   2.168  13.456 -0.2594 -0.0972  0.0607
  258TMC3    O1 3970   4.273   1.782  13.705 -0.3339 -0.1469 -0.8431
  258TMC3    O2 3971   4.086   2.100  13.450  0.1254 -0.3440 -0.2497
  259MPD2     C 3972   3.521   3.584   0.893 -0.5883 -0.1399  0.0753
  259MPD2    C1 3973   3.438   3.468   0.873 -0.7591  0.5064  0.1781
  259MPD2    C2 3974   3.383   3.451   0.743 -0.7403 -0.5369  0.0263
  259MPD2    C3 3975   3.415   3.529   0.632 -0.0639 -0.1859  0.3881
  259MPD2    C4 3976   3.504   3.632   0.657  0.4616  0.2519  0.3200
  259MPD2    C5 3977   3.556   3.658   0.782 -0.3496  0.0674  0.3753
  259MPD2     H 3978   3.299   3.384   0.728 -0.5871 -0.3380 -1.8102
  259MPD2    H1 3979   3.540   3.695   0.577 -2.2066  0.9140 -0.3564
  259MPD2    H2 3980   3.561   3.616   0.988 -0.4867  0.1224 -0.0566
  259MPD2    H3 3981   3.605   3.753   0.796 -1.1113  0.4460  0.4947
  259MPD2     N 3982   3.334   3.518   0.513  0.2614 -0.3846  0.2397
  259MPD2    H5 3983   3.285   3.429   0.501 -1.9860  0.7346  1.0719
  259MPD2    N1 3984   3.400   3.394   0.987 -0.3479  0.4955  0.7246
  259MPD2    H7 3985   3.448   3.430   1.068  1.2131  0.2561 -0.1064
  260TMC3    C1 3986   3.235   3.566   0.303 -0.4914  0.7694  0.9253
  260TMC3    C2 3987   3.185   3.663   0.221 -0.3857 -0.0502  0.7163
  260TMC3    C3 3988   3.095   3.621   0.124  0.0286 -0.2115 -0.4096
  260TMC3    C4 3989   3.213   3.432   0.286  0.4535 -0.0454  0.5950
  260TMC3    C5 3990   3.131   3.393   0.186  0.4939  0.2532 -0.9405
  260TMC3    C6 3991   3.071   3.489   0.111 -0.0628 -0.6222  0.6525
  260TMC3     C 3992   3.317   3.618   0.420 -0.2559 -0.3300  0.1356
  260TMC3     O 3993   3.350   3.734   0.436 -0.4353  0.2237  0.3862
  260TMC3     H 3994   3.205   3.768   0.237 -1.4804 -0.0126  1.9163
  260TMC3    H1 3995   3.262   3.348   0.335  1.1712 -1.2435 -2.1868
  260TMC3    H2 3996   3.009   3.451   0.030  4.0508 -1.9829 -1.8840
  260TMC3    C7 3997   3.165   3.281   0.105  0.2092  0.2439 -0.0725
  260TMC3    C8 3998   3.148   3.675   0.001  0.1533  0.0668  0.4121
  260TMC3    O1 3999   3.140   3.290  17.736  0.1363  0.3619 -0.5227
  260TMC3    O2 4000   3.167   3.798  17.747  0.4902  0.0886 -0.0109
  261MPD2     C 4001   0.575   1.661  12.329 -0.1682 -0.5141 -0.0600
  261MPD2    C1 4002   0.698   1.715  12.361 -0.1897  0.0957 -0.0092
  261MPD2    C2 4003   0.734   1.841  12.317  0.4311  0.3833  0.2416
  261MPD2    C3 4004   0.646   1.916  12.243  0.0549 -0.6581  0.0530
  261MPD2    C4 4005   0.521   1.867  12.210  0.1994  0.4758 -0.1412
  261MPD2    C5 4006   0.494   1.738  12.249 -0.1476 -0.3836  0.0027
  261MPD2     H 4007   0.833   1.875  12.343  0.4538  0.9953 -0.6591
  261MPD2    H1 4008   0.456   1.928  12.148 -2.1146  1.0026  2.7905
  261MPD2    H2 4009   0.540   1.562  12.355 -1.2070  0.1327  1.0100
  261MPD2    H3 4010   0.403   1.689  12.215  0.5785 -1.1632 -0.8373
  261MPD2     N 4011   0.703   2.037  12.188 -0.0160  0.0609 -0.2977
  261MPD2    H5 4012   0.797   2.062  12.217 -0.5899  0.1724  1.4854
  261MPD2    N1 4013   0.790   1.650  12.446 -0.5865 -0.5604  0.7255
  261MPD2    H7 4014   0.869   1.710  12.468  0.9581 -2.2885 -0.1532
  262TMC3    C1 4015   0.758   2.204  12.039 -0.0249  0.2578 -0.3842
  262TMC3    C2 4016   0.725   2.325  11.986  0.1677 -0.2203 -1.3188
  262TMC3    C3 4017   0.832   2.395  11.925  0.5887  0.1608 -1.1307
  262TMC3    C4 4018   0.887   2.157  12.051 -0.4153  0.0754  0.1541
  262TMC3    C5 4019   0.985   2.231  11.991 -0.1283 -0.5962  0.6950
  262TMC3    C6 4020   0.964   2.354  11.933 -0.0838  0.1661  0.6376
  262TMC3     C 4021   0.648   2.125  12.096  0.1701  0.5275 -0.6597
  262TMC3     O 4022   0.531   2.126  12.056 -0.0638  0.1189 -0.3358
  262TMC3     H 4023   0.620   2.347  11.973 -0.2798 -0.5086  1.7924
  262TMC3    H1 4024   0.919   2.060  12.087  1.4715  0.1464 -1.3491
  262TMC3    H2 4025   1.038   2.420  11.890 -1.1840  1.7421  1.1428
  262TMC3    C7 4026   1.105   2.152  11.955  0.0397 -0.0180  0.3072
  262TMC3    C8 4027   0.809   2.535  11.910  0.2416 -0.5596 -0.8777
  262TMC3    O1 4028   1.123   2.032  11.986  0.1852 -0.0354  0.3797
  262TMC3    O2 4029   0.908   2.606  11.925 -0.0833 -0.3129 -0.0692
  263MPD2     C 4030   1.595   1.126  11.603  0.7610 -0.0049  1.1458
  263MPD2    C1 4031   1.731   1.113  11.581  0.1909  0.3536 -0.3184
  263MPD2    C2 4032   1.795   1.209  11.505 -0.0376  0.0151  0.1297
  263MPD2    C3 4033   1.720   1.316  11.450  0.0480  0.3680  0.5253
  263MPD2    C4 4034   1.579   1.316  11.458 -0.4997 -0.9332  0.2242
  263MPD2    C5 4035   1.521   1.223  11.545  0.0246 -0.2612  0.6360
  263MPD2     H 4036   1.903   1.207  11.495 -0.1148  1.1144 -0.8598
  263MPD2    H1 4037   1.512   1.383  11.404  0.4854  1.4691  1.9896
  263MPD2    H2 4038   1.543   1.054  11.665 -0.2855 -1.5388 -1.4997
  263MPD2    H3 4039   1.413   1.225  11.551 -0.1102  0.1698 -2.1127
  263MPD2     N 4040   1.784   1.400  11.365 -0.3580 -0.3293  0.3620
  263MPD2    H5 4041   1.885   1.389  11.359 -0.6198 -2.3010 -0.2398
  263MPD2    N1 4042   1.792   1.002  11.644 -0.7600 -0.0998 -0.2699
  263MPD2    H7 4043   1.737   0.932  11.692  0.2509  0.3222  1.4820
  264TMC3    C1 4044   1.822   1.586  11.238  0.3950 -0.6686 -0.0396
  264TMC3    C2 4045   1.787   1.719  11.227  0.8843 -0.4528 -0.7042
  264TMC3    C3 4046   1.880   1.785  11.163  0.0261 -0.6099  0.5731
  264TMC3    C4 4047   1.934   1.529  11.188 -0.2017 -0.5287  0.3753
  264TMC3    C5 4048   2.019   1.591  11.109  0.1289  0.2433 -0.6543
  264TMC3    C6 4049   1.985   1.722  11.093  0.3689 -0.3874 -0.5673
  264TMC3     C 4050   1.722   1.508  11.305 -0.5194  0.6391  0.0960
  264TMC3     O 4051   1.617   1.569  11.323 -0.8786 -0.0054  0.2244
  264TMC3     H 4052   1.713   1.766  11.290  1.4221  1.1537 -1.2653
  264TMC3    H1 4053   1.962   1.424  11.190  0.4603 -0.3635 -0.4991
  264TMC3    H2 4054   2.054   1.781  11.034 -0.5999 -2.1061 -3.3977
  264TMC3    C7 4055   2.157   1.561  11.152 -0.0160  0.0783  0.5527
  264TMC3    C8 4056   1.938   1.904  11.225  0.2596  0.2367 -0.0727
  264TMC3    O1 4057   2.187   1.442  11.173  0.5274  0.2403  0.2507
  264TMC3    O2 4058   2.058   1.929  11.197  0.2097  0.1447  0.6570
  265MPD2     C 4059   3.410   1.770  15.545  0.0673  0.2163  0.2728
  265MPD2    C1 4060   3.450   1.880  15.463  0.1370 -0.0108 -0.8384
  265MPD2    C2 4061   3.501   1.847  15.335 -0.8190  0.3230  0.3910
  265MPD2    C3 4062   3.517   1.715  15.290  0.3656  0.7387 -0.1508
  265MPD2    C4 4063   3.479   1.613  15.378 -0.1002 -0.3855  0.0329
  265MPD2    C5 4064   3.424   1.641  15.500 -0.2936  0.3029  0.3271
  265MPD2     H 4065   3.532   1.923  15.264 -0.2814  2.9922  3.4328
  265MPD2    H1 4066   3.489   1.511  15.343  0.5403 -0.9202  1.7855
  265MPD2    H2 4067   3.388   1.778  15.650 -2.4853 -2.0623 -0.1095
  265MPD2    H3 4068   3.382   1.565  15.565  1.7846  0.2510  1.6121
  265MPD2     N 4069   3.578   1.680  15.166 -0.4926 -0.6469  1.0406
  265MPD2    H5 4070   3.566   1.582  15.142  0.7429 -0.1009 -1.7406
  265MPD2    N1 4071   3.435   2.012  15.498 -0.3744  0.8176  1.1714
  265MPD2    H7 4072   3.459   2.083  15.429  1.0854  0.4439  1.2945
  266TMC3    C1 4073   3.405   2.193  15.655 -0.3215 -0.2878  0.2126
  266TMC3    C2 4074   3.430   2.222  15.783  0.2439 -0.3846  0.0043
  266TMC3    C3 4075   3.460   2.355  15.811 -0.0743 -0.0626  0.4834
  266TMC3    C4 4076   3.395   2.297  15.560  0.2722  0.4373 -0.3133
  266TMC3    C5 4077   3.405   2.429  15.597 -0.3036  0.0257 -0.0454
  266TMC3    C6 4078   3.443   2.460  15.722 -0.0944  0.2364  0.3823
  266TMC3     C 4079   3.405   2.051  15.631  0.3828 -0.2587 -0.6984
  266TMC3     O 4080   3.402   1.982  15.731  0.5464 -0.0340  0.2544
  266TMC3     H 4081   3.436   2.146  15.861 -1.9788  0.3815  0.9070
  266TMC3    H1 4082   3.339   2.267  15.472  1.1067 -2.5800  0.1801
  266TMC3    H2 4083   3.469   2.561  15.750  0.3821 -0.3485  2.0968
  266TMC3    C7 4084   3.352   2.531  15.504 -0.0736 -0.5229  0.3786
  266TMC3    C8 4085   3.578   2.364  15.899  0.0910 -0.6341  0.4560
  266TMC3    O1 4086   3.267   2.500  15.417  0.0076 -0.0420  0.3512
  266TMC3    O2 4087   3.659   2.273  15.905  0.8301 -0.0288 -0.3642
  267MPD2     C 4088   0.469   3.822   0.744 -0.0741 -0.3627 -0.3723
  267MPD2    C1 4089   0.430   3.755   0.631 -0.3312 -0.4032 -0.4123
  267MPD2    C2 4090   0.328   3.808   0.548 -0.6015  0.3148  0.0550
  267MPD2    C3 4091   0.277   3.926   0.584  0.1767  0.4676 -0.3482
  267MPD2    C4 4092   0.327   4.001   0.692  0.4795 -0.1558 -0.3529
  267MPD2    C5 4093   0.424   3.946   0.773  0.5192 -0.0849  0.3913
  267MPD2     H 4094   0.283   3.747   0.470  0.4516 -3.0906  2.0869
  267MPD2    H1 4095   0.286   4.096   0.726 -0.5983 -0.8881  0.3718
  267MPD2    H2 4096   0.537   3.783   0.819 -1.5186  1.9970  2.1796
  267MPD2    H3 4097   0.463   4.008   0.852 -0.8295  0.1852  0.8552
  267MPD2     N 4098   0.180   3.992   0.506 -0.3782 -0.0640  0.5480
  267MPD2    H5 4099   0.148   4.084   0.535  2.8978  1.6065 -0.9803
  267MPD2    N1 4100   0.490   3.629   0.606 -0.0672 -0.2093  0.3600
  267MPD2    H7 4101   0.546   3.592   0.682  0.9527  3.6333  1.4597
  268TMC3    C1 4102   0.545   3.427   0.502 -0.3290 -0.4120 -0.2188
  268TMC3    C2 4103   0.589   3.375   0.381  0.4241  0.5059  0.0238
  268TMC3    C3 4104   0.618   3.242   0.382  0.2481  0.0200  0.2408
  268TMC3    C4 4105   0.520   3.346   0.609 -0.1785  0.9800 -0.3738
  268TMC3    C5 4106   0.546   3.216   0.603 -0.0764 -0.1753 -0.2836
  268TMC3    C6 4107   0.593   3.161   0.485  0.3356  0.0520  0.0425
  268TMC3     C 4108   0.472   3.551   0.493 -0.2162  0.4987 -0.2409
  268TMC3     O 4109   0.427   3.584   0.383  0.3052  0.1619  0.7808
  268TMC3     H 4110   0.619   3.441   0.300  0.2617  0.8067  0.2068
  268TMC3    H1 4111   0.469   3.389   0.695  1.5549  1.5743  0.3488
  268TMC3    H2 4112   0.633   3.061   0.486  0.4905  0.1131 -0.2607
  268TMC3    C7 4113   0.593   3.151   0.723  0.2365  0.7765  0.4982
  268TMC3    C8 4114   0.719   3.194   0.294  0.8343 -0.0719  0.3701
  268TMC3    O1 4115   0.603   3.028   0.715 -0.2872 -0.2602 -0.1422
  268TMC3    O2 4116   0.804   3.127   0.350  0.1259 -0.2312  0.3597
  269MPD2     C 4117   1.292   2.423  15.434  0.1851  0.1920 -0.4963
  269MPD2    C1 4118   1.173   2.460  15.496  0.3505  0.1154  0.2173
  269MPD2    C2 4119   1.133   2.590  15.503 -0.4205  0.1723 -0.5203
  269MPD2    C3 4120   1.206   2.690  15.443  0.4441  0.6629  0.3924
  269MPD2    C4 4121   1.320   2.656  15.369  0.1008  0.4606  0.2362
  269MPD2    C5 4122   1.360   2.526  15.364  0.1466  0.2512 -0.4919
  269MPD2     H 4123   1.056   2.626  15.570 -0.2280  1.0940 -0.7926
  269MPD2    H1 4124   1.381   2.730  15.318 -0.1472  0.7095  0.2994
  269MPD2    H2 4125   1.327   2.321  15.431 -0.8773 -0.1704 -0.1717
  269MPD2    H3 4126   1.453   2.508  15.312  1.1875  0.9217  1.1375
  269MPD2     N 4127   1.158   2.826  15.475 -0.0833 -0.3999  0.4447
  269MPD2    H5 4128   1.071   2.840  15.524 -0.3300 -2.3466  0.5745
  269MPD2    N1 4129   1.110   2.358  15.570  0.1042  0.2716 -0.3361
  269MPD2    H7 4130   1.164   2.273  15.579 -0.3740  0.1250  1.0899
  270TMC3    C1 4131   0.942   2.260  15.707 -0.9467  0.2367  0.2847
  270TMC3    C2 4132   0.839   2.190  15.658  0.9825  0.3537  0.0772
  270TMC3    C3 4133   0.829   2.054  15.675 -0.2437 -0.6583  0.3497
  270TMC3    C4 4134   1.036   2.188  15.776  0.6935 -0.6296  0.1330
  270TMC3    C5 4135   1.025   2.051  15.795  0.2241  0.1363  0.2222
  270TMC3    C6 4136   0.921   1.980  15.741  0.3301  0.1363  0.0617
  270TMC3     C 4137   0.982   2.368  15.620  0.0489  0.0911  0.1411
  270TMC3     O 4138   0.903   2.459  15.606  0.1086  0.0182  0.5789
  270TMC3     H 4139   0.766   2.237  15.593  0.3698  0.3390  0.7505
  270TMC3    H1 4140   1.122   2.240  15.817 -0.0786  1.2546 -0.6729
  270TMC3    H2 4141   0.905   1.873  15.741 -1.8444  0.4729  0.0561
  270TMC3    C7 4142   1.132   1.994  15.868 -0.0924  0.7843 -0.0585
  270TMC3    C8 4143   0.756   1.990  15.573  0.0046 -0.2506  0.0727
  270TMC3    O1 4144   1.238   2.051  15.871  0.4325  0.4389  0.0646
  270TMC3    O2 4145   0.637   2.017  15.561 -0.0691  0.2224 -0.3707
  271MPD2     C 4146   0.496   2.214  14.023 -0.4183  0.6192 -0.7012
  271MPD2    C1 4147   0.397   2.123  14.065  0.5309 -0.5403 -0.5485
  271MPD2    C2 4148   0.259   2.151  14.048  0.3767 -0.3744 -0.1664
  271MPD2    C3 4149   0.225   2.271  13.977  0.4858 -0.3627 -0.5646
  271MPD2    C4 4150   0.325   2.359  13.933  0.4328  0.0265  0.7699
  271MPD2    C5 4151   0.456   2.327  13.956  0.3426 -0.0101  0.6082
  271MPD2     H 4152   0.185   2.087  14.096 -0.8269  2.0010  1.1834
  271MPD2    H1 4153   0.291   2.454  13.893 -0.0315 -0.8644 -0.9808
  271MPD2    H2 4154   0.599   2.189  14.043 -0.8285  0.3754  1.0938
  271MPD2    H3 4155   0.535   2.393  13.924  0.0180  0.1498  0.1336
  271MPD2     N 4156   0.089   2.317  13.959 -0.2352 -0.0327  0.2645
  271MPD2    H5 4157   0.078   2.399  13.899 -1.8964  1.2217  2.3016
  271MPD2    N1 4158   0.438   1.999  14.127 -0.0806 -0.1190  0.0026
  271MPD2    H7 4159   0.370   1.945  14.180  1.1823 -1.4200  0.2834
  272TMC3    C1 4160   0.583   1.811  14.192 -0.4036 -0.5011  0.1647
  272TMC3    C2 4161   0.710   1.762  14.175 -0.1892  0.2093  0.3379
  272TMC3    C3 4162   0.779   1.717  14.279 -0.8204  0.3845 -0.0804
  272TMC3    C4 4163   0.522   1.805  14.314 -0.2044 -0.2808 -0.2016
  272TMC3    C5 4164   0.591   1.756  14.421 -0.2674 -0.0434 -0.3975
  272TMC3    C6 4165   0.719   1.719  14.410  0.6060 -0.0113  0.2794
  272TMC3     C 4166   0.553   1.928  14.104 -0.5527  0.1362 -0.3980
  272TMC3     O 4167   0.641   1.957  14.025 -0.9676  0.2717 -0.2796
  272TMC3     H 4168   0.755   1.773  14.076 -2.0282  1.0099 -0.4094
  272TMC3    H1 4169   0.428   1.850  14.342  0.6325  1.0047  0.5584
  272TMC3    H2 4170   0.768   1.690  14.502 -0.1936 -0.4260  0.5756
  272TMC3    C7 4171   0.544   1.767  14.558 -0.3812 -0.3010 -0.2616
  272TMC3    C8 4172   0.922   1.704  14.263  0.4177  0.2660 -0.0971
  272TMC3    O1 4173   0.425   1.762  14.568  0.0730  0.2386  0.0746
  272TMC3    O2 4174   0.959   1.752  14.158  0.0137 -0.0163  0.5541
  273MPD2     C 4175   2.354   4.649  12.118  0.4386 -0.1848 -0.1348
  273MPD2    C1 4176   2.486   4.644  12.092  0.0592 -0.3753 -0.0557
  273MPD2    C2 4177   2.532   4.652  11.963 -0.2738  0.6914 -0.6040
  273MPD2    C3 4178   2.443   4.659  11.855  0.1174  0.4747 -0.6622
  273MPD2    C4 4179   2.309   4.635  11.879 -0.2491  1.3208  0.7703
  273MPD2    C5 4180   2.270   4.633  12.010 -0.0403  0.3498 -0.1198
  273MPD2     H 4181   2.638   4.662  11.948 -0.6512  1.8283 -2.4636
  273MPD2    H1 4182   2.226   4.630  11.811  1.0232 -0.2693 -0.6801
  273MPD2    H2 4183   2.306   4.661  12.214  0.7572 -1.3653  0.1720
  273MPD2    H3 4184   2.165   4.628  12.038 -0.4507 -0.1601 -1.7690
  273MPD2     N 4185   2.488   4.675  11.725 -0.0792  0.6750  0.3432
  273MPD2    H5 4186   2.427   4.647  11.649 -2.0692  1.1157  1.7452
  273MPD2    N1 4187   2.574   4.627  12.208  0.2214 -0.0400  0.1009
  273MPD2    H7 4188   2.542   4.626  12.304  1.8313  0.0317  0.6525
  274TMC3    C1 4189   2.624   0.006  11.543  0.0923  0.8430  0.3962
  274TMC3    C2 4190   2.514   4.717  11.470  0.6951  0.2989  0.3211
  274TMC3    C3 4191   2.466   0.063  11.373 -0.3775 -0.5068  0.1206
  274TMC3    C4 4192   2.689   0.126  11.525  0.1253 -0.5865 -0.5420
  274TMC3    C5 4193   2.628   0.216  11.440  0.3916 -0.1895 -0.4414
  274TMC3    C6 4194   2.526   0.185  11.356 -0.0123  0.0223 -0.8344
  274TMC3     C 4195   2.616   4.713  11.685 -0.3761  0.9442  0.4295
  274TMC3     O 4196   2.696   0.032  11.755  0.3832  0.0538  0.6230
  274TMC3     H 4197   2.456   4.628  11.491 -0.3880  0.5738 -1.4931
  274TMC3    H1 4198   2.780   0.148  11.579 -2.1440  0.6686  2.7288
  274TMC3    H2 4199   2.477   0.260  11.295  0.0083  1.2717  0.6733
  274TMC3    C7 4200   2.599   0.344  11.504 -0.1873 -0.1467  0.4060
  274TMC3    C8 4201   2.341   0.034  11.315 -0.4491 -0.1262  0.3165
  274TMC3    O1 4202   2.511   0.416  11.464 -0.2030 -0.3962  0.8932
  274TMC3    O2 4203   2.278   4.677  11.355 -0.3429 -0.2484  0.2670
  275MPD2     C 4204   1.905   2.891  14.389  0.3113  0.0772  0.1278
  275MPD2    C1 4205   1.808   2.983  14.372  0.0613 -0.0588  0.2993
  275MPD2    C2 4206   1.680   2.953  14.332 -0.8908  0.2218 -0.0764
  275MPD2    C3 4207   1.643   2.825  14.315 -0.4025  0.3846  0.4104
  275MPD2    C4 4208   1.739   2.729  14.328 -0.5072  0.2639 -0.5872
  275MPD2    C5 4209   1.866   2.762  14.358 -0.1738  0.0223 -0.4510
  275MPD2     H 4210   1.620   3.038  14.300 -0.3597  0.8784  0.6773
  275MPD2    H1 4211   1.713   2.628  14.299 -2.0918  0.3748  0.4119
  275MPD2    H2 4212   2.007   2.914  14.419  0.3440  0.6490 -0.4224
  275MPD2    H3 4213   1.950   2.693  14.353 -1.3044 -1.4009  0.4638
  275MPD2     N 4214   1.512   2.779  14.273 -0.4006  0.0385  0.3816
  275MPD2    H5 4215   1.501   2.678  14.266 -1.0080  0.2729 -2.1919
  275MPD2    N1 4216   1.829   3.120  14.406 -0.2896 -0.5542 -0.1586
  275MPD2    H7 4217   1.751   3.179  14.378  1.1093  0.0923 -2.7360
  276TMC3    C1 4218   1.872   3.271  14.581  0.3223  0.5166 -0.1945
  276TMC3    C2 4219   1.755   3.251  14.638 -0.0614 -0.0900 -0.4523
  276TMC3    C3 4220   1.742   3.235  14.776  0.1308 -0.0304 -0.1888
  276TMC3    C4 4221   1.979   3.310  14.658  0.0740 -0.0239 -0.0574
  276TMC3    C5 4222   1.952   3.329  14.791  0.4758 -0.0995 -0.3257
  276TMC3    C6 4223   1.841   3.285  14.857  0.4592  0.4256  0.4287
  276TMC3     C 4224   1.926   3.176  14.484  0.1152  0.5628 -0.1367
  276TMC3     O 4225   2.033   3.130  14.523 -0.2517  0.1049 -0.1583
  276TMC3     H 4226   1.670   3.226  14.577 -0.3042 -1.9323  0.6046
  276TMC3    H1 4227   2.072   3.324  14.604 -0.9585 -2.2908 -2.4215
  276TMC3    H2 4228   1.826   3.289  14.965  1.5593  0.7418  0.5662
  276TMC3    C7 4229   2.061   3.375  14.875 -0.1774  0.6644 -0.9056
  276TMC3    C8 4230   1.711   3.098  14.798 -0.3667 -0.4545  0.2512
  276TMC3    O1 4231   2.039   3.384  14.996 -0.0160  0.1527  0.3253
  276TMC3    O2 4232   1.790   3.030  14.865 -0.0129 -0.0306  0.1038
  277MPD2     C 4233   3.491   1.936  13.391  0.0300 -1.1699  0.1539
  277MPD2    C1 4234   3.428   2.024  13.475  0.0831 -0.0401 -0.8894
  277MPD2    C2 4235   3.382   1.970  13.594 -0.0437 -0.2924  0.1150
  277MPD2    C3 4236   3.398   1.841  13.632  0.7465 -0.0114 -0.5285
  277MPD2    C4 4237   3.457   1.751  13.541  0.4459  0.5082  0.5101
  277MPD2    C5 4238   3.512   1.807  13.429  0.1432 -0.2775 -0.2658
  277MPD2     H 4239   3.328   2.039  13.657  1.8922  2.2146 -0.9628
  277MPD2    H1 4240   3.481   1.649  13.570 -0.0240 -0.2707 -1.8059
  277MPD2    H2 4241   3.538   1.967  13.299 -1.2157 -3.4257 -1.2658
  277MPD2    H3 4242   3.571   1.742  13.365  0.2703 -0.6544  0.2302
  277MPD2     N 4243   3.333   1.799  13.753 -0.6668 -0.1195  0.1553
  277MPD2    H5 4244   3.284   1.875  13.799  0.1054  0.7847 -0.5057
  277MPD2    N1 4245   3.402   2.151  13.425 -0.1077 -0.0941 -0.6671
  277MPD2    H7 4246   3.417   2.166  13.326 -0.4448  0.1329 -0.6844
  278TMC3    C1 4247   3.275   1.667  13.938  0.7193 -0.2752  0.3833
  278TMC3    C2 4248   3.231   1.543  13.978  0.1741  0.3322 -0.7494
  278TMC3    C3 4249   3.141   1.533  14.079  0.1588  0.8564 -0.4261
  278TMC3    C4 4250   3.225   1.779  14.000  0.7014  0.1989  0.4601
  278TMC3    C5 4251   3.136   1.762  14.098 -0.2267  0.3621 -0.7953
  278TMC3    C6 4252   3.083   1.641  14.141 -0.2402  0.0865  0.3564
  278TMC3     C 4253   3.328   1.677  13.804  1.0859 -0.4495 -0.2555
  278TMC3     O 4254   3.364   1.569  13.757 -0.1124 -0.3911 -0.1335
  278TMC3     H 4255   3.265   1.455  13.925  0.5555  1.2378 -2.0059
  278TMC3    H1 4256   3.265   1.878  13.982  1.4137  0.0441  1.1701
  278TMC3    H2 4257   3.014   1.621  14.223 -1.5302  2.5841 -0.1236
  278TMC3    C7 4258   3.066   1.882  14.151  0.2659 -0.1109  0.0384
  278TMC3    C8 4259   3.076   1.406  14.107 -0.7259  0.3482 -0.3019
  278TMC3    O1 4260   3.115   1.995  14.155 -0.1249  0.0683  0.5784
  278TMC3    O2 4261   3.055   1.376  14.224  0.0516 -0.1965 -0.4175
  279MPD2     C 4262   3.125   1.974  17.564 -0.2203 -0.1434  0.6032
  279MPD2    C1 4263   3.000   1.950  17.517  0.1417 -0.1474  0.1279
  279MPD2    C2 4264   2.983   1.932  17.380  0.7535  0.7257 -0.3632
  279MPD2    C3 4265   3.090   1.943  17.298 -0.1451 -0.4515 -0.2544
  279MPD2    C4 4266   3.214   1.959  17.343 -0.1071  0.1218 -0.7443
  279MPD2    C5 4267   3.229   1.983  17.476  0.2250  0.1606  0.4429
  279MPD2     H 4268   2.886   1.916  17.335  0.4174  1.2566  0.1938
  279MPD2    H1 4269   3.295   1.977  17.273  2.2261  2.1187  2.4890
  279MPD2    H2 4270   3.141   1.992  17.670 -0.7287  1.2864  0.4333
  279MPD2    H3 4271   3.328   2.002  17.515  0.0559  2.9321 -0.5037
  279MPD2     N 4272   3.079   1.917  17.163  0.0476 -0.1100 -0.5206
  279MPD2    H5 4273   3.144   1.952  17.094  0.1964  1.6130  0.4908
  279MPD2    N1 4274   2.906   1.938  17.619 -0.1339  0.8524  0.7062
  279MPD2    H7 4275   2.949   1.948  17.711 -0.0256 -0.6786  0.8156
  280TMC3    C1 4276   2.702   1.921  17.737 -0.0251 -0.3061 -0.3823
  280TMC3    C2 4277   2.753   1.847   0.082  0.3538  1.1724  0.3329
  280TMC3    C3 4278   2.673   1.806   0.183 -0.0460 -0.0223 -0.2567
  280TMC3    C4 4279   2.569   1.951  17.723  0.7530  0.1959  0.0438
  280TMC3    C5 4280   2.490   1.905   0.074 -0.8699 -0.5190 -0.3455
  280TMC3    C6 4281   2.540   1.841   0.188 -0.0866  0.0912  0.1157
  280TMC3     C 4282   2.771   1.922  17.608 -0.5267  0.4311 -0.4110
  280TMC3     O 4283   2.704   1.942  17.509 -0.1255  0.0211 -0.5715
  280TMC3     H 4284   2.851   1.803   0.069  0.1263  0.3295  1.4392
  280TMC3    H1 4285   2.527   1.979  17.627 -0.3273  2.5443  1.2093
  280TMC3    H2 4286   2.473   1.813   0.268  0.3415  0.7890  0.7204
  280TMC3    C7 4287   2.393   2.005   0.106  0.1867  0.1872 -0.6393
  280TMC3    C8 4288   2.743   1.740   0.288  0.0083  0.0640 -0.1629
  280TMC3    O1 4289   2.424   2.073   0.202 -0.1122 -0.1733  0.5509
  280TMC3    O2 4290   2.690   1.650   0.355 -0.1261 -0.0096  0.8984
  281TMC3    C1 4291   1.752   2.118  13.400 -0.4929 -0.3385  0.0852
  281TMC3    C2 4292   1.848   2.214  13.366  0.6527  0.0696 -0.3260
  281TMC3    C3 4293   1.951   2.170  13.288 -0.2754 -0.5702 -0.0576
  281TMC3    C4 4294   1.765   1.982  13.368  0.3345 -0.3367  0.0042
  281TMC3    C5 4295   1.868   1.946  13.290 -0.6917  0.0357  0.1152
  281TMC3    C6 4296   1.957   2.042  13.241 -0.0263  0.1644 -0.0608
  281TMC3     C 4297   1.617   2.147  13.443  0.5489  0.4555  0.1918
  281TMC3     O 4298   1.546   2.054  13.478 -0.5432 -0.0958 -0.2426
  281TMC3     H 4299   1.850   2.311  13.415  0.1311  1.0266 -2.2083
  281TMC3    H1 4300   1.683   1.912  13.381  1.2834 -1.5013 -0.3324
  281TMC3    H2 4301   2.043   2.012  13.182  2.5355  2.7809  2.2938
  281TMC3    C7 4302   1.872   1.811  13.241 -0.1088 -0.0942  0.4173
  281TMC3    C8 4303   2.079   2.236  13.287 -0.0685  0.0050 -0.1576
  281TMC3    O1 4304   1.928   1.801  13.132  0.3627  0.3385  0.4056
  281TMC3    O2 4305   2.171   2.155  13.288 -0.0964  0.0590 -0.1541
  282MPD2     C 4306   3.815   3.955  15.100 -0.1053 -0.2060  0.6446
  282MPD2    C1 4307   3.677   3.967  15.116  0.3506  0.3257  0.4086
  282MPD2    C2 4308   3.597   3.969  15.004 -0.0705 -0.1603 -0.0956
  282MPD2    C3 4309   3.655   3.942  14.881 -0.3490 -0.0052 -0.1023
  282MPD2    C4 4310   3.788   3.920  14.868 -0.2399 -0.9561 -0.8293
  282MPD2    C5 4311   3.868   3.924  14.983 -0.3665 -0.0152 -0.1858
  282MPD2     H 4312   3.496   4.000  15.027 -0.5117 -1.2748 -0.5247
  282MPD2    H1 4313   3.832   3.895  14.772  1.9057  3.5828 -1.0302
  282MPD2    H2 4314   3.888   3.952  15.181  0.0188 -3.1727  0.4319
  282MPD2    H3 4315   3.974   3.921  14.961 -0.0320  0.9781  1.2587
  282MPD2     N 4316   3.569   3.951  14.775 -0.5936  0.0512  0.4486
  282MPD2    H5 4317   3.480   3.993  14.800 -1.7455 -1.5691 -0.9273
  282MPD2    N1 4318   3.612   3.998  15.234  0.0621  0.0318 -0.2123
  282MPD2    H7 4319   3.511   3.995  15.238  0.0500  1.2434  0.4164
  283TMC3    C1 4320   3.574   4.046  15.460 -0.2712  0.4783  0.4871
  283TMC3    C2 4321   3.593   4.147  15.549 -1.0163 -0.2820 -0.3844
  283TMC3    C3 4322   3.536   4.124  15.667  0.2350 -0.1020 -0.2163
  283TMC3    C4 4323   3.480   3.947  15.471  0.6640 -0.7974  0.0158
  283TMC3    C5 4324   3.409   3.943  15.593  0.2373 -0.4135 -0.0686
  283TMC3    C6 4325   3.444   4.029  15.693 -0.3329  0.3686  0.1698
  283TMC3     C 4326   3.668   4.043  15.350 -0.6195  0.3531 -0.3129
  283TMC3     O 4327   3.781   4.088  15.361 -0.0010  0.0969 -0.9599
  283TMC3     H 4328   3.676   4.215  15.536 -0.8534 -0.7828 -1.9934
  283TMC3    H1 4329   3.462   3.872  15.395 -1.1741  0.2010 -0.5504
  283TMC3    H2 4330   3.391   4.027  15.787 -0.9826  0.3191 -0.1929
  283TMC3    C7 4331   3.342   3.826  15.633  0.0478 -0.1765  0.3466
  283TMC3    C8 4332   3.527   4.240  15.752 -0.0277 -0.2041  0.2254
  283TMC3    O1 4333   3.236   3.836  15.697  0.2393  0.0920  0.0636
  283TMC3    O2 4334   3.491   4.216  15.867  0.4122  0.1839 -0.5379
  284MPD2     C 4335   1.861   3.073  12.037  0.4587 -0.0488 -0.5674
  284MPD2    C1 4336   1.997   3.059  12.047 -0.1007 -0.1148 -0.3933
  284MPD2    C2 4337   2.045   2.976  12.146  0.2984  0.1422 -0.2756
  284MPD2    C3 4338   1.958   2.923  12.239 -0.3371 -0.4065  0.1615
  284MPD2    C4 4339   1.819   2.935  12.232 -0.0013 -0.0918 -0.1783
  284MPD2    C5 4340   1.781   3.004  12.121 -0.3086 -0.2647  0.3348
  284MPD2     H 4341   2.153   2.979  12.158  0.2222  2.9303 -0.3597
  284MPD2    H1 4342   1.740   2.906  12.300  0.8680 -1.7286  0.1418
  284MPD2    H2 4343   1.814   3.124  11.953 -3.4554 -2.3814  0.2321
  284MPD2    H3 4344   1.674   3.013  12.108  0.0435  2.0110 -1.1253
  284MPD2     N 4345   2.013   2.831  12.341  0.2502 -0.6127 -0.2678
  284MPD2    H5 4346   1.951   2.797  12.414 -0.7265  0.2549 -0.6975
  284MPD2    N1 4347   2.087   3.120  11.961 -0.0073  0.5032 -0.6147
  284MPD2    H7 4348   2.186   3.102  11.972  0.7477  4.6300 -0.6419
  285TMC3    C1 4349   2.168   3.241  11.785 -0.2354 -0.2742 -0.0393
  285TMC3    C2 4350   2.283   3.169  11.807  0.6591 -0.4299  0.1047
  285TMC3    C3 4351   2.400   3.213  11.745  0.4572  0.3042  0.4030
  285TMC3    C4 4352   2.163   3.365  11.723  0.5978 -0.0903 -0.2343
  285TMC3    C5 4353   2.281   3.400  11.658  0.1461  0.1851  0.0264
  285TMC3    C6 4354   2.399   3.331  11.666  0.7934 -0.3880  0.2815
  285TMC3     C 4355   2.056   3.210  11.860  1.1773 -0.4958 -0.5126
  285TMC3     O 4356   1.953   3.277  11.844  0.0860 -0.5547 -0.3089
  285TMC3     H 4357   2.283   3.070  11.850  0.4003  0.2024  1.5741
  285TMC3    H1 4358   2.079   3.434  11.727 -1.5596 -2.5507 -3.2081
  285TMC3    H2 4359   2.489   3.366  11.617  1.0200 -3.8715 -1.7914
  285TMC3    C7 4360   2.278   3.537  11.619 -0.2079  0.2878 -0.4011
  285TMC3    C8 4361   2.483   3.104  11.687 -0.1436 -0.6513  0.1654
  285TMC3    O1 4362   2.172   3.581  11.577 -0.0221 -0.6790 -0.1753
  285TMC3    O2 4363   2.433   2.992  11.704 -0.2776  0.2813 -0.3545
  286MPD2     C 4364   0.912   1.297   1.094 -0.1050 -0.0985 -0.3202
  286MPD2    C1 4365   1.021   1.377   1.099  0.2645  0.4576 -0.8221
  286MPD2    C2 4366   1.144   1.324   1.067 -0.5587  0.1378 -0.1712
  286MPD2    C3 4367   1.155   1.189   1.024 -0.3343 -0.0640 -0.4458
  286MPD2    C4 4368   1.039   1.110   1.016  0.5010  0.2217 -0.6138
  286MPD2    C5 4369   0.918   1.166   1.049  0.2926 -1.1814  0.3252
  286MPD2     H 4370   1.235   1.383   1.066 -1.1145  1.0577  3.8404
  286MPD2    H1 4371   1.036   1.007   0.983  1.2398 -0.2373  0.7425
  286MPD2    H2 4372   0.817   1.325   1.138 -0.2730 -0.7003 -0.2980
  286MPD2    H3 4373   0.823   1.116   1.040  0.5405 -1.6775  0.4970
  286MPD2     N 4374   1.277   1.140   0.975 -0.1363  0.1340 -0.0329
  286MPD2    H5 4375   1.279   1.075   0.896  1.5636 -0.8799  0.8336
  286MPD2    N1 4376   0.988   1.515   1.127 -0.5438  0.1446 -1.1289
  286MPD2    H7 4377   0.894   1.540   1.154 -0.0780  0.1567  0.4735
  287TMC3    C1 4378   1.511   1.141   0.922 -0.6512  0.7318 -0.2452
  287TMC3    C2 4379   1.481   1.115   0.794  0.2888 -0.3083 -0.7560
  287TMC3    C3 4380   1.576   1.107   0.704 -1.4559 -0.0205 -0.4933
  287TMC3    C4 4381   1.642   1.148   0.967  0.1907  0.5023 -0.6164
  287TMC3    C5 4382   1.735   1.133   0.876  0.0287  1.7384  0.4602
  287TMC3    C6 4383   1.708   1.118   0.742  0.2103 -0.8603  0.4248
  287TMC3     C 4384   1.402   1.185   1.007  0.2581  0.2828 -0.1993
  287TMC3     O 4385   1.424   1.234   1.120 -0.1167 -0.1131  0.3540
  287TMC3     H 4386   1.380   1.141   0.765  0.5003 -0.0255 -1.2475
  287TMC3    H1 4387   1.663   1.129   1.071  0.0377  1.7383 -0.3610
  287TMC3    H2 4388   1.788   1.117   0.669  1.6555 -1.0589  2.0103
  287TMC3    C7 4389   1.868   1.136   0.921 -0.6329 -0.4882  0.3785
  287TMC3    C8 4390   1.527   1.097   0.570 -0.6442  0.3416 -0.0783
  287TMC3    O1 4391   1.897   1.192   1.023 -0.0592 -0.2167  0.2707
  287TMC3    O2 4392   1.405   1.076   0.552  0.0268  0.4012  0.2559
  288TMC3    C1 4393   3.830   1.766  14.398 -0.2588  0.6791  0.2552
  288TMC3    C2 4394   3.748   1.732  14.506 -0.3380  0.1837 -0.6186
  288TMC3    C3 4395   3.671   1.836  14.555 -0.0516 -0.4987  0.5695
  288TMC3    C4 4396   3.845   1.889  14.340  0.0518 -0.2103  0.0194
  288TMC3    C5 4397   3.789   1.986  14.413  0.0220  0.5306 -0.6498
  288TMC3    C6 4398   3.703   1.965  14.515 -0.1534 -0.0906 -0.0702
  288TMC3     C 4399   3.890   1.651  14.324  0.2552  0.8053 -0.1675
  288TMC3     O 4400   3.882   1.548  14.391  0.2182 -0.1564  0.7322
  288TMC3     H 4401   3.735   1.631  14.545 -0.3875  0.1649 -0.6838
  288TMC3    H1 4402   3.909   1.907  14.255  1.4460  1.4500  1.4334
  288TMC3    H2 4403   3.678   2.056  14.568 -1.2149  0.7402 -1.9977
  288TMC3    C7 4404   3.803   2.125  14.371 -0.1161 -0.2027 -0.5437
  288TMC3    C8 4405   3.572   1.822  14.661  0.2683  0.2763  0.4238
  288TMC3    O1 4406   3.710   2.198  14.374 -0.2346 -0.0271 -0.5156
  288TMC3    O2 4407   3.557   1.919  14.730  0.5683  0.1660  0.2189
  289MPD2     C 4408   4.227   0.807  14.568  0.9478 -0.0856 -0.0638
  289MPD2    C1 4409   4.251   0.928  14.509 -0.1192  0.8384  0.1026
  289MPD2    C2 4410   4.158   0.978  14.418 -0.2772 -0.4004 -1.3769
  289MPD2    C3 4411   4.053   0.895  14.389 -0.5803 -0.3211 -1.0938
  289MPD2    C4 4412   4.032   0.772  14.444 -0.6525 -0.2048  0.6584
  289MPD2    C5 4413   4.116   0.728  14.542 -0.2093 -0.9318 -0.9722
  289MPD2     H 4414   4.181   1.071  14.367 -0.6455  1.0082  1.0198
  289MPD2    H1 4415   3.943   0.722  14.409 -0.8837  1.3546 -1.0161
  289MPD2    H2 4416   4.293   0.765  14.644  2.2785 -0.6074 -1.4937
  289MPD2    H3 4417   4.115   0.629  14.586 -1.0477  0.2016  1.5277
  289MPD2     N 4418   3.948   0.931  14.303 -0.1914 -0.2346  0.3935
  289MPD2    H5 4419   3.879   0.861  14.280 -1.9253  1.0793  1.5713
  289MPD2    N1 4420   4.382   0.989  14.536  0.8778  0.3199 -0.4098
  289MPD2    H7 4421   4.447   0.942  14.598 -0.3123 -0.3571  0.3410
  290TMC3    C1 4422   3.789   1.090  14.229 -0.7317  0.1026 -0.0022
  290TMC3    C2 4423   3.770   1.222  14.192 -0.5273  0.5599  0.1227
  290TMC3    C3 4424   3.643   1.276  14.191  0.5559  0.1169  0.6755
  290TMC3    C4 4425   3.683   1.013  14.278 -0.2161  0.0509  0.6458
  290TMC3    C5 4426   3.554   1.071  14.268 -0.6275  0.0401 -0.3207
  290TMC3    C6 4427   3.533   1.200  14.222 -0.1106 -0.2245  0.7097
  290TMC3     C 4428   3.924   1.060  14.261  0.1365  1.0118  1.1423
  290TMC3     O 4429   3.987   1.161  14.277  0.0738  0.1485 -0.2782
  290TMC3     H 4430   3.852   1.285  14.159  0.6047 -0.9712  0.0216
  290TMC3    H1 4431   3.696   0.908  14.304  1.0778  0.1927  0.5777
  290TMC3    H2 4432   3.432   1.239  14.228  0.2169  0.8582 -0.9153
  290TMC3    C7 4433   3.435   1.003  14.316 -0.4449  0.1923  0.0372
  290TMC3    C8 4434   3.627   1.409  14.142  0.1823  0.7440 -0.4270
  290TMC3    O1 4435   3.332   1.038  14.261  0.6178  0.0615  0.1745
  290TMC3    O2 4436   3.704   1.457  14.062  0.3034 -0.0213 -0.8444
  291MPD2     C 4437   2.162   0.500   0.091  0.4577  0.2630 -0.0441
  291MPD2    C1 4438   2.278   0.445   0.148  0.4035  0.1360 -0.6968
  291MPD2    C2 4439   2.374   0.535   0.190  0.6074  0.3273  0.1714
  291MPD2    C3 4440   2.360   0.677   0.171 -0.1201 -0.5548 -0.2485
  291MPD2    C4 4441   2.241   0.721   0.117 -0.4300 -0.5970 -0.2684
  291MPD2    C5 4442   2.144   0.640   0.074  0.2048  0.0524 -0.1502
  291MPD2     H 4443   2.464   0.490   0.232  0.0356  0.5636  1.6180
  291MPD2    H1 4444   2.228   0.827   0.102 -1.1025 -1.0000 -2.4269
  291MPD2    H2 4445   2.086   0.432   0.055  0.8295 -0.3539  0.3400
  291MPD2    H3 4446   2.046   0.668   0.037  0.6120  2.1098  0.3374
  291MPD2     N 4447   2.453   0.778   0.212 -0.0094  0.3412  0.2115
  291MPD2    H5 4448   2.422   0.875   0.203  0.4958  0.3422 -1.4810
  291MPD2    N1 4449   2.306   0.306   0.150  0.4602  0.0430 -0.2545
  291MPD2    H7 4450   2.377   0.278   0.216 -0.0863  1.0183  0.7454
  292TMC3    C1 4451   2.242   0.074   0.130  0.6763  0.4120 -0.3642
  292TMC3    C2 4452   2.307   0.039   0.244 -0.2607  0.1236 -0.2183
  292TMC3    C3 4453   2.307   4.647   0.287  0.2679 -0.2441  0.6685
  292TMC3    C4 4454   2.178   4.712   0.053  0.2745  0.2097  0.5556
  292TMC3    C5 4455   2.183   4.581   0.100 -0.0931 -0.2428 -0.3750
  292TMC3    C6 4456   2.239   4.545   0.219 -0.0580  0.2391 -0.1760
  292TMC3     C 4457   2.229   0.211   0.082 -0.1536 -0.0003 -0.4282
  292TMC3     O 4458   2.159   0.225  17.737 -0.1119  0.2318 -0.0574
  292TMC3     H 4459   2.344   0.115   0.313 -1.5864  0.2646  0.3477
  292TMC3    H1 4460   2.125   0.002  17.715 -0.5648  0.1569  1.0367
  292TMC3    H2 4461   2.227   4.446   0.261 -0.1538  0.1853 -0.3298
  292TMC3    C7 4462   2.189   4.466   0.007  0.3532 -0.5476  0.8713
  292TMC3    C8 4463   2.320   4.634   0.431  0.3598  0.2570  0.7173
  292TMC3    O1 4464   2.252   4.365   0.036  0.2418 -0.5058  1.0005
  292TMC3    O2 4465   2.410   4.701   0.479 -0.2590  0.0988  0.4752
  293MPD2     C 4466   0.275   1.754  12.541 -0.1503  0.9095 -0.6003
  293MPD2    C1 4467   0.162   1.748  12.613 -0.0305 -0.3984 -0.5297
  293MPD2    C2 4468   0.165   1.795  12.748  0.4735 -0.6965  0.1626
  293MPD2    C3 4469   0.274   1.853  12.803 -0.3962  0.2367  0.2890
  293MPD2    C4 4470   0.385   1.844  12.731 -0.2877 -0.4720  0.5851
  293MPD2    C5 4471   0.385   1.806  12.604 -0.3833 -1.2203  0.2791
  293MPD2     H 4472   0.077   1.792  12.811  0.8381 -0.6847  0.6732
  293MPD2    H1 4473   0.480   1.866  12.779  1.5436 -1.7559 -2.4654
  293MPD2    H2 4474   0.281   1.704  12.445 -0.5081 -0.9493  0.3507
  293MPD2    H3 4475   0.486   1.799  12.564 -0.0490 -2.8642  1.4256
  293MPD2     N 4476   0.279   1.896  12.938  0.0260  0.0646 -0.1322
  293MPD2    H5 4477   0.197   1.879  12.996  1.9424  1.4114  2.9536
  293MPD2    N1 4478   0.048   1.688  12.557  0.3375  0.0486  0.1267
  293MPD2    H7 4479   0.057   1.660  12.460 -0.6438 -2.1239  0.6619
  294TMC3    C1 4480   4.566   1.595  12.528  0.0497 -1.5654 -0.5161
  294TMC3    C2 4481   4.468   1.512  12.586 -0.6187 -0.4214  0.4021
  294TMC3    C3 4482   4.362   1.474  12.505  0.2173  0.6069  0.4389
  294TMC3    C4 4483   4.557   1.644  12.400  0.2477 -0.0601 -0.1285
  294TMC3    C5 4484   4.449   1.594  12.327 -0.1407  0.2733  0.2572
  294TMC3    C6 4485   4.358   1.509  12.375 -0.8423 -0.2726 -0.0483
  294TMC3     C 4486   4.666   1.651  12.622 -0.0400 -0.0406 -0.4177
  294TMC3     O 4487   4.640   1.634  12.741 -0.2109  0.5240 -0.1580
  294TMC3     H 4488   4.467   1.486  12.691 -1.5664 -1.4279  0.1525
  294TMC3    H1 4489   4.628   1.711  12.353 -1.5998  2.3918  0.5787
  294TMC3    H2 4490   4.272   1.479  12.317 -0.4374  0.0143 -0.7957
  294TMC3    C7 4491   4.436   1.613  12.187  0.4314  0.0837  0.2066
  294TMC3    C8 4492   4.271   1.375  12.561  0.0908  0.6316 -0.5865
  294TMC3    O1 4493   4.323   1.597  12.141  0.1251  0.1117 -0.3854
  294TMC3    O2 4494   4.260   1.371  12.686  0.1986 -0.3605  0.0715
  295MPD2     C 4495   4.620   0.342   0.680 -0.3194 -0.2385 -0.0791
  295MPD2    C1 4496   4.738   0.278   0.697  0.2344  0.8658 -0.0935
  295MPD2    C2 4497   0.013   0.197   0.808  0.1997  0.0660 -0.7582
  295MPD2    C3 4498   4.653   0.178   0.898  0.4416 -0.3210 -0.4751
  295MPD2    C4 4499   4.535   0.249   0.886  0.2826 -0.0901 -0.0825
  295MPD2    C5 4500   4.522   0.334   0.782  0.3100  0.5907 -0.0137
  295MPD2     H 4501   0.108   0.147   0.818  0.1690  0.2730  0.5081
  295MPD2    H1 4502   4.460   0.246   0.965  1.4251 -1.1084  0.9601
  295MPD2    H2 4503   4.592   0.395   0.589  0.2341 -0.6816 -0.5075
  295MPD2    H3 4504   4.432   0.393   0.774 -0.5153 -0.8691 -1.3801
  295MPD2     N 4505   4.671   0.079   0.998  0.0549 -0.0021 -0.0965
  295MPD2    H5 4506   0.020   0.029   0.990 -0.3847 -0.5507 -1.5751
  295MPD2    N1 4507   0.094   0.260   0.592  0.4094 -0.1025 -0.4802
  295MPD2    H7 4508   0.180   0.207   0.605  1.2092  0.9299 -1.5555
  296TMC3    C1 4509   4.663   4.708   1.204  0.2814 -0.2246  0.3908
  296TMC3    C2 4510   4.625   4.707   1.337  0.0724  0.4007 -0.1798
  296TMC3    C3 4511   4.704   4.645   1.424 -0.8251 -0.5180  0.0444
  296TMC3    C4 4512   0.029   4.627   1.156 -0.0390  0.6149  0.8328
  296TMC3    C5 4513   0.103   4.558   1.246 -0.3127  0.5533 -0.1690
  296TMC3    C6 4514   0.071   4.565   1.381  0.1352 -0.2550  0.7733
  296TMC3     C 4515   4.594   0.059   1.112  0.0317 -0.1888 -0.3780
  296TMC3     O 4516   4.495   0.115   1.158  0.0386  0.4056 -1.2376
  296TMC3     H 4517   4.559   0.043   1.379  1.4515  2.6181 -1.9494
  296TMC3    H1 4518   0.055   4.620   1.051 -0.2468 -1.3727  0.9303
  296TMC3    H2 4519   0.118   4.505   1.458  1.2766  0.8491  0.9458
  296TMC3    C7 4520   0.183   4.445   1.188  0.2342 -0.3449  0.5547
  296TMC3    C8 4521   4.698   4.663   1.570 -0.2581 -0.4103  0.8179
  296TMC3    O1 4522   0.177   4.429   1.064 -0.4002 -0.0339  0.1607
  296TMC3    O2 4523   4.589   4.676   1.624  0.0090  0.5735  0.3124
  297MPD2     C 4524   2.679   2.529  15.599 -0.0979  0.1636  0.5373
  297MPD2    C1 4525   2.651   2.662  15.598 -0.2479  0.3760 -0.5508
  297MPD2    C2 4526   2.755   2.752  15.634 -0.1479 -0.1239 -0.0213
  297MPD2    C3 4527   2.880   2.701  15.676  0.1244  0.0568 -0.1595
  297MPD2    C4 4528   2.908   2.568  15.671  0.0541 -0.0449 -0.1679
  297MPD2    C5 4529   2.802   2.485  15.632  0.3932 -0.0333 -0.3635
  297MPD2     H 4530   2.736   2.858  15.642 -1.2791 -0.2507 -1.0355
  297MPD2    H1 4531   3.006   2.525  15.688 -0.7004 -1.3417  0.8544
  297MPD2    H2 4532   2.600   2.459  15.572 -0.7077  0.6546  1.0347
  297MPD2    H3 4533   2.807   2.376  15.631  0.9063  0.0010 -1.5568
  297MPD2     N 4534   2.987   2.792  15.709  0.0284 -0.4527 -0.6751
  297MPD2    H5 4535   2.968   2.892  15.702  2.0276 -0.0460 -0.5948
  297MPD2    N1 4536   2.526   2.716  15.561  0.1120 -0.2834 -1.0678
  297MPD2    H7 4537   2.512   2.816  15.563  1.1582 -0.1570 -0.2694
  298TMC3    C1 4538   2.297   2.733  15.556  0.3788  0.3810 -0.8181
  298TMC3    C2 4539   2.295   2.808  15.440 -0.1178  0.3166  0.6372
  298TMC3    C3 4540   2.168   2.858  15.407  0.6302 -0.2799  0.9408
  298TMC3    C4 4541   2.190   2.704  15.637 -0.1572 -0.8396 -0.1133
  298TMC3    C5 4542   2.076   2.757  15.601 -0.4661 -0.6620  0.0869
  298TMC3    C6 4543   2.066   2.834  15.489  0.3220  0.6053 -0.0797
  298TMC3     C 4544   2.409   2.647  15.576  0.1960 -0.3973  0.7851
  298TMC3     O 4545   2.389   2.538  15.627  0.0743  0.2638 -0.3039
  298TMC3     H 4546   2.371   2.793  15.365  0.3287  2.1473  0.7182
  298TMC3    H1 4547   2.204   2.663  15.737  0.8645 -0.5081 -0.1213
  298TMC3    H2 4548   1.979   2.895  15.466 -0.4700 -0.1118  1.0043
  298TMC3    C7 4549   1.964   2.749  15.704 -0.5666  0.2103  0.4045
  298TMC3    C8 4550   2.141   2.897  15.266 -0.6017 -0.3990 -1.0016
  298TMC3    O1 4551   1.993   2.738  15.824 -0.0550 -0.4427  0.3904
  298TMC3    O2 4552   2.030   2.878  15.230  0.5679  0.0839  0.5997
  299MPD2     C 4553   3.771   2.137  10.689 -0.6153  0.0195 -0.5354
  299MPD2    C1 4554   3.691   2.068  10.778  0.3986  0.2960 -0.5620
  299MPD2    C2 4555   3.560   2.023  10.740  0.5485  0.2279 -0.6075
  299MPD2    C3 4556   3.520   2.045  10.609  0.3101  0.6381  0.6099
  299MPD2    C4 4557   3.594   2.126  10.526 -0.0561  0.1349 -0.0583
  299MPD2    C5 4558   3.719   2.172  10.570  0.0715 -0.4552 -0.0812
  299MPD2     H 4559   3.496   1.966  10.805  1.9043 -2.6972 -1.8681
  299MPD2    H1 4560   3.570   2.141  10.422 -3.7832  0.8015  0.8945
  299MPD2    H2 4561   3.873   2.168  10.708 -0.5109 -1.1964  0.9159
  299MPD2    H3 4562   3.792   2.212  10.500 -1.7210  0.9682 -1.1203
  299MPD2     N 4563   3.397   2.002  10.554  0.2376 -0.3892 -0.1253
  299MPD2    H5 4564   3.374   2.048  10.467 -0.5726 -1.9174 -0.7129
  299MPD2    N1 4565   3.743   2.058  10.908  0.5107  0.5317 -0.1306
  299MPD2    H7 4566   3.827   2.112  10.920  0.0993  1.1956 -0.2419
  300TMC3    C1 4567   3.168   1.963  10.567 -0.3042  0.1923 -0.2649
  300TMC3    C2 4568   3.148   2.088  10.502  0.7525  0.2705  0.1092
  300TMC3    C3 4569   3.024   2.134  10.479  0.1438  0.2150  0.4515
  300TMC3    C4 4570   3.064   1.895  10.623  0.3334  0.2606  0.5368
  300TMC3    C5 4571   2.943   1.944  10.590  0.1638 -0.1377  0.3075
  300TMC3    C6 4572   2.919   2.069  10.524 -0.1036 -0.2761  0.2050
  300TMC3     C 4573   3.296   1.941  10.626  0.8288  1.1162  0.3014
  300TMC3     O 4574   3.298   1.863  10.721 -0.0600 -0.2564 -0.1731
  300TMC3     H 4575   3.232   2.150  10.475 -0.0032  1.2242 -0.0808
  300TMC3    H1 4576   3.072   1.802  10.678  2.2236 -0.5526 -1.1004
  300TMC3    H2 4577   2.819   2.111  10.519  0.8367  2.0744  0.7256
  300TMC3    C7 4578   2.832   1.894  10.670 -0.9596  0.2355 -0.0017
  300TMC3    C8 4579   3.010   2.275  10.460 -0.0446  0.1821  0.2141
  300TMC3    O1 4580   2.796   1.781  10.664  0.1677  0.2071  0.5585
  300TMC3    O2 4581   3.113   2.341  10.472 -0.1374 -0.4774  0.0559
  301MPD2     C 4582   0.372   3.530   1.181 -0.0233 -0.4806 -0.3037
  301MPD2    C1 4583   0.310   3.521   1.062 -0.2127  0.0325  0.1761
  301MPD2    C2 4584   0.306   3.401   0.997 -0.0492 -0.3594 -0.4793
  301MPD2    C3 4585   0.342   3.283   1.059 -0.3738  0.6376  0.1215
  301MPD2    C4 4586   0.401   3.293   1.185 -0.3582 -0.3359 -0.5038
  301MPD2    C5 4587   0.412   3.414   1.243  0.6847  0.0575 -0.3961
  301MPD2     H 4588   0.257   3.388   0.901 -0.2733 -0.0954 -0.4005
  301MPD2    H1 4589   0.441   3.205   1.235  0.7373  0.2948 -0.2575
  301MPD2    H2 4590   0.381   3.613   1.250 -0.2360 -1.4823  0.9376
  301MPD2    H3 4591   0.455   3.421   1.342 -0.5840  1.1212  0.0840
  301MPD2     N 4592   0.332   3.153   1.005  0.2097  0.5287  0.0388
  301MPD2    H5 4593   0.347   3.073   1.066  0.8888  0.8266  0.2664
  301MPD2    N1 4594   0.245   3.634   0.996  0.5943 -0.6771  0.3851
  301MPD2    H7 4595   0.195   3.623   0.908  1.0115 -0.0482  0.0688
  302TMC3    C1 4596   0.273   2.997   0.834 -0.9120  0.8800  0.2566
  302TMC3    C2 4597   0.270   2.898   0.933  0.7492 -0.4107  0.2500
  302TMC3    C3 4598   0.214   2.778   0.899  0.6661  0.1560 -0.0710
  302TMC3    C4 4599   0.227   2.974   0.709  0.6826  0.0774  0.3188
  302TMC3    C5 4600   0.192   2.846   0.672 -0.2581 -0.5001 -0.3532
  302TMC3    C6 4601   0.185   2.742   0.765 -0.0424 -0.0054  0.3221
  302TMC3     C 4602   0.293   3.135   0.872 -0.3858 -0.6374  0.0965
  302TMC3     O 4603   0.271   3.215   0.783 -0.6067 -0.2280 -0.3732
  302TMC3     H 4604   0.321   2.910   1.028  0.8109  2.7387 -0.1822
  302TMC3    H1 4605   0.221   3.053   0.635  0.6341 -0.3287 -0.1126
  302TMC3    H2 4606   0.128   2.654   0.740 -0.2181  0.7709 -2.0474
  302TMC3    C7 4607   0.083   2.834   0.569 -0.4661  0.3853  0.2739
  302TMC3    C8 4608   0.216   2.669   0.994  0.1653  0.2606  0.5275
  302TMC3    O1 4609   0.081   2.728   0.506  0.1487 -0.1133  0.3815
  302TMC3    O2 4610   0.230   2.556   0.956 -0.0153  0.6708 -0.0148
  303MPD2     C 4611   1.018   1.461  10.922  0.4226 -0.3103 -0.1111
  303MPD2    C1 4612   0.890   1.436  10.893  0.2533  0.1473  0.2739
  303MPD2    C2 4613   0.841   1.486  10.778  0.2985 -0.3882  0.4619
  303MPD2    C3 4614   0.926   1.544  10.683 -0.1725 -0.1841  0.5318
  303MPD2    C4 4615   1.056   1.574  10.718  0.3833  0.0591 -0.4175
  303MPD2    C5 4616   1.102   1.527  10.837  0.4542  0.4757 -0.1338
  303MPD2     H 4617   0.733   1.475  10.775  0.2510  0.1919  0.1341
  303MPD2    H1 4618   1.117   1.631  10.648 -0.5288 -0.8354 -1.9603
  303MPD2    H2 4619   1.056   1.424  11.016 -0.1271 -1.8630 -0.4929
  303MPD2    H3 4620   1.204   1.541  10.872  0.0086 -0.1135  1.3976
  303MPD2     N 4621   0.900   1.565  10.543  0.0658  0.1218  0.0156
  303MPD2    H5 4622   0.976   1.573  10.477 -1.1475 -2.3023 -1.6806
  303MPD2    N1 4623   0.809   1.373  10.988  0.6343 -0.3396 -0.1981
  303MPD2    H7 4624   0.854   1.349  11.075 -2.1273  1.2850  1.6589
  304TMC3    C1 4625   0.640   1.233  11.072 -0.0364 -0.3883 -0.3366
  304TMC3    C2 4626   0.511   1.221  11.108 -0.7354  0.1044  0.5833
  304TMC3    C3 4627   0.461   1.102  11.147  0.1200 -0.6007  0.0915
  304TMC3    C4 4628   0.728   1.131  11.090  0.9523  0.1183 -0.5041
  304TMC3    C5 4629   0.687   1.014  11.137  0.7600  0.4439  0.4054
  304TMC3    C6 4630   0.551   0.998  11.167 -0.0306  0.2199  0.4265
  304TMC3     C 4631   0.674   1.339  10.979  0.9375  0.2207  0.0309
  304TMC3     O 4632   0.586   1.374  10.897  0.0619 -0.0301  0.3849
  304TMC3     H 4633   0.447   1.306  11.087  2.1621  2.3840  0.9945
  304TMC3    H1 4634   0.822   1.130  11.036  0.2994 -1.5498 -1.6068
  304TMC3    H2 4635   0.515   0.903  11.206 -2.5545  0.5397 -1.1802
  304TMC3    C7 4636   0.743   0.901  11.070  0.7658 -0.2696 -0.3671
  304TMC3    C8 4637   0.346   1.047  11.083  0.1949  0.3454  0.4186
  304TMC3    O1 4638   0.860   0.915  11.034 -0.4652 -0.2913 -0.2171
  304TMC3    O2 4639   0.363   0.935  11.040  0.3404  0.4282 -0.3623
  305MPD2     C 4640   3.295   3.974  14.047  0.7995 -0.2656 -0.3976
  305MPD2    C1 4641   3.427   3.960  14.018  0.0139  0.3302 -0.2760
  305MPD2    C2 4642   3.467   3.887  13.908 -0.1526 -0.0815  0.7270
  305MPD2    C3 4643   3.377   3.833  13.815  0.3783  0.4437 -0.0103
  305MPD2    C4 4644   3.245   3.860  13.839  0.1649  0.1056 -0.5441
  305MPD2    C5 4645   3.206   3.921  13.954 -0.2857  0.6845  0.2348
  305MPD2     H 4646   3.572   3.860  13.899 -0.5122 -0.7599 -1.2672
  305MPD2    H1 4647   3.163   3.829  13.776  0.5503 -2.1740  0.0945
  305MPD2    H2 4648   3.252   4.016  14.137  0.9483 -1.9582  0.4790
  305MPD2    H3 4649   3.102   3.925  13.985 -1.0346 -0.8132 -2.1024
  305MPD2     N 4650   3.425   3.777  13.689 -0.3447  0.1088  0.3908
  305MPD2    H5 4651   3.366   3.797  13.609  0.9080 -1.8368 -1.0219
  305MPD2    N1 4652   3.513   4.018  14.109  0.1780  0.4221  0.2867
  305MPD2    H7 4653   3.469   4.058  14.192  0.5950  0.3010  0.5694
  306TMC3    C1 4654   3.719   4.045  14.237 -0.8117  0.4128  0.2492
  306TMC3    C2 4655   3.832   3.979  14.280  0.0245  0.0320 -0.8079
  306TMC3    C3 4656   3.887   4.012  14.401  0.7512  0.0027 -0.6115
  306TMC3    C4 4657   3.649   4.126  14.318  0.0554 -0.5718 -0.5190
  306TMC3    C5 4658   3.711   4.168  14.435 -0.3262 -1.0876  0.2425
  306TMC3    C6 4659   3.819   4.097  14.490  0.4386 -0.4237  0.0566
  306TMC3     C 4660   3.651   3.992  14.118 -0.3177  0.5240  0.1486
  306TMC3     O 4661   3.730   3.942  14.039 -0.1236  0.1816  0.1243
  306TMC3     H 4662   3.885   3.902  14.224  1.0443 -1.3350  2.0451
  306TMC3    H1 4663   3.570   4.188  14.278  0.1665 -0.1256 -0.0411
  306TMC3    H2 4664   3.813   4.075  14.596 -1.5067  1.1539  0.2803
  306TMC3    C7 4665   3.631   4.245  14.521 -0.8604 -0.0689 -0.4020
  306TMC3    C8 4666   3.992   3.926  14.450  0.8405 -0.3169  0.5351
  306TMC3    O1 4667   3.521   4.274  14.480  0.2020  0.2966 -0.2767
  306TMC3    O2 4668   4.029   3.822  14.404  0.1316  0.0412  1.1398
  307MPD2     C 4669   1.060   1.691   0.629 -0.2280  0.4068 -0.2330
  307MPD2    C1 4670   1.025   1.818   0.600  0.8127 -0.1247 -0.0489
  307MPD2    C2 4671   0.900   1.870   0.630  0.5803  0.0798 -0.0688
  307MPD2    C3 4672   0.814   1.800   0.706  0.5141  0.4342  0.9965
  307MPD2    C4 4673   0.856   1.673   0.751 -0.2801  0.6792  0.0932
  307MPD2    C5 4674   0.981   1.615   0.710  0.8248 -0.4017 -0.5234
  307MPD2     H 4675   0.876   1.973   0.607  0.0046 -0.8508 -3.5479
  307MPD2    H1 4676   0.798   1.615   0.822  0.5868  0.3272  0.5209
  307MPD2    H2 4677   1.155   1.646   0.603  0.7851  0.5382  3.2138
  307MPD2    H3 4678   1.006   1.516   0.745 -0.3898 -0.3912  0.3820
  307MPD2     N 4679   0.694   1.856   0.749 -0.3673 -0.0641  0.0261
  307MPD2    H5 4680   0.661   1.941   0.705 -0.0082  0.0200 -0.0750
  307MPD2    N1 4681   1.114   1.898   0.525  0.0099  0.0869  0.6970
  307MPD2    H7 4682   1.098   1.998   0.527  1.0985  0.3429 -3.1045
  308TMC3    C1 4683   0.267   1.906   0.942 -0.0408 -0.0751  0.7074
  308TMC3    C2 4684   0.286   2.035   0.976 -0.0294 -0.9400  0.4248
  308TMC3    C3 4685   0.402   2.087   0.933 -0.1516 -0.0079 -0.0706
  308TMC3    C4 4686   0.363   1.824   0.893 -0.8598  0.4632 -0.2076
  308TMC3    C5 4687   0.487   1.877   0.852 -0.1173 -0.4293 -0.2022
  308TMC3    C6 4688   0.502   2.014   0.868  0.0841 -0.5854  0.0829
  308TMC3     C 4689   0.133   1.870   0.896  0.2088  0.1666  0.0555
  308TMC3     O 4690   0.116   1.753   0.863  0.6916  0.3982  0.5253
  308TMC3     H 4691   0.211   2.091   1.031  0.4203 -0.8085  0.9021
  308TMC3    H1 4692   0.361   1.717   0.913 -0.8544  0.0571 -2.4092
  308TMC3    H2 4693   0.601   2.054   0.850  0.8544 -2.2571  0.5721
  308TMC3    C7 4694   0.595   1.792   0.824  0.2212 -0.2646  0.0097
  308TMC3    C8 4695   0.445   2.209   0.993 -0.3252  0.4279  0.0024
  308TMC3    O1 4696   0.600   1.681   0.876 -0.5356  0.9824 -0.5795
  308TMC3    O2 4697   0.411   2.235   1.107 -0.4416  0.4017 -0.0225
  309MPD2     C 4698   0.108   2.308  17.159  0.2967 -0.0232 -0.3134
  309MPD2    C1 4699   0.109   2.426  17.082  0.1935  0.5004 -0.6256
  309MPD2    C2 4700   4.733   2.509  17.089 -0.0767 -0.4440 -0.4613
  309MPD2    C3 4701   4.616   2.468  17.161  0.3023  0.2256 -0.1288
  309MPD2    C4 4702   4.630   2.358  17.246 -0.5853 -0.1279  0.2445
  309MPD2    C5 4703   0.007   2.282  17.242 -0.8695 -0.2334  0.2672
  309MPD2     H 4704   0.000   2.598  17.028 -1.2731  0.7674  1.2064
  309MPD2    H1 4705   4.547   2.326  17.309 -1.0366 -0.0577 -0.3120
  309MPD2    H2 4706   0.185   2.232  17.160  0.6406  0.3130 -1.0541
  309MPD2    H3 4707   0.005   2.196  17.308  1.0891 -0.0247  0.5841
  309MPD2     N 4708   4.494   2.536  17.157  0.2311 -0.0685 -0.2492
  309MPD2    H5 4709   4.427   2.513  17.229  0.7601  0.4587  0.4103
  309MPD2    N1 4710   0.216   2.475  17.007 -0.5088 -0.6624  0.4440
  309MPD2    H7 4711   0.184   2.546  16.942 -0.8160 -1.0228  0.1964
  310TMC3    C1 4712   0.440   2.516  16.943 -0.1565 -0.2122  0.1648
  310TMC3    C2 4713   0.395   2.581  16.832 -0.4170  0.6272 -0.4148
  310TMC3    C3 4714   0.486   2.614  16.732  0.5551  0.2900 -0.3045
  310TMC3    C4 4715   0.573   2.509  16.968 -0.2862 -0.4744 -0.6921
  310TMC3    C5 4716   0.660   2.551  16.877 -0.2157 -0.0341 -0.3461
  310TMC3    C6 4717   0.618   2.599  16.754 -0.2053 -0.2353 -0.3825
  310TMC3     C 4718   0.349   2.432  17.012 -0.3398  0.0900 -0.2206
  310TMC3     O 4719   0.407   2.358  17.083  0.3346 -0.0446 -0.1079
  310TMC3     H 4720   0.289   2.589  16.811 -0.4458  1.5912  0.1040
  310TMC3    H1 4721   0.605   2.453  17.055 -0.4545  0.4082 -0.0594
  310TMC3    H2 4722   0.699   2.642  16.696  1.1021 -1.1398  0.7630
  310TMC3    C7 4723   0.754   2.443  16.844 -1.0082 -0.1679 -0.2642
  310TMC3    C8 4724   0.457   2.604  16.590  0.0380  0.1203 -0.2970
  310TMC3    O1 4725   0.758   2.420  16.725 -0.6118 -0.0013 -0.1854
  310TMC3    O2 4726   0.352   2.652  16.546  0.8782  0.3714  0.2921
  311MPD2     C 4727   2.666   3.280  13.261  0.1893 -0.7886 -0.1880
  311MPD2    C1 4728   2.674   3.388  13.183 -0.0657 -0.4619 -0.0502
  311MPD2    C2 4729   2.558   3.439  13.128  0.4691  0.1441  0.4202
  311MPD2    C3 4730   2.438   3.374  13.142  0.0719 -0.0686 -0.6257
  311MPD2    C4 4731   2.429   3.262  13.225  0.2436 -0.5465 -0.8126
  311MPD2    C5 4732   2.544   3.213  13.282 -1.2365 -0.1978 -0.0822
  311MPD2     H 4733   2.562   3.526  13.065 -0.6584 -0.4044 -0.4027
  311MPD2    H1 4734   2.338   3.207  13.245  0.2401  0.3361  1.6730
  311MPD2    H2 4735   2.748   3.233  13.315  1.9603  0.9425 -1.3834
  311MPD2    H3 4736   2.556   3.121  13.337 -0.6397  0.6997  1.3156
  311MPD2     N 4737   2.335   3.429  13.066  0.3536 -0.0455 -0.0014
  311MPD2    H5 4738   2.337   3.521  13.024  2.7391 -0.5300 -0.9743
  311MPD2    N1 4739   2.797   3.452  13.173 -0.4293 -0.1200 -1.0536
  311MPD2    H7 4740   2.797   3.550  13.144  3.5503  0.3391  0.5170
  312TMC3    C1 4741   2.113   3.458  13.005 -0.7347 -0.6352  0.3453
  312TMC3    C2 4742   2.022   3.431  12.906 -0.2029  0.2569 -0.1393
  312TMC3    C3 4743   1.912   3.506  12.890  0.2777 -0.1726  0.0369
  312TMC3    C4 4744   2.084   3.554  13.094 -0.0961  0.3894  0.4184
  312TMC3    C5 4745   1.961   3.610  13.088 -0.3166  0.9369 -0.5675
  312TMC3    C6 4746   1.872   3.591  12.990  0.4725  0.6927  0.5154
  312TMC3     C 4747   2.214   3.359  13.043  0.1961 -0.5624 -0.0880
  312TMC3     O 4748   2.191   3.241  13.071 -0.3686  0.2961 -0.4740
  312TMC3     H 4749   2.037   3.352  12.834 -1.8274 -1.0986  1.0192
  312TMC3    H1 4750   2.146   3.549  13.183 -1.3111  2.1288  1.3547
  312TMC3    H2 4751   1.768   3.619  12.999  0.2700  1.3808 -4.0124
  312TMC3    C7 4752   1.916   3.670  13.212 -0.2945 -0.2606  0.6884
  312TMC3    C8 4753   1.808   3.455  12.808  0.4490 -0.1957 -0.4182
  312TMC3    O1 4754   1.809   3.726  13.198 -0.1706 -0.0334  0.1066
  312TMC3    O2 4755   1.834   3.353  12.745 -0.5999 -0.6498  0.1192
  313MPD2     C 4756   1.678   2.676  11.439 -0.4686 -0.1549 -1.0272
  313MPD2    C1 4757   1.759   2.761  11.363 -0.1847 -0.6919 -0.1301
  313MPD2    C2 4758   1.832   2.707  11.260  0.3913  0.2981  0.6170
  313MPD2    C3 4759   1.822   2.570  11.227  0.0758 -0.2822  0.4775
  313MPD2    C4 4760   1.742   2.487  11.299 -0.8692  0.3032  0.4040
  313MPD2    C5 4761   1.669   2.543  11.403 -0.2170 -0.2429 -0.3025
  313MPD2     H 4762   1.900   2.776  11.213 -1.2358  0.1021 -2.0198
  313MPD2    H1 4763   1.737   2.383  11.268  0.9365  0.3273  0.0564
  313MPD2    H2 4764   1.625   2.705  11.529  1.6293  2.5673 -0.6846
  313MPD2    H3 4765   1.612   2.472  11.462 -2.3252 -0.6200 -2.8031
  313MPD2     N 4766   1.905   2.524  11.119  0.5090  0.0939 -0.8032
  313MPD2    H5 4767   1.974   2.589  11.084  0.8438  0.3656  0.3709
  313MPD2    N1 4768   1.747   2.901  11.376  0.3297 -0.1527  0.1290
  313MPD2    H7 4769   1.796   2.957  11.307 -1.8402  2.0623  0.3893
  314TMC3    C1 4770   1.678   3.115  11.440  0.7134 -0.6113 -0.0757
  314TMC3    C2 4771   1.802   3.171  11.431  0.7163 -0.2263 -0.0325
  314TMC3    C3 4772   1.812   3.294  11.371 -0.0441 -0.1855 -0.7586
  314TMC3    C4 4773   1.564   3.173  11.377 -0.2290 -0.1338  0.2307
  314TMC3    C5 4774   1.573   3.298  11.324  0.4502 -0.3520  0.8994
  314TMC3    C6 4775   1.700   3.352  11.317  0.2425  0.2354  0.1831
  314TMC3     C 4776   1.666   2.969  11.459 -0.7031  0.0683 -0.3741
  314TMC3     O 4777   1.580   2.930  11.541 -0.3688  0.0646  0.9081
  314TMC3     H 4778   1.888   3.133  11.486  0.2746 -0.3464  0.5776
  314TMC3    H1 4779   1.471   3.119  11.383  0.3208 -0.8146  2.6870
  314TMC3    H2 4780   1.696   3.453  11.279 -3.2108  0.0886  0.1859
  314TMC3    C7 4781   1.506   3.291  11.197  0.6227  0.2564  0.2931
  314TMC3    C8 4782   1.939   3.357  11.342  0.6148 -0.9517  0.2545
  314TMC3    O1 4783   1.397   3.233  11.202  0.3535 -0.1810 -0.2101
  314TMC3    O2 4784   1.932   3.473  11.300  0.1713  0.1559  0.1989
  315MPD2     C 4785   1.372   1.690  17.692  0.2978  0.0549  0.3251
  315MPD2    C1 4786   1.511   1.690  17.674  0.0082  0.0779  0.5017
  315MPD2    C2 4787   1.569   1.762  17.572  0.8024  0.6382  0.3577
  315MPD2    C3 4788   1.490   1.838  17.486  0.3284  0.1434  0.6019
  315MPD2    C4 4789   1.354   1.820  17.496 -0.3148  0.3343  0.4198
  315MPD2    C5 4790   1.298   1.760  17.602  0.2615  0.3867  0.2641
  315MPD2     H 4791   1.676   1.759  17.557  0.4120  0.7541 -2.5034
  315MPD2    H1 4792   1.285   1.873  17.431  0.3949  1.2023  0.3710
  315MPD2    H2 4793   1.327   1.614   0.003  1.5043 -1.7942 -1.0314
  315MPD2    H3 4794   1.191   1.741  17.602  0.5899 -1.4065  3.9562
  315MPD2     N 4795   1.558   1.933  17.406 -0.6181  0.2110 -0.4634
  315MPD2    H5 4796   1.656   1.949  17.425 -0.7639 -0.7176  1.0826
  315MPD2    N1 4797   1.600   1.612   0.001  0.0405 -0.1088 -0.9971
  315MPD2    H7 4798   1.698   1.612  17.730  0.2109 -2.2104 -0.2954
  316TMC3    C1 4799   1.595   2.123  17.276 -0.0217 -0.7627  0.3781
  316TMC3    C2 4800   1.699   2.155  17.359 -0.2883 -0.3712  0.2213
  316TMC3    C3 4801   1.785   2.259  17.316  0.7496  0.2066  0.8624
  316TMC3    C4 4802   1.573   2.186  17.159 -0.8116  0.1766 -0.6912
  316TMC3    C5 4803   1.660   2.284  17.125  0.3363  0.1273  0.4485
  316TMC3    C6 4804   1.770   2.323  17.197 -0.0846 -0.3275 -0.2993
  316TMC3     C 4805   1.501   2.021  17.318 -0.0056 -0.0843 -0.3550
  316TMC3     O 4806   1.392   2.024  17.259  0.2327 -0.1712 -0.2325
  316TMC3     H 4807   1.711   2.114  17.459  0.5957  0.1495  0.3235
  316TMC3    H1 4808   1.479   2.170  17.108  0.2805 -2.2786 -1.9291
  316TMC3    H2 4809   1.825   2.409  17.160 -0.4597 -0.1916 -0.5416
  316TMC3    C7 4810   1.650   2.347  16.995  0.1929 -0.0224  0.0728
  316TMC3    C8 4811   1.901   2.308  17.395 -0.2929  0.4786  0.1458
  316TMC3    O1 4812   1.543   2.390  16.960 -0.1619 -1.3299 -0.1855
  316TMC3    O2 4813   1.939   2.420  17.373 -0.3490  0.1838 -0.0393
  317MPD2     C 4814   4.143   0.534  12.857  0.3300  0.0868  0.5920
  317MPD2    C1 4815   4.215   0.418  12.887 -0.1430 -0.0220  0.4187
  317MPD2    C2 4816   4.231   0.386  13.017  0.5298 -0.1644  0.1988
  317MPD2    C3 4817   4.201   0.476  13.116  0.6125  0.5293  1.0673
  317MPD2    C4 4818   4.143   0.593  13.084 -0.1947  0.5614  0.2298
  317MPD2    C5 4819   4.120   0.628  12.953  0.0716 -0.0980  0.2907
  317MPD2     H 4820   4.275   0.292  13.050 -2.0622  0.2700  4.8527
  317MPD2    H1 4821   4.103   0.657  13.162  0.1780  1.0173  0.0562
  317MPD2    H2 4822   4.120   0.565  12.755  0.5138 -1.3759  0.1120
  317MPD2    H3 4823   4.062   0.716  12.926  0.5233  0.3491  0.7893
  317MPD2     N 4824   4.224   0.437  13.255 -0.2912 -0.4851 -0.6343
  317MPD2    H5 4825   4.225   0.337  13.273 -0.6043  0.0817  2.4212
  317MPD2    N1 4826   4.262   0.330  12.786  0.2263 -0.6892  0.5201
  317MPD2    H7 4827   4.312   0.250  12.822 -0.3797 -1.2973  0.0131
  318TMC3    C1 4828   4.175   0.442  13.479  0.1411 -0.4680  0.1172
  318TMC3    C2 4829   4.134   0.309  13.485 -0.2926 -0.1302  0.2382
  318TMC3    C3 4830   4.154   0.238  13.603 -0.8395  0.8171  0.2598
  318TMC3    C4 4831   4.221   0.507  13.595 -0.5644  0.6783  0.1922
  318TMC3    C5 4832   4.240   0.436  13.709 -0.2398 -0.2228  0.8860
  318TMC3    C6 4833   4.211   0.299  13.709  0.2561  0.2434  0.2976
  318TMC3     C 4834   4.195   0.520  13.358 -0.3035  0.7096  0.4386
  318TMC3     O 4835   4.203   0.641  13.366 -0.6640  0.3406  0.1701
  318TMC3     H 4836   4.091   0.252  13.403  0.0891  0.1964 -0.1903
  318TMC3    H1 4837   4.243   0.614  13.594  2.2419  0.1058 -0.2792
  318TMC3    H2 4838   4.234   0.249  13.802  0.8892 -0.2622 -0.1305
  318TMC3    C7 4839   4.328   0.487  13.811 -0.5831 -0.3764  0.5727
  318TMC3    C8 4840   4.111   0.104  13.621  0.1658 -0.1693 -0.1195
  318TMC3    O1 4841   4.327   0.607  13.840  0.4542 -0.8088  0.2853
  318TMC3    O2 4842   4.171   0.041  13.706 -0.0081  0.1909 -0.1745
  319MPD2     C 4843   4.446   1.762  17.289  0.2031 -0.7386 -0.4003
  319MPD2    C1 4844   4.535   1.799  17.187  0.7402 -0.3667 -0.1231
  319MPD2    C2 4845   4.491   1.793  17.055 -0.4125 -0.1844  0.4938
  319MPD2    C3 4846   4.374   1.727  17.028 -0.1470 -0.3522 -0.4747
  319MPD2    C4 4847   4.300   1.670  17.129  0.9927  0.4484 -0.6154
  319MPD2    C5 4848   4.331   1.695  17.257  0.2420  0.1996 -0.2316
  319MPD2     H 4849   4.559   1.831  16.979 -0.7994  0.0690  0.2741
  319MPD2    H1 4850   4.218   1.602  17.112 -0.1409  1.4198  1.0217
  319MPD2    H2 4851   4.475   1.774  17.393 -0.3442 -0.9129 -0.2269
  319MPD2    H3 4852   4.267   1.657  17.336 -0.3745 -2.2828 -1.9442
  319MPD2     N 4853   4.329   1.690  16.896  0.3240 -0.0506  0.2750
  319MPD2    H5 4854   4.258   1.620  16.882  0.3236  0.3143 -1.5196
  319MPD2    N1 4855   4.668   1.854  17.213 -0.4348 -0.7756  0.1159
  319MPD2    H7 4856   4.714   1.893  17.131 -1.8142  0.7364  0.0728
  320TMC3    C1 4857   4.360   1.677  16.652 -0.0391  0.2499 -0.5083
  320TMC3    C2 4858   4.369   1.763  16.543 -0.1355 -0.5435  0.3035
  320TMC3    C3 4859   4.338   1.715  16.417  0.6313  0.0141  0.0607
  320TMC3    C4 4860   4.323   1.542  16.648  0.1182 -0.0106 -0.3790
  320TMC3    C5 4861   4.319   1.496  16.516  0.0140 -0.0783 -0.0913
  320TMC3    C6 4862   4.304   1.579  16.409  0.4105  0.0590  0.6785
  320TMC3     C 4863   4.399   1.737  16.783  0.2119 -0.3553 -0.2661
  320TMC3     O 4864   4.469   1.838  16.764 -0.0051  0.3238  0.3866
  320TMC3     H 4865   4.397   1.867  16.551  1.1552 -1.0307  2.3317
  320TMC3    H1 4866   4.323   1.485  16.740  1.5071  2.2685  1.0367
  320TMC3    H2 4867   4.303   1.533  16.310 -0.1412 -1.2365  1.2891
  320TMC3    C7 4868   4.271   1.365  16.499  0.2110 -0.6069 -0.1615
  320TMC3    C8 4869   4.315   1.805  16.312  0.5148  0.2937  0.1255
  320TMC3    O1 4870   4.193   1.325  16.590 -0.2398 -0.3926 -0.5523
  320TMC3    O2 4871   4.380   1.908  16.318 -0.4754  0.4106 -0.2824
  321TMC3    C1 4872   0.143   1.907  17.331 -0.1679 -0.2605  0.2694
  321TMC3    C2 4873   0.210   1.876  17.451  0.4987 -0.3970 -0.4874
  321TMC3    C3 4874   0.339   1.922  17.456  0.5544  0.2625  0.0843
  321TMC3    C4 4875   0.203   1.948  17.215 -0.8752 -0.1308 -0.3662
  321TMC3    C5 4876   0.337   1.973  17.218 -0.1258  0.0542 -0.0161
  321TMC3    C6 4877   0.395   1.962  17.346  0.3293 -0.2751 -0.2621
  321TMC3     C 4878   0.003   1.852  17.335 -0.1167 -0.5741 -0.6054
  321TMC3     O 4879   4.702   1.803  17.438 -0.1115 -0.9730  0.6140
  321TMC3     H 4880   0.155   1.830  17.532  0.2370 -0.5589 -0.7587
  321TMC3    H1 4881   0.159   1.936  17.117 -1.6094 -0.0120 -0.0576
  321TMC3    H2 4882   0.493   2.007  17.362 -0.0504  0.2767  0.5164
  321TMC3    C7 4883   0.395   1.879  17.122 -0.0071 -0.0133  0.3121
  321TMC3    C8 4884   0.426   1.826  17.526 -0.7168 -0.4557 -0.3086
  321TMC3    O1 4885   0.349   1.885  17.008  0.3079 -0.2506  0.0096
  321TMC3    O2 4886   0.535   1.797  17.475 -0.3869 -0.0549 -0.3663
  322MPD2     C 4887   3.355   3.418  13.798  0.1087 -0.3421  0.3061
  322MPD2    C1 4888   3.408   3.386  13.921 -0.3265 -0.4056  0.4149
  322MPD2    C2 4889   3.413   3.252  13.958 -0.7989  0.3974 -0.0935
  322MPD2    C3 4890   3.373   3.146  13.872  0.3251  0.1116 -0.7638
  322MPD2    C4 4891   3.310   3.185  13.755 -0.4254 -0.2874  0.8631
  322MPD2    C5 4892   3.300   3.318  13.725 -0.0165  0.2633 -0.0449
  322MPD2     H 4893   3.440   3.233  14.061 -0.9534 -0.6307 -0.2341
  322MPD2    H1 4894   3.263   3.112  13.690 -2.1024  2.1563 -0.6766
  322MPD2    H2 4895   3.346   3.523  13.773 -0.2703 -1.0471 -2.4788
  322MPD2    H3 4896   3.256   3.331  13.627  0.2797 -0.1948 -0.2387
  322MPD2     N 4897   3.367   3.013  13.918  0.7483  0.2563  0.0204
  322MPD2    H5 4898   3.402   3.001  14.012 -0.2350 -1.7038  0.1347
  322MPD2    N1 4899   3.466   3.494  13.993  0.0392 -0.5552 -1.0924
  322MPD2    H7 4900   3.467   3.590  13.959 -3.6896  0.3557  1.3624
  323TMC3    C1 4901   3.629   3.577  14.147 -0.6801  1.0767  0.4452
  323TMC3    C2 4902   3.713   3.603  14.046  0.0244  0.4773 -0.4645
  323TMC3    C3 4903   3.838   3.624  14.088  0.0874  0.1498  0.3615
  323TMC3    C4 4904   3.665   3.583  14.278 -0.9853  0.3776  0.0977
  323TMC3    C5 4905   3.790   3.613  14.313 -0.5682  0.1694 -1.0237
  323TMC3    C6 4906   3.875   3.636  14.213  0.3771 -0.1304  0.0993
  323TMC3     C 4907   3.532   3.472  14.115  0.0421 -0.4151 -0.0049
  323TMC3     O 4908   3.527   3.381  14.197 -0.2000 -0.5440  0.1376
  323TMC3     H 4909   3.694   3.573  13.944 -4.1053  3.6406 -0.6451
  323TMC3    H1 4910   3.600   3.546  14.357  0.4442 -0.2514  0.9768
  323TMC3    H2 4911   3.979   3.638  14.241  0.2202 -1.2115  0.7660
  323TMC3    C7 4912   3.840   3.537  14.419  0.8754 -0.0169  0.0464
  323TMC3    C8 4913   3.947   3.593  13.998  0.1149 -0.4718  0.6252
  323TMC3    O1 4914   3.911   3.444  14.393 -0.0100  0.1635  0.1033
  323TMC3    O2 4915   4.047   3.543  14.046 -0.3787 -0.3516 -0.1732
  324MPD2     C 4916   0.811   3.840  14.426  0.5704 -0.3470 -0.4118
  324MPD2    C1 4917   0.834   3.977  14.422 -0.3517  0.3208 -0.1625
  324MPD2    C2 4918   0.729   4.065  14.424 -0.4604 -1.0498  0.3735
  324MPD2    C3 4919   0.601   4.015  14.430  0.3067  0.9346 -0.3440
  324MPD2    C4 4920   0.577   3.878  14.433  0.0894 -1.1176  0.0145
  324MPD2    C5 4921   0.685   3.796  14.439  0.2804  0.1789 -1.0615
  324MPD2     H 4922   0.750   4.171  14.420  0.1101 -1.2540 -1.7104
  324MPD2    H1 4923   0.478   3.835  14.427  0.6668 -2.5165  0.5698
  324MPD2    H2 4924   0.891   3.766  14.423 -0.0409 -1.0834  1.9283
  324MPD2    H3 4925   0.676   3.691  14.464  1.1396  0.3420 -0.0844
  324MPD2     N 4926   0.482   4.092  14.432  0.1290  0.2097 -0.8309
  324MPD2    H5 4927   0.393   4.045  14.439  0.2442 -0.0692 -1.2301
  324MPD2    N1 4928   0.969   4.025  14.405  0.5452 -0.0053  0.3370
  324MPD2    H7 4929   0.973   4.120  14.370  1.0257 -0.6055 -1.2647
  325TMC3    C1 4930   0.327   4.289  14.409 -0.6297 -0.7520 -0.6581
  325TMC3    C2 4931   0.219   4.210  14.398 -0.4151 -0.1180  0.1528
  325TMC3    C3 4932   0.095   4.271  14.400 -0.1925 -0.0686  1.1973
  325TMC3    C4 4933   0.320   4.418  14.436  0.2509  0.4702 -0.3845
  325TMC3    C5 4934   0.201   4.480  14.436  0.0577 -0.2711  0.3306
  325TMC3    C6 4935   0.083   4.405  14.422 -0.2467 -0.0669  0.3676
  325TMC3     C 4936   0.470   4.228  14.417 -0.0920  0.2928  0.0581
  325TMC3     O 4937   0.561   4.309  14.410 -0.3666 -0.1218 -0.4082
  325TMC3     H 4938   0.225   4.103  14.388  1.9465  0.0509 -0.1916
  325TMC3    H1 4939   0.405   4.483  14.449 -0.7687  1.7882 -0.2045
  325TMC3    H2 4940   4.730   4.460  14.404  1.0269  1.3242 -1.8418
  325TMC3    C7 4941   0.206   4.628  14.423 -0.0505 -0.5403  0.2608
  325TMC3    C8 4942   4.731   4.183  14.354 -0.0204 -0.7760 -0.5964
  325TMC3    O1 4943   0.282   4.674  14.343 -0.1227 -0.1697  0.4898
  325TMC3    O2 4944   0.036   4.083  14.297  0.1853 -0.2619  0.4387
  326MPD2     C 4945   2.031   0.104  11.589  0.5725 -0.3994 -0.0346
  326MPD2    C1 4946   1.962   0.203  11.526  0.4097  0.5277  0.0198
  326MPD2    C2 4947   2.019   0.313  11.472 -0.0768  0.4832 -0.6204
  326MPD2    C3 4948   2.154   0.338  11.475  0.3528  0.6037  0.2840
  326MPD2    C4 4949   2.226   0.243  11.541  0.8971 -0.3795  0.0604
  326MPD2    C5 4950   2.164   0.129  11.594  0.1577  0.2677 -0.5972
  326MPD2     H 4951   1.958   0.391  11.426  0.9135 -0.2172 -3.1387
  326MPD2    H1 4952   2.331   0.250  11.569  0.4043  2.3398  1.2976
  326MPD2    H2 4953   1.997   0.010  11.632 -3.8558 -0.0497 -2.7490
  326MPD2    H3 4954   2.221   0.061  11.656 -1.3772  0.1166  0.6521
  326MPD2     N 4955   2.222   0.444  11.420  0.0110 -0.5136  0.3797
  326MPD2    H5 4956   2.323   0.440  11.424  0.0046 -0.2680  0.7465
  326MPD2    N1 4957   1.821   0.189  11.501  0.3670  0.2096 -0.4651
  326MPD2    H7 4958   1.772   0.270  11.465  0.0234 -0.4940 -1.6002
  327TMC3    C1 4959   1.628   0.064  11.432 -0.3172  0.8268  1.2921
  327TMC3    C2 4960   1.560   0.183  11.406  0.2248  0.6153  0.0868
  327TMC3    C3 4961   1.519   0.209  11.276 -0.2203 -0.1392  0.2260
  327TMC3    C4 4962   1.659   4.710  11.331 -0.4076 -0.0898  0.4331
  327TMC3    C5 4963   1.625   0.007  11.205  1.0287 -0.8324  0.2213
  327TMC3    C6 4964   1.550   0.121  11.181 -0.0683  0.4882  0.3867
  327TMC3     C 4965   1.749   0.071  11.515  0.2814  0.5864 -0.1250
  327TMC3     O 4966   1.797   4.700  11.535  1.1938  0.4029  0.0970
  327TMC3     H 4967   1.543   0.254  11.485  1.8546  0.3736  0.6484
  327TMC3    H1 4968   1.733   4.632  11.339  1.0350  1.3657  1.4298
  327TMC3    H2 4969   1.522   0.138  11.078  1.8004 -0.3453 -0.2629
  327TMC3    C7 4970   1.729   0.000  11.106 -1.4900  0.5228 -0.0573
  327TMC3    C8 4971   1.484   0.344  11.235 -0.1617 -0.1671  0.0093
  327TMC3    O1 4972   1.699   0.031  10.994  0.2393  0.0592  0.5595
  327TMC3    O2 4973   1.493   0.380  11.114  0.7661 -0.2409 -0.0133
  328MPD2     C 4974   3.050   4.523   0.130  0.5151  0.0291  0.0710
  328MPD2    C1 4975   3.107   4.645   0.163 -0.7231 -0.5807  0.2595
  328MPD2    C2 4976   3.113   0.013   0.063  0.4649 -0.0669 -0.7038
  328MPD2    C3 4977   3.063   4.732  17.688 -0.2360  0.1816 -0.0686
  328MPD2    C4 4978   3.009   4.602  17.662 -0.1023  0.0033  0.4821
  328MPD2    C5 4979   3.014   4.504  17.752  0.0372 -0.7622 -0.2844
  328MPD2     H 4980   3.148   0.111   0.094 -1.0952  0.4816 -0.6595
  328MPD2    H1 4981   2.985   4.584  17.558 -0.6462  1.9631  0.2676
  328MPD2    H2 4982   3.044   4.449   0.209 -1.0138 -0.2986 -0.3485
  328MPD2    H3 4983   2.987   4.404  17.719 -0.5427 -0.9593  0.7828
  328MPD2     N 4984   3.054   0.093  17.588  0.0749  0.4346  0.1675
  328MPD2    H5 4985   3.028   0.067  17.493  0.2937  1.1317 -0.0833
  328MPD2    N1 4986   3.134   4.661   0.296 -0.3324 -0.0422 -0.1653
  328MPD2    H7 4987   3.084   4.592   0.352  0.9521 -0.6701  0.1923
  329TMC3    C1 4988   3.204   0.040   0.490 -0.3543 -0.0202  0.6022
  329TMC3    C2 4989   3.271   0.147   0.546  0.0602 -0.4789 -0.4466
  329TMC3    C3 4990   3.249   0.179   0.678  0.7743  0.0012  0.0851
  329TMC3    C4 4991   3.133   4.694   0.571  0.4543  0.0634 -0.1847
  329TMC3    C5 4992   3.112   4.727   0.697  0.3437  0.6632 -0.3527
  329TMC3    C6 4993   3.162   0.103   0.753 -0.1920 -0.2672  0.1174
  329TMC3     C 4994   3.198   0.028   0.344  0.3146  0.0944 -0.2321
  329TMC3     O 4995   3.270   0.108   0.283  0.0464 -0.1620  0.5572
  329TMC3     H 4996   3.332   0.207   0.479 -1.5757 -0.2295 -1.7036
  329TMC3    H1 4997   3.100   4.599   0.531  0.9233 -0.2219  0.1045
  329TMC3    H2 4998   3.156   0.126   0.859 -0.7970  2.2191 -0.4580
  329TMC3    C7 4999   3.035   4.648   0.790  0.6747  0.5687  0.1271
  329TMC3    C8 5000   3.266   0.319   0.715 -0.4905  0.0420 -0.3115
  329TMC3    O1 5001   3.055   4.661   0.908  0.2442 -0.2661  0.3372
  329TMC3    O2 5002   3.283   0.342   0.834 -1.0359  0.2160  0.4052
  330TMC3    C1 5003   2.385   0.003  10.025  0.9257 -0.0123  0.1014
  330TMC3    C2 5004   2.336   4.694   9.906  0.1043 -1.0908  0.1408
  330TMC3    C3 5005   2.318   4.556   9.898  0.3777  0.9165  0.2073
  330TMC3    C4 5006   2.407   4.668  10.134  0.3420 -0.6304  0.0821
  330TMC3    C5 5007   2.410   4.533  10.118  0.1315 -0.0537  0.7510
  330TMC3    C6 5008   2.352   4.475  10.006 -0.2108 -0.1267  0.4956
  330TMC3     C 5009   2.400   0.151  10.036 -0.1695 -0.4388  0.0915
  330TMC3     O 5010   2.460   0.186  10.137 -0.3867  0.0812  0.1182
  330TMC3     H 5011   2.299   0.013   9.822  1.9753  2.4275  1.7251
  330TMC3    H1 5012   2.428   4.709  10.233 -3.5694 -2.6044  1.7329
  330TMC3    H2 5013   2.354   4.367   9.999 -3.8433 -0.3212  2.1978
  330TMC3    C7 5014   2.432   4.456  10.236  0.0012 -0.1860  0.6224
  330TMC3    C8 5015   2.271   4.493   9.775  0.4798  0.7305  0.1688
  330TMC3    O1 5016   2.389   4.344  10.241  0.6496  0.6621  0.0325
  330TMC3    O2 5017   2.287   4.555   9.669 -0.6602 -1.2113 -0.1891
  331MPD2     C 5018   0.160   3.279  13.040  1.0329  0.0018 -0.2545
  331MPD2    C1 5019   0.222   3.297  12.916  0.4488  0.0849  0.1927
  331MPD2    C2 5020   0.212   3.196  12.823  0.4103  0.4798  0.1609
  331MPD2    C3 5021   0.144   3.083  12.853 -0.4459 -0.0366 -0.3281
  331MPD2    C4 5022   0.083   3.072  12.973 -0.2424 -0.2961  0.1381
  331MPD2    C5 5023   0.096   3.162  13.074  0.2749 -0.2381  0.5215
  331MPD2     H 5024   0.263   3.198  12.728 -0.6370  0.1289 -0.4043
  331MPD2    H1 5025   0.016   2.988  12.989 -2.9151  1.5521 -1.3648
  331MPD2    H2 5026   0.182   3.349  13.119 -0.8207 -2.3373  2.3328
  331MPD2    H3 5027   0.054   3.145  13.172 -0.6986 -0.7773  0.0159
  331MPD2     N 5028   0.123   2.990  12.750  0.6187  0.4206 -0.5174
  331MPD2    H5 5029   0.173   3.002  12.663 -0.2525  0.8843 -0.9521
  331MPD2    N1 5030   0.309   3.411  12.900  0.5121  0.1568 -0.6027
  331MPD2    H7 5031   0.309   3.482  12.973  0.9405 -0.8786  0.3908
  332TMC3    C1 5032   0.095   2.770  12.658  0.2010 -0.8706  0.5086
  332TMC3    C2 5033   0.111   2.827  12.534 -0.2377  0.0693 -0.1677
  332TMC3    C3 5034   0.205   2.781  12.448 -0.3381  0.6468 -0.2504
  332TMC3    C4 5035   0.160   2.659  12.699  0.1622  0.0742 -0.0721
  332TMC3    C5 5036   0.258   2.611  12.611 -0.1476  0.1659 -0.4348
  332TMC3    C6 5037   0.284   2.674  12.490 -0.0300  0.3188 -0.7155
  332TMC3     C 5038   0.066   2.865  12.763 -0.0842 -0.5109 -0.4687
  332TMC3     O 5039   4.733   2.820  12.848  0.4222  0.3192  0.2070
  332TMC3     H 5040   0.044   2.907  12.505 -0.4856 -0.6543 -1.5715
  332TMC3    H1 5041   0.156   2.634  12.804 -3.1942  2.5334  0.3935
  332TMC3    H2 5042   0.355   2.637  12.416 -0.6486 -1.3802 -0.4491
  332TMC3    C7 5043   0.369   2.552  12.679 -0.0482  0.3370  0.0281
  332TMC3    C8 5044   0.240   2.844  12.319  0.7881 -0.2379  0.1186
  332TMC3    O1 5045   0.343   2.467  12.766 -0.1088 -0.1216  0.0169
  332TMC3    O2 5046   0.347   2.820  12.269  0.0875  0.5595  0.0838
  333MPD2     C 5047   0.334   3.505  11.360 -0.2800 -0.0133  0.6594
  333MPD2    C1 5048   0.428   3.417  11.316 -0.3679  0.3078  0.2168
  333MPD2    C2 5049   0.401   3.278  11.339  0.3414  0.2361  0.5150
  333MPD2    C3 5050   0.286   3.239  11.411 -0.3191  0.4331  0.5661
  333MPD2    C4 5051   0.200   3.337  11.450 -0.2173 -0.1777  0.5402
  333MPD2    C5 5052   0.220   3.468  11.425 -0.0483  0.5340 -0.4127
  333MPD2     H 5053   0.471   3.206  11.299 -0.6759  0.1698 -1.1440
  333MPD2    H1 5054   0.110   3.322  11.507 -1.0376  0.6523 -0.5419
  333MPD2    H2 5055   0.346   3.613  11.352 -1.1116 -0.0050 -0.4387
  333MPD2    H3 5056   0.161   3.542  11.478 -1.2673 -0.6648 -0.0920
  333MPD2     N 5057   0.269   3.099  11.441  0.9322 -0.2525 -0.8386
  333MPD2    H5 5058   0.342   3.034  11.416  3.3752  2.6512 -1.1964
  333MPD2    N1 5059   0.543   3.476  11.258  0.0639  0.5387 -0.2433
  333MPD2    H7 5060   0.532   3.574  11.235 -5.5553  0.1376  0.7069
  334TMC3    C1 5061   0.747   3.494  11.136 -0.4412  0.0184 -0.5562
  334TMC3    C2 5062   0.811   3.428  11.038 -0.3923  0.3621 -0.5384
  334TMC3    C3 5063   0.920   3.485  10.973  0.4900  0.1722  0.0830
  334TMC3    C4 5064   0.780   3.629  11.156  0.0449  0.2615 -0.2566
  334TMC3    C5 5065   0.891   3.680  11.091  0.1640  0.3690  0.2949
  334TMC3    C6 5066   0.967   3.605  11.005 -0.8909 -0.1143  0.3722
  334TMC3     C 5067   0.661   3.411  11.215 -0.8297 -0.0363 -0.5737
  334TMC3     O 5068   0.672   3.292  11.213  0.4556  0.4707  0.1377
  334TMC3     H 5069   0.771   3.334  11.001 -1.9474  0.5804  0.5843
  334TMC3    H1 5070   0.746   3.688  11.240  0.9144 -0.4138  0.5665
  334TMC3    H2 5071   1.050   3.662  10.962 -1.2330  0.3042  0.2667
  334TMC3    C7 5072   0.906   3.822  11.099 -0.3254  0.4893  0.2854
  334TMC3    C8 5073   0.962   3.436  10.841  0.5730 -0.3145  0.0855
  334TMC3    O1 5074   1.008   3.865  11.041  0.0384  0.3741  0.2206
  334TMC3    O2 5075   0.916   3.326  10.810 -0.4383  0.0028  0.4074
  335TMC3    C1 5076   4.161   0.961  17.139 -0.0903 -0.2710 -0.8097
  335TMC3    C2 5077   4.059   0.877  17.098  0.8463  0.1570  0.8756
  335TMC3    C3 5078   4.086   0.745  17.080  0.0235 -0.2014  0.0559
  335TMC3    C4 5079   4.285   0.913  17.160 -0.3968  0.2567 -0.3143
  335TMC3    C5 5080   4.315   0.784  17.138 -0.7902 -0.0440  0.2253
  335TMC3    C6 5081   4.217   0.698  17.094 -0.4090  0.7264 -0.5503
  335TMC3     C 5082   4.161   1.094  17.077  0.2175 -0.1531  0.8363
  335TMC3     O 5083   4.254   1.128  17.010 -0.4517  1.0318  0.4978
  335TMC3     H 5084   3.961   0.920  17.082  1.2424  1.0979  1.0252
  335TMC3    H1 5085   4.370   0.980  17.161  0.7855 -1.2327 -0.8513
  335TMC3    H2 5086   4.247   0.596  17.074  0.6604  1.2811 -1.7980
  335TMC3    C7 5087   4.439   0.750  17.065  0.0841 -0.1795 -0.5944
  335TMC3    C8 5088   3.977   0.656  17.067 -0.1503  0.0651  0.4621
  335TMC3    O1 5089   4.412   0.669  16.973 -0.1779 -0.6253 -0.2023
  335TMC3    O2 5090   3.893   0.691  16.986 -0.1572 -0.6730  0.1605
  336MPD2     C 5091   4.380   3.182  16.483 -0.4139  0.1700 -0.2496
  336MPD2    C1 5092   4.428   3.153  16.362 -0.2273 -0.4594  0.1400
  336MPD2    C2 5093   4.488   3.030  16.334 -0.1632 -1.0684  0.6609
  336MPD2    C3 5094   4.489   2.934  16.438 -0.7044 -0.2609 -0.1840
  336MPD2    C4 5095   4.441   2.961  16.563 -1.1326  1.2765 -0.0781
  336MPD2    C5 5096   4.399   3.092  16.583 -0.4048  0.2405  0.4460
  336MPD2     H 5097   4.512   3.006  16.231  2.8524  0.1048  1.1030
  336MPD2    H1 5098   4.436   2.887  16.642 -0.8022  0.4156 -0.8614
  336MPD2    H2 5099   4.350   3.284  16.506  0.6128  0.3462  0.3212
  336MPD2    H3 5100   4.371   3.124  16.683 -1.9802 -1.9518  0.7314
  336MPD2     N 5101   4.528   2.804  16.425 -0.2372  0.2380  0.2384
  336MPD2    H5 5102   4.508   2.742  16.502 -1.2721 -0.3680 -0.5163
  336MPD2    N1 5103   4.410   3.238  16.255 -0.1528 -0.0043  0.5619
  336MPD2    H7 5104   4.446   3.195  16.170 -0.2206 -0.6297  0.8519
  337TMC3    C1 5105   4.337   3.419  16.124  0.1406 -0.0651 -0.1138
  337TMC3    C2 5106   4.226   3.487  16.096 -0.0596  0.2455 -0.2706
  337TMC3    C3 5107   4.220   3.556  15.975  0.0293 -0.0667  0.1338
  337TMC3    C4 5108   4.454   3.432  16.057  0.2315 -0.4177 -0.7727
  337TMC3    C5 5109   4.440   3.504  15.941 -0.2698  0.1734  0.4683
  337TMC3    C6 5110   4.329   3.554  15.892  0.4977  0.1804 -0.2320
  337TMC3     C 5111   4.338   3.354  16.255 -0.3153 -0.3812 -0.4522
  337TMC3     O 5112   4.285   3.421  16.345  0.5349 -0.7040 -0.3194
  337TMC3     H 5113   4.137   3.486  16.158  1.2277  0.0356  1.5642
  337TMC3    H1 5114   4.548   3.396  16.096 -0.1556 -1.6216 -0.9548
  337TMC3    H2 5115   4.334   3.612  15.801  1.5469 -1.0149 -0.9317
  337TMC3    C7 5116   4.566   3.556  15.897 -0.0758 -0.0066  0.6350
  337TMC3    C8 5117   4.091   3.620  15.935 -0.2517  0.2633  0.1274
  337TMC3    O1 5118   4.553   3.658  15.829  0.2743 -0.3609 -0.3857
  337TMC3    O2 5119   4.013   3.654  16.022 -0.2081 -0.0260  0.4686
  338MPD2     C 5120   4.324   2.896   0.951 -0.4909  0.4060  0.4477
  338MPD2    C1 5121   4.234   2.859   0.854 -0.2349  0.8679 -0.1463
  338MPD2    C2 5122   4.107   2.921   0.853 -0.8646  1.0250  0.2822
  338MPD2    C3 5123   4.072   3.012   0.950 -0.2452 -0.1521 -0.0416
  338MPD2    C4 5124   4.171   3.048   1.039  0.0633 -0.1208  0.8887
  338MPD2    C5 5125   4.294   2.994   1.041 -0.3628  0.8668 -0.1471
  338MPD2     H 5126   4.038   2.897   0.773 -2.2184  0.6597  1.5666
  338MPD2    H1 5127   4.156   3.125   1.114 -1.5200 -0.6641  1.1345
  338MPD2    H2 5128   4.425   2.857   0.956 -0.1561  0.9802 -2.1625
  338MPD2    H3 5129   4.368   3.028   1.112 -0.9623 -1.0454  1.3941
  338MPD2     N 5130   3.935   3.046   0.960 -0.6417  0.2709  0.1735
  338MPD2    H5 5131   3.866   3.007   0.896  0.9252  0.3871 -1.5537
  338MPD2    N1 5132   4.268   2.769   0.744 -0.7965 -0.3066  0.0974
  338MPD2    H7 5133   4.202   2.769   0.667  0.9733  0.0125 -1.4254
  339TMC3    C1 5134   3.739   3.086   1.061 -0.2331 -0.5116 -0.2237
  339TMC3    C2 5135   3.674   3.019   1.160  0.8317 -0.1932 -0.4751
  339TMC3    C3 5136   3.571   2.936   1.121  0.1686 -0.3647 -0.6591
  339TMC3    C4 5137   3.694   3.075   0.925  0.2549  0.0694 -0.5449
  339TMC3    C5 5138   3.595   2.996   0.897  0.7141 -0.0506  0.4199
  339TMC3    C6 5139   3.524   2.927   0.992  0.3072 -1.0612  0.7049
  339TMC3     C 5140   3.875   3.095   1.074 -0.6200  0.2462 -0.2878
  339TMC3     O 5141   3.922   3.110   1.188  0.2067  0.2380 -0.1754
  339TMC3     H 5142   3.702   3.042   1.262  1.0538  0.1980 -0.6258
  339TMC3    H1 5143   3.740   3.125   0.842  0.0848 -3.3944 -2.7231
  339TMC3    H2 5144   3.437   2.867   0.972  0.0778 -0.6408  0.4467
  339TMC3    C7 5145   3.566   2.979   0.755  0.0569 -0.9982 -0.3432
  339TMC3    C8 5146   3.505   2.853   1.219  0.4732  0.8048  0.1598
  339TMC3    O1 5147   3.555   3.087   0.689  0.0963  0.1553  0.0909
  339TMC3    O2 5148   3.509   2.892   1.335  0.0365 -0.8175 -0.0321
  340MPD2     C 5149   0.844   0.266  10.715 -0.5992  0.0735  0.3860
  340MPD2    C1 5150   0.753   0.184  10.651  0.4820  0.2114  0.1991
  340MPD2    C2 5151   0.796   0.105  10.541 -0.2188 -0.1312  0.0536
  340MPD2    C3 5152   0.932   0.108  10.508  0.0202  0.4388  0.2448
  340MPD2    C4 5153   1.018   0.187  10.573  0.0876 -0.3370 -0.0790
  340MPD2    C5 5154   0.973   0.271  10.668 -0.5024  0.4130 -0.0257
  340MPD2     H 5155   0.725   0.037  10.496 -0.5170  0.6524 -0.6521
  340MPD2    H1 5156   1.120   0.191  10.535  0.0725 -2.1721 -0.3398
  340MPD2    H2 5157   0.812   0.345  10.781 -1.9568  0.5486 -0.8468
  340MPD2    H3 5158   1.032   0.349  10.715  1.1453 -0.5109 -0.5734
  340MPD2     N 5159   0.990   0.040  10.393 -0.5384 -0.4166 -1.0538
  340MPD2    H5 5160   1.089   0.055  10.382 -0.2480 -1.7232 -0.1964
  340MPD2    N1 5161   0.619   0.189  10.691 -0.3416  0.0794  0.2776
  340MPD2    H7 5162   0.603   0.218  10.787 -1.5322  0.4967 -0.0500
  341TMC3    C1 5163   0.496   0.166  10.475 -0.3058  0.1927  0.5384
  341TMC3    C2 5164   0.417   0.077  10.409 -0.9118 -0.0590  0.1211
  341TMC3    C3 5165   0.439   0.051  10.281 -0.0456  0.1323 -0.4873
  341TMC3    C4 5166   0.580   0.256  10.412  0.1630  0.4657  0.7028
  341TMC3    C5 5167   0.586   0.242  10.273  0.0585 -0.0368 -0.6522
  341TMC3    C6 5168   0.528   0.132  10.208 -0.0167 -0.6003 -0.2170
  341TMC3     C 5169   0.507   0.141  10.620 -0.3337  0.8744 -0.4222
  341TMC3     O 5170   0.401   0.106  10.670 -0.4366  0.4668 -0.3041
  341TMC3     H 5171   0.385   4.731  10.468 -0.5389  0.0409  0.4669
  341TMC3    H1 5172   0.656   0.312  10.465  0.8155 -0.0908  0.3463
  341TMC3    H2 5173   0.522   0.124  10.100  0.9277  0.2535 -0.3244
  341TMC3    C7 5174   0.661   0.333  10.189  0.3208  0.0426 -0.0473
  341TMC3    C8 5175   0.391   4.667  10.234  0.0841 -0.3563 -0.5759
  341TMC3    O1 5176   0.687   0.302  10.075 -0.3461 -0.2383  0.6351
  341TMC3    O2 5177   0.297   4.618  10.292  0.7579  0.2338  0.5731
  342MPD2     C 5178   2.449   3.164  17.392 -0.6505 -0.4212 -0.9092
  342MPD2    C1 5179   2.505   3.200  17.272  0.2714 -0.4450 -1.0191
  342MPD2    C2 5180   2.494   3.333  17.229 -0.1146  0.5672  0.8339
  342MPD2    C3 5181   2.421   3.423  17.306 -0.4056  0.5736 -0.7786
  342MPD2    C4 5182   2.364   3.386  17.417  0.0184 -0.2880  0.3705
  342MPD2    C5 5183   2.386   3.257  17.471 -0.6702 -0.8128 -0.3796
  342MPD2     H 5184   2.539   3.361  17.135  1.2461 -2.8162  0.4646
  342MPD2    H1 5185   2.319   3.465  17.476  1.1588 -1.4512  2.8402
  342MPD2    H2 5186   2.459   3.066  17.437 -1.4738  0.1325  0.4793
  342MPD2    H3 5187   2.354   3.238  17.573 -3.2889  0.8027 -0.9062
  342MPD2     N 5188   2.393   3.559  17.269 -0.5307  0.0143  0.5854
  342MPD2    H5 5189   2.339   3.617  17.333  0.9072 -0.4955  2.2627
  342MPD2    N1 5190   2.588   3.104  17.202 -0.4779  0.0949  0.2570
  342MPD2    H7 5191   2.641   3.133  17.120 -4.7261  3.1175 -1.4582
  343TMC3    C1 5192   2.691   2.903  17.147  0.3284  0.2439 -0.0746
  343TMC3    C2 5193   2.783   2.969  17.068 -0.1486  0.4624  0.3762
  343TMC3    C3 5194   2.868   2.901  16.981 -0.4462  0.5849  0.2822
  343TMC3    C4 5195   2.677   2.770  17.136 -0.3153 -0.3559  0.5536
  343TMC3    C5 5196   2.763   2.700  17.051  0.9610 -0.4399  0.6661
  343TMC3    C6 5197   2.860   2.762  16.976  0.1859 -0.2784 -0.2716
  343TMC3     C 5198   2.582   2.970  17.217  0.6852  0.6532  0.2163
  343TMC3     O 5199   2.510   2.903  17.289 -0.0131 -0.5408  0.1235
  343TMC3     H 5200   2.784   3.078  17.066 -0.3609  0.4590 -0.0129
  343TMC3    H1 5201   2.598   2.725  17.195 -1.8925 -0.3484 -1.5485
  343TMC3    H2 5202   2.945   2.707  16.936  1.3506 -0.1705  2.0499
  343TMC3    C7 5203   2.752   2.558  17.039 -0.6952  1.1189  0.5038
  343TMC3    C8 5204   2.973   2.976  16.918 -0.0136 -0.4699  1.0505
  343TMC3    O1 5205   2.680   2.499  17.123  0.5103 -0.1528 -0.5432
  343TMC3    O2 5206   2.975   3.089  16.960  0.7215  0.4770 -0.5897
  344MPD2     C 5207   4.155   2.515  11.479 -0.3796 -0.1409  0.4588
  344MPD2    C1 5208   4.135   2.460  11.352 -0.6577  0.0830 -0.3189
  344MPD2    C2 5209   4.179   2.538  11.242  0.6135 -0.1815 -0.2319
  344MPD2    C3 5210   4.234   2.663  11.263 -0.5616  0.7522  1.1056
  344MPD2    C4 5211   4.252   2.713  11.388  0.4068 -0.1458  0.4226
  344MPD2    C5 5212   4.210   2.639  11.495  0.4908  0.3202  0.5245
  344MPD2     H 5213   4.160   2.504  11.141  1.7728 -0.2198 -0.4363
  344MPD2    H1 5214   4.280   2.813  11.416  0.9180  0.3917 -2.0713
  344MPD2    H2 5215   4.115   2.460  11.563 -0.3706  1.7525  1.7006
  344MPD2    H3 5216   4.216   2.688  11.592 -2.6017 -0.6589  1.1964
  344MPD2     N 5217   4.263   2.756  11.157  0.4486 -0.3825 -0.2065
  344MPD2    H5 5218   4.284   2.853  11.179  0.8322 -0.3653 -0.6529
  344MPD2    N1 5219   4.065   2.335  11.343 -0.2816  0.0558  0.1410
  344MPD2    H7 5220   4.028   2.309  11.434 -0.0710  0.5457  0.3681
  345TMC3    C1 5221   4.285   2.870  10.950 -0.5237 -0.0335 -0.3768
  345TMC3    C2 5222   4.357   2.973  11.007 -0.5404  0.0049  0.0650
  345TMC3    C3 5223   4.390   3.092  10.940 -0.2574 -0.4013  0.1374
  345TMC3    C4 5224   4.243   2.878  10.821 -0.5263 -0.6406 -0.0263
  345TMC3    C5 5225   4.281   2.996  10.751  0.2089  0.1478 -0.3035
  345TMC3    C6 5226   4.348   3.100  10.811 -0.2244  0.2526 -0.1186
  345TMC3     C 5227   4.252   2.739  11.018 -0.1215  0.3074  0.0640
  345TMC3     O 5228   4.202   2.645  10.957 -0.1043  0.6406  0.1848
  345TMC3     H 5229   4.395   2.961  11.108 -0.0985  0.9658  0.0177
  345TMC3    H1 5230   4.185   2.802  10.770 -1.2467  1.0979 -1.7859
  345TMC3    H2 5231   4.357   3.188  10.748  0.6382  1.4389  1.6733
  345TMC3    C7 5232   4.241   3.017  10.611  0.2786  0.0789  0.2887
  345TMC3    C8 5233   4.401   3.220  11.008  0.6095  0.1729  0.1387
  345TMC3    O1 5234   4.311   3.098  10.553 -0.0180  0.2343 -0.1289
  345TMC3    O2 5235   4.460   3.305  10.944  0.4968  0.2176  0.1384
  346MPD2     C 5236   3.785   0.407  14.439  0.7000  0.0833  0.7074
  346MPD2    C1 5237   3.860   0.288  14.448  0.8698  0.3821 -0.5777
  346MPD2    C2 5238   3.964   0.272  14.532  0.1075 -0.3500  0.1557
  346MPD2    C3 5239   3.978   0.368  14.630  0.2150  0.1321 -0.9002
  346MPD2    C4 5240   3.899   0.479  14.633 -0.2633 -0.1297 -0.8981
  346MPD2    C5 5241   3.799   0.502  14.534 -0.2197  0.1160 -0.4915
  346MPD2     H 5242   4.039   0.196  14.518  0.7303  0.7688 -2.6610
  346MPD2    H1 5243   3.917   0.559  14.705 -1.5858  0.0491 -0.7596
  346MPD2    H2 5244   3.711   0.423  14.361  2.1152 -0.7656 -0.8311
  346MPD2    H3 5245   3.737   0.591  14.540 -2.2345 -1.3226 -0.0561
  346MPD2     N 5246   4.089   0.357  14.721  0.4298 -0.6518 -0.9199
  346MPD2    H5 5247   4.155   0.281  14.706  0.6667 -1.0925  2.4743
  346MPD2    N1 5248   3.847   0.194  14.343 -0.4593  0.1625 -0.4614
  346MPD2    H7 5249   3.918   0.122  14.346 -1.6635 -1.0751 -1.9406
  347TMC3    C1 5250   4.214   0.350  14.920 -0.3043  0.1838  0.2256
  347TMC3    C2 5251   4.313   0.302  14.848 -0.6296  0.3020  0.0643
  347TMC3    C3 5252   4.403   0.220  14.920  0.2657 -0.2616  0.1404
  347TMC3    C4 5253   4.188   0.320  15.054  0.5941 -0.0343  0.4386
  347TMC3    C5 5254   4.266   0.221  15.112  0.8472  0.1298 -0.7283
  347TMC3    C6 5255   4.380   0.180  15.049  0.4206 -0.1083  0.6740
  347TMC3     C 5256   4.103   0.416  14.844  0.7682  0.2695  0.3648
  347TMC3     O 5257   4.028   0.490  14.909 -0.0229  0.0093 -0.3972
  347TMC3     H 5258   4.328   0.337  14.747 -0.8063 -0.5360 -0.2446
  347TMC3    H1 5259   4.096   0.356  15.099 -0.0872  0.1284 -1.0826
  347TMC3    H2 5260   4.441   0.097  15.084  2.2783  0.5875 -0.9641
  347TMC3    C7 5261   4.239   0.173  15.244  0.7434 -0.0127  0.3526
  347TMC3    C8 5262   4.507   0.158  14.839  0.5519 -0.0054  0.0476
  347TMC3    O1 5263   4.133   0.217  15.291  0.3008 -0.4866  0.1171
  347TMC3    O2 5264   4.555   0.058  14.890 -0.1709 -0.0653  0.1450
  348MPD2     C 5265   2.489   4.350  12.678 -0.0659  0.0770 -0.6855
  348MPD2    C1 5266   2.553   4.246  12.608  0.6047  0.4849  0.2134
  348MPD2    C2 5267   2.534   4.223  12.475 -0.0902  0.6415 -0.7153
  348MPD2    C3 5268   2.451   4.307  12.404  0.0300  0.4304 -0.6927
  348MPD2    C4 5269   2.377   4.408  12.470 -0.4543 -0.1196 -0.0476
  348MPD2    C5 5270   2.399   4.423  12.606 -0.3293  0.2229  0.0453
  348MPD2     H 5271   2.578   4.133  12.433  3.0856  2.2005 -0.6785
  348MPD2    H1 5272   2.302   4.465  12.416 -1.0838  0.6271  1.6069
  348MPD2    H2 5273   2.508   4.364  12.784  1.0144 -0.6167 -0.7778
  348MPD2    H3 5274   2.340   4.497  12.658 -2.8843 -0.6570 -1.5996
  348MPD2     N 5275   2.443   4.274  12.266 -0.2648  0.1307  0.2247
  348MPD2    H5 5276   2.509   4.203  12.233  1.6811  2.3596 -0.6413
  348MPD2    N1 5277   2.647   4.167  12.676 -0.0388 -0.1199 -0.5221
  348MPD2    H7 5278   2.717   4.115  12.624 -0.5404 -1.4389  0.1043
  349TMC3    C1 5279   2.753   4.043  12.841  0.0071  0.2645  0.0672
  349TMC3    C2 5280   2.741   3.905  12.861  0.4031  0.2208  0.5596
  349TMC3    C3 5281   2.830   3.818  12.798  0.7348  0.8504  1.1379
  349TMC3    C4 5282   2.871   4.091  12.784 -0.1213 -0.8324  0.0945
  349TMC3    C5 5283   2.958   4.000  12.724 -0.2162  0.2032  1.2626
  349TMC3    C6 5284   2.941   3.862  12.724  0.3113  0.2777 -0.2439
  349TMC3     C 5285   2.638   4.124  12.803 -0.5992 -0.0657  0.2277
  349TMC3     O 5286   2.550   4.132  12.891 -0.0661  0.7279 -0.4192
  349TMC3     H 5287   2.642   3.868  12.885  0.3111 -0.7184 -1.2977
  349TMC3    H1 5288   2.886   4.189  12.741  2.9760 -2.0582 -1.6220
  349TMC3    H2 5289   3.020   3.794  12.693  0.1659  0.0292 -0.0742
  349TMC3    C7 5290   2.975   4.041  12.591  0.4188 -0.4501  0.5817
  349TMC3    C8 5291   2.799   3.679  12.811 -0.5985  0.4010  0.0443
  349TMC3    O1 5292   2.879   4.086  12.533  0.4830 -0.3542  0.3364
  349TMC3    O2 5293   2.728   3.654  12.907  0.7718 -0.7135  0.1103
  350MPD2     C 5294   1.534   2.176  10.413  0.3797  0.0717 -0.5540
  350MPD2    C1 5295   1.622   2.077  10.460 -0.3904  0.8852  0.1521
  350MPD2    C2 5296   1.744   2.117  10.513 -0.1254  0.4883  0.3773
  350MPD2    C3 5297   1.778   2.247  10.527  0.3290  0.0570 -0.0765
  350MPD2    C4 5298   1.692   2.344  10.492  0.5800  0.2321 -0.5916
  350MPD2    C5 5299   1.571   2.305  10.444  0.4997  0.2629 -0.4291
  350MPD2     H 5300   1.808   2.044  10.563  2.0577  1.2656 -1.2589
  350MPD2    H1 5301   1.708   2.451  10.496 -0.4913  0.3657 -0.0151
  350MPD2    H2 5302   1.437   2.159  10.367 -0.8871  0.8901  1.8382
  350MPD2    H3 5303   1.510   2.387  10.409 -2.0806 -1.4546  0.1052
  350MPD2     N 5304   1.903   2.273  10.592 -0.5604 -0.0712  0.3820
  350MPD2    H5 5305   1.959   2.189  10.604 -3.1795 -2.5283 -4.7707
  350MPD2    N1 5306   1.597   1.942  10.450 -0.1267  0.3973  0.6597
  350MPD2    H7 5307   1.665   1.874  10.483  0.9444  0.7909 -0.7483
  351TMC3    C1 5308   1.483   1.740  10.405 -0.3913  0.1214  0.5324
  351TMC3    C2 5309   1.607   1.676  10.403 -0.6963 -0.0931 -0.4670
  351TMC3    C3 5310   1.598   1.539  10.391  0.9921 -0.0152 -0.6063
  351TMC3    C4 5311   1.365   1.678  10.383  0.2303  0.7172  0.8608
  351TMC3    C5 5312   1.368   1.543  10.359  0.5679  0.9078  0.3788
  351TMC3    C6 5313   1.481   1.468  10.370  0.5095 -0.5127 -0.2460
  351TMC3     C 5314   1.479   1.885  10.406  0.1202 -0.8346 -0.1993
  351TMC3     O 5315   1.367   1.932  10.392 -0.4595 -0.6709  0.0854
  351TMC3     H 5316   1.700   1.720  10.438  0.2209 -1.8960 -0.6246
  351TMC3    H1 5317   1.268   1.724  10.394 -1.0417 -2.1974  1.7217
  351TMC3    H2 5318   1.474   1.361  10.357 -0.3754 -0.4373 -0.4121
  351TMC3    C7 5319   1.241   1.480  10.327 -0.4331 -0.2578  0.2976
  351TMC3    C8 5320   1.726   1.475  10.363 -0.3723 -0.1210  0.2287
  351TMC3    O1 5321   1.144   1.540  10.375  0.2519  0.3148 -0.4391
  351TMC3    O2 5322   1.815   1.541  10.310  0.5060  0.2179  0.7881
  352MPD2     C 5323   4.530   4.368   1.480  0.1080 -0.6667 -0.6019
  352MPD2    C1 5324   4.494   4.395   1.349 -0.4484 -0.8166  0.7041
  352MPD2    C2 5325   4.563   4.327   1.253 -0.2245  0.6680 -0.0377
  352MPD2    C3 5326   4.650   4.223   1.279 -0.4495 -0.3526  0.1182
  352MPD2    C4 5327   4.679   4.200   1.415  0.2495  0.1821  0.1166
  352MPD2    C5 5328   4.622   4.277   1.508 -0.4486  0.2495 -0.0211
  352MPD2     H 5329   4.542   4.355   1.151  2.4425 -1.7620 -1.2633
  352MPD2    H1 5330   0.011   4.125   1.448  2.1822  1.8651 -0.1630
  352MPD2    H2 5331   4.488   4.425   1.562  0.2709 -2.5438  0.8003
  352MPD2    H3 5332   4.654   4.260   1.611 -1.4969  0.1607  0.2869
  352MPD2     N 5333   4.710   4.145   1.179  0.1138  0.5270  0.7182
  352MPD2    H5 5334   0.030   4.070   1.215  0.7439 -0.0351 -1.5377
  352MPD2    N1 5335   4.403   4.500   1.310  0.5151 -0.2643 -0.1319
  352MPD2    H7 5336   4.380   4.517   1.212 -0.0349  0.7866  0.1815
  353TMC3    C1 5337   0.043   4.064   0.960  0.4667  0.1983 -0.7374
  353TMC3    C2 5338   0.133   3.979   1.015 -0.1887  0.0355 -0.6075
  353TMC3    C3 5339   0.147   3.853   0.971  0.4825 -0.1964 -0.7863
  353TMC3    C4 5340   4.707   4.014   0.855  0.6036  0.0657  0.4814
  353TMC3    C5 5341   4.708   3.880   0.820  0.0496 -0.3248 -0.3694
  353TMC3    C6 5342   0.065   3.800   0.876  0.0639 -0.6811  0.3959
  353TMC3     C 5343   4.701   4.160   1.041  0.2089  0.0042  0.0456
  353TMC3     O 5344   4.613   4.222   0.981  0.0601 -0.4468  0.3543
  353TMC3     H 5345   0.195   4.017   1.096 -1.1107  0.6241 -0.1781
  353TMC3    H1 5346   4.622   4.075   0.825  0.7207  0.5231  1.0724
  353TMC3    H2 5347   0.063   3.696   0.847 -1.0206  0.4574 -3.5740
  353TMC3    C7 5348   4.583   3.813   0.799  0.8426  0.0299 -0.0224
  353TMC3    C8 5349   0.241   3.764   1.042 -0.8490 -0.5789  0.2575
  353TMC3    O1 5350   4.579   3.698   0.841  0.2023  0.4521 -0.2871
  353TMC3    O2 5351   0.317   3.807   1.129  0.3987 -0.1323 -0.2825
  354TMC3    C1 5352   1.858   0.779  13.666 -0.7371  0.5805 -1.1009
  354TMC3    C2 5353   1.894   0.907  13.656  0.1892 -0.2437 -0.3359
  354TMC3    C3 5354   1.923   0.953  13.533  0.5562 -0.2760  0.5042
  354TMC3    C4 5355   1.852   0.691  13.562 -0.0428  0.2690  0.3999
  354TMC3    C5 5356   1.913   0.727  13.449 -0.0905  0.3676  1.1521
  354TMC3    C6 5357   1.944   0.862  13.429  0.0492  0.1253  0.4198
  354TMC3     C 5358   1.823   0.717  13.789 -0.3186 -0.0606 -0.6682
  354TMC3     O 5359   1.731   0.638  13.794 -0.1885  0.2325 -0.3312
  354TMC3     H 5360   1.891   0.974  13.742  0.8392 -0.4057 -0.1866
  354TMC3    H1 5361   1.847   0.586  13.588  2.4063 -0.0953 -0.5633
  354TMC3    H2 5362   1.977   0.895  13.332 -0.4592  1.6351  0.7652
  354TMC3    C7 5363   1.903   0.635  13.333  1.0603 -1.0445 -0.1563
  354TMC3    C8 5364   1.941   1.099  13.525  0.4842  0.1645  0.3163
  354TMC3    O1 5365   1.812   0.555  13.334 -0.3201  0.4370  0.3354
  354TMC3    O2 5366   1.950   1.164  13.627  0.7121 -0.2454 -0.3920
  355MPD2     C 5367   1.863   1.374  11.799 -0.7266 -0.7516  0.1851
  355MPD2    C1 5368   1.899   1.501  11.761  0.1286  0.3403 -0.4221
  355MPD2    C2 5369   2.003   1.558  11.836 -0.4943 -0.7810 -0.0707
  355MPD2    C3 5370   2.079   1.490  11.926 -0.5358  0.5894  0.1368
  355MPD2    C4 5371   2.044   1.364  11.954  0.4051  1.6125 -0.1950
  355MPD2    C5 5372   1.934   1.310  11.898  0.0719  0.5285 -0.0849
  355MPD2     H 5373   2.040   1.655  11.807 -1.0227 -0.3958  0.5446
  355MPD2    H1 5374   2.098   1.301  12.023  0.4166 -0.4344 -2.0543
  355MPD2    H2 5375   1.784   1.320  11.749 -0.5120 -1.0921  0.2121
  355MPD2    H3 5376   1.910   1.206  11.919  2.2458 -0.1214 -0.8139
  355MPD2     N 5377   2.199   1.537  11.984 -0.2075 -0.3139 -0.3830
  355MPD2    H5 5378   2.249   1.476  12.048 -1.5801 -0.1941  0.8169
  355MPD2    N1 5379   1.833   1.571  11.651  0.2162  0.6194  0.1782
  355MPD2    H7 5380   1.742   1.539  11.618  0.4505 -0.1544  0.2770
  356TMC3    C1 5381   2.395   1.680  11.997 -0.2780 -0.1501  0.5700
  356TMC3    C2 5382   2.471   1.761  11.918  0.9052  0.2959 -0.0987
  356TMC3    C3 5383   2.602   1.776  11.953  1.3413 -0.5442  0.5662
  356TMC3    C4 5384   2.435   1.622  12.108  0.1933  0.2250 -0.0001
  356TMC3    C5 5385   2.558   1.651  12.147 -0.2779 -0.6371  0.7742
  356TMC3    C6 5386   2.646   1.721  12.066  0.0217  0.0375  0.6270
  356TMC3     C 5387   2.252   1.663  11.964 -0.7511  0.0292 -0.3126
  356TMC3     O 5388   2.202   1.754  11.901 -0.4319 -0.4693 -0.2972
  356TMC3     H 5389   2.433   1.798  11.824  0.1471  3.0389  1.2887
  356TMC3    H1 5390   2.373   1.570  12.180  2.2560 -2.6951 -0.3359
  356TMC3    H2 5391   2.751   1.719  12.095 -0.2650  0.2641  1.6931
  356TMC3    C7 5392   2.619   1.586  12.261 -0.2853 -0.0881 -0.4453
  356TMC3    C8 5393   2.699   1.844  11.875  0.0597  1.0638 -0.8246
  356TMC3    O1 5394   2.586   1.476  12.305 -0.0767  0.6636 -0.4748
  356TMC3    O2 5395   2.792   1.889  11.938  0.3729  0.2139  0.1672
  357MPD2     C 5396   0.971   0.921   1.541  0.1364 -0.1444 -0.7960
  357MPD2    C1 5397   0.964   0.807   1.460 -0.6726 -0.6145  0.3021
  357MPD2    C2 5398   0.858   0.722   1.469 -0.5629  0.0087  0.5700
  357MPD2    C3 5399   0.758   0.744   1.563 -0.3819  0.1179  0.2488
  357MPD2    C4 5400   0.759   0.864   1.644  0.8796  0.4288  0.6057
  357MPD2    C5 5401   0.870   0.943   1.634  0.0627 -0.4140  1.1068
  357MPD2     H 5402   0.859   0.645   1.391  1.8200  0.4243  0.2007
  357MPD2    H1 5403   0.681   0.896   1.713  0.1097 -1.5898  0.6453
  357MPD2    H2 5404   1.040   1.003   1.528  2.6199 -1.7784  2.1824
  357MPD2    H3 5405   0.876   1.032   1.696 -0.9309 -0.2953  1.0230
  357MPD2     N 5406   0.651   0.652   1.588 -0.4800  0.2524  0.3429
  357MPD2    H5 5407   0.586   0.669   1.664 -1.6320  0.1511 -0.6271
  357MPD2    N1 5408   1.059   0.784   1.355 -0.1083 -0.9643 -0.1611
  357MPD2    H7 5409   1.041   0.704   1.295 -0.2297 -2.4008  1.7644
  358TMC3    C1 5410   1.237   0.809   1.215  0.2902 -0.0460  0.3605
  358TMC3    C2 5411   1.170   0.767   1.103 -0.8244  0.0199  0.3152
  358TMC3    C3 5412   1.243   0.733   0.996 -0.1898  0.2524 -0.3964
  358TMC3    C4 5413   1.375   0.814   1.226 -0.2628 -0.0222  0.6272
  358TMC3    C5 5414   1.444   0.795   1.110 -1.3714  0.9119  0.0692
  358TMC3    C6 5415   1.379   0.755   0.994  0.0480 -0.4679  0.0822
  358TMC3     C 5416   1.176   0.848   1.333 -0.1471 -0.3624  0.1618
  358TMC3     O 5417   1.225   0.942   1.389  0.4082 -0.2538 -0.5158
  358TMC3     H 5418   1.061   0.763   1.104 -0.8413  0.1342 -2.1925
  358TMC3    H1 5419   1.418   0.847   1.320 -1.2583  1.6500  0.4929
  358TMC3    H2 5420   1.438   0.716   0.911  0.2769 -1.6222  0.7736
  358TMC3    C7 5421   1.586   0.808   1.117 -0.6442 -0.7105  0.0628
  358TMC3    C8 5422   1.183   0.667   0.886 -0.6318 -0.2421 -1.1457
  358TMC3    O1 5423   1.650   0.844   1.015 -0.6864  0.0832  0.4634
  358TMC3    O2 5424   1.252   0.649   0.785  0.0849 -0.4896  0.6570
  359MPD2     C 5425   2.540   0.097  12.907  0.5019 -0.6935 -0.1137
  359MPD2    C1 5426   2.497   0.057  12.781  0.1699 -0.1543  0.6318
  359MPD2    C2 5427   2.363   0.073  12.742  0.8687 -0.1663 -0.9147
  359MPD2    C3 5428   2.275   0.130  12.829  0.1113 -0.1044  0.9119
  359MPD2    C4 5429   2.325   0.189  12.942  0.1969 -0.3295  0.0928
  359MPD2    C5 5430   2.453   0.170  12.982  0.1783  0.3265 -0.3451
  359MPD2     H 5431   2.335   0.014  12.655 -1.9720 -1.1647  0.6917
  359MPD2    H1 5432   2.264   0.247  13.010 -0.7167 -0.7548 -0.3673
  359MPD2    H2 5433   2.638   0.074  12.948 -0.3822 -1.2905  1.6766
  359MPD2    H3 5434   2.493   0.217  13.071 -1.1000 -0.5680  0.6963
  359MPD2     N 5435   2.135   0.128  12.803 -0.3072  0.2159 -0.0391
  359MPD2    H5 5436   2.081   0.149  12.887  1.1584 -0.0223  0.9497
  359MPD2    N1 5437   2.586   4.733  12.688  0.0329  0.1680 -0.3173
  359MPD2    H7 5438   2.551   4.729  12.593 -1.3130  0.7606  0.1486
  360TMC3    C1 5439   2.780   4.683  12.566 -0.0516  0.0200  0.1418
  360TMC3    C2 5440   2.916   4.705  12.564 -0.4538  0.4327 -0.1401
  360TMC3    C3 5441   2.982   4.682  12.446 -0.1385 -0.3549  0.2393
  360TMC3    C4 5442   2.711   4.632  12.459 -0.0786 -0.1166 -0.0500
  360TMC3    C5 5443   2.784   4.615  12.338  0.3052  0.5659 -0.3845
  360TMC3    C6 5444   2.914   4.639  12.336 -0.0908 -0.1272 -0.2424
  360TMC3     C 5445   2.719   4.720  12.694 -1.3511 -0.7387 -0.2260
  360TMC3     O 5446   2.791   0.003  12.790  0.3978 -0.0930  0.4637
  360TMC3     H 5447   2.958   0.037  12.635 -0.5347  0.9126 -0.5748
  360TMC3    H1 5448   2.607   4.604  12.468 -0.4260  1.2271  0.1527
  360TMC3    H2 5449   2.964   4.629  12.240  1.5080  2.2762  0.3562
  360TMC3    C7 5450   2.714   4.626  12.208  0.3538 -0.8561  0.9848
  360TMC3    C8 5451   3.105   0.025  12.425  0.0618 -0.0039  0.6593
  360TMC3    O1 5452   2.781   4.663  12.115 -0.1856  0.8138 -0.3141
  360TMC3    O2 5453   3.097   0.139  12.465  0.3723  0.7247  0.8513
  361MPD2     C 5454   3.216   3.770  16.727 -0.5162  0.4034  0.4052
  361MPD2    C1 5455   3.223   3.877  16.813  0.5862 -0.8720  0.4529
  361MPD2    C2 5456   3.352   3.906  16.858  0.2720  0.0743 -0.5928
  361MPD2    C3 5457   3.463   3.836  16.829  0.4646 -0.0396 -0.1663
  361MPD2    C4 5458   3.444   3.729  16.742  0.0475  0.0258 -0.6619
  361MPD2    C5 5459   3.321   3.698  16.697 -0.2975 -0.4717 -0.2311
  361MPD2     H 5460   3.351   3.986  16.931  1.3862  0.2945 -0.8102
  361MPD2    H1 5461   3.520   3.657  16.713  0.2611 -1.2795  3.0564
  361MPD2    H2 5462   3.122   3.737  16.682  0.9682 -1.4351 -1.3835
  361MPD2    H3 5463   3.309   3.613  16.630  1.0327 -2.2259  1.7248
  361MPD2     N 5464   3.593   3.852  16.884 -0.1291 -0.0608 -0.1472
  361MPD2    H5 5465   3.659   3.784  16.846  0.8147 -0.2871  1.8651
  361MPD2    N1 5466   3.117   3.962  16.827 -0.0949 -0.0794 -0.1757
  361MPD2    H7 5467   3.131   4.050  16.875 -1.3222 -0.8368  1.5665
  362TMC3    C1 5468   2.891   4.027  16.816 -0.6412  0.3706 -0.0943
  362TMC3    C2 5469   2.758   3.986  16.835 -0.4931 -0.5405  0.7909
  362TMC3    C3 5470   2.670   4.079  16.784 -0.2969 -0.1332 -0.3431
  362TMC3    C4 5471   2.924   4.150  16.757 -0.1924 -0.2259 -0.1558
  362TMC3    C5 5472   2.831   4.240  16.714  0.0112  0.1022  0.4660
  362TMC3    C6 5473   2.696   4.202  16.728 -0.5542 -0.5349 -0.3817
  362TMC3     C 5474   2.983   3.918  16.823 -0.3402 -0.1284  0.2853
  362TMC3     O 5475   2.938   3.804  16.814  0.9200  0.0416 -0.2436
  362TMC3     H 5476   2.721   3.893  16.878 -1.0567 -0.2076  1.0167
  362TMC3    H1 5477   3.028   4.180  16.745  0.2620 -1.5716  0.4898
  362TMC3    H2 5478   2.615   4.262  16.688 -0.4219 -1.4865 -2.1245
  362TMC3    C7 5479   2.855   4.345  16.623  0.5379  1.1212 -0.0804
  362TMC3    C8 5480   2.528   4.067  16.819  0.2084 -0.4792  0.4168
  362TMC3    O1 5481   2.773   4.431  16.627  0.2359 -0.3099 -0.1673
  362TMC3    O2 5482   2.477   3.956  16.837  0.2313  0.0542 -0.3602
  363TMC3    C1 5483   2.558   2.033  10.175 -0.3017  0.1443 -0.4929
  363TMC3    C2 5484   2.556   1.932  10.262  0.4498  0.1570 -0.7295
  363TMC3    C3 5485   2.441   1.850  10.263  0.0952 -0.1560  0.1862
  363TMC3    C4 5486   2.446   2.077  10.100 -0.1478 -0.4328  0.1700
  363TMC3    C5 5487   2.340   1.998  10.110  0.4948 -0.4955  0.2589
  363TMC3    C6 5488   2.330   1.883  10.187 -0.0442  0.2213 -0.0715
  363TMC3     C 5489   2.677   2.112  10.161 -0.1471 -0.3336 -0.7504
  363TMC3     O 5490   2.730   2.144  10.265 -0.2237 -0.4810 -0.9064
  363TMC3     H 5491   2.627   1.914  10.342  0.6414 -0.0290 -0.9407
  363TMC3    H1 5492   2.455   2.152  10.021  1.6677  0.2319  1.0125
  363TMC3    H2 5493   2.236   1.829  10.197 -0.5325  1.1361  0.2058
  363TMC3    C7 5494   2.231   2.042  10.030 -0.8018  0.4349 -0.6311
  363TMC3    C8 5495   2.430   1.745  10.361  0.2952 -0.1009  0.0960
  363TMC3    O1 5496   2.224   2.160  10.004 -0.0192  0.2126 -0.1241
  363TMC3    O2 5497   2.328   1.723  10.416  0.1345 -0.9457  0.9576
  364MPD2     C 5498   1.374   0.812  11.401 -0.4602  0.2257  0.0821
  364MPD2    C1 5499   1.422   0.771  11.277 -0.2636 -0.8798  0.0579
  364MPD2    C2 5500   1.452   0.637  11.262 -0.2298  0.4235 -0.3800
  364MPD2    C3 5501   1.405   0.547  11.356  0.4892 -0.3386  0.4818
  364MPD2    C4 5502   1.341   0.590  11.470 -0.9087 -0.1856 -0.2531
  364MPD2    C5 5503   1.328   0.721  11.484 -0.8825 -0.0731  0.5297
  364MPD2     H 5504   1.495   0.605  11.167 -1.2463  0.9662 -1.0248
  364MPD2    H1 5505   1.299   0.525  11.546  1.4735  0.2199  1.4265
  364MPD2    H2 5506   1.337   0.914  11.409 -2.1135 -0.3293 -0.5041
  364MPD2    H3 5507   1.274   0.754  11.572  0.0882  0.4220  0.9341
  364MPD2     N 5508   1.422   0.413  11.342  0.4504 -0.0138 -0.1264
  364MPD2    H5 5509   1.390   0.358  11.421 -2.1261  0.8826 -0.5278
  364MPD2    N1 5510   1.437   0.875  11.183 -0.0160  0.4408 -0.3544
  364MPD2    H7 5511   1.411   0.970  11.210 -0.6196  0.4068 -0.8125
  365TMC3    C1 5512   1.470   0.966  10.965  0.0699 -0.2411 -0.4365
  365TMC3    C2 5513   1.497   0.952  10.832  0.4550 -0.5225 -0.5069
  365TMC3    C3 5514   1.472   1.053  10.742  0.0808 -0.0370 -0.3849
  365TMC3    C4 5515   1.431   1.090  11.011  0.2877 -0.6639  0.4609
  365TMC3    C5 5516   1.421   1.189  10.922 -1.0532  0.3285  0.1590
  365TMC3    C6 5517   1.438   1.173  10.786  0.0539 -0.3985 -0.4783
  365TMC3     C 5518   1.476   0.849  11.053 -1.1483  0.6159 -0.7804
  365TMC3     O 5519   1.495   0.743  10.991 -0.2895  0.1255 -0.0479
  365TMC3     H 5520   1.545   0.858  10.805 -0.0058 -1.0887  0.6394
  365TMC3    H1 5521   1.453   1.120  11.113 -2.3192 -0.9162  1.1102
  365TMC3    H2 5522   1.428   1.258  10.719  1.4052 -0.1025 -0.3130
  365TMC3    C7 5523   1.431   1.331  10.960  0.0118 -0.2016 -0.2419
  365TMC3    C8 5524   1.524   1.046  10.605 -0.2538  0.4177  0.0519
  365TMC3    O1 5525   1.519   1.398  10.910 -0.3087  0.5966  0.3798
  365TMC3    O2 5526   1.529   1.151  10.543 -0.2704 -0.3204  0.0421
  366MPD2     C 5527   4.190   2.132  15.037 -0.6533 -0.0153  0.3208
  366MPD2    C1 5528   4.221   2.165  15.166 -0.2778  0.0354  0.1845
  366MPD2    C2 5529   4.352   2.163  15.211 -0.2161 -0.1970 -0.1386
  366MPD2    C3 5530   4.457   2.134  15.127  0.3318  0.2283  0.2319
  366MPD2    C4 5531   4.427   2.093  14.994 -0.0691 -0.3296  0.0038
  366MPD2    C5 5532   4.292   2.089  14.957  0.3443  0.8038 -0.2984
  366MPD2     H 5533   4.371   2.184  15.315 -2.2428  1.3497 -0.0929
  366MPD2    H1 5534   4.504   2.067  14.923  1.4522  1.4375  1.0384
  366MPD2    H2 5535   4.089   2.140  15.000 -1.6144 -1.2017  2.6712
  366MPD2    H3 5536   4.277   2.062  14.853  0.8391 -2.7220  0.5410
  366MPD2     N 5537   4.587   2.167  15.170 -0.1697 -0.7397 -0.0256
  366MPD2    H5 5538   4.599   2.205  15.264  2.6080 -2.5075  0.3314
  366MPD2    N1 5539   4.124   2.229  15.249 -0.1345  0.0359  0.0742
  366MPD2    H7 5540   4.156   2.242  15.344  1.8212 -0.5574 -0.5108
  367TMC3    C1 5541   3.959   2.377  15.315  0.9145  0.5284 -1.1123
  367TMC3    C2 5542   4.048   2.399  15.419  0.3804  0.2868 -0.2326
  367TMC3    C3 5543   4.031   2.515  15.481 -0.1091  1.0304 -0.6516
  367TMC3    C4 5544   3.857   2.468  15.285 -0.7291 -0.4997  0.2686
  367TMC3    C5 5545   3.843   2.582  15.359 -0.1708  0.6429  0.0963
  367TMC3    C6 5546   3.940   2.610  15.451  0.0538  0.4338  0.4327
  367TMC3     C 5547   4.004   2.283  15.214 -0.6676 -0.2330 -0.0814
  367TMC3     O 5548   3.938   2.272  15.112 -0.4574  0.0476 -0.1456
  367TMC3     H 5549   4.134   2.340  15.448  0.9430 -0.1702 -2.8453
  367TMC3    H1 5550   3.792   2.439  15.205 -0.1592 -1.0992  0.0236
  367TMC3    H2 5551   3.932   2.689  15.524 -0.6427  1.7045 -1.0152
  367TMC3    C7 5552   3.772   2.697  15.314  0.3188  0.0633 -0.6120
  367TMC3    C8 5553   4.163   2.576  15.525  0.6880  0.1795  0.1396
  367TMC3    O1 5554   3.824   2.805  15.348 -0.0502  0.1726 -0.1361
  367TMC3    O2 5555   4.244   2.501  15.569  0.2071 -1.2102 -0.1676
  368MPD2     C 5556   0.909   3.815  13.562  0.1160  0.2919  0.6991
  368MPD2    C1 5557   0.921   3.836  13.430  0.4306 -0.0221  0.2852
  368MPD2    C2 5558   1.042   3.864  13.372  0.1818 -0.2537  1.1370
  368MPD2    C3 5559   1.153   3.867  13.456 -0.2001  0.5300  0.3339
  368MPD2    C4 5560   1.138   3.863  13.598 -0.1302 -0.4172  0.2681
  368MPD2    C5 5561   1.019   3.826  13.648 -0.7706 -0.4644 -0.2923
  368MPD2     H 5562   1.049   3.862  13.264  1.0945  0.3123  1.1875
  368MPD2    H1 5563   1.232   3.875  13.649 -0.1609 -1.3911  0.5542
  368MPD2    H2 5564   0.815   3.773  13.599 -0.7595  0.1969 -1.6475
  368MPD2    H3 5565   1.006   3.796  13.751 -1.1048 -1.3012 -0.5824
  368MPD2     N 5566   1.281   3.891  13.408  0.2679  0.3343  0.1076
  368MPD2    H5 5567   1.360   3.899  13.472  0.6689  0.9825 -0.4673
  368MPD2    N1 5568   0.802   3.843  13.357  0.9529 -0.0752  0.3795
  368MPD2    H7 5569   0.717   3.799  13.391  0.6024 -0.1279 -0.5539
  369TMC3    C1 5570   0.665   3.912  13.171  0.5127  0.2471  0.3035
  369TMC3    C2 5571   0.679   3.970  13.052  0.0152  0.3234 -0.3112
  369TMC3    C3 5572   0.566   4.014  12.990 -0.2205  0.4356 -0.1360
  369TMC3    C4 5573   0.551   3.891  13.232  0.1965 -0.2213 -0.1836
  369TMC3    C5 5574   0.440   3.936  13.169 -0.1582 -0.1244  0.3931
  369TMC3    C6 5575   0.441   3.997  13.045 -0.5313  0.2348 -0.5125
  369TMC3     C 5576   0.793   3.922  13.245 -0.8475 -0.2022  0.6371
  369TMC3     O 5577   0.874   4.006  13.203 -0.5455  0.4189 -0.5696
  369TMC3     H 5578   0.775   3.986  13.004 -0.8608 -0.0185 -2.1739
  369TMC3    H1 5579   0.538   3.839  13.327 -0.2464 -1.0899 -0.7183
  369TMC3    H2 5580   0.360   4.030  12.980  0.1866  3.4131  0.1915
  369TMC3    C7 5581   0.311   3.892  13.218 -0.3404 -0.6059  0.1214
  369TMC3    C8 5582   0.581   4.073  12.863 -0.3688  0.0662 -0.0301
  369TMC3    O1 5583   0.317   3.798  13.294 -0.1637  0.3474 -0.2241
  369TMC3    O2 5584   0.498   4.153  12.821  0.7106  0.1507  0.5015
  370TMC3    C1 5585   0.016   0.274  16.289  0.9647 -1.0880 -0.0042
  370TMC3    C2 5586   4.645   0.220  16.344  0.2863  0.4888  0.0375
  370TMC3    C3 5587   4.620   0.088  16.312  0.5389  0.7272  0.9569
  370TMC3    C4 5588   0.096   0.213  16.197  0.5885 -0.3369  0.0451
  370TMC3    C5 5589   0.068   0.078  16.168  0.2774 -0.5286 -0.0329
  370TMC3    C6 5590   4.705   0.013  16.229 -0.0327  0.0855 -0.4379
  370TMC3     C 5591   0.050   0.406  16.337  0.1968 -1.1365 -0.9286
  370TMC3     O 5592   0.028   0.419  16.457 -0.0955  0.2205 -0.5755
  370TMC3     H 5593   4.587   0.278  16.416 -1.7324 -1.1182 -0.2818
  370TMC3    H1 5594   0.197   0.244  16.172  0.5111 -1.3135 -1.4684
  370TMC3    H2 5595   4.683   4.652  16.192 -1.9896 -0.4770  2.2223
  370TMC3    C7 5596   0.144   0.013  16.070  0.4701  0.2896  0.0177
  370TMC3    C8 5597   4.545   0.007  16.402 -0.2985 -0.1519  0.4905
  370TMC3    O1 5598   0.160   0.076  15.966 -0.3395 -0.2518 -0.0593
  370TMC3    O2 5599   4.577   4.629  16.402  0.2122 -0.1886  0.2068
  371TMC3    C1 5600   1.167   3.060  15.470  0.6167 -0.8049  0.1113
  371TMC3    C2 5601   1.129   3.068  15.606 -0.3263  0.2838 -0.8081
  371TMC3    C3 5602   1.096   3.185  15.659 -0.0751  0.2755  0.1814
  371TMC3    C4 5603   1.194   3.169  15.396 -0.6972  0.1364 -0.5589
  371TMC3    C5 5604   1.181   3.290  15.459  0.1214  0.0264  0.0733
  371TMC3    C6 5605   1.129   3.294  15.589 -0.9104  0.0964 -0.3501
  371TMC3     C 5606   1.218   2.933  15.428  0.9191 -0.0707  0.2196
  371TMC3     O 5607   1.315   2.943  15.355 -0.0695 -0.6272 -0.2562
  371TMC3     H 5608   1.113   2.980  15.667  1.7550 -0.2768 -1.0706
  371TMC3    H1 5609   1.240   3.161  15.298 -0.7100  0.5668 -0.6020
  371TMC3    H2 5610   1.142   3.387  15.643  0.3422  0.4727 -1.3114
  371TMC3    C7 5611   1.254   3.409  15.410 -0.2382  0.4944 -0.3908
  371TMC3    C8 5612   1.079   3.191  15.801 -0.9558 -0.9006 -0.0129
  371TMC3    O1 5613   1.241   3.509  15.480  0.5614 -0.3611  0.0329
  371TMC3    O2 5614   1.112   3.093  15.868  0.1487  0.7068 -0.3549
  372MPD2     C 5615   0.438   4.052  13.569  0.2461 -0.8528  0.4058
  372MPD2    C1 5616   0.554   4.000  13.630 -0.5498 -0.4527  0.3600
  372MPD2    C2 5617   0.531   3.889  13.706 -0.1592 -0.0573  0.4437
  372MPD2    C3 5618   0.408   3.818  13.695 -0.6697 -0.2041  0.2930
  372MPD2    C4 5619   0.301   3.871  13.629  0.1034 -0.2315  0.1793
  372MPD2    C5 5620   0.313   3.996  13.567 -0.1446 -0.2436  0.4864
  372MPD2     H 5621   0.609   3.843  13.767  0.1161 -1.2430 -0.8151
  372MPD2    H1 5622   0.208   3.815  13.623  0.5750 -1.0967  0.9641
  372MPD2    H2 5623   0.451   4.138  13.504 -1.0247  0.6000  2.0820
  372MPD2    H3 5624   0.242   4.050  13.505 -0.9711 -2.0180 -0.1049
  372MPD2     N 5625   0.400   3.691  13.760  0.0355  0.1228  0.0680
  372MPD2    H5 5626   0.478   3.664  13.818  1.6745  4.4853 -0.1104
  372MPD2    N1 5627   0.683   4.059  13.629 -0.4672  0.1341 -0.4716
  372MPD2    H7 5628   0.749   4.017  13.693  0.8741  1.5483 -0.9305
  373TMC3    C1 5629   0.338   3.477  13.800  0.5468  0.2786  1.0772
  373TMC3    C2 5630   0.364   3.476  13.933  0.3290  0.4941 -0.0159
  373TMC3    C3 5631   0.407   3.357  13.979  0.2640 -0.8846 -0.2541
  373TMC3    C4 5632   0.350   3.366  13.716 -0.0350 -0.9591 -0.1204
  373TMC3    C5 5633   0.392   3.249  13.774  0.2699 -0.0620 -0.9093
  373TMC3    C6 5634   0.423   3.239  13.909  0.0583 -0.3386 -0.0398
  373TMC3     C 5635   0.309   3.598  13.727  0.7203  0.6546  0.6076
  373TMC3     O 5636   0.230   3.592  13.635  0.5480  0.1407 -0.0243
  373TMC3     H 5637   0.358   3.564  13.996  0.2017  1.2095 -1.0349
  373TMC3    H1 5638   0.321   3.369  13.612 -0.7767 -1.0939  0.0818
  373TMC3    H2 5639   0.433   3.138  13.947 -3.0347 -0.6894 -0.0851
  373TMC3    C7 5640   0.418   3.131  13.697  0.5768  0.0170 -1.0317
  373TMC3    C8 5641   0.485   3.370  14.101 -0.6474  0.3838 -0.1054
  373TMC3    O1 5642   0.379   3.023  13.747 -0.4551 -0.3897 -0.6095
  373TMC3    O2 5643   0.516   3.483  14.140 -0.2340 -0.2451 -0.0125
  374TMC3    C1 5644   1.845   4.242   9.943 -0.0093  0.1993  0.2070
  374TMC3    C2 5645   1.896   4.351  10.013 -1.0710  0.9736  0.7594
  374TMC3    C3 5646   1.851   4.474   9.971  0.3934  0.2246 -0.1867
  374TMC3    C4 5647   1.765   4.252   9.829  0.3418  0.1790 -0.3087
  374TMC3    C5 5648   1.728   4.375   9.797  0.3083  0.2392 -0.6503
  374TMC3    C6 5649   1.769   4.488   9.862 -0.7756  0.3335  0.1008
  374TMC3     C 5650   1.862   4.117  10.011 -0.2854 -1.1928  0.3169
  374TMC3     O 5651   1.954   4.101  10.092  0.0444 -0.0380  0.1389
  374TMC3     H 5652   1.960   4.333  10.099  2.8519 -0.0654 -2.4034
  374TMC3    H1 5653   1.756   4.165   9.765  1.9320  0.4910 -0.9834
  374TMC3    H2 5654   1.722   4.583   9.838 -2.0691 -0.4532 -0.4911
  374TMC3    C7 5655   1.668   4.395   9.668  0.1882  0.3364 -0.3359
  374TMC3    C8 5656   1.918   4.589  10.022 -0.4344 -0.4830 -0.4967
  374TMC3    O1 5657   1.670   4.511   9.623  0.3032 -0.2052  0.6486
  374TMC3    O2 5658   1.937   4.685   9.953 -0.2715  0.0142 -0.2618
  375MPD2     C 5659   0.676   4.680  16.653  0.4184 -0.1862  0.0907
  375MPD2    C1 5660   0.703   0.068  16.606 -0.1759 -0.2819  0.1874
  375MPD2    C2 5661   0.827   0.101  16.559 -0.8464  0.5587 -0.7738
  375MPD2    C3 5662   0.923   4.738  16.545  0.1208  0.3013 -0.1018
  375MPD2    C4 5663   0.894   4.615  16.598  0.2921 -0.0515  0.1262
  375MPD2    C5 5664   0.772   4.585  16.649  0.1370 -0.3641 -0.8821
  375MPD2     H 5665   0.854   0.202  16.529  0.2565  0.6712  0.5579
  375MPD2    H1 5666   0.964   4.532  16.604 -0.8307 -1.0443 -0.6294
  375MPD2    H2 5667   0.584   4.646  16.700  0.9051  0.4109  1.4882
  375MPD2    H3 5668   0.755   4.490  16.700 -0.2127  2.2908  3.9139
  375MPD2     N 5669   1.053   0.028  16.499 -1.0027  0.5169  0.0421
  375MPD2    H5 5670   1.121   4.690  16.504 -0.6216  0.7652 -1.2746
  375MPD2    N1 5671   0.612   0.174  16.616  0.1552 -0.1431  0.5397
  375MPD2    H7 5672   0.652   0.262  16.587 -2.2471 -0.3547 -3.4108
  376TMC3    C1 5673   1.219   0.119  16.352  0.1328  0.0893  0.6006
  376TMC3    C2 5674   1.323   0.092  16.435  0.4133  0.5816  0.3858
  376TMC3    C3 5675   1.442   0.116  16.379  0.8206  0.1818 -0.3734
  376TMC3    C4 5676   1.225   0.191  16.239  0.0938 -0.8957  0.1221
  376TMC3    C5 5677   1.351   0.210  16.193 -0.0294  0.2366  0.3350
  376TMC3    C6 5678   1.457   0.168  16.257  0.7353 -0.4451  0.4159
  376TMC3     C 5679   1.081   0.123  16.407 -0.7041  0.0820 -0.2298
  376TMC3     O 5680   1.007   0.212  16.363  0.1055  0.3520  0.7426
  376TMC3     H 5681   1.317   0.034  16.526  1.3575  0.6925  0.5177
  376TMC3    H1 5682   1.140   0.238  16.191  1.7864  0.5591 -1.4328
  376TMC3    H2 5683   1.559   0.178  16.221 -0.0566  2.6441 -0.9833
  376TMC3    C7 5684   1.367   0.262  16.054 -0.0487 -0.2292 -0.2121
  376TMC3    C8 5685   1.557   0.066  16.444  0.2988  0.1003 -0.9597
  376TMC3    O1 5686   1.301   0.358  16.007  0.1036 -0.1699  0.0196
  376TMC3    O2 5687   1.547   4.722  16.536 -0.3435  0.3630  0.1577
  377MPD2     C 5688   0.375   4.319  13.117 -0.3081  0.5100  0.2967
  377MPD2    C1 5689   0.252   4.319  13.058 -0.1461  0.7153 -0.4165
  377MPD2    C2 5690   0.134   4.310  13.140  0.1082  0.7210  0.0794
  377MPD2    C3 5691   0.140   4.303  13.278  0.2400 -0.1113 -0.5818
  377MPD2    C4 5692   0.269   4.305  13.335  0.5741 -0.2159 -0.1231
  377MPD2    C5 5693   0.380   4.314  13.253  0.7918  0.5091  0.2880
  377MPD2     H 5694   0.033   4.302  13.100  0.4661 -0.0560 -0.6758
  377MPD2    H1 5695   0.286   4.300  13.442 -2.8587  2.3825  0.5299
  377MPD2    H2 5696   0.460   4.320  13.050  1.3397 -0.4353  2.3969
  377MPD2    H3 5697   0.473   4.324  13.308  1.6627  2.0073 -1.4573
  377MPD2     N 5698   0.028   4.290  13.365 -0.4505  0.4781 -0.8132
  377MPD2    H5 5699   0.057   4.268  13.459  0.2949  0.9963 -0.9212
  377MPD2    N1 5700   0.243   4.319  12.915 -0.6261 -0.0925 -0.1714
  377MPD2    H7 5701   0.331   4.317  12.863 -0.1076 -0.5984  0.7170
  378TMC3    C1 5702   0.068   4.404  12.477 -0.6370 -0.8198 -0.7399
  378TMC3    C2 5703   0.064   4.417  12.615  0.8414 -0.4112  0.4294
  378TMC3    C3 5704   0.148   4.332  12.689 -0.1145 -0.6819 -0.0836
  378TMC3    C4 5705   0.150   4.310  12.414 -0.3040 -0.2973  0.3883
  378TMC3    C5 5706   0.226   4.230  12.495  0.4931 -0.4701  0.1323
  378TMC3    C6 5707   0.230   4.243  12.631  0.0929 -0.1178  0.4830
  378TMC3     C 5708   4.686   4.454  12.412 -0.2364  0.1223  0.0979
  378TMC3     O 5709   4.596   4.505  12.478 -0.0271  0.0628 -0.6407
  378TMC3     H 5710   4.734   4.484  12.665 -0.3229  0.1074 -1.8756
  378TMC3    H1 5711   0.134   4.280  12.311 -0.6648  2.8730 -0.4864
  378TMC3    H2 5712   0.300   4.183  12.687 -1.4925 -0.5183  2.0470
  378TMC3    C7 5713   0.347   4.163  12.439 -0.1713  0.0078  0.9897
  378TMC3    C8 5714   0.129   4.329  12.837 -0.0765 -0.3657 -0.5396
  378TMC3    O1 5715   0.384   4.077  12.516  0.7755  0.0464 -0.3235
  378TMC3    O2 5716   0.016   4.347  12.876  0.1332 -0.3548  0.0069
  379MPD2     C 5717   0.621   2.474  16.125 -0.2121  0.7882 -0.2200
  379MPD2    C1 5718   0.507   2.549  16.160 -0.1615 -0.0256 -0.1985
  379MPD2    C2 5719   0.480   2.570  16.293 -0.0995  0.7902 -0.5138
  379MPD2    C3 5720   0.579   2.529  16.386 -0.8047  0.1797 -0.8947
  379MPD2    C4 5721   0.692   2.463  16.352 -0.4398  0.2969 -0.0729
  379MPD2    C5 5722   0.717   2.434  16.220 -0.9272 -0.1429  0.4308
  379MPD2     H 5723   0.391   2.620  16.328  1.4205  1.2908  2.7031
  379MPD2    H1 5724   0.766   2.426  16.422 -0.9680 -0.6838 -0.0172
  379MPD2    H2 5725   0.655   2.461  16.023  0.2317  1.1070 -0.1085
  379MPD2    H3 5726   0.809   2.379  16.201  0.5443  2.4874  0.0190
  379MPD2     N 5727   0.557   2.543  16.524 -0.2365 -0.2969  0.0372
  379MPD2    H5 5728   0.629   2.503  16.583 -1.8443 -0.5668  1.7958
  379MPD2    N1 5729   0.428   2.591  16.049 -0.4732 -0.8605  0.4474
  379MPD2    H7 5730   0.469   2.563  15.960  0.6897  1.9906  0.0656
  380TMC3    C1 5731   0.269   2.695  15.914  0.0097  0.3008 -0.2052
  380TMC3    C2 5732   0.354   2.678  15.811  0.3450  0.3698 -0.0760
  380TMC3    C3 5733   0.301   2.709  15.686 -0.2922  0.3681  0.3474
  380TMC3    C4 5734   0.143   2.730  15.905  0.3635 -0.0639 -0.1809
  380TMC3    C5 5735   0.094   2.747  15.780  1.4945  0.0879  0.2569
  380TMC3    C6 5736   0.169   2.731  15.665 -0.1535  0.4698  0.1644
  380TMC3     C 5737   0.321   2.677  16.049 -0.0767 -0.1465 -0.8871
  380TMC3     O 5738   0.276   2.735  16.149  0.4015 -0.5815 -0.0568
  380TMC3     H 5739   0.458   2.683  15.838  1.0719 -0.9525 -2.6011
  380TMC3    H1 5740   0.092   2.760  15.996  1.6650  2.0063 -0.1600
  380TMC3    H2 5741   0.125   2.776  15.578 -1.1997  0.4557  0.6879
  380TMC3    C7 5742   4.709   2.820  15.768  1.0180 -1.1076  0.0998
  380TMC3    C8 5743   0.382   2.686  15.571 -0.0664 -0.6010 -0.4894
  380TMC3    O1 5744   4.686   2.904  15.852  0.0768 -0.3141 -0.1155
  380TMC3    O2 5745   0.498   2.698  15.602  0.3606 -0.4837  0.2686
  381TMC3    C1 5746   4.726   3.885  16.403 -0.1856  0.3833 -0.2879
  381TMC3    C2 5747   0.041   4.008  16.371 -0.5185 -0.0795 -0.3874
  381TMC3    C3 5748   4.733   4.118  16.436 -0.8959 -0.2335  0.6268
  381TMC3    C4 5749   4.628   3.871  16.498  0.2943 -0.2712 -0.5541
  381TMC3    C5 5750   4.585   3.990  16.558  0.4854 -0.1887  0.3771
  381TMC3    C6 5751   4.641   4.111  16.535  0.2478 -0.4140  0.3507
  381TMC3     C 5752   0.053   3.773  16.353  0.0393  0.0912  0.1383
  381TMC3     O 5753   0.158   3.788  16.291 -0.2202  0.1938 -0.7745
  381TMC3     H 5754   0.107   4.008  16.285  0.2150 -0.2439  0.1726
  381TMC3    H1 5755   4.589   3.777  16.535 -3.4966  1.9129  1.0182
  381TMC3    H2 5756   4.605   4.206  16.574 -1.2517  0.3786 -2.9156
  381TMC3    C7 5757   4.527   3.968  16.691 -0.1604 -0.2238 -0.0541
  381TMC3    C8 5758   0.096   4.231  16.425 -0.3443  0.4459  0.2829
  381TMC3    O1 5759   4.569   3.863  16.740 -0.0131  0.1201 -0.2006
  381TMC3    O2 5760   0.181   4.215  16.339  0.4495 -0.0184 -0.2012
  382MPD2     C 5761   3.705   1.648  16.709 -0.0764  0.4797 -0.0171
  382MPD2    C1 5762   3.643   1.675  16.832  0.2977 -0.0255 -0.1998
  382MPD2    C2 5763   3.627   1.577  16.926  0.3935  0.2617 -0.8253
  382MPD2    C3 5764   3.660   1.444  16.890  0.0866  0.0130 -0.1703
  382MPD2    C4 5765   3.703   1.414  16.761  0.1929  0.6617 -0.4255
  382MPD2    C5 5766   3.722   1.519  16.668 -0.6562 -0.0324  0.2847
  382MPD2     H 5767   3.587   1.600  17.025 -0.5452  1.9162 -1.5917
  382MPD2    H1 5768   3.720   1.314  16.721  0.5882  1.1006 -1.3702
  382MPD2    H2 5769   3.737   1.730  16.646 -1.3478 -0.5452 -2.0203
  382MPD2    H3 5770   3.770   1.495  16.574  0.2164  3.1280 -0.0715
  382MPD2     N 5771   3.650   1.339  16.988 -0.3769 -0.0549  0.2125
  382MPD2    H5 5772   3.690   1.249  16.962  0.4271  0.6108 -0.8845
  382MPD2    N1 5773   3.600   1.804  16.868  0.6690 -1.0610 -0.1665
  382MPD2    H7 5774   3.575   1.828  16.964  1.7345  0.0302 -0.1539
  383TMC3    C1 5775   3.567   1.212  17.165 -0.4839 -0.2814  0.3449
  383TMC3    C2 5776   3.449   1.175  17.214 -0.2350 -0.8057  0.9281
  383TMC3    C3 5777   3.428   1.051  17.268 -0.3060  0.0839 -0.0439
  383TMC3    C4 5778   3.675   1.129  17.164  0.3914  0.2238 -0.3752
  383TMC3    C5 5779   3.664   1.013  17.229 -0.2879 -0.5636 -0.7784
  383TMC3    C6 5780   3.537   0.963  17.276 -0.0111 -0.0832  0.4513
  383TMC3     C 5781   3.579   1.344  17.106  0.0848 -0.3918 -0.0715
  383TMC3     O 5782   3.504   1.430  17.148  0.9042  0.0322  0.1338
  383TMC3     H 5783   3.376   1.255  17.209  1.0681  0.2171 -1.7230
  383TMC3    H1 5784   3.777   1.155  17.137  0.0810 -0.1386 -1.8471
  383TMC3    H2 5785   3.532   0.861  17.311 -1.9539  0.1879  0.9798
  383TMC3    C7 5786   3.781   0.985  17.315 -0.3304 -0.1163 -0.9287
  383TMC3    C8 5787   3.295   0.997  17.286 -0.0260 -0.2546  0.1531
  383TMC3    O1 5788   3.885   1.050  17.302 -0.7068 -0.3352 -0.0702
  383TMC3    O2 5789   3.205   1.058  17.232  0.4019 -0.0201  0.5566
  384MPD2     C 5790   1.496   2.343  11.939 -0.1834  0.4954  1.1292
  384MPD2    C1 5791   1.522   2.339  12.076 -0.3538  0.0757 -0.2234
  384MPD2    C2 5792   1.605   2.243  12.136  0.0303  0.3341 -0.0829
  384MPD2    C3 5793   1.682   2.155  12.061  0.3863  0.4021  0.2581
  384MPD2    C4 5794   1.661   2.163  11.929  0.0127  0.0645  0.0475
  384MPD2    C5 5795   1.573   2.256  11.871 -0.0699 -0.2947  0.5511
  384MPD2     H 5796   1.613   2.234  12.244  0.7179  1.4119 -0.0483
  384MPD2    H1 5797   1.727   2.104  11.866 -0.8763 -1.6093  0.6912
  384MPD2    H2 5798   1.422   2.409  11.896  1.6554  1.0011 -1.3196
  384MPD2    H3 5799   1.553   2.245  11.765 -1.5931  0.7362  0.7248
  384MPD2     N 5800   1.774   2.065  12.111 -0.6777  0.3925 -0.2920
  384MPD2    H5 5801   1.814   2.004  12.041  0.7069 -0.3165  1.1417
  384MPD2    N1 5802   1.444   2.412  12.168 -1.0519 -0.1071  0.3870
  384MPD2    H7 5803   1.469   2.391  12.264 -1.8672 -0.1250  0.5953
  385TMC3    C1 5804   1.873   1.933  12.285  0.2719  0.1305  0.1254
  385TMC3    C2 5805   1.811   1.823  12.241 -0.3552  0.2330  0.6034
  385TMC3    C3 5806   1.843   1.702  12.302 -0.5914 -0.4553  0.4017
  385TMC3    C4 5807   1.934   1.935  12.406 -0.6922 -0.0542 -1.0489
  385TMC3    C5 5808   1.942   1.819  12.479 -0.4513  0.6296  0.5533
  385TMC3    C6 5809   1.901   1.705  12.425 -0.6851 -0.2619  0.6113
  385TMC3     C 5810   1.819   2.065  12.243  0.9420  0.9740  0.3405
  385TMC3     O 5811   1.830   2.149  12.331  0.8470 -0.1663  0.0820
  385TMC3     H 5812   1.750   1.826  12.151  1.8822 -3.9563 -1.0128
  385TMC3    H1 5813   1.983   2.025  12.442 -0.0107 -1.3333  1.1543
  385TMC3    H2 5814   1.912   1.610  12.476 -0.9528 -1.1129 -0.9128
  385TMC3    C7 5815   1.885   1.835  12.611 -0.2709  0.1154  0.0186
  385TMC3    C8 5816   1.795   1.572  12.259  0.2889 -0.7228  0.3882
  385TMC3    O1 5817   1.885   1.736  12.681 -0.0031 -0.1992  0.4501
  385TMC3    O2 5818   1.806   1.473  12.328 -0.6374 -0.1823  0.1033
  386TMC3    C1 5819   1.277   3.890  11.820  0.1674  0.3444  0.0496
  386TMC3    C2 5820   1.351   3.926  11.711 -0.0020 -0.1717 -0.2892
  386TMC3    C3 5821   1.276   3.970  11.596 -0.3779 -0.0515  0.3544
  386TMC3    C4 5822   1.144   3.915  11.827  0.0787  0.0454  0.0475
  386TMC3    C5 5823   1.080   3.967  11.720 -1.6233 -0.6314  0.2507
  386TMC3    C6 5824   1.144   3.991  11.604 -0.3913 -0.0767  0.6110
  386TMC3     C 5825   1.338   3.827  11.932 -0.4355  0.1687 -0.2704
  386TMC3     O 5826   1.265   3.755  11.996 -0.2368  1.0871 -0.0587
  386TMC3     H 5827   1.455   3.898  11.700  0.1261  0.8612 -1.6256
  386TMC3    H1 5828   1.097   3.907  11.925  3.4316  0.5295  1.7039
  386TMC3    H2 5829   1.088   4.023  11.517  1.5647 -3.0105 -1.7663
  386TMC3    C7 5830   1.004   4.083  11.761  0.2117 -0.0596  0.3073
  386TMC3    C8 5831   1.332   4.065  11.508 -0.7983  0.3326 -0.9677
  386TMC3    O1 5832   0.941   4.083  11.867  0.0245  0.8837 -0.7962
  386TMC3    O2 5833   1.262   4.164  11.486 -0.0281  0.2110 -0.3157
  387MPD2     C 5834   3.747   4.220  10.237 -0.2984 -0.4371  0.5452
  387MPD2    C1 5835   3.882   4.190  10.244 -0.0542 -0.3611  0.0695
  387MPD2    C2 5836   3.924   4.070  10.194 -0.5719 -0.4157 -0.1108
  387MPD2    C3 5837   3.841   3.977  10.145 -0.0413  0.7054  0.2481
  387MPD2    C4 5838   3.709   4.000  10.141  0.4423  0.9647  0.1406
  387MPD2    C5 5839   3.666   4.123  10.182  0.0309 -0.2899 -0.5896
  387MPD2     H 5840   4.032   4.055  10.194 -0.3446  1.2620 -0.0716
  387MPD2    H1 5841   3.644   3.926  10.094  2.6630 -1.1771  0.4490
  387MPD2    H2 5842   3.699   4.310  10.275 -0.4330 -0.6945  0.9988
  387MPD2    H3 5843   3.561   4.146  10.174  0.2264  0.7475 -0.2216
  387MPD2     N 5844   3.902   3.859  10.099 -0.0826  0.2826  0.9176
  387MPD2    H5 5845   4.002   3.849  10.110 -0.1132  0.2732  1.1980
  387MPD2    N1 5846   3.982   4.273  10.291 -0.6104 -0.3303 -0.1604
  387MPD2    H7 5847   4.072   4.231  10.269 -0.2889  0.4379 -0.3193
  388TMC3    C1 5848   4.094   4.455  10.374  0.0662 -0.1107  0.0467
  388TMC3    C2 5849   4.113   4.587  10.337  0.0699 -0.5447 -0.2665
  388TMC3    C3 5850   4.230   4.629  10.284 -0.3993  0.7815  0.1610
  388TMC3    C4 5851   4.202   4.376  10.383  0.9446  0.0115  0.3385
  388TMC3    C5 5852   4.327   4.424  10.343  0.0929 -0.1787  0.1188
  388TMC3    C6 5853   4.340   4.550  10.287 -0.7209 -1.6174  0.6158
  388TMC3     C 5854   3.966   4.400  10.346 -0.0932 -0.6520 -0.2386
  388TMC3     O 5855   3.869   4.476  10.353  0.8503 -0.2520  0.2248
  388TMC3     H 5856   4.027   4.651  10.320 -1.9227 -3.0113  0.3840
  388TMC3    H1 5857   4.191   4.277  10.426  1.9294 -0.1899  0.1188
  388TMC3    H2 5858   4.438   4.589  10.263 -2.7541  1.8273 -2.2453
  388TMC3    C7 5859   4.414   4.336  10.269 -0.0274 -0.2215 -1.0475
  388TMC3    C8 5860   4.233   0.032  10.244  0.0548  0.5645 -0.3118
  388TMC3    O1 5861   4.512   4.378  10.203  0.0051  0.3476 -0.2014
  388TMC3    O2 5862   4.149   0.106  10.293  0.2768  0.2834 -0.7147
  389MPD2     C 5863   3.485   2.816  11.220  0.2751 -0.9161 -0.0368
  389MPD2    C1 5864   3.366   2.774  11.187  0.4403 -0.0004 -0.1758
  389MPD2    C2 5865   3.282   2.707  11.274 -0.1881  0.0347 -0.1391
  389MPD2    C3 5866   3.327   2.674  11.399  0.7085 -0.0836 -0.3447
  389MPD2    C4 5867   3.454   2.713  11.437  0.1588  0.3420  0.3993
  389MPD2    C5 5868   3.532   2.789  11.350 -0.1136 -0.1895 -0.0204
  389MPD2     H 5869   3.179   2.691  11.244  0.2914 -1.6246 -0.9042
  389MPD2    H1 5870   3.506   2.688  11.529 -0.2796 -1.3744  0.1730
  389MPD2    H2 5871   3.549   2.877  11.157  0.0617  1.5071  2.0697
  389MPD2    H3 5872   3.620   2.833  11.396 -0.2477  0.3796 -0.3093
  389MPD2     N 5873   3.252   2.626  11.508  0.1116 -0.7449  0.1220
  389MPD2    H5 5874   3.304   2.639  11.594 -1.8303 -0.0240  1.1662
  389MPD2    N1 5875   3.331   2.814  11.064  0.5490  0.2540 -0.2316
  389MPD2    H7 5876   3.388   2.887  11.022 -1.8724  1.2033 -1.9017
  390TMC3    C1 5877   3.060   2.538  11.620  0.4906 -0.3045  0.0014
  390TMC3    C2 5878   2.959   2.450  11.619  0.0768 -0.0726 -0.3350
  390TMC3    C3 5879   2.872   2.446  11.721  0.5364 -0.3988  0.6351
  390TMC3    C4 5880   3.077   2.629  11.724  0.1875  0.7957 -0.1186
  390TMC3    C5 5881   2.987   2.620  11.828 -0.4349 -0.0227  0.9256
  390TMC3    C6 5882   2.878   2.533  11.828  0.3899  0.0780  0.3457
  390TMC3     C 5883   3.130   2.560  11.494  0.1255  0.2141 -0.4474
  390TMC3     O 5884   3.072   2.545  11.389  0.1823  0.2948  0.2467
  390TMC3     H 5885   2.950   2.380  11.537 -3.6015  0.1596 -0.1281
  390TMC3    H1 5886   3.159   2.699  11.715 -0.2730  1.6074  2.0522
  390TMC3    H2 5887   2.783   2.553  11.875 -0.4052 -1.3450 -0.6806
  390TMC3    C7 5888   3.020   2.696  11.954  0.0411 -0.1870  1.3290
  390TMC3    C8 5889   2.761   2.352  11.715 -0.5359 -0.6590  0.2412
  390TMC3    O1 5890   3.074   2.805  11.945 -0.7596 -0.4377 -0.2623
  390TMC3    O2 5891   2.704   2.343  11.609  0.1958 -0.1357 -0.2517
  391MPD2     C 5892   1.929   4.318  11.586  0.5019 -0.5669  0.0829
  391MPD2    C1 5893   2.056   4.373  11.584  0.4246  0.0628  0.5787
  391MPD2    C2 5894   2.091   4.451  11.473  0.4025 -0.8041 -0.2922
  391MPD2    C3 5895   2.013   4.444  11.354 -0.4548  0.3217 -0.2906
  391MPD2    C4 5896   1.889   4.386  11.364 -0.2857 -0.5453 -0.0744
  391MPD2    C5 5897   1.845   4.323  11.476  0.2550  0.3470  0.0691
  391MPD2     H 5898   2.189   4.497  11.463 -0.0298  0.2169  0.1151
  391MPD2    H1 5899   1.824   4.393  11.277 -0.0921  1.6780 -0.0484
  391MPD2    H2 5900   1.888   4.260  11.668 -0.3964  2.3275  1.7174
  391MPD2    H3 5901   1.742   4.289  11.474  0.0918  0.9814 -2.5298
  391MPD2     N 5902   2.083   4.474  11.229  0.0509 -0.5257  0.0809
  391MPD2    H5 5903   2.171   4.522  11.241 -0.7196  0.9835 -0.2424
  391MPD2    N1 5904   2.135   4.337  11.700 -0.1971 -0.1689  0.0249
  391MPD2    H7 5905   2.087   4.276  11.764  0.0140  0.2349  0.5740
  392TMC3    C1 5906   2.154   4.486  11.007  1.2209 -0.1133  0.2258
  392TMC3    C2 5907   2.112   4.483  10.871  0.1420 -0.0538  0.1652
  392TMC3    C3 5908   2.193   4.542  10.779 -0.2518  0.4516  0.6019
  392TMC3    C4 5909   2.279   4.517  11.046  0.1547  0.3830  0.6637
  392TMC3    C5 5910   2.359   4.571  10.944  0.2915 -0.4472 -0.4810
  392TMC3    C6 5911   2.313   4.598  10.815 -0.3018  0.0289 -0.1260
  392TMC3     C 5912   2.063   4.436  11.103 -0.0609  0.1657 -0.4045
  392TMC3     O 5913   1.964   4.379  11.055 -0.4133 -0.0330  0.1738
  392TMC3     H 5914   2.007   4.463  10.855 -0.0468  1.9111 -1.2296
  392TMC3    H1 5915   2.319   4.514  11.146  1.5916  3.8191  0.2188
  392TMC3    H2 5916   2.392   4.617  10.743 -0.8673  0.0257 -0.7402
  392TMC3    C7 5917   2.488   4.626  10.987  0.3213 -0.3693 -0.7576
  392TMC3    C8 5918   2.140   4.568  10.643 -0.6027 -0.3811  0.2694
  392TMC3    O1 5919   2.531   4.597  11.096 -0.1059  0.4628 -0.1517
  392TMC3    O2 5920   2.033   4.515  10.616  0.1910 -0.0086 -0.3744
  393TMC3    C1 5921   1.171   2.209  10.623 -0.1209 -0.5822  0.2492
  393TMC3    C2 5922   1.042   2.165  10.597  0.1429 -0.0051 -0.5069
  393TMC3    C3 5923   1.021   2.032  10.608  0.3132 -0.0987  0.7056
  393TMC3    C4 5924   1.267   2.131  10.687 -0.4933 -0.1460  0.2843
  393TMC3    C5 5925   1.240   1.997  10.709  0.1554 -0.2367  0.1999
  393TMC3    C6 5926   1.118   1.947  10.664 -0.3368 -0.8775  0.4128
  393TMC3     C 5927   1.209   2.341  10.571  0.1505  0.0582 -0.5775
  393TMC3     O 5928   1.146   2.369  10.470  0.0722  0.3123  0.4128
  393TMC3     H 5929   0.968   2.228  10.549  0.2365 -0.6688 -1.5262
  393TMC3    H1 5930   1.369   2.161  10.667 -0.9737  0.7029 -0.8978
  393TMC3    H2 5931   1.109   1.839  10.660 -0.5062 -0.8312 -0.5838
  393TMC3    C7 5932   1.342   1.901  10.723  0.4236  0.0579  0.1466
  393TMC3    C8 5933   0.894   1.975  10.592 -0.3443  0.1771  0.2309
  393TMC3    O1 5934   1.325   1.778  10.703  0.5613  0.0060  0.2700
  393TMC3    O2 5935   0.874   1.866  10.649 -0.1153 -0.4048 -0.1941
  394TMC3    C1 5936   3.175   2.845  10.880 -0.0238  0.2970  0.3508
  394TMC3    C2 5937   3.039   2.821  10.844 -0.6279 -0.3605 -0.2438
  394TMC3    C3 5938   2.976   2.913  10.765  0.2566  0.8013  0.1373
  394TMC3    C4 5939   3.244   2.961  10.838  0.2368 -0.4033  0.3958
  394TMC3    C5 5940   3.168   3.039  10.758 -0.0846  0.5951  0.1351
  394TMC3    C6 5941   3.036   3.027  10.728 -0.6905 -0.5681 -0.0804
  394TMC3     C 5942   3.224   2.765  10.992  0.1076 -0.9049 -0.1214
  394TMC3     O 5943   3.160   2.657  11.006  0.4423 -0.0698 -0.0755
  394TMC3     H 5944   2.989   2.734  10.884 -0.0411 -0.1038  1.0254
  394TMC3    H1 5945   3.345   2.989  10.865 -0.9191  3.9580  0.1064
  394TMC3    H2 5946   2.989   3.091  10.654 -0.0432 -1.0042 -0.8753
  394TMC3    C7 5947   3.238   3.135  10.677 -0.3307  0.3165  0.0453
  394TMC3    C8 5948   2.881   2.875  10.655 -0.1278 -0.5167  0.2780
  394TMC3    O1 5949   3.171   3.235  10.642  1.2361 -0.0995 -0.0180
  394TMC3    O2 5950   2.810   2.963  10.603 -0.4722 -0.3123 -0.1082
  395TMC3    C1 5951   2.433   0.130  14.908 -0.1518 -0.1307  0.7403
  395TMC3    C2 5952   2.309   0.130  14.963 -0.7382  0.0383  0.0146
  395TMC3    C3 5953   2.244   0.251  15.006  0.5641  0.1802 -0.2286
  395TMC3    C4 5954   2.500   0.243  14.912 -0.0312 -0.7731 -0.5397
  395TMC3    C5 5955   2.441   0.362  14.948  0.5899 -0.1711  0.4355
  395TMC3    C6 5956   2.313   0.364  14.991  0.4007  0.5949 -0.2135
  395TMC3     C 5957   2.519   0.027  14.959 -1.6094  0.9019  0.8259
  395TMC3     O 5958   2.621   0.062  15.013  0.4311  0.0606 -0.2975
  395TMC3     H 5959   2.260   0.034  14.975 -0.7772 -0.1138 -1.4339
  395TMC3    H1 5960   2.602   0.242  14.874  0.2228 -0.1253  0.1371
  395TMC3    H2 5961   2.268   0.453  15.033 -0.3179  0.0679  0.1403
  395TMC3    C7 5962   2.515   0.483  14.932 -0.0988 -0.4923 -0.0585
  395TMC3    C8 5963   2.195   0.246  15.137 -0.1180 -0.7515 -0.1452
  395TMC3    O1 5964   2.639   0.476  14.932 -0.3627  0.6228  0.2521
  395TMC3    O2 5965   2.129   0.347  15.172  0.2920  0.3359 -0.0969
  396MPD2     C 5966   1.840   0.994  16.538 -0.0820  0.2999  0.2707
  396MPD2    C1 5967   1.899   1.072  16.634 -0.5915  0.1512 -0.2671
  396MPD2    C2 5968   1.969   1.181  16.586 -0.0559 -0.0192 -0.2609
  396MPD2    C3 5969   1.971   1.211  16.450  0.3561  0.1840  0.3305
  396MPD2    C4 5970   1.899   1.131  16.361 -0.0775 -0.0664  0.0132
  396MPD2    C5 5971   1.838   1.017  16.402 -0.3516 -0.9404 -0.0469
  396MPD2     H 5972   2.022   1.246  16.655 -0.6764  1.3144 -1.0363
  396MPD2    H1 5973   1.901   1.154  16.256  1.9080  0.9233  0.2635
  396MPD2    H2 5974   1.781   0.905  16.560  2.7759 -1.1860  2.0452
  396MPD2    H3 5975   1.785   0.948  16.338 -1.0621 -1.5059  1.1503
  396MPD2     N 5976   2.059   1.315  16.408 -0.0277  0.2920  0.2324
  396MPD2    H5 5977   2.124   1.341  16.482  1.0722 -0.3297 -0.5180
  396MPD2    N1 5978   1.894   1.034  16.771  0.2098  0.7891  0.6332
  396MPD2    H7 5979   1.836   0.954  16.794 -0.1883  0.2562 -2.1949
  397TMC3    C1 5980   1.913   1.069  17.005  0.0953 -0.0554  0.5569
  397TMC3    C2 5981   1.999   1.107  17.098 -0.2072 -0.3696 -0.4669
  397TMC3    C3 5982   2.032   1.027  17.208  0.3557  0.3459  0.5539
  397TMC3    C4 5983   1.841   0.950  17.019  0.7923 -0.3275 -0.3714
  397TMC3    C5 5984   1.870   0.872  17.131  0.1670  0.3593  0.0768
  397TMC3    C6 5985   1.959   0.914  17.231  0.3689 -0.9023 -0.0824
  397TMC3     C 5986   1.947   1.113  16.872 -0.2991  0.0790  0.9412
  397TMC3     O 5987   1.992   1.226  16.870  0.1036 -0.6874  0.0419
  397TMC3     H 5988   2.055   1.198  17.077 -1.1969  0.5318  0.8625
  397TMC3    H1 5989   1.754   0.928  16.959 -0.0353  2.6759 -0.2904
  397TMC3    H2 5990   1.987   0.841  17.306 -0.3508 -1.0218  0.0676
  397TMC3    C7 5991   1.762   0.791  17.192  1.1724  0.6203  0.1146
  397TMC3    C8 5992   2.131   1.062  17.315  0.0493  0.7154 -0.2930
  397TMC3    O1 5993   1.749   0.794  17.316  0.4474  0.5024 -0.1263
  397TMC3    O2 5994   2.127   1.007  17.425 -0.2026 -0.0867  0.4230
  398MPD2     C 5995   4.710   2.718   0.094 -0.0078 -0.8284  0.7190
  398MPD2    C1 5996   0.043   2.617   0.161 -0.7069 -0.5345  0.5004
  398MPD2    C2 5997   0.165   2.647   0.215  0.0089  0.1864 -0.0432
  398MPD2    C3 5998   0.220   2.775   0.212  0.6436  0.1779  0.7135
  398MPD2    C4 5999   0.153   2.878   0.140 -0.1445 -0.1065 -0.2415
  398MPD2    C5 6000   0.031   2.844   0.082  0.8211 -0.1398  0.3125
  398MPD2     H 6001   0.222   2.571   0.267 -1.0194  0.0142  0.8390
  398MPD2    H1 6002   0.192   2.978   0.126  0.7902 -0.5889 -1.0439
  398MPD2    H2 6003   4.614   2.704   0.047  0.4878  0.5894 -0.7063
  398MPD2    H3 6004   4.722   2.925   0.028  0.8174 -0.3450  0.0103
  398MPD2     N 6005   0.347   2.791   0.261  0.3343  0.1501  0.4834
  398MPD2    H5 6006   0.391   2.707   0.297  1.2831  0.7082  0.6342
  398MPD2    N1 6007   4.731   2.486   0.169 -0.0918 -0.4970  0.5211
  398MPD2    H7 6008   0.058   2.430   0.223  1.3399  0.9156  0.2586
  399TMC3    C1 6009   4.577   2.298   0.162 -0.2495 -1.2686  0.5043
  399TMC3    C2 6010   4.661   2.219   0.237 -0.0864 -0.1297  0.6559
  399TMC3    C3 6011   4.616   2.089   0.257  0.1201 -0.3631  0.3403
  399TMC3    C4 6012   4.463   2.255   0.103 -0.0130  0.2955  0.4195
  399TMC3    C5 6013   4.429   2.123   0.122 -0.2518  0.0677  0.4762
  399TMC3    C6 6014   4.496   2.046   0.212 -1.0335 -0.1176 -0.2357
  399TMC3     C 6015   4.603   2.443   0.137 -0.6213  0.2132  0.5772
  399TMC3     O 6016   4.514   2.512   0.097  0.0412  0.1630  0.4433
  399TMC3     H 6017   0.015   2.258   0.277  0.1251 -0.2313  0.2548
  399TMC3    H1 6018   4.416   2.317   0.027  1.0868  0.9826  0.3010
  399TMC3    H2 6019   4.447   1.952   0.235  0.9159 -0.9029  0.7411
  399TMC3    C7 6020   4.341   2.056   0.027  0.3790 -0.0020  0.6003
  399TMC3    C8 6021   4.694   1.996   0.344 -0.5136 -0.1869  0.8096
  399TMC3    O1 6022   4.273   1.961   0.072  0.5112  0.3187  0.3964
  399TMC3    O2 6023   0.038   2.055   0.412  0.6914 -0.0553  0.8079
  400TMC3    C1 6024   3.080   0.291  17.479 -0.4926  0.0848 -0.0560
  400TMC3    C2 6025   2.973   0.261  17.398 -0.0300  0.0923 -0.0322
  400TMC3    C3 6026   2.963   0.314  17.272  0.6031 -0.4811 -0.2614
  400TMC3    C4 6027   3.189   0.356  17.428  0.3111  0.1118  0.0425
  400TMC3    C5 6028   3.169   0.418  17.308  0.5253  0.1278  0.0330
  400TMC3    C6 6029   3.064   0.393  17.227 -0.3515 -0.6921  0.1313
  400TMC3     C 6030   3.099   0.220  17.600  0.7110  0.0348  0.4113
  400TMC3     O 6031   3.153   0.278  17.690  0.2529  0.2193  0.0387
  400TMC3     H 6032   2.889   0.215  17.447  0.0059  1.4512  1.3003
  400TMC3    H1 6033   3.263   0.392  17.498  0.3926 -1.0741  0.5621
  400TMC3    H2 6034   3.048   0.448  17.135 -0.1684  0.5344  0.8310
  400TMC3    C7 6035   3.287   0.484  17.252 -0.0857 -0.1151 -1.0112
  400TMC3    C8 6036   2.838   0.306  17.202  0.1665  0.8948  0.1202
  400TMC3    O1 6037   3.397   0.466  17.305  0.1514  0.1394  0.3391
  400TMC3    O2 6038   2.738   0.302  17.273  0.3369 -0.2360 -0.4511
  401MPD2     C 6039   1.236   3.999   0.968  0.1514 -0.0029 -0.3646
  401MPD2    C1 6040   1.316   3.904   0.912 -0.3739  0.8281 -0.6692
  401MPD2    C2 6041   1.286   3.772   0.919 -0.2309 -0.2523 -0.8688
  401MPD2    C3 6042   1.171   3.734   0.986  0.0361 -0.2272 -0.2461
  401MPD2    C4 6043   1.087   3.830   1.049  0.4947  0.4507 -0.1121
  401MPD2    C5 6044   1.123   3.964   1.039  0.0539 -0.4978 -0.2892
  401MPD2     H 6045   1.344   3.693   0.874 -0.4531 -0.4729 -0.7634
  401MPD2    H1 6046   1.008   3.812   1.121  2.1178 -2.2458  0.9719
  401MPD2    H2 6047   1.248   4.107   0.960  0.7009 -0.1531 -1.5076
  401MPD2    H3 6048   1.068   4.037   1.097  1.4608  1.5340 -1.5231
  401MPD2     N 6049   1.136   3.602   0.975  0.6264  0.1004 -0.1556
  401MPD2    H5 6050   1.178   3.549   0.899 -0.7074  0.3785 -1.0800
  401MPD2    N1 6051   1.442   3.933   0.863  0.0975  0.7997 -0.9107
  401MPD2    H7 6052   1.502   3.855   0.839  1.1169  2.2591 -3.0888
  402TMC3    C1 6053   1.057   3.384   1.059  0.0847  0.3959  0.1708
  402TMC3    C2 6054   1.143   3.314   1.143 -0.5102  0.2709  0.5838
  402TMC3    C3 6055   1.215   3.214   1.091  0.1143 -0.0449  0.0180
  402TMC3    C4 6056   1.036   3.337   0.933  0.3341  0.5371 -0.0727
  402TMC3    C5 6057   1.099   3.221   0.898 -0.1138 -0.0814  0.5108
  402TMC3    C6 6058   1.193   3.156   0.971 -0.0331 -0.0567  0.0452
  402TMC3     C 6059   1.069   3.528   1.074  0.3877  0.1283 -0.5032
  402TMC3     O 6060   1.033   3.565   1.183  0.1984  0.6486  0.0977
  402TMC3     H 6061   1.146   3.347   1.246 -1.3387 -1.4998  1.1814
  402TMC3    H1 6062   0.961   3.383   0.870  0.2985 -1.9608 -1.8295
  402TMC3    H2 6063   1.259   3.082   0.928 -1.6106 -1.2390 -0.3417
  402TMC3    C7 6064   1.103   3.200   0.757 -0.1459 -0.6516 -0.0927
  402TMC3    C8 6065   1.326   3.148   1.171  0.5756  0.9271 -0.0758
  402TMC3    O1 6066   1.002   3.222   0.693  0.3987  1.1370  0.4284
  402TMC3    O2 6067   1.427   3.108   1.114  0.4845 -0.1462  0.2579
  403MPD2     C 6068   0.839   1.807  13.317  0.4927  0.1273 -0.3686
  403MPD2    C1 6069   0.793   1.928  13.367  0.2079 -0.1373  1.0684
  403MPD2    C2 6070   0.870   1.990  13.467  0.3027  0.2864  0.0582
  403MPD2    C3 6071   1.001   1.951  13.488 -0.0609 -0.1615 -0.2494
  403MPD2    C4 6072   1.044   1.831  13.430  0.4337 -0.6726  0.1768
  403MPD2    C5 6073   0.966   1.767  13.347  0.4249 -0.0948  0.0931
  403MPD2     H 6074   0.833   2.075  13.522 -0.6404 -0.0285 -0.0997
  403MPD2    H1 6075   1.142   1.787  13.447  0.2120 -1.0778  0.4020
  403MPD2    H2 6076   0.780   1.751  13.246  0.1909 -1.1370  0.8808
  403MPD2    H3 6077   1.007   1.685  13.291 -2.4390 -1.8601  0.5710
  403MPD2     N 6078   1.079   2.030  13.578 -0.1383 -0.6614 -0.1397
  403MPD2    H5 6079   1.025   2.113  13.599  1.7991  1.0306 -1.9411
  403MPD2    N1 6080   0.665   1.971  13.327  0.3685  0.3633 -0.2285
  403MPD2    H7 6081   0.622   1.915  13.255  0.3740  0.7553 -0.5339
  404TMC3    C1 6082   0.467   2.110  13.307 -0.5157 -0.2773 -0.5136
  404TMC3    C2 6083   0.358   2.074  13.384  0.1219 -0.1596 -0.7440
  404TMC3    C3 6084   0.259   2.002  13.335 -0.4277 -0.0887  0.4311
  404TMC3    C4 6085   0.475   2.082  13.171  0.3128  0.5763  0.5411
  404TMC3    C5 6086   0.365   2.016  13.126  0.7935 -0.4773  0.0920
  404TMC3    C6 6087   0.268   1.961  13.205  0.7967  0.1718 -0.0309
  404TMC3     C 6088   0.592   2.082  13.384  0.2867 -0.1957 -0.1212
  404TMC3     O 6089   0.613   2.147  13.485 -0.2391  0.3548 -0.1025
  404TMC3     H 6090   0.362   2.082  13.492  1.5741  1.1196 -0.8906
  404TMC3    H1 6091   0.557   2.122  13.111  2.0798 -1.4127  1.6187
  404TMC3    H2 6092   0.184   1.906  13.165  0.6965 -0.1300  0.5985
  404TMC3    C7 6093   0.386   1.975  12.986 -0.2734 -0.2660 -1.3034
  404TMC3    C8 6094   0.237   1.888  13.423 -0.8650  0.8841 -0.1626
  404TMC3    O1 6095   0.488   2.017  12.939  0.6431 -0.2865  0.3332
  404TMC3    O2 6096   0.288   1.784  13.388 -0.7352  0.1359 -0.1179
  405MPD2     C 6097   0.663   2.321  14.504 -0.7764  0.0852 -0.1822
  405MPD2    C1 6098   0.547   2.265  14.456 -0.2782  0.4186 -0.1260
  405MPD2    C2 6099   0.473   2.345  14.370  0.1832 -0.1256  1.3135
  405MPD2    C3 6100   0.507   2.468  14.325  0.5644 -0.0971 -0.5370
  405MPD2    C4 6101   0.624   2.525  14.362  0.1929  0.5991  0.3912
  405MPD2    C5 6102   0.698   2.441  14.451  0.1277 -0.6049  1.1826
  405MPD2     H 6103   0.379   2.297  14.342  0.2601  0.4136  0.1292
  405MPD2    H1 6104   0.659   2.623  14.333  0.4309  0.4176  0.0715
  405MPD2    H2 6105   0.724   2.268  14.577 -1.5512  0.2913  0.6054
  405MPD2    H3 6106   0.789   2.488  14.486 -0.9864  2.9446 -0.6396
  405MPD2     N 6107   0.425   2.530  14.226 -0.2334  0.1671 -0.2597
  405MPD2    H5 6108   0.365   2.465  14.177 -0.7191  0.2905  0.1728
  405MPD2    N1 6109   0.495   2.147  14.515  0.0742  0.2842 -0.1726
  405MPD2    H7 6110   0.539   2.109  14.597 -0.2114 -0.0636 -0.1815
  406TMC3    C1 6111   0.172   2.899  14.131  0.2936 -0.7468 -0.5297
  406TMC3    C2 6112   0.059   2.816  14.148 -0.5565 -0.3426  0.2488
  406TMC3    C3 6113   0.080   2.682  14.145  1.0282  0.2492 -0.6763
  406TMC3    C4 6114   0.298   2.843  14.124 -0.6159 -0.1445 -1.0055
  406TMC3    C5 6115   0.316   2.708  14.118  0.6901  0.2293 -0.3132
  406TMC3    C6 6116   0.208   2.619  14.140  0.1057  0.2708  0.0778
  406TMC3     C 6117   0.175   3.038  14.174 -0.1961  0.2881 -0.7858
  406TMC3     O 6118   0.272   3.104  14.150  0.0336 -0.3528  0.3628
  406TMC3     H 6119   4.696   2.852  14.152 -0.7715 -0.7653 -1.4138
  406TMC3    H1 6120   0.384   2.906  14.105  0.9146 -1.7459  0.5936
  406TMC3    H2 6121   0.218   2.512  14.128  0.5245  0.3739 -0.5298
  406TMC3    C7 6122   0.428   2.665  14.196  0.5328 -0.1363  0.1801
  406TMC3    C8 6123   4.712   2.608  14.191 -0.0485 -0.4377 -0.3845
  406TMC3    O1 6124   0.495   2.754  14.240  0.0766  0.1086 -0.3745
  406TMC3    O2 6125   4.597   2.647  14.178  0.1441 -0.3849 -0.0228
  407MPD2     C 6126   3.234   4.231   9.943 -0.7903 -0.0274 -0.6860
  407MPD2    C1 6127   3.339   4.304   9.984 -0.2682 -0.1393 -0.5066
  407MPD2    C2 6128   3.315   4.396  10.089  0.8658 -0.3185  0.3927
  407MPD2    C3 6129   3.193   4.418  10.152  0.0585  0.3733  0.1240
  407MPD2    C4 6130   3.089   4.352  10.097 -0.3590 -0.1753  0.1118
  407MPD2    C5 6131   3.111   4.266   9.995 -0.3275  0.9517 -0.6809
  407MPD2     H 6132   3.406   4.443  10.124  0.0316  2.6521 -1.4644
  407MPD2    H1 6133   2.992   4.352  10.146 -0.7710  2.5189 -0.7143
  407MPD2    H2 6134   3.236   4.145   9.877  0.4531 -0.8755  0.4649
  407MPD2    H3 6135   3.028   4.206   9.960 -0.4745  0.4910  0.4874
  407MPD2     N 6136   3.173   4.516  10.250  0.1320 -0.1530  0.1565
  407MPD2    H5 6137   3.077   4.542  10.271 -0.3283 -1.9942  0.3972
  407MPD2    N1 6138   3.474   4.297   9.941 -0.0400  0.0073  0.0790
  407MPD2    H7 6139   3.537   4.372   9.965 -1.6257  0.8809  1.5636
  408TMC3    C1 6140   3.667   4.217   9.833  1.0280 -0.0957 -0.1272
  408TMC3    C2 6141   3.744   4.110   9.811 -0.2598  0.3108 -0.5301
  408TMC3    C3 6142   3.882   4.129   9.812 -0.7236 -0.0541 -0.0396
  408TMC3    C4 6143   3.719   4.341   9.848  0.2494 -0.2621  0.1671
  408TMC3    C5 6144   3.855   4.364   9.841  0.3206  0.2549  0.9457
  408TMC3    C6 6145   3.941   4.255   9.833 -0.1453 -0.3546 -0.1808
  408TMC3     C 6146   3.527   4.201   9.856  0.3175 -0.0231 -0.4794
  408TMC3     O 6147   3.481   4.092   9.823  0.3497  0.1835  0.5827
  408TMC3     H 6148   3.703   4.010   9.811 -0.5261  0.4202 -0.8244
  408TMC3    H1 6149   3.652   4.422   9.876 -0.8733 -0.7858 -1.0284
  408TMC3    H2 6150   4.046   4.280   9.838 -0.4798  0.6234  1.7635
  408TMC3    C7 6151   3.914   4.494   9.845  0.6773  0.1013 -0.7721
  408TMC3    C8 6152   3.969   4.007   9.788  0.3912 -0.1489 -0.2609
  408TMC3    O1 6153   4.025   4.509   9.800 -0.6006  0.6108  0.4443
  408TMC3    O2 6154   3.919   3.900   9.769 -0.3769 -0.1756 -0.4559
  409MPD2     C 6155   1.937   0.377  17.109 -0.2621 -0.0860 -0.6767
  409MPD2    C1 6156   2.037   0.364  17.197  0.8963 -0.2495  0.3906
  409MPD2    C2 6157   2.137   0.458  17.192  0.3461  0.2164  0.0731
  409MPD2    C3 6158   2.130   0.563  17.103 -0.1002 -1.1177  0.5123
  409MPD2    C4 6159   2.028   0.575  17.018 -0.0122 -0.6750 -0.2339
  409MPD2    C5 6160   1.925   0.483  17.033 -0.3803  0.3010 -0.1551
  409MPD2     H 6161   2.216   0.442  17.264  1.6594 -2.2898 -1.9371
  409MPD2    H1 6162   2.009   0.657  16.950 -0.7260 -0.7980 -0.1796
  409MPD2    H2 6163   1.856   0.305  17.107 -1.1824  1.0260 -2.9282
  409MPD2    H3 6164   1.834   0.504  16.978  0.4096  0.7545 -1.2837
  409MPD2     N 6165   2.238   0.651  17.076 -0.1423 -0.4310 -0.5720
  409MPD2    H5 6166   2.230   0.719  17.002  0.3181  0.1428 -0.0949
  409MPD2    N1 6167   2.050   0.244  17.274  0.2915 -0.1621 -0.0263
  409MPD2    H7 6168   2.131   0.239  17.335 -0.8497 -2.9398  1.2492
  410TMC3    C1 6169   2.473   0.713  17.071  0.0395 -0.2990 -0.3071
  410TMC3    C2 6170   2.584   0.763  17.138  0.2428 -0.3539  0.2953
  410TMC3    C3 6171   2.687   0.814  17.068 -0.5792 -0.3201 -0.6032
  410TMC3    C4 6172   2.481   0.705  16.937  0.4269  1.0443  0.7594
  410TMC3    C5 6173   2.585   0.763  16.865  0.0547 -0.1601 -0.2595
  410TMC3    C6 6174   2.690   0.818  16.930  0.3620 -0.1401 -0.4765
  410TMC3     C 6175   2.360   0.650  17.145 -0.0154 -0.3407  0.1015
  410TMC3     O 6176   2.383   0.632  17.263 -0.4725  0.2931 -0.0544
  410TMC3     H 6177   2.579   0.773  17.246 -0.6647 -2.7462  0.4788
  410TMC3    H1 6178   2.400   0.663  16.878 -0.7781  0.5184  2.7660
  410TMC3    H2 6179   2.779   0.850  16.876 -0.5743  1.8290 -0.8280
  410TMC3    C7 6180   2.573   0.754  16.717  0.1565  0.5427 -0.1146
  410TMC3    C8 6181   2.813   0.824  17.130 -0.2939 -0.2606  0.9766
  410TMC3    O1 6182   2.461   0.721  16.681  0.5187 -0.3516  0.6300
  410TMC3    O2 6183   2.906   0.877  17.068 -0.3397  0.2156  0.2790
  411MPD2     C 6184   3.077   1.058  14.523  0.2457  0.0981  0.6041
  411MPD2    C1 6185   2.962   1.129  14.498  0.2695  0.4214  0.0109
  411MPD2    C2 6186   2.848   1.052  14.481 -0.4093 -0.0800 -0.8619
  411MPD2    C3 6187   2.850   0.920  14.483  0.4528  0.4705 -0.0740
  411MPD2    C4 6188   2.964   0.850  14.508  0.1076 -0.3304 -0.2990
  411MPD2    C5 6189   3.085   0.918  14.528 -0.0198  0.7992 -1.0366
  411MPD2     H 6190   2.748   1.093  14.486 -1.1616 -2.0598  0.1034
  411MPD2    H1 6191   2.963   0.743  14.524 -0.8766 -0.5961 -2.0936
  411MPD2    H2 6192   3.163   1.122  14.538  1.0546 -0.6291 -0.9385
  411MPD2    H3 6193   3.180   0.867  14.539 -0.7844 -0.3654  0.2402
  411MPD2     N 6194   2.732   0.846  14.482 -0.3206  1.2261  0.1619
  411MPD2    H5 6195   2.735   0.749  14.514  1.5791  1.2106 -0.0420
  411MPD2    N1 6196   2.941   1.270  14.510  0.1718  0.2146  0.2835
  411MPD2    H7 6197   2.845   1.296  14.489  0.3041  1.0757  0.7439
  412TMC3    C1 6198   2.509   0.786  14.437  0.2500  0.4863 -0.5059
  412TMC3    C2 6199   2.396   0.812  14.372  0.0732 -0.6980 -0.2209
  412TMC3    C3 6200   2.300   0.718  14.372  0.3833  0.6590  0.4353
  412TMC3    C4 6201   2.534   0.682  14.519 -0.1961  0.6794  0.2196
  412TMC3    C5 6202   2.433   0.594  14.517  0.2400  0.0828 -0.4523
  412TMC3    C6 6203   2.312   0.613  14.459  0.3647  0.2205  0.2064
  412TMC3     C 6204   2.613   0.891  14.431  0.5534  0.4636  0.5053
  412TMC3     O 6205   2.582   0.992  14.367 -0.3400  0.1189  0.0403
  412TMC3     H 6206   2.382   0.894  14.302 -0.0184 -1.0694 -0.6374
  412TMC3    H1 6207   2.625   0.658  14.574 -0.4944 -0.6768  0.1107
  412TMC3    H2 6208   2.232   0.541  14.470 -0.2283  1.1813  2.2019
  412TMC3    C7 6209   2.475   0.460  14.514  0.7936  0.2797  0.2086
  412TMC3    C8 6210   2.252   0.672  14.245 -0.2225  0.4635  0.4034
  412TMC3    O1 6211   2.577   0.444  14.576  0.2287 -0.1094  0.4698
  412TMC3    O2 6212   2.222   0.553  14.233 -0.3657 -0.4925  0.2631
  413MPD2     C 6213   4.404   4.312  15.722 -0.0052  0.5861 -0.9741
  413MPD2    C1 6214   4.390   4.291  15.590  0.4968  0.0703  0.0037
  413MPD2    C2 6215   4.465   4.193  15.531  0.5543 -0.0652 -0.1141
  413MPD2    C3 6216   4.547   4.113  15.603 -0.3664 -0.3039 -0.7120
  413MPD2    C4 6217   4.573   4.133  15.739  0.4960 -0.5572  0.6279
  413MPD2    C5 6218   4.496   4.236  15.795 -0.8692  0.1704 -0.0680
  413MPD2     H 6219   4.464   4.180  15.423 -0.3947  0.9452 -0.2284
  413MPD2    H1 6220   4.643   4.070  15.792 -1.2767 -1.5832  1.7403
  413MPD2    H2 6221   4.340   4.386  15.768  0.6443 -0.0343  0.9395
  413MPD2    H3 6222   4.501   4.249  15.903  0.7733 -0.3807 -0.0763
  413MPD2     N 6223   4.602   4.012  15.521  0.3473  0.2524 -0.3512
  413MPD2    H5 6224   4.586   4.021  15.421  3.0227  1.2486 -0.7189
  413MPD2    N1 6225   4.294   4.369  15.522  0.3720 -0.0966 -0.3182
  413MPD2    H7 6226   4.241   4.427  15.586 -0.1620 -1.0034  0.0498
  414TMC3    C1 6227   0.022   3.836  15.464 -0.3375  0.5122  0.2003
  414TMC3    C2 6228   0.101   3.734  15.511  0.2291  0.1667 -0.3267
  414TMC3    C3 6229   0.124   3.635  15.415 -0.3380 -0.6599  0.8140
  414TMC3    C4 6230   4.717   3.849  15.330 -0.1029 -0.2667  0.8350
  414TMC3    C5 6231   0.009   3.744  15.247 -1.2781  0.4449 -0.2651
  414TMC3    C6 6232   0.071   3.631  15.292  0.0844  0.2778  0.2067
  414TMC3     C 6233   4.700   3.923  15.569  0.0355 -0.2137 -0.1954
  414TMC3     O 6234   0.006   3.911  15.682  0.1378  0.2093  0.1368
  414TMC3     H 6235   0.154   3.741  15.605  1.3377  1.2051 -1.0349
  414TMC3    H1 6236   4.681   3.941  15.287 -0.4117 -0.3690  0.8771
  414TMC3    H2 6237   0.082   3.550  15.222 -0.0111  0.2852  0.1830
  414TMC3    C7 6238   4.675   3.743  15.118 -1.2522  0.0089 -0.2322
  414TMC3    C8 6239   0.229   3.536  15.432  0.0516  0.1346 -0.5329
  414TMC3    O1 6240   4.559   3.785  15.138  0.2658  0.2601  0.1949
  414TMC3    O2 6241   0.215   3.431  15.369 -0.7069 -0.1441 -0.2658
  415TMC3    C1 6242   0.771   1.587  10.347 -0.1814 -0.4644 -0.2001
  415TMC3    C2 6243   0.870   1.638  10.272  0.1461 -0.2832  0.1157
  415TMC3    C3 6244   0.868   1.653  10.137  0.1616 -0.2764 -0.3197
  415TMC3    C4 6245   0.665   1.535  10.284 -0.2276  0.4751  0.9960
  415TMC3    C5 6246   0.651   1.564  10.150 -0.9471 -0.3232 -0.1658
  415TMC3    C6 6247   0.753   1.620  10.076 -0.1003 -0.2770 -0.1484
  415TMC3     C 6248   0.776   1.559  10.493 -0.2517 -0.3441 -0.5178
  415TMC3     O 6249   0.675   1.525  10.552  0.2184  0.1780  0.5890
  415TMC3     H 6250   0.969   1.650  10.313 -0.3691  0.7706  1.0734
  415TMC3    H1 6251   0.580   1.508  10.346 -0.2906 -1.9775 -0.1609
  415TMC3    H2 6252   0.739   1.618   9.968  0.1321 -3.5686 -0.1224
  415TMC3    C7 6253   0.547   1.490  10.076 -0.3693  0.2420 -0.7043
  415TMC3    C8 6254   0.988   1.655  10.054  0.0129  0.0061  0.5618
  415TMC3    O1 6255   0.530   1.528   9.961  0.2669  0.0058  0.2278
  415TMC3    O2 6256   0.997   1.588   9.955  0.5035  0.2135 -0.0232
  416MPD2     C 6257   2.560   0.577  11.957 -0.7239  0.2740  0.2641
  416MPD2    C1 6258   2.482   0.589  11.845 -0.0640 -0.2297  0.5019
  416MPD2    C2 6259   2.520   0.518  11.734  0.4177 -0.1606  0.4753
  416MPD2    C3 6260   2.643   0.444  11.728  0.0388  0.0339  0.1315
  416MPD2    C4 6261   2.719   0.439  11.841 -0.8538 -0.3818 -0.0259
  416MPD2    C5 6262   2.674   0.493  11.958 -1.0556  0.9431  0.2546
  416MPD2     H 6263   2.453   0.516  11.648  0.0856 -3.6900  0.8193
  416MPD2    H1 6264   2.796   0.363  11.842  1.9060  2.3922  0.6412
  416MPD2    H2 6265   2.542   0.639  12.044 -2.5744  0.7420 -0.4628
  416MPD2    H3 6266   2.724   0.474  12.052  0.5127 -1.2831 -1.0331
  416MPD2     N 6267   2.677   0.361  11.617  0.5537 -0.0380 -0.3503
  416MPD2    H5 6268   2.757   0.303  11.638 -0.6489 -1.5274  0.1215
  416MPD2    N1 6269   2.363   0.670  11.849 -0.4473 -0.9757  0.1364
  416MPD2    H7 6270   2.340   0.707  11.941 -4.2813  0.2041 -1.3122
  417TMC3    C1 6271   2.154   0.741  11.783  0.1229 -0.2037 -0.0711
  417TMC3    C2 6272   2.094   0.719  11.911  0.2378 -0.3813  1.0975
  417TMC3    C3 6273   1.966   0.770  11.927 -0.4115  0.1515  0.7898
  417TMC3    C4 6274   2.082   0.794  11.684 -0.2354 -0.3162  0.1998
  417TMC3    C5 6275   1.956   0.854  11.707 -0.2994  0.3604  0.0713
  417TMC3    C6 6276   1.898   0.848  11.836  0.5001  0.7365 -0.0971
  417TMC3     C 6277   2.285   0.697  11.740 -0.4821 -0.0606  0.7359
  417TMC3     O 6278   2.315   0.687  11.623  0.7506  0.3810  0.5486
  417TMC3     H 6279   2.142   0.653  11.983  0.4576 -2.2159 -0.7191
  417TMC3    H1 6280   2.136   0.815  11.592  0.6031  0.6621  0.9166
  417TMC3    H2 6281   1.804   0.899  11.853 -0.8202 -2.1569  1.2479
  417TMC3    C7 6282   1.926   0.982  11.647 -0.0601 -0.3111  0.8700
  417TMC3    C8 6283   1.913   0.774  12.063  0.0242  0.9938 -0.7649
  417TMC3    O1 6284   2.023   1.040  11.600  0.1584  0.1354 -0.3332
  417TMC3    O2 6285   1.822   0.857  12.075  0.6160 -0.5143 -0.0980
  418TMC3    C1 6286   0.788   2.812   0.294  0.0183  0.5308 -0.3090
  418TMC3    C2 6287   0.677   2.875   0.235 -0.0930 -0.1246 -0.2660
  418TMC3    C3 6288   0.557   2.870   0.306 -0.1226  0.1345 -0.0317
  418TMC3    C4 6289   0.786   2.756   0.419  0.2695  0.1758 -0.1713
  418TMC3    C5 6290   0.667   2.753   0.473 -0.0521  0.0145 -0.0986
  418TMC3    C6 6291   0.550   2.809   0.428 -0.2235 -0.0067  0.5904
  418TMC3     C 6292   0.910   2.812   0.214  0.3901 -0.5501 -0.4457
  418TMC3     O 6293   0.912   2.852   0.095 -0.0620 -0.0855  0.1289
  418TMC3     H 6294   0.690   2.918   0.137  0.6346  3.9342  1.5926
  418TMC3    H1 6295   0.862   2.691   0.460 -0.7560 -0.7029  0.3499
  418TMC3    H2 6296   0.461   2.799   0.490 -0.2257  0.6287  0.6862
  418TMC3    C7 6297   0.638   2.657   0.571 -0.3985  0.1232 -0.1748
  418TMC3    C8 6298   0.434   2.893   0.230  0.1610 -0.9890 -0.5676
  418TMC3    O1 6299   0.612   2.549   0.523 -0.1669  0.0837  0.3207
  418TMC3    O2 6300   0.429   2.988   0.151  0.1320 -0.1451 -0.1054
  419MPD2     C 6301   4.542   0.541  12.732 -0.6937 -0.2971 -0.6338
  419MPD2    C1 6302   4.487   0.649  12.663 -0.0329 -0.6156  0.3881
  419MPD2    C2 6303   4.433   0.751  12.734 -0.3803 -0.3678 -0.1639
  419MPD2    C3 6304   4.419   0.749  12.868  0.1751  0.8838  0.2349
  419MPD2    C4 6305   4.470   0.641  12.939 -0.1107 -0.7540  0.5385
  419MPD2    C5 6306   4.530   0.530  12.871  0.2959  0.7019 -0.4211
  419MPD2     H 6307   4.386   0.834  12.682  0.3814  0.1797  0.0297
  419MPD2    H1 6308   4.458   0.636  13.046 -1.6714  1.1947  0.4402
  419MPD2    H2 6309   4.570   0.452  12.676  1.0979 -0.9374  1.2870
  419MPD2    H3 6310   4.568   0.441  12.919  0.9171 -0.4723 -3.0764
  419MPD2     N 6311   4.347   0.859  12.922  0.2761  0.0483 -0.1849
  419MPD2    H5 6312   4.325   0.938  12.862 -1.3347  0.0916  0.4689
  419MPD2    N1 6313   4.500   0.655  12.522  0.6051  0.3522  0.0945
  419MPD2    H7 6314   4.466   0.741  12.480  1.0443  0.7071  0.4688
  420TMC3    C1 6315   4.272   1.007  13.090  0.2736 -0.1280  0.1172
  420TMC3    C2 6316   4.161   1.050  13.011 -0.3116  0.2626 -0.0353
  420TMC3    C3 6317   4.120   1.179  13.035  0.2827 -0.1820  0.5502
  420TMC3    C4 6318   4.326   1.088  13.191  0.4762 -0.5697 -0.3325
  420TMC3    C5 6319   4.276   1.205  13.207  0.5645 -0.2919  0.3505
  420TMC3    C6 6320   4.179   1.255  13.136  0.0799  0.5008 -0.0539
  420TMC3     C 6321   4.349   0.885  13.060 -0.1576  0.6619  0.0770
  420TMC3     O 6322   4.410   0.831  13.149 -0.1424  0.5043  0.1256
  420TMC3     H 6323   4.131   0.990  12.925  0.9753 -1.9504  1.0373
  420TMC3    H1 6324   4.426   1.070  13.231  0.1087  0.8826  1.2171
  420TMC3    H2 6325   4.138   1.354  13.149  1.1965  1.1431 -1.4948
  420TMC3    C7 6326   4.325   1.283  13.323 -0.2050 -0.5312  0.5339
  420TMC3    C8 6327   4.005   1.225  12.966 -0.1779 -0.6326  0.1720
  420TMC3    O1 6328   4.295   1.403  13.323 -0.7752 -0.2243 -0.0764
  420TMC3    O2 6329   3.997   1.346  12.944  0.1291 -0.5021 -0.0452
  421TMC3    C1 6330   1.248   2.112  13.718  0.7663  0.0104 -0.1500
  421TMC3    C2 6331   1.170   2.220  13.738 -0.0831 -0.0908 -0.0830
  421TMC3    C3 6332   1.227   2.329  13.804 -0.4404  0.2960 -0.0649
  421TMC3    C4 6333   1.376   2.102  13.757 -0.0649  1.1470 -0.0383
  421TMC3    C5 6334   1.431   2.222  13.805 -0.0294  0.2020  0.1601
  421TMC3    C6 6335   1.360   2.334  13.829 -0.1041  0.1577  0.6243
  421TMC3     C 6336   1.209   2.011  13.622  0.0911  0.1893  0.5559
  421TMC3     O 6337   1.286   1.920  13.595  0.0567 -0.2899 -0.2342
  421TMC3     H 6338   1.066   2.223  13.708 -0.1604 -0.4391  0.1496
  421TMC3    H1 6339   1.434   2.011  13.750 -0.1698  1.0976 -0.2783
  421TMC3    H2 6340   1.412   2.423  13.861  0.8298 -0.1604 -0.0028
  421TMC3    C7 6341   1.571   2.227  13.851 -0.5762  0.0927  0.3306
  421TMC3    C8 6342   1.155   2.452  13.843  0.3724 -0.0852  0.1700
  421TMC3    O1 6343   1.603   2.321  13.924 -0.8986 -0.2501  0.0205
  421TMC3    O2 6344   1.221   2.557  13.834  0.4677  0.1608 -0.0113
  422TMC3    C1 6345   3.151   3.536  12.953  0.3544 -0.1698  0.6140
  422TMC3    C2 6346   3.131   3.667  12.976 -0.4144 -0.0705  0.2073
  422TMC3    C3 6347   3.051   3.711  13.082  0.0312  0.7066  0.9376
  422TMC3    C4 6348   3.097   3.447  13.044 -0.0225 -0.7448  0.3806
  422TMC3    C5 6349   3.023   3.485  13.151 -0.3037  0.7297  0.3762
  422TMC3    C6 6350   2.990   3.619  13.168 -0.3882  0.5147 -0.1737
  422TMC3     C 6351   3.179   3.485  12.823 -0.0829 -0.3717  0.5299
  422TMC3     O 6352   3.179   3.563  12.730 -0.6925 -0.0551 -0.3856
  422TMC3     H 6353   3.175   3.743  12.912  2.1149 -0.5885  1.3521
  422TMC3    H1 6354   3.089   3.340  13.028 -2.4835 -0.3768 -0.8978
  422TMC3    H2 6355   2.926   3.652  13.249  0.0414  1.2712 -0.1397
  422TMC3    C7 6356   2.918   3.385  13.185  0.6597 -0.2903 -0.0683
  422TMC3    C8 6357   3.041   3.852  13.096 -0.4521 -0.2347  0.3737
  422TMC3    O1 6358   2.942   3.264  13.177 -0.1995  0.5218 -0.4677
  422TMC3    O2 6359   3.143   3.915  13.059  0.1560  0.0265  0.1072
  423MPD2     C 6360   4.208   0.154   0.735  0.0780  0.0468 -0.7588
  423MPD2    C1 6361   4.219   0.018   0.774 -1.1812  0.4008 -0.3562
  423MPD2    C2 6362   4.250   4.673   0.670  0.1796  0.1436 -0.9508
  423MPD2    C3 6363   4.279   4.712   0.539  0.1696  0.1184 -0.4620
  423MPD2    C4 6364   4.277   0.107   0.506 -0.5598 -0.1020  0.6250
  423MPD2    C5 6365   4.237   0.194   0.604  0.0956 -0.0891  0.0626
  423MPD2     H 6366   4.261   4.567   0.692 -1.3824 -0.4998 -3.2658
  423MPD2    H1 6367   4.285   0.145   0.405 -0.0729 -0.8175  0.3988
  423MPD2    H2 6368   4.172   0.226   0.809  0.1618 -0.9949  0.2842
  423MPD2    H3 6369   4.219   0.299   0.584 -3.9946 -0.3125  2.4405
  423MPD2     N 6370   4.296   4.623   0.428 -0.3942 -0.1465 -0.2825
  423MPD2    H5 6371   4.319   4.673   0.342 -1.2640 -2.1209 -1.6679
  423MPD2    N1 6372   4.189   4.701   0.902  0.4521  0.2487 -0.1135
  423MPD2    H7 6373   4.204   4.602   0.919 -0.8276  0.1081  0.2119
  424TMC3    C1 6374   4.116   4.716   1.136  0.2940 -0.0065 -0.6606
  424TMC3    C2 6375   4.230   4.658   1.187 -0.4839  1.0005  0.0463
  424TMC3    C3 6376   4.218   4.631   1.327 -0.4425  0.6149 -0.4657
  424TMC3    C4 6377   4.006   0.001   1.204 -0.3208 -0.4259  0.6081
  424TMC3    C5 6378   3.996   4.713   1.336 -0.4723 -0.2112  0.6218
  424TMC3    C6 6379   4.100   4.657   1.399  0.3230  0.2324  0.2360
  424TMC3     C 6380   4.126   0.039   1.001  0.3327  0.1936 -0.7391
  424TMC3     O 6381   4.071   0.149   0.990  0.2201  0.9809  0.1490
  424TMC3     H 6382   4.323   4.654   1.132 -1.4471 -1.1975 -1.3862
  424TMC3    H1 6383   3.926   0.044   1.144 -0.1552 -0.8380  0.0899
  424TMC3    H2 6384   4.095   4.640   1.506  0.5758  0.2054  0.2426
  424TMC3    C7 6385   3.868   4.712   1.405  0.3858  0.1374 -0.3749
  424TMC3    C8 6386   4.322   4.566   1.394 -0.4909  0.1879  0.2055
  424TMC3    O1 6387   3.883   4.681   1.522  0.7185 -0.9972 -0.1446
  424TMC3    O2 6388   4.313   4.553   1.515 -0.9694 -0.2206 -0.1850
  425MPD2     C 6389   3.127   3.980  17.187  0.1191 -0.7664  0.3371
  425MPD2    C1 6390   3.064   3.863  17.221  0.0164 -0.0931  0.3656
  425MPD2    C2 6391   2.928   3.858  17.231  0.2202 -0.2831  0.3890
  425MPD2    C3 6392   2.856   3.975  17.202 -0.0552 -0.4025  0.0619
  425MPD2    C4 6393   2.919   4.096  17.180 -0.3055 -0.3472 -0.1055
  425MPD2    C5 6394   3.056   4.092  17.164  0.6101 -0.0944 -0.9380
  425MPD2     H 6395   2.876   3.763  17.238 -1.6072  0.6334 -0.6061
  425MPD2    H1 6396   2.870   4.189  17.153  4.0082  2.4804  1.8725
  425MPD2    H2 6397   3.235   3.989  17.180 -0.0677  1.3436  0.4007
  425MPD2    H3 6398   3.104   4.188  17.152 -1.0284  0.7657 -0.6289
  425MPD2     N 6399   2.719   3.957  17.197 -0.0467  0.9106 -0.3035
  425MPD2    H5 6400   2.678   3.867  17.217 -0.2881  0.9435 -0.6727
  425MPD2    N1 6401   3.152   3.755  17.243 -0.4345 -0.1212 -0.0451
  425MPD2    H7 6402   3.245   3.780  17.211  0.4979 -1.9978  1.2149
  426TMC3    C1 6403   3.203   3.537  17.243 -0.4735 -0.3686 -0.1783
  426TMC3    C2 6404   3.287   3.563  17.141 -0.1176  0.6904 -0.3130
  426TMC3    C3 6405   3.356   3.456  17.095  0.7171 -0.0286 -0.0619
  426TMC3    C4 6406   3.186   3.415  17.296  0.3000  0.2265 -0.0756
  426TMC3    C5 6407   3.256   3.310  17.250  0.5366 -0.0969 -0.5196
  426TMC3    C6 6408   3.335   3.328  17.142  0.6910 -0.5239  0.3165
  426TMC3     C 6409   3.112   3.634  17.290  0.5652 -0.6210 -0.0337
  426TMC3     O 6410   3.019   3.603  17.358  0.4166 -0.5873  0.0665
  426TMC3     H 6411   3.289   3.648  17.075  1.9826  0.3602 -0.6694
  426TMC3    H1 6412   3.107   3.401  17.369  0.1678  1.6945  0.0693
  426TMC3    H2 6413   3.388   3.244  17.098 -0.5105  0.6563 -3.3214
  426TMC3    C7 6414   3.216   3.172  17.276 -0.3458 -0.1662 -0.2982
  426TMC3    C8 6415   3.375   3.446  16.954 -0.2994 -1.2467  0.4675
  426TMC3    O1 6416   3.239   3.097  17.181 -0.5861 -0.0336  0.0461
  426TMC3    O2 6417   3.492   3.430  16.919 -0.0767  0.3753  0.2450
  427MPD2     C 6418   1.738   0.823  15.064 -0.0061  0.4450  0.2433
  427MPD2    C1 6419   1.830   0.918  15.052  0.2938  0.6609  0.2698
  427MPD2    C2 6420   1.800   1.037  14.994 -0.1613  0.2963 -0.0028
  427MPD2    C3 6421   1.673   1.064  14.954  0.3337  0.8073  0.4343
  427MPD2    C4 6422   1.578   0.964  14.949 -0.2346 -0.1092 -0.4258
  427MPD2    C5 6423   1.617   0.842  15.011  0.4711 -0.1969 -0.2898
  427MPD2     H 6424   1.880   1.110  14.999 -0.5395  0.7605 -0.7078
  427MPD2    H1 6425   1.476   0.974  14.912 -1.0599  0.4658  1.9891
  427MPD2    H2 6426   1.765   0.731  15.114 -3.3776 -0.4668  0.3491
  427MPD2    H3 6427   1.540   0.765  15.009 -1.1648  1.4465 -0.4252
  427MPD2     N 6428   1.642   1.189  14.894 -0.0979  0.1027  0.0005
  427MPD2    H5 6429   1.550   1.200  14.853 -0.3632  0.3478  0.6624
  427MPD2    N1 6430   1.955   0.889  15.110  1.2267 -0.3946 -0.6621
  427MPD2    H7 6431   1.966   0.795  15.147  1.0116 -0.9152 -1.9132
  428TMC3    C1 6432   2.188   0.902  15.170 -0.6197  0.4024 -0.1307
  428TMC3    C2 6433   2.170   0.795  15.258 -0.1227  0.6139 -0.0608
  428TMC3    C3 6434   2.275   0.762  15.341 -0.4724 -0.5699 -0.1619
  428TMC3    C4 6435   2.309   0.969  15.151 -0.2643 -0.1695 -0.4474
  428TMC3    C5 6436   2.414   0.916  15.229  0.2435 -0.0538 -0.3548
  428TMC3    C6 6437   2.398   0.815  15.324  0.2662  0.4181  0.2992
  428TMC3     C 6438   2.072   0.965  15.107  0.0112 -0.8704  0.1531
  428TMC3     O 6439   2.085   1.079  15.064 -0.2483 -0.6488  0.1948
  428TMC3     H 6440   2.076   0.742  15.263  0.1958 -0.0240 -0.8571
  428TMC3    H1 6441   2.316   1.064  15.099  2.0792  0.4888  1.0244
  428TMC3    H2 6442   2.478   0.787  15.391 -1.0691  0.7466  2.0358
  428TMC3    C7 6443   2.539   0.984  15.236  0.2560  0.6259  0.4107
  428TMC3    C8 6444   2.265   0.694  15.465 -0.5674  0.2286 -0.3319
  428TMC3    O1 6445   2.618   0.930  15.308  0.0483 -0.1037  0.1833
  428TMC3    O2 6446   2.369   0.650  15.507 -0.6419  0.4058  0.0058
  429MPD2     C 6447   2.691   1.222  17.342 -0.2427  0.1183  0.6026
  429MPD2    C1 6448   2.801   1.152  17.371  0.4546 -0.0055  0.6369
  429MPD2    C2 6449   2.914   1.174  17.295 -0.4103 -0.3597 -0.1274
  429MPD2    C3 6450   2.920   1.279  17.203  0.6418 -0.5044  0.6302
  429MPD2    C4 6451   2.812   1.357  17.192 -0.2412 -0.0077 -0.0746
  429MPD2    C5 6452   2.702   1.326  17.262 -0.3384  0.0684 -0.1864
  429MPD2     H 6453   2.998   1.106  17.300 -1.1857 -1.2617  0.5265
  429MPD2    H1 6454   2.809   1.439  17.121  2.6796  1.4117  1.4455
  429MPD2    H2 6455   2.595   1.203  17.389  0.1875 -2.6464  0.3734
  429MPD2    H3 6456   2.610   1.381  17.246 -0.4831 -0.0491  0.2678
  429MPD2     N 6457   3.041   1.284  17.124  0.1473  0.2778 -0.0533
  429MPD2    H5 6458   3.106   1.207  17.141 -2.5981 -1.5498  2.0783
  429MPD2    N1 6459   2.810   1.048  17.465  0.5019 -0.2599 -0.3883
  429MPD2    H7 6460   2.904   1.020  17.487 -0.0456 -2.9522 -1.4501
  430TMC3    C1 6461   3.187   1.347  16.952 -0.2609  0.3495  0.1366
  430TMC3    C2 6462   3.235   1.449  16.874 -0.6652 -0.1393  0.3648
  430TMC3    C3 6463   3.333   1.424  16.780 -0.5901  0.1429  0.5339
  430TMC3    C4 6464   3.223   1.221  16.937  0.6219  0.5565 -0.1983
  430TMC3    C5 6465   3.319   1.200  16.841 -0.6169  0.3143  0.1606
  430TMC3    C6 6466   3.375   1.301  16.762 -0.2095  1.0626 -0.3322
  430TMC3     C 6467   3.075   1.384  17.033  0.8547 -0.1389 -0.6989
  430TMC3     O 6468   3.013   1.488  17.016  0.0685 -0.5979 -0.2177
  430TMC3     H 6469   3.201   1.551  16.886 -0.9726 -0.1723 -0.2113
  430TMC3    H1 6470   3.178   1.146  17.001  2.9629  0.3200  1.1662
  430TMC3    H2 6471   3.445   1.275  16.684 -0.0406 -0.3953  0.3104
  430TMC3    C7 6472   3.400   1.075  16.861  0.1028  0.0758  0.7057
  430TMC3    C8 6473   3.322   1.503  16.657 -0.9551 -0.3008  0.6937
  430TMC3    O1 6474   3.523   1.084  16.839  0.3828  0.7324  0.4056
  430TMC3    O2 6475   3.223   1.571  16.651  0.5872  0.4289 -0.2736
  431MPD2     C 6476   4.108   1.140  12.620 -0.3255  0.3874 -0.5221
  431MPD2    C1 6477   4.194   1.154  12.505  0.0674  0.5879 -0.4863
  431MPD2    C2 6478   4.206   1.047  12.419 -0.3185 -0.2078  0.8176
  431MPD2    C3 6479   4.166   0.915  12.446 -0.4286 -0.2445 -0.1147
  431MPD2    C4 6480   4.088   0.911  12.560  0.1147  0.0510  0.1749
  431MPD2    C5 6481   4.059   1.017  12.640  0.2413 -1.1320  0.7872
  431MPD2     H 6482   4.257   1.062  12.325 -0.0822 -0.7476  0.8609
  431MPD2    H1 6483   4.049   0.816  12.593 -3.0903  0.4815 -2.2922
  431MPD2    H2 6484   4.080   1.222  12.685 -0.2059 -0.8943  1.1381
  431MPD2    H3 6485   3.987   0.993  12.717  0.2143  1.8419  1.7018
  431MPD2     N 6486   4.178   0.799  12.363  0.0370 -0.0770 -0.1259
  431MPD2    H5 6487   4.130   0.716  12.394 -2.1352  1.4070  0.4824
  431MPD2    N1 6488   4.258   1.274  12.473  0.2736  0.0231 -0.3128
  431MPD2    H7 6489   4.293   1.283  12.378 -1.1531  0.6049 -0.7971
  432TMC3    C1 6490   4.297   0.667  12.204 -0.1037  0.9801  0.4467
  432TMC3    C2 6491   4.366   0.681  12.082 -0.4062  0.0807 -0.1851
  432TMC3    C3 6492   4.491   0.618  12.071  0.9995 -0.1722 -0.0505
  432TMC3    C4 6493   4.344   0.606  12.315  0.0192  0.1747 -0.8976
  432TMC3    C5 6494   4.474   0.569  12.307  0.2774  0.2752 -0.4614
  432TMC3    C6 6495   4.549   0.581  12.193  0.2348 -0.7448  0.1415
  432TMC3     C 6496   4.241   0.799  12.243 -0.0067  0.6173  0.7730
  432TMC3     O 6497   4.284   0.890  12.175  0.2619 -0.6313  0.5228
  432TMC3     H 6498   4.325   0.726  11.993  0.4478 -0.0634 -0.6472
  432TMC3    H1 6499   4.294   0.589  12.409 -1.0552 -1.4486 -1.7565
  432TMC3    H2 6500   4.640   0.523  12.200  0.7691  0.0841 -0.0088
  432TMC3    C7 6501   4.542   0.551  12.435  0.1314 -0.0055  0.5226
  432TMC3    C8 6502   4.585   0.657  11.965 -0.4769 -0.1518  0.1557
  432TMC3    O1 6503   4.589   0.439  12.455  0.3301 -0.4695  0.1740
  432TMC3    O2 6504   4.543   0.687  11.852 -0.2709  0.4208 -0.0419
  433MPD2     C 6505   3.254   4.603  10.988 -1.0697 -0.7191  0.2076
  433MPD2    C1 6506   3.212   4.478  11.036  0.1842  0.3589  0.5995
  433MPD2    C2 6507   3.256   4.442  11.161  0.1590 -0.0267  0.4361
  433MPD2    C3 6508   3.341   4.521  11.237  0.7779  0.1494 -0.2435
  433MPD2    C4 6509   3.383   4.639  11.185  0.0781  0.3452  0.4901
  433MPD2    C5 6510   3.341   4.683  11.061 -0.2545 -0.2551 -0.1072
  433MPD2     H 6511   3.239   4.342  11.197  1.0088 -0.4695 -0.3692
  433MPD2    H1 6512   3.450   4.708  11.236  1.6509 -0.5229 -0.3922
  433MPD2    H2 6513   3.212   4.649  10.899  1.6152 -0.9661 -1.2240
  433MPD2    H3 6514   3.365   0.041  11.020  1.1210  0.7246  3.0394
  433MPD2     N 6515   3.383   4.473  11.370  0.1184 -0.3510  0.0992
  433MPD2    H5 6516   3.350   4.380  11.393 -0.4714 -0.1060  0.2216
  433MPD2    N1 6517   3.130   4.407  10.951 -0.3370  0.3014  0.1739
  433MPD2    H7 6518   3.116   4.448  10.859  0.2774  0.7545  0.2859
  434TMC3    C1 6519   3.065   4.218  10.843 -0.0796 -0.3915  0.6748
  434TMC3    C2 6520   3.168   4.133  10.810  0.3317  0.1798  0.7479
  434TMC3    C3 6521   3.142   4.004  10.775 -0.8477 -0.0269 -0.2856
  434TMC3    C4 6522   2.937   4.165  10.837 -0.3782 -0.0029 -0.3207
  434TMC3    C5 6523   2.915   4.039  10.787  0.3390  0.5014  0.0868
  434TMC3    C6 6524   3.018   3.953  10.766  0.8365 -0.1602 -0.3767
  434TMC3     C 6525   3.091   4.281  10.966 -0.3760  0.1280 -0.2047
  434TMC3     O 6526   3.105   4.209  11.058  0.4166 -0.5088  0.7354
  434TMC3     H 6527   3.269   4.173  10.814  0.3088  0.2302  0.8071
  434TMC3    H1 6528   2.845   4.217  10.859 -0.1965 -0.1533  0.7977
  434TMC3    H2 6529   3.003   3.863  10.708 -0.6206 -0.5789  0.6505
  434TMC3    C7 6530   2.785   3.978  10.783 -0.2108 -0.4743 -0.0987
  434TMC3    C8 6531   3.238   3.907  10.811 -0.2728 -1.3207 -0.1897
  434TMC3    O1 6532   2.685   4.025  10.725  0.5377 -0.0901  0.3764
  434TMC3    O2 6533   3.197   3.795  10.831  0.5628 -0.0486 -0.0975
  435MPD2     C 6534   0.424   0.221  15.585  0.3353 -0.6579  0.0971
  435MPD2    C1 6535   0.363   0.194  15.707  0.5486 -0.6763 -0.3415
  435MPD2    C2 6536   0.422   0.123  15.808  0.3890 -0.1971 -0.5315
  435MPD2    C3 6537   0.543   0.066  15.791  0.0509 -0.5900 -0.0069
  435MPD2    C4 6538   0.599   0.073  15.667 -0.6477  0.7258 -0.1479
  435MPD2    C5 6539   0.543   0.152  15.567  0.6481  0.3512 -0.0552
  435MPD2     H 6540   0.374   0.103  15.902  1.8300 -0.9219  0.0567
  435MPD2    H1 6541   0.698   0.032  15.648  0.5171  2.4591  2.2921
  435MPD2    H2 6542   0.391   0.291  15.509  1.0347  0.1691  0.5560
  435MPD2    H3 6543   0.590   0.159  15.470  0.5430  0.5559 -0.0913
  435MPD2     N 6544   0.603   4.730  15.897  0.2195 -0.8499 -0.1634
  435MPD2    H5 6545   0.545   4.711  15.978  0.4562 -1.1405 -0.0614
  435MPD2    N1 6546   0.230   0.226  15.732  0.5569  0.0341 -0.0791
  435MPD2    H7 6547   0.185   0.197  15.819  0.0017 -2.1424 -1.0823
  436TMC3    C1 6548   4.617   0.469  15.835 -0.7638  0.3020 -0.4835
  436TMC3    C2 6549   4.713   0.447  15.736 -0.5231  0.5750  0.1788
  436TMC3    C3 6550   0.021   0.321  15.721  0.6243 -0.2498  0.0470
  436TMC3    C4 6551   4.548   0.363  15.896  0.1237 -0.1441 -0.6809
  436TMC3    C5 6552   4.595   0.236  15.869 -0.5509  0.5772  0.1257
  436TMC3    C6 6553   4.704   0.217  15.791  0.2115 -0.0597  0.2006
  436TMC3     C 6554   4.633   0.599  15.902 -0.6538 -0.1527  0.1715
  436TMC3     O 6555   4.697   0.685  15.844  0.2690  0.2626 -0.2275
  436TMC3     H 6556   0.027   0.531  15.692 -1.0843  0.3085 -1.0180
  436TMC3    H1 6557   4.451   0.385  15.940  0.3800 -0.2090 -0.0931
  436TMC3    H2 6558   0.002   0.117  15.766 -1.9537  0.0534 -3.5258
  436TMC3    C7 6559   4.538   0.121  15.940 -0.5641 -0.0680 -0.2789
  436TMC3    C8 6560   0.152   0.302  15.655 -0.4293  0.6287 -0.4736
  436TMC3    O1 6561   4.597   0.014  15.921  0.3091 -0.8349  0.3996
  436TMC3    O2 6562   0.193   0.390  15.580  0.2466  0.4214 -0.8633
  437TMC3    C1 6563   4.009   1.828  12.034  0.0629  0.7690 -0.6625
  437TMC3    C2 6564   3.932   1.780  11.939  0.3755 -0.7526 -0.7383
  437TMC3    C3 6565   3.980   1.787  11.809 -0.0381 -0.0197  0.1035
  437TMC3    C4 6566   4.135   1.895  12.015  0.2236 -0.2274 -0.4694
  437TMC3    C5 6567   4.184   1.902  11.886  0.6929  0.2716  0.2487
  437TMC3    C6 6568   4.108   1.848  11.785  0.4640 -0.0452 -0.0553
  437TMC3     C 6569   3.993   1.778  12.169 -0.3895  0.6132 -0.4946
  437TMC3     O 6570   3.988   1.857  12.261  0.0104  0.5690  0.3221
  437TMC3     H 6571   3.843   1.721  11.957  0.4412  0.0036  1.9833
  437TMC3    H1 6572   4.191   1.929  12.102  0.2248 -1.2386 -0.0754
  437TMC3    H2 6573   4.151   1.850  11.686 -0.2811  1.8644 -0.3366
  437TMC3    C7 6574   4.328   1.917  11.859 -0.1572 -0.0414  0.5083
  437TMC3    C8 6575   3.910   1.715  11.703 -0.0137  0.0531  0.4875
  437TMC3    O1 6576   4.365   1.914  11.744 -0.3664  0.1212  0.0023
  437TMC3    O2 6577   3.829   1.633  11.741 -0.5397 -0.6479 -0.3828
  438MPD2     C 6578   1.112   2.611  16.799  0.0048 -0.5115 -0.0999
  438MPD2    C1 6579   1.212   2.538  16.862  0.4403  0.1105 -0.5150
  438MPD2    C2 6580   1.241   2.551  17.000 -0.2611 -0.0864  0.1779
  438MPD2    C3 6581   1.154   2.630  17.074  0.7326 -0.0522  0.3226
  438MPD2    C4 6582   1.056   2.706  17.017 -0.0590  0.5642  0.6439
  438MPD2    C5 6583   1.034   2.689  16.882  0.9432 -0.4231  0.1435
  438MPD2     H 6584   1.318   2.489  17.045  0.3663  1.1224  0.7534
  438MPD2    H1 6585   0.983   2.764  17.072 -1.2009 -1.3411  1.1278
  438MPD2    H2 6586   1.088   2.618  16.693  1.5882  0.6861 -0.3854
  438MPD2    H3 6587   0.969   2.748  16.818 -0.5642 -0.6771  1.4289
  438MPD2     N 6588   1.151   2.654  17.211 -0.0853 -0.1327  0.0591
  438MPD2    H5 6589   1.087   2.724  17.248  0.2950 -0.8414  2.0430
  438MPD2    N1 6590   1.309   2.462  16.787 -0.1638 -0.2511 -0.0770
  438MPD2    H7 6591   1.387   2.420  16.838 -0.3725  0.6763  1.0012
  439TMC3    C1 6592   1.389   2.349  16.590  0.1584 -0.4590 -0.4898
  439TMC3    C2 6593   1.400   2.359  16.452 -0.0650  0.1958 -0.5873
  439TMC3    C3 6594   1.493   2.280  16.395  0.0483 -0.8479  0.1894
  439TMC3    C4 6595   1.465   2.276  16.673 -0.0905 -0.3153  0.1612
  439TMC3    C5 6596   1.555   2.196  16.611 -0.4994 -0.1590 -0.4864
  439TMC3    C6 6597   1.577   2.202  16.478 -0.4901  0.2542  0.6977
  439TMC3     C 6598   1.300   2.441  16.652 -1.1146 -0.2925  0.2834
  439TMC3     O 6599   1.221   2.497  16.578  0.1580 -0.2368 -0.2077
  439TMC3     H 6600   1.342   2.424  16.388  1.2187  1.7946 -0.1058
  439TMC3    H1 6601   1.452   2.276  16.781 -2.2152  3.2952 -0.1019
  439TMC3    H2 6602   1.657   2.145  16.433 -1.5412  0.0720 -0.9182
  439TMC3    C7 6603   1.652   2.120  16.676  0.3575 -0.5893  0.8195
  439TMC3    C8 6604   1.538   2.314  16.264  0.3276 -0.3258  0.0997
  439TMC3    O1 6605   1.754   2.083  16.617  0.2550  0.1053 -0.0997
  439TMC3    O2 6606   1.647   2.270  16.238 -0.1809  0.3399 -0.6667
  440MPD2     C 6607   0.030   3.202  14.893  0.5494  0.8122  0.6096
  440MPD2    C1 6608   0.089   3.253  15.008  0.4983 -0.1020 -0.2109
  440MPD2    C2 6609   0.226   3.245  15.019  0.5848  1.2433  0.2681
  440MPD2    C3 6610   0.300   3.200  14.911 -0.5262 -0.3194 -0.1256
  440MPD2    C4 6611   0.235   3.153  14.798 -0.8833 -0.9543 -0.0532
  440MPD2    C5 6612   0.097   3.143  14.796 -0.3603  0.4599 -0.6512
  440MPD2     H 6613   0.278   3.290  15.102  0.0324  2.8798 -0.2813
  440MPD2    H1 6614   0.293   3.101  14.722 -0.2768 -1.3691  0.6900
  440MPD2    H2 6615   4.662   3.185  14.893  0.4875  1.1601  1.4340
  440MPD2    H3 6616   0.038   3.098  14.717 -2.0670 -3.0946  2.6984
  440MPD2     N 6617   0.433   3.190  14.907 -0.3483 -0.2611  0.0159
  440MPD2    H5 6618   0.479   3.146  14.828 -0.7112 -0.1121 -0.2756
  440MPD2    N1 6619   0.014   3.298  15.119  0.5209 -0.4704  0.0134
  440MPD2    H7 6620   0.058   3.301  15.211 -0.7073 -1.3826  0.6366
  441TMC3    C1 6621   0.658   3.200  14.995 -0.4476  0.3130  0.1514
  441TMC3    C2 6622   0.748   3.285  15.066 -0.1451  0.2684 -0.6721
  441TMC3    C3 6623   0.828   3.231  15.160  0.2827 -0.1373 -0.7471
  441TMC3    C4 6624   0.674   3.063  15.016  0.3173  0.1987  0.6786
  441TMC3    C5 6625   0.758   3.015  15.117 -0.2454  0.1309  0.1159
  441TMC3    C6 6626   0.848   3.100  15.174 -0.5190 -0.3618 -0.0863
  441TMC3     C 6627   0.522   3.246  14.998 -0.4751  0.4447  0.1789
  441TMC3     O 6628   0.494   3.324  15.084 -0.3059 -0.5071  0.0447
  441TMC3     H 6629   0.732   3.392  15.058 -1.1688 -0.0221 -2.6894
  441TMC3    H1 6630   0.602   2.995  14.972 -0.0370  3.3354 -3.6572
  441TMC3    H2 6631   0.897   3.067  15.265  1.7238 -0.9465 -1.4982
  441TMC3    C7 6632   0.723   2.894  15.197  0.1084 -0.1764  0.1063
  441TMC3    C8 6633   0.815   3.283  15.286  0.1836 -0.6070  0.1847
  441TMC3    O1 6634   0.726   2.905  15.317 -0.3745 -0.1415 -0.0239
  441TMC3    O2 6635   0.904   3.262  15.372  0.0154  0.0091 -0.0737
  442MPD2     C 6636   3.224   3.591  16.298 -0.1822 -0.3951 -0.4835
  442MPD2    C1 6637   3.111   3.512  16.289  0.5174  0.0632 -0.2707
  442MPD2    C2 6638   3.115   3.403  16.198 -0.3912  0.4656 -0.6846
  442MPD2    C3 6639   3.229   3.381  16.118  0.0433 -0.7096 -0.4047
  442MPD2    C4 6640   3.341   3.458  16.138  0.1817 -0.0158  0.3742
  442MPD2    C5 6641   3.334   3.563  16.226  0.3112  0.3120 -0.1374
  442MPD2     H 6642   3.026   3.344  16.179 -2.5243  2.6799  2.4057
  442MPD2    H1 6643   3.432   3.447  16.081  1.3110 -1.4475  2.4313
  442MPD2    H2 6644   3.224   3.676  16.366  0.5435  0.6063 -1.7485
  442MPD2    H3 6645   3.417   3.631  16.238  1.6622 -1.0350 -1.8525
  442MPD2     N 6646   3.240   3.274  16.025  0.5816 -0.0832  0.5721
  442MPD2    H5 6647   3.319   3.278  15.961  0.6623 -0.6890  0.6331
  442MPD2    N1 6648   2.997   3.538  16.367  0.0772 -0.2081  0.2994
  442MPD2    H7 6649   2.926   3.467  16.378  2.0771 -2.3503 -0.6513
  443TMC3    C1 6650   2.853   3.642  16.513 -0.5821  0.0657 -0.2470
  443TMC3    C2 6651   2.782   3.752  16.526  0.3739  0.6456 -0.3380
  443TMC3    C3 6652   2.671   3.749  16.611 -0.4628  0.5745 -0.2629
  443TMC3    C4 6653   2.829   3.539  16.598  0.0657 -0.4135  0.2940
  443TMC3    C5 6654   2.734   3.539  16.695  0.3063 -0.2543  0.5075
  443TMC3    C6 6655   2.648   3.645  16.705 -0.2633  0.7576 -0.3728
  443TMC3     C 6656   2.975   3.657  16.435  0.7118 -0.2548 -0.5758
  443TMC3     O 6657   3.028   3.770  16.436 -0.5637  0.2714 -0.2277
  443TMC3     H 6658   2.801   3.843  16.470  0.0997  0.7917 -0.1960
  443TMC3    H1 6659   2.887   3.450  16.574  0.6045  0.2134 -0.7137
  443TMC3    H2 6660   2.579   3.658  16.788  0.1203  0.4162  0.0040
  443TMC3    C7 6661   2.685   3.410  16.733 -0.0593  0.3022 -0.1129
  443TMC3    C8 6662   2.556   3.804  16.545  0.2548 -0.2215 -0.7725
  443TMC3    O1 6663   2.758   3.314  16.709  0.3006 -0.9338 -0.1191
  443TMC3    O2 6664   2.574   3.872  16.445  0.0441  0.1866  0.7323
  444MPD2     C 6665   3.246   3.051  16.855 -0.2291  0.6559 -0.2925
  444MPD2    C1 6666   3.183   2.947  16.793  0.0051 -0.2559  0.8492
  444MPD2    C2 6667   3.243   2.864  16.700  0.8374 -0.0788 -0.0090
  444MPD2    C3 6668   3.365   2.895  16.659  0.2056  0.3177 -0.5880
  444MPD2    C4 6669   3.431   3.009  16.708  0.9369  0.5520 -0.2297
  444MPD2    C5 6670   3.374   3.078  16.813  0.8248  0.1235  0.2816
  444MPD2     H 6671   3.185   2.778  16.668  1.1370 -0.4551  0.4444
  444MPD2    H1 6672   3.532   3.041  16.685  1.5404  0.5165  2.3601
  444MPD2    H2 6673   3.205   3.104  16.939 -2.3759  1.6931 -1.9802
  444MPD2    H3 6674   3.423   3.153  16.874 -2.0015  1.5250  0.8392
  444MPD2     N 6675   3.430   2.800  16.573  0.3285  0.2957 -0.5091
  444MPD2    H5 6676   3.376   2.715  16.558  1.1711 -0.3014 -0.1829
  444MPD2    N1 6677   3.059   2.902  16.836  0.7929  0.4486  0.6052
  444MPD2    H7 6678   3.015   2.828  16.782  0.2641  0.3163  1.2018
  445TMC3    C1 6679   3.570   2.686  16.443  0.4191  0.0225 -0.5330
  445TMC3    C2 6680   3.472   2.612  16.381  0.0404 -0.7642  0.2577
  445TMC3    C3 6681   3.508   2.484  16.338 -0.7513 -0.7087 -0.2694
  445TMC3    C4 6682   3.695   2.638  16.453  0.1915 -0.2894 -0.7071
  445TMC3    C5 6683   3.726   2.515  16.404 -0.6539 -0.3687 -0.5954
  445TMC3    C6 6684   3.632   2.436  16.343  0.3907  0.1069 -0.3748
  445TMC3     C 6685   3.547   2.815  16.503  0.4328 -0.6541  0.0396
  445TMC3     O 6686   3.626   2.907  16.512  0.0828  0.3189 -0.2774
  445TMC3     H 6687   3.371   2.653  16.379  1.5344  2.8352 -1.1505
  445TMC3    H1 6688   3.774   2.700  16.494 -0.6891 -0.6807  1.5845
  445TMC3    H2 6689   3.666   2.348  16.289  2.0468 -0.1092  1.0296
  445TMC3    C7 6690   3.863   2.470  16.425  0.3799  0.7134 -0.0736
  445TMC3    C8 6691   3.406   2.409  16.270 -0.5805 -0.4916 -0.9589
  445TMC3    O1 6692   3.941   2.549  16.465  0.1470 -0.0343 -0.3048
  445TMC3    O2 6693   3.309   2.471  16.227 -0.1867  0.7159 -0.3948
  446MPD2     C 6694   2.903   3.804  11.409  0.2834  0.1432  0.0150
  446MPD2    C1 6695   2.891   3.861  11.285 -0.2691  0.4630 -0.1581
  446MPD2    C2 6696   3.002   3.916  11.231 -0.2633  0.5804  0.5264
  446MPD2    C3 6697   3.124   3.912  11.290 -0.3808  0.1566 -0.0499
  446MPD2    C4 6698   3.133   3.853  11.410 -0.1827  0.1352 -0.3623
  446MPD2    C5 6699   3.024   3.796  11.469 -0.4093  0.0938 -0.0054
  446MPD2     H 6700   3.002   3.945  11.126 -1.1185  1.3339  0.7425
  446MPD2    H1 6701   3.220   3.857  11.475  0.2752 -1.1649 -0.9004
  446MPD2    H2 6702   2.823   3.757  11.464 -1.0738  0.4114 -1.7188
  446MPD2    H3 6703   3.045   3.753  11.566  0.7632 -0.6872 -0.6123
  446MPD2     N 6704   3.240   3.980  11.230 -0.3004 -0.3973 -0.7299
  446MPD2    H5 6705   3.216   4.048  11.158  1.7711  2.0850  0.9649
  446MPD2    N1 6706   2.758   3.859  11.227 -0.2597 -0.1187 -0.2028
  446MPD2    H7 6707   2.682   3.805  11.269  0.7418 -1.2819  0.1231
  447TMC3    C1 6708   3.478   4.005  11.198  0.4077  0.2870 -0.8023
  447TMC3    C2 6709   3.460   4.108  11.115 -0.5989  0.0914  0.1272
  447TMC3    C3 6710   3.568   4.181  11.086  0.4904 -0.4762 -0.1227
  447TMC3    C4 6711   3.595   3.976  11.255 -0.8301 -0.2512 -0.2769
  447TMC3    C5 6712   3.705   4.051  11.227  0.2907 -0.8353 -0.0760
  447TMC3    C6 6713   3.697   4.153  11.137  0.1855 -0.0575 -0.5140
  447TMC3     C 6714   3.365   3.934  11.257 -0.7403 -0.2704 -0.7145
  447TMC3     O 6715   3.395   3.829  11.316  0.3768  0.2943 -0.5295
  447TMC3     H 6716   3.364   4.137  11.073  0.1765  0.5512 -1.2935
  447TMC3    H1 6717   3.605   3.894  11.325 -2.1952  0.0744  0.3099
  447TMC3    H2 6718   3.792   4.197  11.109 -0.1182  0.9040 -0.0265
  447TMC3    C7 6719   3.829   4.041  11.296  0.9259  0.6120  0.4147
  447TMC3    C8 6720   3.553   4.295  10.991  0.2424  0.3028  0.0377
  447TMC3    O1 6721   3.931   4.080  11.244  0.3861  0.2478  0.1484
  447TMC3    O2 6722   3.467   4.288  10.907  0.1386 -0.7577  0.1983
  448TMC3    C1 6723   0.701   3.321  17.086  0.0449 -0.4898 -0.1278
  448TMC3    C2 6724   0.724   3.245  16.980 -0.1174  0.1609 -0.0225
  448TMC3    C3 6725   0.829   3.150  16.997 -1.0542  1.0724 -0.4759
  448TMC3    C4 6726   0.768   3.318  17.197 -0.2469 -0.6046 -0.6348
  448TMC3    C5 6727   0.851   3.216  17.218 -0.4536 -0.2467  0.5622
  448TMC3    C6 6728   0.891   3.139  17.117  0.8784 -0.3196  0.3101
  448TMC3     C 6729   0.592   3.413  17.082  0.0472  0.7345 -0.1318
  448TMC3     O 6730   0.604   3.517  17.146  0.4156  0.1986  0.1733
  448TMC3     H 6731   0.671   3.271  16.889 -1.2841 -2.6956 -0.1520
  448TMC3    H1 6732   0.756   3.397  17.271 -1.5573 -0.1147 -1.3616
  448TMC3    H2 6733   0.965   3.061  17.131  0.0748 -1.6602 -2.8403
  448TMC3    C7 6734   0.926   3.204  17.347  0.1086  0.5712 -0.2373
  448TMC3    C8 6735   0.874   3.063  16.881  0.1571 -0.9703  0.1409
  448TMC3    O1 6736   1.032   3.144  17.335 -0.2567  0.0363 -0.5131
  448TMC3    O2 6737   0.984   3.009  16.894  0.6643 -0.1733  0.3720
  449MPD2     C 6738   2.176   2.512  13.708 -0.2183  0.5465 -0.3219
  449MPD2    C1 6739   2.148   2.637  13.747 -0.0439 -0.0578  0.0385
  449MPD2    C2 6740   2.016   2.676  13.736 -0.4386  0.0352 -0.5003
  449MPD2    C3 6741   1.917   2.592  13.690  0.4679 -0.5008  0.6624
  449MPD2    C4 6742   1.949   2.461  13.666 -0.2980 -0.0744 -0.7109
  449MPD2    C5 6743   2.077   2.427  13.672  0.1560  0.1105 -0.5625
  449MPD2     H 6744   1.992   2.780  13.756  3.8361  0.4828  2.1885
  449MPD2    H1 6745   1.876   2.384  13.644  1.4616 -1.8069 -0.4314
  449MPD2    H2 6746   2.277   2.473  13.714 -0.3683  0.1417 -0.4438
  449MPD2    H3 6747   2.106   2.325  13.651  0.0627 -0.2733  1.1885
  449MPD2     N 6748   1.789   2.647  13.671 -0.3002  0.2348 -0.0243
  449MPD2    H5 6749   1.784   2.748  13.681  0.0174  0.2163  0.2953
  449MPD2    N1 6750   2.242   2.731  13.790 -0.3109  0.4846 -0.3953
  449MPD2    H7 6751   2.207   2.825  13.802 -0.7793  0.2596 -0.0214
  450TMC3    C1 6752   2.421   2.849  13.829  0.2342 -0.6524 -0.3573
  450TMC3    C2 6753   2.531   2.878  13.748 -1.0118  0.0691 -0.5407
  450TMC3    C3 6754   2.518   3.009  13.695 -0.0343  0.2339 -0.2732
  450TMC3    C4 6755   2.329   2.946  13.876 -0.2834  0.0393 -0.5465
  450TMC3    C5 6756   2.324   3.076  13.828 -0.0234  0.2183  0.0004
  450TMC3    C6 6757   2.421   3.107  13.736  0.1727  0.0482  0.7400
  450TMC3     C 6758   2.375   2.721  13.804  0.1511  0.1591 -0.2095
  450TMC3     O 6759   2.450   2.632  13.775  0.2611 -0.3698 -0.1141
  450TMC3     H 6760   2.596   2.797  13.716 -2.1020 -0.6820 -0.8815
  450TMC3    H1 6761   2.262   2.907  13.952 -3.1021  1.0257 -2.5538
  450TMC3    H2 6762   2.408   3.197  13.677  0.2101 -0.3659  0.1009
  450TMC3    C7 6763   2.189   3.094  13.791  0.2694 -0.3945  0.0260
  450TMC3    C8 6764   2.621   3.066  13.612  0.3678 -0.3547  0.0982
  450TMC3    O1 6765   2.136   2.984  13.772  0.2647 -0.1055  0.0006
  450TMC3    O2 6766   2.623   3.187  13.615 -0.0166 -0.0788  0.1684
  451MPD2     C 6767   3.612   1.268   0.907 -0.5080  0.6748  0.9478
  451MPD2    C1 6768   3.510   1.302   0.823  0.1579 -0.4093 -0.7455
  451MPD2    C2 6769   3.464   1.211   0.735 -0.1682 -0.0681  0.9393
  451MPD2    C3 6770   3.518   1.078   0.725 -0.4292 -0.6352  0.1228
  451MPD2    C4 6771   3.626   1.051   0.807 -0.0135  0.3088  0.3341
  451MPD2    C5 6772   3.678   1.146   0.889  0.8526 -0.6766  0.1225
  451MPD2     H 6773   3.390   1.242   0.662 -0.2689 -4.7178 -0.9641
  451MPD2    H1 6774   3.674   0.955   0.799 -0.7874 -0.2550  2.4380
  451MPD2    H2 6775   3.647   1.350   0.969 -1.4157  1.4140  0.4666
  451MPD2    H3 6776   3.760   1.121   0.955  0.6576  0.6720  0.8655
  451MPD2     N 6777   3.473   0.986   0.629 -0.1724 -0.4052  0.3869
  451MPD2    H5 6778   3.531   0.903   0.624  1.6330  0.8327  0.7854
  451MPD2    N1 6779   3.451   1.429   0.833 -0.2617  0.2770  0.3486
  451MPD2    H7 6780   3.504   1.500   0.882 -1.4847  0.0027  2.0685
  452TMC3    C1 6781   3.375   0.912   0.421  0.4807 -0.1339  0.2008
  452TMC3    C2 6782   3.451   0.802   0.428 -0.4071  0.2028  1.0535
  452TMC3    C3 6783   3.513   0.756   0.307  0.3410  0.2608  0.0775
  452TMC3    C4 6784   3.347   0.959   0.297  0.0598 -0.0061 -0.1628
  452TMC3    C5 6785   3.405   0.916   0.181  0.8308  0.5698  0.2941
  452TMC3    C6 6786   3.493   0.816   0.183  0.1970 -0.0682  0.5295
  452TMC3     C 6787   3.365   1.002   0.538 -1.4232  0.3025 -0.0419
  452TMC3     O 6788   3.290   1.099   0.522 -0.2990  0.0330  0.8975
  452TMC3     H 6789   3.462   0.754   0.525  2.3261  0.2600  0.7772
  452TMC3    H1 6790   3.287   1.049   0.302  1.7134  0.8931  3.1893
  452TMC3    H2 6791   3.532   0.771   0.092  0.6765  2.7298 -0.6177
  452TMC3    C7 6792   3.421   1.009   0.073  0.4822 -0.2012 -0.2186
  452TMC3    C8 6793   3.556   0.621   0.303  0.7231  0.1412  0.0149
  452TMC3    O1 6794   3.529   1.006   0.017 -0.0211 -0.2640  0.4102
  452TMC3    O2 6795   3.594   0.573   0.198  0.1929  0.1214 -0.4864
  453TMC3    C1 6796   1.143   3.254  11.633  0.3135  0.7198  0.0438
  453TMC3    C2 6797   1.021   3.203  11.657  0.3413 -0.0056  0.0447
  453TMC3    C3 6798   0.927   3.207  11.557  0.2398  0.5181 -0.0332
  453TMC3    C4 6799   1.172   3.323  11.518  0.2633  0.1066  0.1400
  453TMC3    C5 6800   1.081   3.319  11.414 -0.2379  0.1682  0.0070
  453TMC3    C6 6801   0.955   3.267  11.438  0.3082 -0.5304  0.1567
  453TMC3     C 6802   1.246   3.263  11.738 -0.7159 -0.2599  0.2188
  453TMC3     O 6803   1.354   3.296  11.688  0.2071 -0.2414  0.0954
  453TMC3     H 6804   0.993   3.161  11.753  1.0877 -0.8432 -0.0987
  453TMC3    H1 6805   1.275   3.342  11.488 -0.4109  2.3135 -0.7677
  453TMC3    H2 6806   0.877   3.269  11.364 -0.3886 -3.6330  0.8130
  453TMC3    C7 6807   1.114   3.358  11.277 -0.1632 -0.5608  0.1056
  453TMC3    C8 6808   0.812   3.114  11.561  0.1336  0.4571 -0.0338
  453TMC3    O1 6809   1.055   3.310  11.181 -0.0948 -0.7078  0.4721
  453TMC3    O2 6810   0.724   3.128  11.477  0.5133  0.0075  0.0240
  454MPD2     C 6811   4.159   2.776  16.433  0.3344  1.0346 -0.2505
  454MPD2    C1 6812   4.185   2.837  16.313 -0.2068  0.2675 -0.3542
  454MPD2    C2 6813   4.131   2.963  16.299 -0.5208 -0.0674  0.0107
  454MPD2    C3 6814   4.045   3.014  16.393 -0.4238  0.8089  0.2681
  454MPD2    C4 6815   4.020   2.949  16.507 -0.0153  0.3882 -0.0270
  454MPD2    C5 6816   4.081   2.830  16.535  0.1881 -0.6582 -0.3435
  454MPD2     H 6817   4.140   3.012  16.203 -1.3654  1.5023  0.7331
  454MPD2    H1 6818   3.966   2.994  16.590  0.8522 -1.4902  1.5594
  454MPD2    H2 6819   4.196   2.676  16.451 -3.3012 -0.6302 -2.0135
  454MPD2    H3 6820   4.082   2.779  16.630 -0.2112  1.5951  0.8480
  454MPD2     N 6821   3.973   3.135  16.375 -0.2090 -0.0256 -0.3109
  454MPD2    H5 6822   3.896   3.157  16.436  0.2978 -1.0960  0.7117
  454MPD2    N1 6823   4.238   2.773  16.198 -0.5602  0.2532 -0.0856
  454MPD2    H7 6824   4.245   2.831  16.115  0.5468 -1.2729 -1.0659
  455TMC3    C1 6825   3.838   3.259  16.248 -0.6268  0.7875 -0.1156
  455TMC3    C2 6826   3.771   3.297  16.359 -0.1784 -0.6968  0.4692
  455TMC3    C3 6827   3.649   3.237  16.382 -0.1794 -0.3015  0.0858
  455TMC3    C4 6828   3.785   3.159  16.172 -0.0706  0.6188  0.5109
  455TMC3    C5 6829   3.658   3.102  16.186  0.4210 -0.2750  0.0119
  455TMC3    C6 6830   3.597   3.143  16.301 -0.0486 -0.0504 -0.4486
  455TMC3     C 6831   3.982   3.222  16.270  0.6980  0.9290  0.6780
  455TMC3     O 6832   4.062   3.225  16.176  0.4544 -0.1501 -0.1207
  455TMC3     H 6833   3.805   3.381  16.419 -1.9080  1.6086 -1.7664
  455TMC3    H1 6834   3.834   3.134  16.079 -1.3072  0.2233 -0.0248
  455TMC3    H2 6835   3.504   3.095  16.330  0.8262  0.0332  2.4958
  455TMC3    C7 6836   3.644   2.957  16.166  0.0770 -0.8650  0.7824
  455TMC3    C8 6837   3.571   3.293  16.489 -0.2698  0.0856 -0.8557
  455TMC3    O1 6838   3.529   2.916  16.160 -0.5172  0.2395  0.3035
  455TMC3    O2 6839   3.632   3.349  16.581 -0.5297 -0.1399 -0.1947
  456MPD2     C 6840   1.612   2.796  15.636  0.5605  0.2902  0.2394
  456MPD2    C1 6841   1.722   2.762  15.722  0.1852 -0.5829  0.4380
  456MPD2    C2 6842   1.699   2.735  15.857 -0.4983 -0.3033  0.7220
  456MPD2    C3 6843   1.568   2.741  15.913  0.3090 -0.8410  0.2181
  456MPD2    C4 6844   1.461   2.772  15.824  0.2915 -0.6588  0.0374
  456MPD2    C5 6845   1.488   2.798  15.690  0.4682  1.3260  0.0307
  456MPD2     H 6846   1.783   2.702  15.917  0.7258  1.4027 -0.0684
  456MPD2    H1 6847   1.357   2.763  15.850  0.2777 -0.2414  0.1173
  456MPD2    H2 6848   1.622   2.811  15.529 -3.1766 -1.2892 -0.3496
  456MPD2    H3 6849   1.409   2.797  15.616  0.1212 -1.8843  0.4478
  456MPD2     N 6850   1.545   2.709  16.051  0.3757 -0.1765  0.0148
  456MPD2    H5 6851   1.623   2.674  16.105  0.0701  0.3616  0.8063
  456MPD2    N1 6852   1.845   2.761  15.651  0.2299  0.3281  0.5312
  456MPD2    H7 6853   1.840   2.794  15.556 -2.5311  0.6199  0.7608
  457TMC3    C1 6854   1.427   2.726  16.259 -0.3883  0.0529 -0.3294
  457TMC3    C2 6855   1.305   2.750  16.319  0.1171  0.4020  0.0429
  457TMC3    C3 6856   1.302   2.749  16.458  0.8438  0.0261  1.1880
  457TMC3    C4 6857   1.538   2.690  16.331  0.0786 -0.4579 -0.1372
  457TMC3    C5 6858   1.531   2.711  16.467 -0.2554 -0.2806  0.2748
  457TMC3    C6 6859   1.414   2.729  16.531 -0.0705  0.5483 -0.0047
  457TMC3     C 6860   1.434   2.759  16.116 -0.6775  0.6122  0.0368
  457TMC3     O 6861   1.337   2.822  16.076 -0.0972 -0.2885  0.0467
  457TMC3     H 6862   1.220   2.781  16.260 -0.6730 -1.2544  0.2964
  457TMC3    H1 6863   1.624   2.651  16.277 -0.7096  2.5058 -3.5741
  457TMC3    H2 6864   1.410   2.740  16.639 -0.9190 -2.0953  0.2225
  457TMC3    C7 6865   1.642   2.688  16.547  0.5824 -0.1455  0.0746
  457TMC3    C8 6866   1.204   2.817  16.530  0.2036 -0.9251 -0.1108
  457TMC3    O1 6867   1.633   2.736  16.661 -0.0982  0.1984  0.1075
  457TMC3    O2 6868   1.245   2.894  16.614  0.0921  0.0962 -0.3946
  458MPD2     C 6869   0.081   2.003  11.983 -0.5472  0.1217 -0.2284
  458MPD2    C1 6870   0.009   1.995  12.099  0.1018 -0.3628 -0.5859
  458MPD2    C2 6871   4.604   1.985  12.093 -0.2932 -0.1676  0.5034
  458MPD2    C3 6872   4.543   1.972  11.968  0.3709 -0.6046  0.2105
  458MPD2    C4 6873   4.622   1.985  11.847  0.4523 -0.9349 -0.4510
  458MPD2    C5 6874   0.016   1.997  11.863 -0.2821 -0.2286 -0.3281
  458MPD2     H 6875   4.543   1.976  12.182  2.1569 -1.8569  2.0152
  458MPD2    H1 6876   4.586   1.974  11.745  1.2328 -1.0287 -0.7115
  458MPD2    H2 6877   0.189   2.003  11.989 -0.5939 -2.8704  0.9732
  458MPD2    H3 6878   0.080   2.000  11.776  1.0192 -3.1121  0.5329
  458MPD2     N 6879   4.405   1.955  11.967  0.2706  0.3196 -0.0493
  458MPD2    H5 6880   4.361   1.949  12.058  2.5413  2.3671  1.1755
  458MPD2    N1 6881   0.079   2.001  12.222  0.6450 -0.7738  0.4102
  458MPD2    H7 6882   0.178   2.022  12.218  0.8439 -2.3077 -2.5209
  459TMC3    C1 6883   0.118   2.030  12.455  0.0253  0.5603  0.7308
  459TMC3    C2 6884   0.249   2.069  12.419  0.0436 -0.6861  0.2638
  459TMC3    C3 6885   0.321   2.134  12.522  0.4532  0.1237  0.4644
  459TMC3    C4 6886   0.060   2.061  12.578  0.7943 -0.1189 -0.5920
  459TMC3    C5 6887   0.133   2.138  12.669 -0.1582 -0.0019 -0.0975
  459TMC3    C6 6888   0.263   2.175  12.645 -0.2259  0.6494 -0.0802
  459TMC3     C 6889   0.022   1.996  12.350 -0.1969  0.4101 -0.0348
  459TMC3     O 6890   4.644   1.973  12.388  0.0469  0.2243  0.4099
  459TMC3     H 6891   0.294   2.030  12.328  1.5659  0.7337  0.4248
  459TMC3    H1 6892   4.694   2.042  12.596  0.4501 -0.6691 -3.1434
  459TMC3    H2 6893   0.320   2.227  12.721  0.5282  0.2425 -0.3677
  459TMC3    C7 6894   0.076   2.167  12.807 -0.4718  0.0991  0.0975
  459TMC3    C8 6895   0.443   2.198  12.489  0.9933 -0.1924  0.0645
  459TMC3    O1 6896   4.705   2.111  12.836 -0.4835  0.0934 -0.5271
  459TMC3    O2 6897   0.537   2.181  12.567  0.3867 -0.5718  0.1835
  460MPD2     C 6898   3.704   4.618  11.051 -0.2328  0.6454  0.0131
  460MPD2    C1 6899   3.644   4.524  10.977 -0.1376  0.0272 -0.4419
  460MPD2    C2 6900   3.585   4.562  10.856  0.3958  0.3160 -0.4403
  460MPD2    C3 6901   3.559   4.694  10.830 -0.4919 -0.1618  0.1693
  460MPD2    C4 6902   3.607   0.049  10.912  0.3409 -0.7419  0.0733
  460MPD2    C5 6903   3.677   0.010  11.023  0.1554  0.4757  0.2172
  460MPD2     H 6904   3.557   4.483  10.787  2.0180  0.9310 -1.7971
  460MPD2    H1 6905   3.590   0.155  10.902  2.7913 -0.4225 -0.8093
  460MPD2    H2 6906   3.749   4.585  11.143 -0.5207 -0.8568 -0.3837
  460MPD2    H3 6907   3.715   0.080  11.097  2.3090  0.0846 -0.5471
  460MPD2     N 6908   3.476   4.711  10.718  0.1200  0.1049  0.2602
  460MPD2    H5 6909   3.446   4.635  10.659  2.7734 -1.2136  0.6373
  460MPD2    N1 6910   3.646   4.391  11.031 -0.3102 -0.1160  0.3744
  460MPD2    H7 6911   3.701   4.378  11.116  1.9968  1.5067 -0.8535
  461TMC3    C1 6912   3.333   0.079  10.565  0.3016  0.2637 -0.1206
  461TMC3    C2 6913   3.302   4.698  10.508 -0.2096  0.0597  0.2326
  461TMC3    C3 6914   3.235   4.695  10.394 -0.1828 -0.0660  0.6772
  461TMC3    C4 6915   3.310   0.194  10.498  0.3694  0.0464  0.0194
  461TMC3    C5 6916   3.250   0.183  10.379  0.1320 -0.3000 -0.1885
  461TMC3    C6 6917   3.204   0.066  10.324 -0.0496  0.1007  0.1203
  461TMC3     C 6918   3.431   0.095  10.680  0.9237 -0.4477 -0.4126
  461TMC3     O 6919   3.438   0.209  10.729  0.4166 -0.3756 -0.3969
  461TMC3     H 6920   3.322   4.599  10.546 -1.6210 -0.1425  0.4653
  461TMC3    H1 6921   3.348   0.288  10.534  1.5152 -1.6631  3.2277
  461TMC3    H2 6922   3.128   0.058  10.247  0.6736  2.6392 -0.8758
  461TMC3    C7 6923   3.203   0.304  10.315  0.1330 -0.1078  0.1490
  461TMC3    C8 6924   3.273   4.587  10.305 -0.2519  0.0161 -0.0172
  461TMC3    O1 6925   3.190   0.399  10.389  0.8298 -0.4576 -0.4585
  461TMC3    O2 6926   3.394   4.566  10.297 -0.0511 -0.7461  0.4056
  462TMC3    C1 6927   2.746   1.084   0.227 -0.5175 -0.5929  0.3026
  462TMC3    C2 6928   2.844   1.076   0.326 -0.1154 -0.2800 -0.3782
  462TMC3    C3 6929   2.853   0.959   0.397  0.2422  0.1332  0.2404
  462TMC3    C4 6930   2.643   0.987   0.213  0.2467 -0.5501  0.5122
  462TMC3    C5 6931   2.652   0.883   0.296 -0.3195  0.2658  0.3414
  462TMC3    C6 6932   2.756   0.862   0.381 -0.8327  0.2742 -0.6836
  462TMC3     C 6933   2.740   1.192   0.124 -0.0382  0.2343  0.8025
  462TMC3     O 6934   2.657   1.187   0.035 -0.3039  0.0472  0.4543
  462TMC3     H 6935   2.930   1.142   0.336  0.1752 -0.7763  0.3999
  462TMC3    H1 6936   2.575   0.999   0.130  0.0145 -1.5318  0.5658
  462TMC3    H2 6937   2.739   0.810   0.475 -0.8255 -0.6116 -1.1755
  462TMC3    C7 6938   2.576   0.762   0.276 -0.1181 -0.9580 -0.4155
  462TMC3    C8 6939   2.952   0.931   0.495 -0.3099  0.1111  0.4051
  462TMC3    O1 6940   2.630   0.662   0.314  0.2166  0.3774  0.0677
  462TMC3    O2 6941   3.009   1.030   0.540  0.5884  0.0835 -0.1665
  463MPD2     C 6942   4.686   3.399   2.102  0.2614  0.1328 -0.6060
  463MPD2    C1 6943   4.660   3.434   1.969  0.7259  0.2315 -0.2080
  463MPD2    C2 6944   0.028   3.483   1.896 -0.3381 -0.2561  0.5901
  463MPD2    C3 6945   0.158   3.497   1.947  0.6465  0.9386 -0.3354
  463MPD2    C4 6946   0.175   3.470   2.080 -0.0182  0.1988 -0.1251
  463MPD2    C5 6947   0.070   3.415   2.157  0.1066 -0.0223  0.1237
  463MPD2     H 6948   0.001   3.522   1.799 -0.2472  1.3647  1.2193
  463MPD2    H1 6949   0.264   3.486   2.139 -0.1148 -1.6618  0.5456
  463MPD2    H2 6950   4.609   3.366   2.170  0.2163  0.4252 -0.5171
  463MPD2    H3 6951   0.090   3.385   2.259 -2.7262 -1.4341  0.2607
  463MPD2     N 6952   0.264   3.558   1.880 -0.1500 -0.2122 -0.1522
  463MPD2    H5 6953   0.343   3.573   1.942  0.5527 -1.0848 -0.8324
  463MPD2    N1 6954   4.531   3.440   1.909  0.6211 -0.5822  0.4424
  463MPD2    H7 6955   4.524   3.480   1.815  1.3216  1.2237  1.1632
  464TMC3    C1 6956   4.298   3.407   1.869 -0.3312  0.1364 -0.0567
  464TMC3    C2 6957   4.298   3.500   1.766  0.3483  0.4398 -0.9953
  464TMC3    C3 6958   4.188   3.500   1.685  0.1907 -0.0509  0.1528
  464TMC3    C4 6959   4.184   3.333   1.889  0.1245  0.3421  0.5517
  464TMC3    C5 6960   4.076   3.338   1.811 -0.3912  0.0051 -0.5523
  464TMC3    C6 6961   4.078   3.422   1.704  0.3233  0.0544  0.1897
  464TMC3     C 6962   4.415   3.382   1.952  0.1566  0.2120  0.0732
  464TMC3     O 6963   4.401   3.319   2.054  0.1767 -0.1030 -0.5135
  464TMC3     H 6964   4.368   3.584   1.759  0.8921 -0.0178 -1.0396
  464TMC3    H1 6965   4.182   3.278   1.982  1.3546  1.5949  1.3321
  464TMC3    H2 6966   3.988   3.430   1.644  0.7803 -0.4533 -0.5701
  464TMC3    C7 6967   3.949   3.296   1.865 -0.0572  0.2880  0.7800
  464TMC3    C8 6968   4.176   3.602   1.580 -0.2512  0.1681 -0.5312
  464TMC3    O1 6969   3.933   3.283   1.986 -0.5089 -0.1053 -0.0441
  464TMC3    O2 6970   4.059   3.634   1.547 -0.5082  0.0700 -0.3441
  465MPD2     C 6971   0.461   2.775  17.176  0.4329 -0.3521  0.1411
  465MPD2    C1 6972   0.334   2.831  17.181 -1.0058  0.7046 -0.5678
  465MPD2    C2 6973   0.290   2.912  17.071  0.1721  0.0041  0.6193
  465MPD2    C3 6974   0.377   2.942  16.970 -0.8621  0.3103 -0.3882
  465MPD2    C4 6975   0.500   2.883  16.969  0.5437 -0.6086  0.5868
  465MPD2    C5 6976   0.548   2.805  17.076 -0.3910 -0.2363  0.2667
  465MPD2     H 6977   0.190   2.955  17.071 -1.0354 -2.8172  3.2423
  465MPD2    H1 6978   0.573   2.894  16.889 -0.5458 -0.5363 -0.3840
  465MPD2    H2 6979   0.498   2.712  17.257  0.8364 -2.0997 -1.3959
  465MPD2    H3 6980   0.647   2.761  17.078  0.0098  0.5857 -1.5648
  465MPD2     N 6981   0.327   3.025  16.862  0.1590 -0.6320 -0.2893
  465MPD2    H5 6982   0.226   3.036  16.858  0.0995 -1.4069 -0.8396
  465MPD2    N1 6983   0.239   2.807  17.281 -1.1463  0.5665 -0.0109
  465MPD2    H7 6984   0.161   2.872  17.279  0.5514  2.5272 -2.5671
  466TMC3    C1 6985   0.111   3.239  16.656 -0.5198  0.3322  0.3153
  466TMC3    C2 6986   0.154   3.370  16.625 -0.0498  0.4358 -0.1857
  466TMC3    C3 6987   0.290   3.388  16.634 -0.1925 -0.5664 -0.4763
  466TMC3    C4 6988   0.195   3.138  16.667 -0.3547  0.0428  0.2897
  466TMC3    C5 6989   0.332   3.154  16.666 -0.0990 -0.7128  0.1491
  466TMC3    C6 6990   0.383   3.286  16.645  0.1212 -0.6785 -0.4892
  466TMC3     C 6991   4.716   3.217  16.708  0.2991 -1.0635  0.1680
  466TMC3     O 6992   4.707   3.139  16.801 -0.3866 -0.4846 -0.2437
  466TMC3     H 6993   0.095   3.461  16.621  2.1717  1.8926  0.2394
  466TMC3    H1 6994   0.154   3.039  16.685 -2.2570  0.2974 -2.6342
  466TMC3    H2 6995   0.484   3.321  16.661  0.4363 -0.9066 -1.9742
  466TMC3    C7 6996   0.406   3.077  16.764 -0.1703  1.1007 -0.2382
  466TMC3    C8 6997   0.346   3.517  16.615 -0.1577  0.2108 -0.4344
  466TMC3    O1 6998   0.528   3.101  16.775  0.3432 -0.1263  0.1181
  466TMC3    O2 6999   0.438   3.525  16.539 -0.1001 -0.2204  0.3124
  467TMC3    C1 7000   1.263   1.509  13.781  0.4044 -0.3196 -0.0627
  467TMC3    C2 7001   1.359   1.429  13.729 -0.3931 -0.9563 -0.3793
  467TMC3    C3 7002   1.355   1.393  13.593  0.3648  0.3376 -0.3761
  467TMC3    C4 7003   1.147   1.533  13.712  0.1654 -0.5149  0.7322
  467TMC3    C5 7004   1.133   1.480  13.589 -0.4507 -0.1908 -0.6226
  467TMC3    C6 7005   1.240   1.422  13.523 -0.2046 -0.2758  0.7992
  467TMC3     C 7006   1.301   1.625  13.858 -0.7568 -0.3363 -0.8998
  467TMC3     O 7007   1.218   1.703  13.898 -0.4641 -0.2368  0.0942
  467TMC3     H 7008   1.436   1.393  13.797  1.0983  0.6179 -1.2296
  467TMC3    H1 7009   1.072   1.602  13.749  1.2214  0.7836  0.4378
  467TMC3    H2 7010   1.232   1.392  13.419 -0.7730  1.9856  0.1908
  467TMC3    C7 7011   1.001   1.481  13.522 -0.0087 -0.7463  0.2545
  467TMC3    C8 7012   1.481   1.424  13.538  0.0994 -0.6086  0.1537
  467TMC3    O1 7013   0.988   1.451  13.405 -0.2094 -0.3724  0.3107
  467TMC3    O2 7014   1.561   1.471  13.621 -0.1253  0.6298 -0.0337
  468MPD2     C 7015   0.702   4.283  11.014 -0.0351  0.1671 -0.3092
  468MPD2    C1 7016   0.839   4.243  11.023 -0.5807 -0.4902  0.0164
  468MPD2    C2 7017   0.868   4.119  11.076  0.4375 -0.6129 -0.2527
  468MPD2    C3 7018   0.770   4.023  11.095  0.0171  0.1579  1.2459
  468MPD2    C4 7019   0.637   4.060  11.079  0.2754  0.1212 -0.1077
  468MPD2    C5 7020   0.604   4.184  11.038  0.6489 -0.5834 -0.2260
  468MPD2     H 7021   0.974   4.095  11.084  0.4871  0.0986  1.1505
  468MPD2    H1 7022   0.555   3.990  11.087  0.4504 -0.2034 -1.0537
  468MPD2    H2 7023   0.679   4.387  10.997 -0.7368  0.0650  0.0065
  468MPD2    H3 7024   0.498   4.203  11.028  0.6735  1.7962  4.0862
  468MPD2     N 7025   0.786   3.884  11.118  0.3138  0.1970 -0.4142
  468MPD2    H5 7026   0.709   3.829  11.154 -1.4710  1.4083 -2.4368
  468MPD2    N1 7027   0.944   4.327  10.999  0.0775  0.0110  0.2154
  468MPD2    H7 7028   1.029   4.281  11.032  0.2379  0.6489  0.6968
  469TMC3    C1 7029   1.067   4.514  10.929  0.1055  0.1520  0.1688
  469TMC3    C2 7030   1.177   4.435  10.950 -0.1022  0.2772  0.4073
  469TMC3    C3 7031   1.294   4.508  10.978  0.7506  0.5143 -0.1772
  469TMC3    C4 7032   1.062   4.649  10.906  0.1035 -0.2715  0.3731
  469TMC3    C5 7033   1.176   4.714  10.926 -0.0409 -0.4486  0.4653
  469TMC3    C6 7034   1.286   4.643  10.966 -0.2659 -0.9202 -0.6966
  469TMC3     C 7035   0.940   4.451  10.933 -0.4747  0.5646 -0.2295
  469TMC3     O 7036   0.848   4.516  10.893  0.4671 -0.1969 -0.2883
  469TMC3     H 7037   1.172   4.331  10.980 -0.3953  0.5215  1.2053
  469TMC3    H1 7038   0.970   4.701  10.881 -0.0024 -0.0071  1.3251
  469TMC3    H2 7039   1.378   4.698  10.983 -0.0784 -1.8852  1.4261
  469TMC3    C7 7040   1.176   0.112  10.982 -0.0722  0.0777  0.8117
  469TMC3    C8 7041   1.413   4.443  11.026 -0.6416 -0.3694  0.4214
  469TMC3    O1 7042   1.271   0.145  11.054  0.0064  0.4728 -0.6047
  469TMC3    O2 7043   1.522   4.498  11.029  0.6224 -0.1565 -0.7479
  470TMC3    C1 7044   2.220   0.299   0.567 -0.6806  0.1243  0.1532
  470TMC3    C2 7045   2.272   0.420   0.524  0.1770  0.5033 -0.2695
  470TMC3    C3 7046   2.380   0.470   0.590  0.1075  0.2110  0.3057
  470TMC3    C4 7047   2.281   0.232   0.669 -1.1645 -0.6008  0.0297
  470TMC3    C5 7048   2.386   0.287   0.737 -0.0607 -1.2765 -0.6067
  470TMC3    C6 7049   2.438   0.403   0.698  0.2986  0.5292 -0.3854
  470TMC3     C 7050   2.109   0.231   0.490  0.2818  0.3441 -0.2555
  470TMC3     O 7051   2.081   0.118   0.534  0.1656 -0.2556 -0.9171
  470TMC3     H 7052   2.216   0.479   0.453  1.6628  0.7342 -1.2469
  470TMC3    H1 7053   2.246   0.134   0.701 -1.1724 -0.7606 -0.4652
  470TMC3    H2 7054   2.536   0.425   0.741 -0.2774  1.9643  0.1896
  470TMC3    C7 7055   2.468   0.206   0.819  0.2378  0.0702  0.3398
  470TMC3    C8 7056   2.393   0.612   0.577  0.4074  0.8845 -0.4056
  470TMC3    O1 7057   2.589   0.207   0.795  0.1125 -0.4045 -0.1836
  470TMC3    O2 7058   2.296   0.676   0.529 -0.4896  0.1174 -0.4028
  471MPD2     C 7059   3.379   1.541  16.151  0.4301  1.0488  0.6099
  471MPD2    C1 7060   3.269   1.535  16.232 -0.0611 -0.3076  0.5078
  471MPD2    C2 7061   3.286   1.538  16.369 -0.3696  0.0358 -0.1258
  471MPD2    C3 7062   3.410   1.533  16.428 -0.4671  0.2499  0.4569
  471MPD2    C4 7063   3.519   1.549  16.343  0.4412 -0.2367 -0.0620
  471MPD2    C5 7064   3.503   1.564  16.208  0.6558  0.2830  0.4838
  471MPD2     H 7065   3.193   1.525  16.423 -0.4126  2.5421  0.4088
  471MPD2    H1 7066   3.615   1.576  16.385 -0.8718  1.5806  1.7699
  471MPD2    H2 7067   3.365   1.551  16.044 -2.5575 -0.1611  0.8613
  471MPD2    H3 7068   3.589   1.576  16.143  0.7017 -1.6547  0.1838
  471MPD2     N 7069   3.429   1.504  16.565  0.6363  0.5046  0.6673
  471MPD2    H5 7070   3.523   1.485  16.597  1.4451  0.0604 -2.0062
  471MPD2    N1 7071   3.131   1.514  16.190 -0.1938 -0.1263 -0.4875
  471MPD2    H7 7072   3.068   1.499  16.268 -0.5526 -2.7907 -1.2621
  472TMC3    C1 7073   2.949   1.419  16.075  0.3552  1.1339 -0.4216
  472TMC3    C2 7074   2.847   1.435  15.979  0.2700 -0.0663  0.1779
  472TMC3    C3 7075   2.772   1.322  15.960  0.2687 -0.6395 -0.4866
  472TMC3    C4 7076   2.963   1.308  16.153  0.6174 -0.0389  0.9960
  472TMC3    C5 7077   2.899   1.196  16.119 -0.8997 -0.2163  0.8569
  472TMC3    C6 7078   2.800   1.197  16.021 -0.0635  0.2384 -0.0995
  472TMC3     C 7079   3.072   1.498  16.065 -0.4892  0.6697 -0.2580
  472TMC3     O 7080   3.120   1.520  15.954 -0.3055 -0.5455 -0.5283
  472TMC3     H 7081   2.841   1.522  15.915  2.5062  0.2265  0.3622
  472TMC3    H1 7082   3.049   1.294  16.218  1.8608 -1.6577 -0.9858
  472TMC3    H2 7083   2.752   1.110  15.977 -0.3632  0.7543 -0.7911
  472TMC3    C7 7084   2.883   1.097  16.228 -0.4344 -0.0921 -0.3497
  472TMC3    C8 7085   2.635   1.340  15.935 -0.3187 -0.1082  0.5328
  472TMC3    O1 7086   2.916   1.141  16.339 -0.2989  0.2683  0.2903
  472TMC3    O2 7087   2.580   1.436  15.887 -0.9442  0.0050  0.2241
  473MPD2     C 7088   2.948   4.461  14.009 -0.2442  0.1675 -0.7889
  473MPD2    C1 7089   3.082   4.435  13.994  0.3943  0.4854 -0.2240
  473MPD2    C2 7090   3.183   4.503  14.068  0.6347 -0.4829  0.4058
  473MPD2    C3 7091   3.147   4.599  14.153  0.4536 -0.0404  0.0490
  473MPD2    C4 7092   3.015   4.634  14.167 -0.1767  0.2213  0.3284
  473MPD2    C5 7093   2.917   4.568  14.092  0.2005  0.3070 -0.2348
  473MPD2     H 7094   3.283   4.472  14.040  0.4569  0.8742 -1.7527
  473MPD2    H1 7095   2.980   4.707  14.239 -0.0255  1.1836 -0.5688
  473MPD2    H2 7096   2.867   4.422  13.947  0.3118  0.3041 -1.6051
  473MPD2    H3 7097   2.815   4.596  14.118 -0.3159  1.1430 -3.1127
  473MPD2     N 7098   3.240   4.647  14.251 -0.2163  0.6309 -0.5222
  473MPD2    H5 7099   3.195   4.718  14.307 -2.2648 -1.3354  0.3453
  473MPD2    N1 7100   3.135   4.338  13.906 -0.2238  0.3622 -0.5002
  473MPD2    H7 7101   3.236   4.339  13.897 -0.2365 -1.5533 -0.8676
  474TMC3    C1 7102   3.427   4.720  14.354  0.0921  0.2614  0.7458
  474TMC3    C2 7103   3.356   0.099  14.370 -0.2294 -0.1792  0.3793
  474TMC3    C3 7104   3.394   0.188  14.469 -0.0650  0.3766  0.0546
  474TMC3    C4 7105   3.540   4.692  14.420 -0.0950 -0.4468  0.7168
  474TMC3    C5 7106   3.580   0.051  14.518 -0.8459 -0.3940  0.1116
  474TMC3    C6 7107   3.509   0.164  14.547 -0.0432 -0.2289 -0.0020
  474TMC3     C 7108   3.371   4.616  14.271  0.5087 -1.1232 -0.0065
  474TMC3     O 7109   3.431   4.513  14.242  0.8043 -0.4199  0.7998
  474TMC3     H 7110   3.280   0.138  14.303 -0.3880 -1.6739 -0.3130
  474TMC3    H1 7111   3.589   4.597  14.406 -1.1112 -0.7933 -0.4770
  474TMC3    H2 7112   3.544   0.238  14.618 -0.0287  0.1288 -0.3751
  474TMC3    C7 7113   3.686   0.004  14.607 -0.2675  0.6263 -0.4604
  474TMC3    C8 7114   3.317   0.303  14.497  0.3524  0.4357 -0.5576
  474TMC3    O1 7115   3.758   4.654  14.564 -0.1706  0.0590  0.4768
  474TMC3    O2 7116   3.192   0.290  14.496 -0.0595  0.6236  0.1326
  475MPD2     C 7117   1.848   1.849  10.785  0.0714  0.7219  0.3857
  475MPD2    C1 7118   1.813   1.969  10.841  0.7694  0.0280 -0.1637
  475MPD2    C2 7119   1.679   1.998  10.855 -0.2831  0.8676 -0.0348
  475MPD2    C3 7120   1.583   1.913  10.801 -0.0475 -0.1525 -0.1466
  475MPD2    C4 7121   1.622   1.794  10.742 -0.2511 -0.1750  0.6675
  475MPD2    C5 7122   1.751   1.758  10.738  0.6839  0.4005 -0.2753
  475MPD2     H 7123   1.655   2.094  10.899 -0.8515  0.0033  1.5201
  475MPD2    H1 7124   1.555   1.721  10.701 -0.2025  0.5189 -0.6379
  475MPD2    H2 7125   1.953   1.823  10.776  0.2852  1.0377  1.8749
  475MPD2    H3 7126   1.784   1.671  10.682 -1.8244  0.6810 -2.2034
  475MPD2     N 7127   1.453   1.964  10.779 -0.3356 -0.2058  0.5695
  475MPD2    H5 7128   1.445   2.060  10.811 -1.3730  0.2335 -0.9920
  475MPD2    N1 7129   1.909   2.067  10.881 -0.1217  0.4447  0.0224
  475MPD2    H7 7130   1.872   2.156  10.910  0.9593  0.1729  2.2625
  476TMC3    C1 7131   2.100   2.195  10.863 -0.5472 -0.1699  0.4849
  476TMC3    C2 7132   2.104   2.262  10.745 -0.5310 -0.1444  0.1429
  476TMC3    C3 7133   2.044   2.385  10.731 -0.3909 -0.3786  0.0098
  476TMC3    C4 7134   2.057   2.250  10.976 -0.3145 -0.3457  0.1257
  476TMC3    C5 7135   2.005   2.377  10.962  0.0527  0.2106  0.0090
  476TMC3    C6 7136   1.993   2.445  10.846 -0.2735  0.8133 -0.0873
  476TMC3     C 7137   2.044   2.064  10.846  0.2272  0.2022 -0.2126
  476TMC3     O 7138   2.106   1.983  10.780  0.0766 -0.0237  0.5068
  476TMC3     H 7139   2.130   2.202  10.658 -1.3255  1.2618 -1.0777
  476TMC3    H1 7140   2.049   2.195  11.069 -1.0069  1.0807  0.9114
  476TMC3    H2 7141   1.929   2.533  10.850 -0.6260  0.5366  0.3255
  476TMC3    C7 7142   1.891   2.404  11.044  0.7539  0.4041 -0.0723
  476TMC3    C8 7143   1.958   2.395  10.619 -0.4506  0.0108  0.0553
  476TMC3    O1 7144   1.818   2.309  11.054  0.1651 -0.3507  0.4382
  476TMC3    O2 7145   1.911   2.501  10.591 -0.1501  0.0152  0.2706
  477MPD2     C 7146   3.840   2.894  11.555 -0.6933 -0.5701  0.7603
  477MPD2    C1 7147   3.793   3.001  11.624  0.0522 -0.2143  0.2316
  477MPD2    C2 7148   3.812   3.002  11.761 -0.6125 -0.1872  0.2716
  477MPD2    C3 7149   3.890   2.898  11.820  0.1740  0.0128  0.4293
  477MPD2    C4 7150   3.950   2.797  11.739 -0.7610 -0.0276  0.1912
  477MPD2    C5 7151   3.922   2.796  11.608 -0.3835  0.0074  0.0191
  477MPD2     H 7152   3.778   3.085  11.822  1.9036  0.8945  0.1749
  477MPD2    H1 7153   4.019   2.728  11.786 -1.7607 -0.3190  1.2305
  477MPD2    H2 7154   3.808   2.871  11.454 -0.7012  0.2280  0.5846
  477MPD2    H3 7155   3.952   2.715  11.542  0.9500  1.4155 -1.1144
  477MPD2     N 7156   3.940   2.901  11.952  0.0848  0.1235  0.1413
  477MPD2    H5 7157   3.999   2.825  11.983 -0.7262 -1.1639 -1.4557
  477MPD2    N1 7158   3.716   3.107  11.563  0.4379  0.1575 -0.1276
  477MPD2    H7 7159   3.670   3.177  11.621 -0.5373 -1.0049  0.5226
  478TMC3    C1 7160   3.622   3.245  11.388 -0.2333  0.3708  0.0657
  478TMC3    C2 7161   3.512   3.283  11.463 -0.2679  0.1722 -0.1412
  478TMC3    C3 7162   3.444   3.398  11.431 -0.1778 -0.2730  0.4553
  478TMC3    C4 7163   3.660   3.313  11.281 -0.8816  0.2343 -0.4309
  478TMC3    C5 7164   3.593   3.425  11.249 -0.5449 -0.5960  0.5357
  478TMC3    C6 7165   3.495   3.480  11.332 -0.1937 -0.1580 -0.3887
  478TMC3     C 7166   3.695   3.124  11.426 -0.7257 -0.5963 -0.2858
  478TMC3     O 7167   3.734   3.048  11.334  0.1035  0.9664  0.4064
  478TMC3     H 7168   3.481   3.228  11.551  0.8959  0.0831  0.2205
  478TMC3    H1 7169   3.745   3.291  11.217 -0.4568 -0.9925  0.5454
  478TMC3    H2 7170   3.442   3.573  11.313 -0.7818 -0.7523 -1.6407
  478TMC3    C7 7171   3.649   3.513  11.149 -0.5348  0.1415 -0.3509
  478TMC3    C8 7172   3.376   3.463  11.541  0.0104 -0.1616 -0.2495
  478TMC3    O1 7173   3.759   3.494  11.101  0.1879 -0.5961 -0.3241
  478TMC3    O2 7174   3.315   3.388  11.618 -0.0673 -0.2841  0.1351
  479MPD2     C 7175   2.684   1.250  15.036  0.1927  0.0422 -0.1527
  479MPD2    C1 7176   2.678   1.165  15.143  0.0516 -0.6844  0.0578
  479MPD2    C2 7177   2.771   1.172  15.245 -0.0642  0.5080  0.2758
  479MPD2    C3 7178   2.869   1.271  15.244 -0.6314 -0.5909 -0.0301
  479MPD2    C4 7179   2.883   1.341  15.127  0.1198 -0.1681  0.2104
  479MPD2    C5 7180   2.781   1.339  15.038 -0.2678 -0.7724  0.5031
  479MPD2     H 7181   2.759   1.102  15.327  0.6918 -1.3955 -1.2398
  479MPD2    H1 7182   2.964   1.411  15.109  1.1878 -1.6490 -0.7399
  479MPD2    H2 7183   2.610   1.257  14.957  0.7555  1.9184 -0.5101
  479MPD2    H3 7184   2.791   1.404  14.951 -0.7437 -0.2510  0.8347
  479MPD2     N 7185   2.957   1.293  15.350 -0.5351  1.2754 -0.3810
  479MPD2    H5 7186   3.042   1.339  15.319  1.3189 -1.0458  1.2977
  479MPD2    N1 7187   2.571   1.079  15.135 -0.0405  0.2346  0.1752
  479MPD2    H7 7188   2.501   1.097  15.064 -0.8540 -0.0909  0.8876
  480TMC3    C1 7189   2.608   1.167  15.606 -0.6876 -0.3889  0.2861
  480TMC3    C2 7190   2.523   1.259  15.551 -0.5682 -0.2595  0.2436
  480TMC3    C3 7191   2.585   1.364  15.487 -0.3422  0.0922 -0.6807
  480TMC3    C4 7192   2.744   1.166  15.600 -0.1637  0.7995 -0.3740
  480TMC3    C5 7193   2.795   1.276  15.531 -0.4730 -0.4643 -0.6592
  480TMC3    C6 7194   2.718   1.375  15.486  0.1157 -0.1383  0.0810
  480TMC3     C 7195   2.551   1.065  15.698  0.3826 -0.4734  0.6500
  480TMC3     O 7196   2.633   1.009  15.774  0.0758  0.3705 -0.1974
  480TMC3     H 7197   2.416   1.255  15.570 -0.6817  2.1543  0.2000
  480TMC3    H1 7198   2.811   1.096  15.649 -0.5798 -0.2961 -1.3759
  480TMC3    H2 7199   2.763   1.461  15.438 -1.3219  0.2517 -0.5527
  480TMC3    C7 7200   2.937   1.258  15.481  0.4556 -0.7333  0.0922
  480TMC3    C8 7201   2.505   1.444  15.394 -0.0477  0.2612  0.5387
  480TMC3    O1 7202   3.023   1.233  15.563  0.2273  0.1243  0.0844
  480TMC3    O2 7203   2.388   1.444  15.418 -0.2078 -0.0764 -0.5079
  481MPD2     C 7204   0.155   0.744  14.360  0.5006  0.0370  0.6737
  481MPD2    C1 7205   0.030   0.746  14.414 -0.3299  0.1089 -0.0377
  481MPD2    C2 7206   0.014   0.686  14.534  0.2751  0.4699 -0.1566
  481MPD2    C3 7207   0.121   0.651  14.616 -0.3003  0.0568 -0.2430
  481MPD2    C4 7208   0.248   0.670  14.569  0.0692  0.0939 -0.0747
  481MPD2    C5 7209   0.265   0.714  14.441  0.1478  0.4086  0.2629
  481MPD2     H 7210   4.653   0.681  14.576  1.0698 -0.3213  1.6284
  481MPD2    H1 7211   0.334   0.639  14.628  0.3924 -1.1349 -1.1902
  481MPD2    H2 7212   0.185   0.784  14.264 -1.4678  0.7939  0.3573
  481MPD2    H3 7213   0.359   0.738  14.394 -0.0960 -1.7571 -1.3027
  481MPD2     N 7214   0.111   0.612  14.753  0.0512  0.7059 -0.0849
  481MPD2    H5 7215   0.201   0.595  14.797 -0.0002  1.9748  0.5196
  481MPD2    N1 7216   4.666   0.790  14.333 -0.3343  0.0889  0.0423
  481MPD2    H7 7217   4.688   0.838  14.246 -0.9820  1.1605  0.4620
  482TMC3    C1 7218   4.444   0.792  14.242  0.1744 -0.0433  0.4921
  482TMC3    C2 7219   4.320   0.731  14.236 -0.0080  0.1308 -0.1735
  482TMC3    C3 7220   4.241   0.774  14.136  0.5327 -0.0507 -0.1098
  482TMC3    C4 7221   4.476   0.907  14.176 -0.1097  0.3181 -0.1699
  482TMC3    C5 7222   4.387   0.956  14.086  0.3239  0.0752 -0.9857
  482TMC3    C6 7223   4.270   0.886  14.065  0.0912  0.3639 -0.4173
  482TMC3     C 7224   4.535   0.743  14.338  0.1775  0.4836  0.1401
  482TMC3     O 7225   4.503   0.642  14.396 -0.1435 -0.4966 -0.6387
  482TMC3     H 7226   4.294   0.643  14.293  1.4736  0.6665  1.3601
  482TMC3    H1 7227   4.563   0.971  14.187 -0.3337  0.7533 -0.8745
  482TMC3    H2 7228   4.189   0.934  14.012  0.6792  0.3798 -1.3105
  482TMC3    C7 7229   4.414   1.083  14.016  0.5886  0.3142  0.3029
  482TMC3    C8 7230   4.121   0.690  14.113 -0.4079  0.3033 -0.1829
  482TMC3    O1 7231   4.500   1.146  14.069 -0.1173 -0.5612  0.1837
  482TMC3    O2 7232   4.094   0.595  14.191  0.2359  0.2153  1.1920
  483TMC3    C1 7233   1.639   4.050   0.823  0.2963 -0.2772  0.0022
  483TMC3    C2 7234   1.690   4.171   0.799 -0.1659  0.1302  0.0783
  483TMC3    C3 7235   1.822   4.184   0.833  0.3566 -0.2698 -0.4623
  483TMC3    C4 7236   1.709   3.954   0.885 -0.1493  0.1394 -0.2210
  483TMC3    C5 7237   1.838   3.973   0.918  0.2090 -0.3447  0.0651
  483TMC3    C6 7238   1.898   4.086   0.884  0.6975  0.2032 -0.0978
  483TMC3     C 7239   1.492   4.059   0.833 -0.6974  0.2308  0.6494
  483TMC3     O 7240   1.438   4.166   0.823 -0.4755 -0.0012 -0.2853
  483TMC3     H 7241   1.639   4.259   0.764  1.9551  1.3130 -0.0163
  483TMC3    H1 7242   1.656   3.874   0.936  1.0085  0.3971  1.3767
  483TMC3    H2 7243   2.006   4.095   0.889  0.8517 -0.6867 -1.6008
  483TMC3    C7 7244   1.924   3.860   0.948 -0.3328 -0.3956 -0.0535
  483TMC3    C8 7245   1.885   4.306   0.785  0.3974  0.3546  0.1500
  483TMC3    O1 7246   2.033   3.887   0.996  0.3570 -0.4448  0.0449
  483TMC3    O2 7247   1.841   4.352   0.682 -0.7545  0.4836 -0.2372
  484MPD2     C 7248   0.479   2.495  12.277  0.2681  0.2546 -0.3139
  484MPD2    C1 7249   0.528   2.387  12.345 -0.0045 -0.0558 -0.0071
  484MPD2    C2 7250   0.663   2.364  12.376  0.2325  0.3795 -0.1364
  484MPD2    C3 7251   0.752   2.462  12.336  0.1995 -0.0731  0.0101
  484MPD2    C4 7252   0.705   2.583  12.279 -0.1478  0.1334  0.6724
  484MPD2    C5 7253   0.572   2.582  12.233 -0.4398 -0.0481  0.8261
  484MPD2     H 7254   0.693   2.278  12.436 -0.0901 -0.7654 -1.5936
  484MPD2    H1 7255   0.779   2.659  12.253 -1.0240  0.1362 -1.8162
  484MPD2    H2 7256   0.375   2.515  12.249 -0.0754  1.1098  1.6003
  484MPD2    H3 7257   0.529   2.659  12.171 -2.2461 -0.5276  1.4913
  484MPD2     N 7258   0.890   2.460  12.351 -0.4776 -0.1683 -0.0732
  484MPD2    H5 7259   0.942   2.536  12.310 -0.9111 -1.7773 -3.6284
  484MPD2    N1 7260   0.422   2.297  12.393 -0.6736 -0.2594  0.3320
  484MPD2    H7 7261   0.328   2.316  12.359 -0.2516  0.2236 -0.5599
  485TMC3    C1 7262   1.108   2.379  12.384 -0.3746 -0.3690  0.2023
  485TMC3    C2 7263   1.191   2.335  12.487  0.0102  0.1278 -0.1616
  485TMC3    C3 7264   1.318   2.387  12.489 -0.2857  0.6448  0.4133
  485TMC3    C4 7265   1.146   2.465  12.284  0.1284  0.5805 -0.3876
  485TMC3    C5 7266   1.274   2.505  12.286  0.0817 -0.1724  0.8324
  485TMC3    C6 7267   1.357   2.470  12.387  0.3582  0.1501 -0.2346
  485TMC3     C 7268   0.963   2.358  12.403 -0.0446 -0.2847  0.0992
  485TMC3     O 7269   0.929   2.263  12.478  0.3000 -0.4298  0.1470
  485TMC3     H 7270   1.140   2.276  12.562 -1.2898 -0.7359 -1.7318
  485TMC3    H1 7271   1.077   2.483  12.203  1.2817  3.8415 -0.6548
  485TMC3    H2 7272   1.452   2.521  12.391 -0.3031  1.3881 -0.1510
  485TMC3    C7 7273   1.322   2.475  12.155  0.3472 -0.3945 -0.6296
  485TMC3    C8 7274   1.438   2.310  12.543  0.8043  0.6573  0.6608
  485TMC3    O1 7275   1.257   2.507  12.053  0.3182 -0.8680 -0.2501
  485TMC3    O2 7276   1.555   2.337  12.512 -0.6239  0.2724 -0.2655
  486MPD2     C 7277   2.818   1.120  12.999  0.4005  0.4925  0.2228
  486MPD2    C1 7278   2.729   1.092  12.897 -1.0253  0.1211  0.5779
  486MPD2    C2 7279   2.661   1.196  12.834 -0.2408  0.3471  0.7828
  486MPD2    C3 7280   2.696   1.324  12.870  0.3520  0.4911  0.2831
  486MPD2    C4 7281   2.795   1.346  12.966  0.2898  0.6413 -0.0219
  486MPD2    C5 7282   2.863   1.246  13.019 -0.0922 -0.1485 -0.4078
  486MPD2     H 7283   2.579   1.172  12.768  2.2844 -2.9668 -1.1747
  486MPD2    H1 7284   2.834   1.445  12.981 -1.2270  1.4553 -1.4673
  486MPD2    H2 7285   2.874   1.037  13.041 -0.5549 -0.2878 -0.0570
  486MPD2    H3 7286   2.954   1.259  13.075 -0.1246 -0.2269 -0.3368
  486MPD2     N 7287   2.614   1.426  12.817  0.0232  0.0916  0.6677
  486MPD2    H5 7288   2.544   1.398  12.749  3.1326 -0.4936 -2.3518
  486MPD2    N1 7289   2.692   0.954  12.890  0.0754  0.1333  0.1852
  486MPD2    H7 7290   2.736   0.883  12.948  0.5033  0.6050  0.4331
  487TMC3    C1 7291   2.583   0.752  12.814 -0.5872  0.2479 -0.1017
  487TMC3    C2 7292   2.480   0.693  12.750  0.8243  0.7705 -0.3961
  487TMC3    C3 7293   2.484   0.550  12.747  0.3504  0.0678 -1.0103
  487TMC3    C4 7294   2.674   0.680  12.886 -0.3151 -1.2245 -0.7247
  487TMC3    C5 7295   2.671   0.540  12.886  0.2569 -0.2490  0.1772
  487TMC3    C6 7296   2.582   0.474  12.807 -0.1867 -0.0370  0.2368
  487TMC3     C 7297   2.597   0.901  12.804 -0.3613  0.7735 -0.1111
  487TMC3     O 7298   2.522   0.954  12.723  0.3679 -0.6441 -0.0877
  487TMC3     H 7299   2.395   0.756  12.725  0.6245  0.6848  0.0618
  487TMC3    H1 7300   2.754   0.724  12.945 -0.1111 -0.0810 -1.8603
  487TMC3    H2 7301   2.568   0.367  12.802 -0.8176 -0.0576  2.3747
  487TMC3    C7 7302   2.683   0.491  13.015  0.8803 -0.7223 -0.8326
  487TMC3    C8 7303   2.354   0.504  12.766  0.7030 -0.1417  0.0957
  487TMC3    O1 7304   2.651   0.572  13.102 -0.4422 -0.5683  0.1162
  487TMC3    O2 7305   2.304   0.441  12.677 -0.3596  0.3847  0.6835
  488MPD2     C 7306   2.743   2.779  15.998  1.1366 -0.4358 -0.6017
  488MPD2    C1 7307   2.674   2.868  16.078 -0.4432 -0.5117  0.3731
  488MPD2    C2 7308   2.606   2.822  16.188  0.7927  1.2035  0.0559
  488MPD2    C3 7309   2.627   2.691  16.234  0.1064 -0.0724 -0.4891
  488MPD2    C4 7310   2.695   2.602  16.155  1.0010  0.3618  0.1146
  488MPD2    C5 7311   2.762   2.650  16.045  0.2157 -0.5481 -0.8835
  488MPD2     H 7312   2.535   2.882  16.244 -0.2213  0.0644 -0.0086
  488MPD2    H1 7313   2.701   2.496  16.180 -3.1319 -0.3507 -1.9603
  488MPD2    H2 7314   2.791   2.799  15.903  3.2473 -0.4669  0.4564
  488MPD2    H3 7315   2.818   2.581  15.982  0.6707  0.6442 -1.7815
  488MPD2     N 7316   2.555   2.649  16.350 -0.5574 -0.5436 -0.3055
  488MPD2    H5 7317   2.498   2.724  16.388  3.1767  2.5375 -0.7547
  488MPD2    N1 7318   2.662   3.005  16.056 -0.1310 -0.0068 -0.1593
  488MPD2    H7 7319   2.614   3.058  16.129 -2.1804  0.8192 -2.1252
  489TMC3    C1 7320   2.567   2.571  16.568  0.1386 -0.2120 -0.6592
  489TMC3    C2 7321   2.579   2.699  16.609  0.2664 -0.4376 -0.0054
  489TMC3    C3 7322   2.546   2.727  16.740  0.0331 -0.6382 -0.2191
  489TMC3    C4 7323   2.521   2.474  16.648 -0.1618 -0.0235 -0.2043
  489TMC3    C5 7324   2.494   2.501  16.775  0.6114  0.2015 -0.5505
  489TMC3    C6 7325   2.509   2.629  16.829  0.0780 -0.9458  0.6862
  489TMC3     C 7326   2.582   2.541  16.428 -0.2014 -0.5276  0.4250
  489TMC3     O 7327   2.632   2.436  16.398 -0.7981  0.2150 -0.1949
  489TMC3     H 7328   2.611   2.781  16.546 -1.4089 -1.3015 -1.9901
  489TMC3    H1 7329   2.521   2.369  16.622 -0.1629 -0.3658  1.2117
  489TMC3    H2 7330   2.482   2.644  16.932  0.9319  3.7791  0.2668
  489TMC3    C7 7331   2.405   2.402  16.835  1.6791  0.1811 -0.2681
  489TMC3    C8 7332   2.566   2.872  16.777 -0.4807 -0.8239  0.0492
  489TMC3    O1 7333   2.336   2.335  16.763  0.2761  0.4589  0.1948
  489TMC3    O2 7334   2.659   2.929  16.729 -0.3927  0.1725  0.9623
  490MPD2     C 7335   3.312   2.281  16.671 -0.1184 -0.3134 -0.0454
  490MPD2    C1 7336   3.213   2.294  16.757  0.7982 -0.1481  0.2319
  490MPD2    C2 7337   3.211   2.408  16.837 -0.2406 -0.0324  0.6296
  490MPD2    C3 7338   3.309   2.505  16.828 -0.2747 -0.7447  0.0376
  490MPD2    C4 7339   3.417   2.490  16.745  0.1930 -0.6791  0.5793
  490MPD2    C5 7340   3.413   2.377  16.660  0.0667  0.0435 -0.5118
  490MPD2     H 7341   3.134   2.413  16.913  0.8245  0.1731  1.6975
  490MPD2    H1 7342   3.506   2.551  16.753 -0.7548  0.6998  0.5549
  490MPD2    H2 7343   3.309   2.201  16.598  0.6862 -0.5163  0.1380
  490MPD2    H3 7344   3.489   2.356  16.586 -1.0824 -1.1205 -1.3541
  490MPD2     N 7345   3.324   2.611  16.923 -0.2354  0.2487  0.0801
  490MPD2    H5 7346   3.401   2.676  16.913 -0.0800  0.0827  0.1922
  490MPD2    N1 7347   3.125   2.185  16.784 -0.6138 -0.2925 -0.3177
  490MPD2    H7 7348   3.074   2.185  16.872 -0.9121  3.4389 -0.4774
  491TMC3    C1 7349   3.025   1.975  16.776  0.8289 -0.4141  0.4738
  491TMC3    C2 7350   3.002   1.986  16.913  0.2813  0.3701 -0.2933
  491TMC3    C3 7351   2.944   1.875  16.970  0.5235  0.5133  0.3519
  491TMC3    C4 7352   2.979   1.866  16.701 -0.4718  0.1821 -0.1014
  491TMC3    C5 7353   2.923   1.756  16.767  0.9702 -0.6602 -0.1600
  491TMC3    C6 7354   2.904   1.757  16.905 -0.3681  0.2366  0.0875
  491TMC3     C 7355   3.109   2.073  16.713 -0.0355 -0.1697 -0.3881
  491TMC3     O 7356   3.152   2.049  16.606  0.6810 -0.7672 -0.3758
  491TMC3     H 7357   3.017   2.074  16.974 -0.9339  0.7292 -0.5109
  491TMC3    H1 7358   3.001   1.866  16.595 -0.0038  0.2489 -0.0059
  491TMC3    H2 7359   2.857   1.677  16.962 -0.9901  1.9354  1.9612
  491TMC3    C7 7360   2.871   1.644  16.683 -0.0596  0.7784  0.8362
  491TMC3    C8 7361   2.960   1.859  17.108  0.5023 -0.4215  0.3002
  491TMC3    O1 7362   2.854   1.672  16.564  0.1810  0.4036 -0.2229
  491TMC3    O2 7363   2.884   1.784  17.164 -0.1492 -0.2241 -0.1665
  492MPD2     C 7364   3.839   2.114  11.836  0.5243  0.1034 -0.0862
  492MPD2    C1 7365   3.747   2.065  11.747  0.0290  0.6274 -0.3140
  492MPD2    C2 7366   3.631   1.997  11.796 -0.0005  0.3881  0.0511
  492MPD2    C3 7367   3.610   1.980  11.936 -0.5834  0.1279  0.4684
  492MPD2    C4 7368   3.708   2.034  12.018  0.3598  0.9678 -0.8651
  492MPD2    C5 7369   3.822   2.094  11.970 -0.3594  0.5359  0.3443
  492MPD2     H 7370   3.551   1.963  11.732 -2.1226  3.1213  1.2635
  492MPD2    H1 7371   3.703   2.024  12.126  1.1535  1.3781 -0.7962
  492MPD2    H2 7372   3.927   2.173  11.811 -0.0035 -0.1680 -2.5956
  492MPD2    H3 7373   3.902   2.128  12.034 -0.5720  0.0094  0.8968
  492MPD2     N 7374   3.497   1.933  12.012  0.0203 -0.1958  0.3450
  492MPD2    H5 7375   3.511   1.931  12.112  0.2373 -1.2254  0.2941
  492MPD2    N1 7376   3.780   2.077  11.610 -0.0817 -0.4675 -0.7858
  492MPD2    H7 7377   3.870   2.108  11.576  0.9907 -1.0777  1.5004
  493TMC3    C1 7378   3.771   2.046  11.372  0.2345  0.0920  0.4143
  493TMC3    C2 7379   3.864   2.151  11.358 -1.0865  0.0076 -0.5008
  493TMC3    C3 7380   3.924   2.172  11.239  0.2928  0.1619 -0.1752
  493TMC3    C4 7381   3.720   1.989  11.257  0.4241  0.3659  0.2163
  493TMC3    C5 7382   3.774   2.021  11.135 -0.2675 -0.0062 -0.1636
  493TMC3    C6 7383   3.881   2.117  11.122 -0.0501 -0.3838 -0.1249
  493TMC3     C 7384   3.705   2.032  11.500 -0.3573  0.1690 -0.4503
  493TMC3     O 7385   3.590   1.987  11.503 -0.3410 -0.3914 -0.3359
  493TMC3     H 7386   3.882   2.218  11.441 -0.0243 -1.3293  0.3379
  493TMC3    H1 7387   3.625   1.937  11.267  1.3204 -0.8929  2.3008
  493TMC3    H2 7388   3.930   2.142  11.028 -2.2913  1.9033 -0.6859
  493TMC3    C7 7389   3.700   1.984  11.013 -0.4667  0.0822  0.0936
  493TMC3    C8 7390   4.024   2.279  11.224  0.1664  0.1652 -0.1523
  493TMC3    O1 7391   3.617   1.895  11.020  0.0268  0.8191  0.5138
  493TMC3    O2 7392   4.067   2.305  11.113 -0.3094  0.6107 -0.8258
  494TMC3    C1 7393   3.608   4.200   0.527 -0.3764  0.5753  0.3510
  494TMC3    C2 7394   3.578   4.072   0.494 -0.2095 -0.2938  0.2431
  494TMC3    C3 7395   3.591   4.028   0.369 -0.1300 -0.2416  0.1768
  494TMC3    C4 7396   3.654   4.291   0.445  0.8530 -0.2128  0.1312
  494TMC3    C5 7397   3.672   4.242   0.314 -0.4743 -0.3479  0.6886
  494TMC3    C6 7398   3.647   4.115   0.278 -0.6394 -0.5524 -0.0682
  494TMC3     C 7399   3.587   4.253   0.662 -0.4207 -0.2268 -0.4251
  494TMC3     O 7400   3.640   4.358   0.695  0.1796  0.3017 -0.0904
  494TMC3     H 7401   3.547   3.992   0.561 -0.9757  0.5411  0.8961
  494TMC3    H1 7402   3.690   4.388   0.478  1.7200 -0.7428  0.7464
  494TMC3    H2 7403   3.655   4.083   0.175 -1.4883 -3.0253  0.6498
  494TMC3    C7 7404   3.749   4.311   0.211 -0.2725 -0.4773 -0.5206
  494TMC3    C8 7405   3.644   3.892   0.375  0.4813  0.5719  0.0566
  494TMC3    O1 7406   3.761   4.257   0.099  0.0340 -0.3786 -0.2705
  494TMC3    O2 7407   3.717   3.868   0.468 -0.6689 -0.2116 -0.2783
  495TMC3    C1 7408   2.966   1.491  14.574  0.0889 -0.0083 -0.3385
  495TMC3    C2 7409   2.889   1.528  14.466 -0.1524  0.3109 -0.6245
  495TMC3    C3 7410   2.800   1.633  14.486 -0.0167 -0.4304  0.5891
  495TMC3    C4 7411   2.942   1.543  14.703  0.7474  0.4510 -0.5759
  495TMC3    C5 7412   2.849   1.648  14.714 -0.1786  0.6516  0.4529
  495TMC3    C6 7413   2.779   1.691  14.605  0.6948 -0.8046 -0.2439
  495TMC3     C 7414   3.028   1.364  14.557 -0.3777 -0.4656 -0.7031
  495TMC3     O 7415   3.144   1.341  14.599  0.5215  0.3307  0.0861
  495TMC3     H 7416   2.920   1.502  14.366  2.2022 -0.6856  0.3589
  495TMC3    H1 7417   2.988   1.493  14.787 -1.5665 -1.2583 -0.2902
  495TMC3    H2 7418   2.713   1.777  14.613  0.1561 -1.2742  0.3358
  495TMC3    C7 7419   2.790   1.661  14.845  0.2200  0.3053  0.0410
  495TMC3    C8 7420   2.691   1.633  14.390 -0.0505 -0.5498 -0.3150
  495TMC3    O1 7421   2.864   1.630  14.936 -0.0460  0.2204  0.1948
  495TMC3    O2 7422   2.598   1.696  14.436  0.0657 -0.2257 -0.0647
  496MPD2     C 7423   0.024   1.674  14.871  0.9461 -0.0379  0.1594
  496MPD2    C1 7424   0.050   1.643  14.998 -0.0754 -0.4772  0.4760
  496MPD2    C2 7425   4.698   1.685  15.095  0.9266 -0.4468  0.2808
  496MPD2    C3 7426   4.578   1.752  15.064 -0.0299  0.0217  0.6828
  496MPD2    C4 7427   4.552   1.779  14.934  0.5201  0.0508 -0.2071
  496MPD2    C5 7428   4.645   1.741  14.836  0.1719  0.3685 -0.2926
  496MPD2     H 7429   4.713   1.673  15.202  1.5239 -2.4348 -0.0171
  496MPD2    H1 7430   4.462   1.833  14.905  0.2232 -1.0333 -1.3414
  496MPD2    H2 7431   0.081   1.647  14.783 -0.0317  0.7648 -0.7269
  496MPD2    H3 7432   4.627   1.773  14.734  1.3777  0.9086 -0.3385
  496MPD2     N 7433   4.485   1.805  15.154 -0.3864 -0.4502 -0.2499
  496MPD2    H5 7434   4.403   1.853  15.118 -1.2995 -0.5483  1.7337
  496MPD2    N1 7435   0.172   1.575  15.024 -0.7326 -0.1323  0.4522
  496MPD2    H7 7436   0.238   1.555  14.950 -1.6291  0.6780 -0.5688
  497TMC3    C1 7437   4.353   1.803  15.343 -0.0147 -0.7240 -0.4294
  497TMC3    C2 7438   4.242   1.775  15.268 -0.2165  0.3680  0.6524
  497TMC3    C3 7439   4.123   1.780  15.338  0.6404  0.1731 -0.3620
  497TMC3    C4 7440   4.352   1.826  15.478 -0.7109 -0.3812 -0.0548
  497TMC3    C5 7441   4.235   1.818  15.545 -0.1142 -1.1664  0.4945
  497TMC3    C6 7442   4.124   1.785  15.476 -0.9578  0.1403  0.6373
  497TMC3     C 7443   4.482   1.779  15.290  0.4799  0.4365  0.7216
  497TMC3     O 7444   4.569   1.739  15.364  0.2817 -0.7945 -0.1247
  497TMC3     H 7445   4.249   1.756  15.162 -0.4428 -0.9311  0.8677
  497TMC3    H1 7446   4.442   1.849  15.534 -0.3103  2.2621 -1.7649
  497TMC3    H2 7447   4.027   1.768  15.522 -2.6781  1.9085 -2.4105
  497TMC3    C7 7448   4.232   1.756  15.678  0.8930 -0.3057 -0.0771
  497TMC3    C8 7449   4.008   1.692  15.290  0.5376 -0.2422 -0.0658
  497TMC3    O1 7450   4.151   1.670  15.701  0.1597 -0.6020 -0.0143
  497TMC3    O2 7451   3.898   1.707  15.339 -0.5788  0.0094  0.0815
  498MPD2     C 7452   1.493   1.690  10.014 -0.2156 -0.2625  0.4310
  498MPD2    C1 7453   1.446   1.810  10.059 -0.0243  0.0554  0.0383
  498MPD2    C2 7454   1.311   1.820  10.086  0.4016  0.0471 -0.2576
  498MPD2    C3 7455   1.228   1.713  10.063  0.0511 -0.3754 -0.0957
  498MPD2    C4 7456   1.275   1.600  10.003 -1.2698 -1.1301  0.3899
  498MPD2    C5 7457   1.409   1.590   9.973  0.4264  0.5457 -0.1779
  498MPD2     H 7458   1.275   1.919  10.111 -1.2682  0.0400 -2.6459
  498MPD2    H1 7459   1.208   1.518   9.981 -0.7118 -0.9823 -1.8363
  498MPD2    H2 7460   1.599   1.673   9.995  0.0454 -0.7230  2.3140
  498MPD2    H3 7461   1.447   1.498   9.930  0.9346 -0.4419  2.3826
  498MPD2     N 7462   1.093   1.720  10.109 -0.0504 -0.0084 -0.1620
  498MPD2    H5 7463   1.074   1.785  10.184 -1.3352  1.5021 -1.8085
  498MPD2    N1 7464   1.533   1.919  10.083  0.4861 -0.0269  0.4808
  498MPD2    H7 7465   1.486   2.008  10.092  0.3833 -0.3800  3.5209
  499TMC3    C1 7466   1.741   2.035  10.072 -0.2701  0.3852 -0.4285
  499TMC3    C2 7467   1.847   2.047  10.159  1.0096 -0.2825 -0.2484
  499TMC3    C3 7468   1.890   2.175  10.192  0.4061 -0.0399 -0.2202
  499TMC3    C4 7469   1.667   2.151  10.030 -0.1662 -0.2700 -0.1660
  499TMC3    C5 7470   1.707   2.272  10.077  0.1037 -0.5722 -1.0952
  499TMC3    C6 7471   1.821   2.284  10.151  0.1368 -0.1675 -0.6584
  499TMC3     C 7472   1.672   1.907  10.095  0.3991  0.2038 -0.3785
  499TMC3     O 7473   1.738   1.805  10.117 -0.2482 -0.1191 -0.0275
  499TMC3     H 7474   1.893   1.952  10.185  1.3567  0.3792  1.5689
  499TMC3    H1 7475   1.593   2.149   9.950 -0.9497 -2.1937  0.6276
  499TMC3    H2 7476   1.852   2.383  10.184 -1.2763  1.0312 -2.9324
  499TMC3    C7 7477   1.648   2.397  10.032 -0.1691  0.4140 -0.9513
  499TMC3    C8 7478   2.011   2.201  10.261 -0.3503  0.4221  0.3317
  499TMC3    O1 7479   1.711   2.503  10.051  0.4008  0.2279 -0.2309
  499TMC3    O2 7480   2.049   2.320  10.263 -0.4256 -0.3273  0.2438
  500MPD2     C 7481   2.686   2.724  10.941 -0.6242  0.1028  0.5420
  500MPD2    C1 7482   2.662   2.856  10.940  0.0369 -0.0662 -0.0412
  500MPD2    C2 7483   2.559   2.900  10.853  0.0685  0.2089  0.0912
  500MPD2    C3 7484   2.483   2.818  10.775  0.1162 -0.9491  0.9716
  500MPD2    C4 7485   2.527   2.687  10.766  0.1389 -0.1584 -0.2499
  500MPD2    C5 7486   2.625   2.645  10.855  0.5442  0.0563 -0.0398
  500MPD2     H 7487   2.535   3.005  10.864 -0.4800 -0.1092  1.9263
  500MPD2    H1 7488   2.471   2.614  10.709  1.9845 -0.3794 -1.8097
  500MPD2    H2 7489   2.753   2.668  11.006 -0.1040  0.4039  0.2651
  500MPD2    H3 7490   2.642   2.538  10.861 -0.0274  0.0018  0.6105
  500MPD2     N 7491   2.379   2.862  10.696  0.6832 -0.0511 -0.0786
  500MPD2    H5 7492   2.340   2.796  10.631  1.3787  1.6448 -2.2285
  500MPD2    N1 7493   2.718   2.952  11.024 -0.2151  0.6820 -0.1225
  500MPD2    H7 7494   2.684   3.047  11.016  0.3993  0.7451 -2.0232
  501TMC3    C1 7495   2.886   3.059  11.138 -0.8322  0.7588  0.4728
  501TMC3    C2 7496   2.812   3.176  11.130 -0.1915  0.2390 -0.6451
  501TMC3    C3 7497   2.878   3.296  11.153 -1.2092  0.1617 -0.3404
  501TMC3    C4 7498   3.023   3.062  11.145 -0.1160 -0.3213  0.1875
  501TMC3    C5 7499   3.084   3.183  11.157 -0.3611  0.0608  0.7476
  501TMC3    C6 7500   3.015   3.295  11.164  1.0087 -0.6685  0.5693
  501TMC3     C 7501   2.824   2.933  11.109 -0.1054  0.4155  0.1235
  501TMC3     O 7502   2.906   2.844  11.105  0.0482  0.0032 -0.1460
  501TMC3     H 7503   2.704   3.185  11.132 -0.1108  0.9102  0.6937
  501TMC3    H1 7504   3.088   2.977  11.125  2.4731  1.8002 -0.5349
  501TMC3    H2 7505   3.074   3.386  11.176  1.3068 -1.0711  2.1437
  501TMC3    C7 7506   3.223   3.189  11.135 -0.3537 -0.2043  0.2136
  501TMC3    C8 7507   2.827   3.423  11.117 -0.3453  0.4328 -0.7953
  501TMC3    O1 7508   3.292   3.097  11.176 -0.4086  0.0386  0.7373
  501TMC3    O2 7509   2.887   3.517  11.172 -0.3628  0.0198  0.7078
  502TMC3    C1 7510   2.077   2.321  14.704 -0.6553 -0.5412 -0.0998
  502TMC3    C2 7511   2.006   2.420  14.642 -0.0024  0.5222  0.0188
  502TMC3    C3 7512   1.868   2.435  14.669  0.0665 -0.3839 -0.3496
  502TMC3    C4 7513   2.008   2.235  14.784  0.1869 -0.0671 -0.0611
  502TMC3    C5 7514   1.876   2.250  14.797  0.8906 -0.5444 -0.3660
  502TMC3    C6 7515   1.804   2.348  14.746  0.1169 -0.1256 -0.0127
  502TMC3     C 7516   2.195   2.379  14.767  0.8196 -0.4054  0.2539
  502TMC3     O 7517   2.306   2.365  14.707 -0.1105 -0.4236 -0.2952
  502TMC3     H 7518   2.061   2.494  14.584  1.0475 -0.2764 -0.0189
  502TMC3    H1 7519   2.069   2.160  14.832 -2.6506 -1.0257  2.0609
  502TMC3    H2 7520   1.696   2.355  14.756  0.1616 -0.0422  0.3839
  502TMC3    C7 7521   1.818   2.168  14.906  0.2717 -0.1977  1.0229
  502TMC3    C8 7522   1.817   2.565  14.679 -0.0608  0.4408  0.3171
  502TMC3    O1 7523   1.877   2.074  14.953 -0.3037  0.0363 -0.5668
  502TMC3    O2 7524   1.898   2.651  14.711 -0.3698  0.0176  0.2977
  503MPD2     C 7525   4.043   3.416  16.727  0.0306  0.1285  0.1690
  503MPD2    C1 7526   4.003   3.410  16.861 -0.5275  0.0502 -0.7092
  503MPD2    C2 7527   4.012   3.291  16.932 -0.1404 -0.3732  0.2918
  503MPD2    C3 7528   4.057   3.181  16.863  0.1796  0.3377 -1.0240
  503MPD2    C4 7529   4.091   3.184  16.728 -0.3504  0.1708 -0.2874
  503MPD2    C5 7530   4.079   3.299  16.667  0.6130 -0.3448  0.2615
  503MPD2     H 7531   3.976   3.289  17.034 -1.0010  0.0661 -0.0043
  503MPD2    H1 7532   4.134   3.096  16.680 -0.2351  0.0399  0.0514
  503MPD2    H2 7533   4.030   3.507  16.669 -0.8234 -0.4501 -0.5397
  503MPD2    H3 7534   4.112   3.312  16.564  0.5156 -0.1511  0.2557
  503MPD2     N 7535   4.079   3.062  16.936  0.3716 -0.3396 -0.9743
  503MPD2    H5 7536   4.045   3.064  17.032 -1.4446 -3.4768 -1.5441
  503MPD2    N1 7537   3.968   3.527  16.932 -0.0594 -0.6199 -0.5037
  503MPD2    H7 7538   3.937   3.505  17.026  2.2787 -0.7618  0.2341
  504TMC3    C1 7539   4.190   2.861  17.012  0.4634  0.4537 -0.7516
  504TMC3    C2 7540   4.109   2.846  17.119  0.0729  0.6007 -0.3594
  504TMC3    C3 7541   4.159   2.766  17.226 -0.0926 -0.3994 -0.2330
  504TMC3    C4 7542   4.311   2.802  17.001 -0.1954 -0.0299 -0.1240
  504TMC3    C5 7543   4.349   2.718  17.101  0.8336  0.3319 -0.6247
  504TMC3    C6 7544   4.281   2.704  17.220 -0.1652 -0.8074  0.1255
  504TMC3     C 7545   4.158   2.954  16.902 -0.7587  0.0965  0.1104
  504TMC3     O 7546   4.213   2.930  16.795  0.3362  0.3830  0.1706
  504TMC3     H 7547   4.012   2.892  17.131  0.2565  1.2293 -1.3290
  504TMC3    H1 7548   4.376   2.830  16.919  0.7020 -0.3832  0.4731
  504TMC3    H2 7549   4.314   2.637  17.298  0.4946 -0.8404 -0.1836
  504TMC3    C7 7550   4.475   2.650  17.082  0.1573 -0.3464  0.0915
  504TMC3    C8 7551   4.079   2.750  17.345  0.1202  0.0540  0.1408
  504TMC3    O1 7552   4.538   2.701  16.990 -0.2040 -0.0905 -0.1698
  504TMC3    O2 7553   3.971   2.809  17.335 -0.0195 -0.6281 -0.5328
  505MPD2     C 7554   4.697   1.128  10.778 -0.1342 -0.0648 -0.3429
  505MPD2    C1 7555   0.050   1.029  10.777 -0.2855  0.1244  0.7287
  505MPD2    C2 7556   0.148   1.039  10.870 -0.2331 -0.6938 -0.3340
  505MPD2    C3 7557   0.151   1.137  10.966 -0.4335  0.0687 -0.5157
  505MPD2    C4 7558   0.041   1.219  10.972  0.1650 -0.8810 -1.1894
  505MPD2    C5 7559   4.682   1.220  10.873 -0.3136 -0.0733 -0.0650
  505MPD2     H 7560   0.237   0.979  10.853 -0.0236  0.4745 -3.3001
  505MPD2    H1 7561   0.035   1.304  11.039  1.7767 -0.8539 -1.0743
  505MPD2    H2 7562   4.619   1.131  10.703 -1.0913 -0.6051  0.6286
  505MPD2    H3 7563   4.596   1.286  10.870 -0.8801 -0.9320 -2.5880
  505MPD2     N 7564   0.259   1.149  11.058  0.0667  0.0339 -0.5955
  505MPD2    H5 7565   0.274   1.240  11.101 -2.9367 -1.0893  2.8361
  505MPD2    N1 7566   0.056   0.939  10.667  0.1889 -0.5931  0.2900
  505MPD2    H7 7567   4.738   0.945  10.582 -0.8096 -0.3029  0.9711
  506TMC3    C1 7568   0.139   0.756  10.538 -0.0152  0.2182 -0.2865
  506TMC3    C2 7569   0.152   0.831  10.427 -0.0531  0.5325 -0.4975
  506TMC3    C3 7570   0.222   0.766  10.326 -0.6465  0.4676  0.1607
  506TMC3    C4 7571   0.196   0.634  10.551 -0.2382 -0.0369 -0.3033
  506TMC3    C5 7572   0.284   0.584  10.459 -0.1804  0.5757 -0.5167
  506TMC3    C6 7573   0.296   0.650  10.342  0.9517  0.0375 -0.4149
  506TMC3     C 7574   0.132   0.826  10.664 -0.3213 -0.0272 -0.0602
  506TMC3     O 7575   0.200   0.770  10.746  0.1384 -0.4056  0.3085
  506TMC3     H 7576   0.095   0.922  10.414 -1.5671 -0.2870  0.4600
  506TMC3    H1 7577   0.176   0.584  10.645  0.8708 -0.3893 -0.2453
  506TMC3    H2 7578   0.364   0.620  10.263  0.0645 -1.6756 -0.5222
  506TMC3    C7 7579   0.421   0.575  10.512  0.7258  0.0627  1.1478
  506TMC3    C8 7580   0.239   0.840  10.203  0.2059  0.6222  0.2412
  506TMC3    O1 7581   0.515   0.539  10.440  0.2800 -0.5795 -0.2771
  506TMC3    O2 7582   0.237   0.788  10.093 -0.4642 -0.1470 -0.8081
  507TMC3    C1 7583   0.229   2.052  14.809  0.4792  0.2248 -0.3369
  507TMC3    C2 7584   0.113   1.993  14.782  0.0055 -0.1141 -0.6356
  507TMC3    C3 7585   0.096   1.946  14.657 -0.3620  0.8211  0.0680
  507TMC3    C4 7586   0.332   2.065  14.728  0.5658  0.4290 -0.1117
  507TMC3    C5 7587   0.308   2.021  14.608 -0.2386 -0.1849 -0.2284
  507TMC3    C6 7588   0.195   1.960  14.566 -0.1745 -0.4050 -0.7823
  507TMC3     C 7589   0.252   2.082  14.944  0.1228 -0.1237 -0.6118
  507TMC3     O 7590   0.349   2.155  14.957  0.1373  0.2808 -0.6146
  507TMC3     H 7591   0.032   1.988  14.854 -0.2334 -0.9393 -0.9588
  507TMC3    H1 7592   0.418   2.124  14.755 -0.3757  1.0945  1.4524
  507TMC3    H2 7593   0.198   1.921  14.465 -0.6207  0.9890 -1.3382
  507TMC3    C7 7594   0.363   2.099  14.499  0.3512  0.4316  0.6417
  507TMC3    C8 7595   4.712   1.989  14.597 -0.0302 -0.4303  0.2128
  507TMC3    O1 7596   0.288   2.115  14.407  0.8127 -0.3018  0.2020
  507TMC3    O2 7597   4.613   1.984  14.668  0.1054  0.0325  0.0898
  508MPD2     C 7598   1.582   0.107  15.808 -0.0038 -0.0172 -0.2503
  508MPD2    C1 7599   1.511   0.207  15.863  0.8354  0.4510 -0.8068
  508MPD2    C2 7600   1.492   0.324  15.785 -0.1710 -0.0626 -0.4889
  508MPD2    C3 7601   1.532   0.324  15.652  0.1255  0.4354  0.2117
  508MPD2    C4 7602   1.591   0.213  15.596 -0.4255 -0.1164 -0.3898
  508MPD2    C5 7603   1.619   0.107  15.675  0.1148 -0.6981  0.3519
  508MPD2     H 7604   1.445   0.410  15.831  2.2957 -0.1892  2.2266
  508MPD2    H1 7605   1.612   0.192  15.492  0.7877  1.7921 -0.5327
  508MPD2    H2 7606   1.577   0.008  15.850  3.6867 -0.6585 -1.3322
  508MPD2    H3 7607   1.660   0.013  15.641 -1.2363 -1.6901  1.4431
  508MPD2     N 7608   1.524   0.445  15.589 -0.0248 -0.1827  0.4085
  508MPD2    H5 7609   1.495   0.529  15.638  0.5200  0.4290 -0.3111
  508MPD2    N1 7610   1.461   0.192  15.995 -0.1282 -0.3764 -0.4090
  508MPD2    H7 7611   1.503   0.118  16.051  0.2164 -0.1978 -0.4279
  509TMC3    C1 7612   1.445   0.797  15.474 -0.8196 -0.7134  0.5325
  509TMC3    C2 7613   1.558   0.868  15.491  0.3670  0.1698  0.9741
  509TMC3    C3 7614   1.673   0.803  15.468 -0.3322 -0.0030  0.8944
  509TMC3    C4 7615   1.445   0.661  15.460 -0.8635 -0.0476 -1.1699
  509TMC3    C5 7616   1.562   0.603  15.435 -0.7112 -0.0493  0.0301
  509TMC3    C6 7617   1.679   0.668  15.430 -0.9310 -0.0190  0.1388
  509TMC3     C 7618   1.325   0.877  15.435  1.2719  0.0126 -0.4258
  509TMC3     O 7619   1.219   0.821  15.457  0.0074  0.3370  0.3456
  509TMC3     H 7620   1.571   0.975  15.501 -0.7333  0.3078  0.9460
  509TMC3    H1 7621   1.352   0.605  15.462 -0.0564 -1.3182  0.6481
  509TMC3    H2 7622   1.774   0.617  15.421 -0.6722 -0.1694  3.9237
  509TMC3    C7 7623   1.565   0.466  15.459  0.5528 -0.0842  0.2761
  509TMC3    C8 7624   1.798   0.874  15.460  0.4088  1.0936 -0.3949
  509TMC3    O1 7625   1.601   0.393  15.365  0.2477 -0.1998  0.4690
  509TMC3    O2 7626   1.886   0.820  15.396 -0.3780 -0.0960  0.3371
  510MPD2     C 7627   4.062   2.044  14.638  0.6637  1.1638 -0.0222
  510MPD2    C1 7628   4.064   1.909  14.638 -0.3936  0.0843  0.0553
  510MPD2    C2 7629   4.154   1.842  14.554 -0.1174 -0.4249  0.3960
  510MPD2    C3 7630   4.248   1.917  14.484  0.7006 -0.4614  0.0319
  510MPD2    C4 7631   4.236   2.050  14.473  0.1486 -0.3698 -0.1236
  510MPD2    C5 7632   4.138   2.110  14.549 -0.1018  0.1085  0.2235
  510MPD2     H 7633   4.159   1.734  14.544 -2.9689 -0.4780 -0.2518
  510MPD2    H1 7634   4.295   2.104  14.399  1.5294 -0.5676  0.8268
  510MPD2    H2 7635   3.993   2.107  14.694  0.4894 -0.1641  1.2502
  510MPD2    H3 7636   4.134   2.219  14.551 -1.4406  0.0273  2.2326
  510MPD2     N 7637   4.348   1.844  14.411  0.5389  0.1506 -0.2807
  510MPD2    H5 7638   4.346   1.744  14.431 -1.6932  0.0686 -0.8926
  510MPD2    N1 7639   3.978   1.837  14.720  0.0769  0.2522  0.3028
  510MPD2    H7 7640   3.925   1.895  14.785 -1.2388  1.1051 -1.5446
  511TMC3    C1 7641   3.884   1.658  14.825  0.5581 -0.1905 -0.3417
  511TMC3    C2 7642   3.836   1.729  14.930  0.1279 -0.0691  0.4411
  511TMC3    C3 7643   3.730   1.676  14.988  0.0186  0.1873 -0.0433
  511TMC3    C4 7644   3.838   1.533  14.789  0.3487  0.2977 -0.0712
  511TMC3    C5 7645   3.733   1.476  14.850 -0.2862  0.1235  0.0355
  511TMC3    C6 7646   3.675   1.553  14.949 -0.5480  0.3201  0.8075
  511TMC3     C 7647   3.994   1.709  14.747  0.0695 -0.4561 -0.7325
  511TMC3     O 7648   4.067   1.619  14.710 -0.0543 -0.8201  0.2148
  511TMC3     H 7649   3.886   1.818  14.965  0.8403 -0.6778  0.9542
  511TMC3    H1 7650   3.872   1.492  14.694  4.0728  0.9390  0.9654
  511TMC3    H2 7651   3.574   1.531  14.983 -0.4900  1.0527  1.4610
  511TMC3    C7 7652   3.663   1.365  14.789  0.0735  0.0554 -0.3147
  511TMC3    C8 7653   3.660   1.758  15.086 -0.8097 -0.0561 -0.1445
  511TMC3    O1 7654   3.688   1.340  14.671 -0.2359  0.2004  0.1043
  511TMC3    O2 7655   3.693   1.873  15.097 -0.3761 -0.1925  0.5013
  512TMC3    C1 7656   2.673   0.954  13.316 -0.0010 -0.0699  0.2116
  512TMC3    C2 7657   2.720   0.982  13.443 -0.1806 -0.0328 -0.3043
  512TMC3    C3 7658   2.804   0.894  13.507  0.4789 -0.6016 -0.1937
  512TMC3    C4 7659   2.706   0.841  13.252  0.2036 -0.1223  0.2046
  512TMC3    C5 7660   2.790   0.751  13.315  0.2515  0.2276  0.0142
  512TMC3    C6 7661   2.833   0.772  13.444 -0.4197 -0.4596 -0.0908
  512TMC3     C 7662   2.591   1.052  13.246 -0.2588  0.4585 -0.2306
  512TMC3     O 7663   2.516   1.016  13.158  0.4833 -0.7305  0.0166
  512TMC3     H 7664   2.692   1.073  13.497 -0.6908 -1.2363  1.4637
  512TMC3    H1 7665   2.669   0.823  13.152 -0.3090  0.3688  0.3098
  512TMC3    H2 7666   2.895   0.701  13.498 -2.6202 -3.2769 -1.2908
  512TMC3    C7 7667   2.890   0.700  13.227  0.1427  0.3779 -1.0673
  512TMC3    C8 7668   2.833   0.888  13.651  0.5574  0.3710  0.7841
  512TMC3    O1 7669   2.907   0.763  13.125  0.1072 -0.0561 -0.7418
  512TMC3    O2 7670   2.825   0.775  13.706  0.2679  0.3338  0.1459
  513MPD2     C 7671   0.271   0.199  13.379  0.2057 -0.0640  0.1177
  513MPD2    C1 7672   0.358   0.269  13.297  1.0306 -0.3951  0.0537
  513MPD2    C2 7673   0.346   0.406  13.306  0.1641  0.3579  0.5171
  513MPD2    C3 7674   0.260   0.474  13.388  0.6359 -1.2457 -0.5615
  513MPD2    C4 7675   0.172   0.403  13.465 -0.0378  0.6403  0.0653
  513MPD2    C5 7676   0.180   0.270  13.451  0.2322  0.1521  0.4759
  513MPD2     H 7677   0.412   0.467  13.246 -0.7436  1.3792  0.5566
  513MPD2    H1 7678   0.097   0.442  13.533 -0.2338  0.3305  0.0277
  513MPD2    H2 7679   0.274   0.091  13.384 -2.8668 -0.0661  1.6329
  513MPD2    H3 7680   0.105   0.212  13.503  2.3572  0.1120  3.5336
  513MPD2     N 7681   0.257   0.615  13.381  0.3397  0.6514  0.6062
  513MPD2    H5 7682   0.323   0.660  13.319 -1.0271  0.4711 -0.9657
  513MPD2    N1 7683   0.466   0.215  13.227  0.1024 -0.0400  0.0218
  513MPD2    H7 7684   0.537   0.274  13.184  0.3335  0.3492  0.9426
  514TMC3    C1 7685   0.631   0.078  13.152  0.1083  0.8839  0.1576
  514TMC3    C2 7686   0.622   0.044  13.021  0.1686 -0.5754  0.9847
  514TMC3    C3 7687   0.703   0.109  12.940 -0.1956  0.1921 -0.3432
  514TMC3    C4 7688   0.716   0.173  13.195 -0.4284  0.2938 -0.0792
  514TMC3    C5 7689   0.799   0.239  13.111 -0.4254 -0.1398  0.0572
  514TMC3    C6 7690   0.797   0.199  12.979  0.3188  0.1982 -0.2833
  514TMC3     C 7691   0.506   0.083  13.224  0.3792  0.5550 -0.1766
  514TMC3     O 7692   0.444   4.718  13.246 -0.3864 -0.0421 -0.1017
  514TMC3     H 7693   0.547   4.714  12.983 -1.7564  1.5037  1.0278
  514TMC3    H1 7694   0.709   0.196  13.301 -4.5058  1.8917 -0.7226
  514TMC3    H2 7695   0.862   0.246  12.906  0.3415  1.2510  0.4057
  514TMC3    C7 7696   0.761   0.376  13.135 -0.6030 -0.4294 -0.2746
  514TMC3    C8 7697   0.668   0.088  12.797  0.1271  0.0350 -0.5773
  514TMC3    O1 7698   0.671   0.400  13.219  0.7150 -0.2985 -0.2173
  514TMC3    O2 7699   0.620   4.718  12.765 -0.2214 -0.7149 -0.2264
  515MPD2     C 7700   3.003   3.405  15.273  0.1183  0.4156 -0.2838
  515MPD2    C1 7701   3.046   3.369  15.146  0.1565  0.1782 -0.9556
  515MPD2    C2 7702   3.157   3.432  15.099 -0.8466 -1.1658 -0.0711
  515MPD2    C3 7703   3.231   3.521  15.172  0.2717 -0.4978 -0.4242
  515MPD2    C4 7704   3.182   3.566  15.292  0.4103 -0.5651  0.3841
  515MPD2    C5 7705   3.070   3.504  15.340  0.1744 -0.2634 -0.1929
  515MPD2     H 7706   3.195   3.391  15.007 -0.7603  1.9479 -1.4381
  515MPD2    H1 7707   3.235   3.641  15.349  0.1341 -0.6523  0.7523
  515MPD2    H2 7708   2.909   3.368  15.313 -0.4191  0.7169 -1.2612
  515MPD2    H3 7709   3.025   3.533  15.434 -0.0654  1.0827 -0.7119
  515MPD2     N 7710   3.363   3.565  15.131 -0.0413 -0.5191  0.6054
  515MPD2    H5 7711   3.422   3.605  15.204  0.5959  0.0891 -0.2293
  515MPD2    N1 7712   2.978   3.279  15.059 -0.2186  0.8021 -0.5977
  515MPD2    H7 7713   2.992   3.293  14.960  2.0281 -0.6022 -0.4778
  516TMC3    C1 7714   2.802   3.123  15.010  0.1513  0.3380  0.3599
  516TMC3    C2 7715   2.776   3.195  14.899  0.7525  0.3534  0.7125
  516TMC3    C3 7716   2.730   3.126  14.785  0.2642 -1.3028  0.4590
  516TMC3    C4 7717   2.795   2.987  15.010 -0.3415 -0.6223  0.4300
  516TMC3    C5 7718   2.763   2.921  14.896  0.0606  0.0826  0.0863
  516TMC3    C6 7719   2.732   2.989  14.780 -0.4891 -0.3085  0.0235
  516TMC3     C 7720   2.890   3.185  15.110 -0.7369 -0.4499  0.0560
  516TMC3     O 7721   2.884   3.135  15.220 -0.0729  0.7939 -0.0737
  516TMC3     H 7722   2.775   3.303  14.906 -0.7764  0.6234 -3.3195
  516TMC3    H1 7723   2.825   2.933  15.099 -0.4770 -1.3481  0.0335
  516TMC3    H2 7724   2.692   2.943  14.691  2.3483  0.0696 -1.4453
  516TMC3    C7 7725   2.761   2.774  14.900 -0.3329 -0.6105  0.2076
  516TMC3    C8 7726   2.683   3.200  14.674 -0.0412  0.1883  0.2350
  516TMC3    O1 7727   2.728   2.717  15.005  0.1165  0.1536  0.7517
  516TMC3    O2 7728   2.622   3.147  14.581  0.0370  0.0004  0.7120
  517MPD2     C 7729   1.979   4.224  17.356  0.2097 -0.5957  0.3294
  517MPD2    C1 7730   2.100   4.203  17.422 -0.1854  0.0362  0.3225
  517MPD2    C2 7731   2.134   4.282  17.529  0.2406 -0.5714  0.0130
  517MPD2    C3 7732   2.058   4.389  17.557 -0.0911  0.3194  0.2920
  517MPD2    C4 7733   1.942   4.417  17.484  0.7054  1.0868 -0.4444
  517MPD2    C5 7734   1.905   4.332  17.386 -0.0717  0.7902 -0.1850
  517MPD2     H 7735   2.227   4.265  17.581  0.3923 -1.6232 -0.6218
  517MPD2    H1 7736   1.881   4.500  17.519 -1.8046 -1.3869  0.9495
  517MPD2    H2 7737   1.953   4.157  17.275 -2.7944  0.7440  0.1483
  517MPD2    H3 7738   1.810   4.350  17.336 -0.0120 -1.9085 -1.2441
  517MPD2     N 7739   2.097   4.482  17.662 -0.2097  0.0209  0.4209
  517MPD2    H5 7740   2.017   4.545  17.669 -1.4620 -1.6151  0.9492
  517MPD2    N1 7741   2.186   4.094  17.393 -0.6519  0.4291  0.4389
  517MPD2    H7 7742   2.275   4.097  17.442 -0.3194  0.3994 -0.1676
  518TMC3    C1 7743   2.289   3.942  17.275 -0.1011 -0.1210 -0.1532
  518TMC3    C2 7744   2.294   3.814  17.235 -0.9714 -0.9165  0.4723
  518TMC3    C3 7745   2.409   3.767  17.172  0.2129  0.5295  0.5473
  518TMC3    C4 7746   2.388   4.030  17.244 -0.2673  0.3240  0.9527
  518TMC3    C5 7747   2.495   3.982  17.172  0.4592  0.2820  0.1504
  518TMC3    C6 7748   2.511   3.851  17.132  0.4236  0.7321  0.5536
  518TMC3     C 7749   2.163   3.991  17.302 -0.4265  0.1169 -0.4626
  518TMC3     O 7750   2.058   3.946  17.262 -0.1239  0.1609 -0.1538
  518TMC3     H 7751   2.202   3.757  17.243 -1.1965 -0.4302  1.2836
  518TMC3    H1 7752   2.388   4.135  17.270  0.9624  0.3393  0.9090
  518TMC3    H2 7753   2.585   3.816  17.061  0.7721  2.7300 -0.0864
  518TMC3    C7 7754   2.619   4.053  17.179  0.1508 -0.9175  0.4034
  518TMC3    C8 7755   2.432   3.628  17.159  0.4968  0.1138  0.2413
  518TMC3    O1 7756   2.625   4.175  17.187  0.1267 -0.0988  0.1323
  518TMC3    O2 7757   2.509   3.599  17.068 -0.0827 -0.3207  0.2468
  519MPD2     C 7758   4.678   3.114  13.931 -0.2430 -0.0667 -0.1409
  519MPD2    C1 7759   4.559   3.060  13.974  0.0913  0.0858  0.5335
  519MPD2    C2 7760   4.533   2.930  13.938 -0.3344  0.1446  0.4066
  519MPD2    C3 7761   4.625   2.858  13.864 -0.1866  0.1573 -0.3898
  519MPD2    C4 7762   4.737   2.914  13.821 -0.0616 -0.2558  0.0746
  519MPD2    C5 7763   0.024   3.042  13.852  0.5109  0.3463 -0.4585
  519MPD2     H 7764   4.442   2.886  13.977 -0.1220  1.0627  1.9148
  519MPD2    H1 7765   0.064   2.856  13.757 -0.8128 -0.1507 -0.7770
  519MPD2    H2 7766   4.702   3.213  13.969 -0.1130 -1.0406  2.3733
  519MPD2    H3 7767   0.114   3.097  13.826  0.4396  0.6949  0.0168
  519MPD2     N 7768   4.598   2.723  13.825 -0.3135 -0.7652  0.5497
  519MPD2    H5 7769   4.669   2.676  13.770 -1.5633  0.6128 -2.2738
  519MPD2    N1 7770   4.472   3.132  14.064 -0.3056  0.1989  0.3385
  519MPD2    H7 7771   4.497   3.228  14.086  1.3685 -0.0037 -0.6939
  520TMC3    C1 7772   4.502   2.507  13.843  0.0888  0.4056  0.2355
  520TMC3    C2 7773   4.384   2.434  13.816  0.4588  0.1615 -0.2076
  520TMC3    C3 7774   4.378   2.305  13.854 -0.4427  0.6433 -0.1605
  520TMC3    C4 7775   4.612   2.449  13.902  0.5243  0.0282 -0.8957
  520TMC3    C5 7776   4.600   2.314  13.938 -0.4603  0.6865 -0.4116
  520TMC3    C6 7777   4.485   2.239  13.909  0.2404 -0.0234 -0.7815
  520TMC3     C 7778   4.481   2.654  13.849  0.0175 -0.5529 -0.0003
  520TMC3     O 7779   4.369   2.701  13.860  0.3739  0.2248 -0.0618
  520TMC3     H 7780   4.299   2.476  13.763 -1.2799 -1.2616  1.4617
  520TMC3    H1 7781   4.691   2.510  13.946 -2.1832 -1.0720  5.4698
  520TMC3    H2 7782   4.464   2.136  13.935 -1.7937  0.3800 -0.8271
  520TMC3    C7 7783   4.718   2.236  13.977  0.0631 -0.4311 -0.7519
  520TMC3    C8 7784   4.250   2.236  13.837  0.7996  0.2785  0.2727
  520TMC3    O1 7785   4.708   2.117  13.998 -0.3388 -0.7776  0.2798
  520TMC3    O2 7786   4.255   2.130  13.775 -0.1675  0.0282  0.0691
  521MPD2     C 7787   0.036   0.808  17.202 -0.4796  0.5160  0.2035
  521MPD2    C1 7788   4.676   0.752  17.118 -0.0668 -0.5202  0.2629
  521MPD2    C2 7789   4.710   0.675  17.012 -0.1158 -0.4821 -0.0082
  521MPD2    C3 7790   0.098   0.651  16.984  0.4492  0.3957 -0.1616
  521MPD2    C4 7791   0.189   0.711  17.054 -0.5207  0.6431 -0.0806
  521MPD2    C5 7792   0.163   0.782  17.167 -0.1705 -0.4376 -0.3261
  521MPD2     H 7793   4.642   0.642  16.935 -0.4988 -0.1844  0.2083
  521MPD2    H1 7794   0.294   0.693  17.033 -0.5821  1.0842 -0.7579
  521MPD2    H2 7795   0.013   0.876  17.283  0.3962 -0.1863  1.0426
  521MPD2    H3 7796   0.255   0.827  17.204  0.4242 -0.8352 -1.3337
  521MPD2     N 7797   0.138   0.581  16.867 -0.6889 -0.1704 -0.6385
  521MPD2    H5 7798   0.075   0.575  16.787  0.2901 -2.0787 -1.2579
  521MPD2    N1 7799   4.544   0.799  17.137  0.1348 -0.3242 -0.1158
  521MPD2    H7 7800   4.524   0.861  17.214 -0.7431 -1.2811  0.4164
  522TMC3    C1 7801   0.285   0.450  16.733 -0.3552 -0.2860 -0.0696
  522TMC3    C2 7802   0.323   0.322  16.735  0.1374 -0.1358  0.1720
  522TMC3    C3 7803   0.409   0.274  16.640 -0.0496  0.3448 -0.1370
  522TMC3    C4 7804   0.332   0.542  16.639 -0.9474  0.6552  0.6777
  522TMC3    C5 7805   0.415   0.486  16.547  0.4206 -0.1602  0.0414
  522TMC3    C6 7806   0.454   0.355  16.542  0.0085  0.0089 -0.3188
  522TMC3     C 7807   0.255   0.505  16.865  0.1582 -0.8479 -0.0374
  522TMC3     O 7808   0.312   0.455  16.962  0.2711 -0.7786 -0.5038
  522TMC3     H 7809   0.282   0.261  16.814 -1.0944  1.8027  1.0224
  522TMC3    H1 7810   0.302   0.646  16.650 -2.0274  0.5033 -0.8559
  522TMC3    H2 7811   0.524   0.327  16.465 -0.9226 -0.1334 -1.1095
  522TMC3    C7 7812   0.479   0.568  16.449 -0.3052  0.2990 -0.4344
  522TMC3    C8 7813   0.494   0.165  16.676 -0.7011 -0.1228  0.3963
  522TMC3    O1 7814   0.523   0.515  16.350  0.1227 -0.0279 -0.3216
  522TMC3    O2 7815   0.446   0.088  16.758 -0.5557  0.3645 -0.1525
  523MPD2     C 7816   3.139   0.364   9.950 -0.9816  0.2069  0.3209
  523MPD2    C1 7817   3.148   0.394  10.086 -0.0325 -0.1183  0.1773
  523MPD2    C2 7818   3.119   0.524  10.134  0.4698  0.1388 -0.4057
  523MPD2    C3 7819   3.071   0.618  10.040 -0.5540  0.3291  0.5006
  523MPD2    C4 7820   3.071   0.586   9.906 -0.2445 -0.1528  0.7560
  523MPD2    C5 7821   3.101   0.459   9.866  0.2760  0.3467 -0.5560
  523MPD2     H 7822   3.117   0.548  10.240 -1.2967 -0.9299 -0.2093
  523MPD2    H1 7823   3.065   0.660   9.828 -0.9648 -0.2307  0.7433
  523MPD2    H2 7824   3.150   0.264   9.910 -0.6911  0.2672  0.2468
  523MPD2    H3 7825   3.110   0.429   9.763 -1.3920  0.0777 -0.6111
  523MPD2     N 7826   3.041   0.751  10.071  0.2479 -0.1981 -0.2060
  523MPD2    H5 7827   3.029   0.824  10.002 -1.5039 -1.0885 -0.8582
  523MPD2    N1 7828   3.197   0.295  10.175  0.5036 -0.1492 -0.4903
  523MPD2    H7 7829   3.210   0.201  10.138 -0.0752  0.5300 -2.4024
  524TMC3    C1 7830   3.020   0.926  10.222 -0.5566  0.1332 -0.3008
  524TMC3    C2 7831   3.097   1.002  10.138  0.2350 -0.4226  0.1871
  524TMC3    C3 7832   3.104   1.134  10.177 -0.1594 -0.3523  0.0445
  524TMC3    C4 7833   2.959   0.975  10.337  0.4681  0.7685  0.4103
  524TMC3    C5 7834   2.967   1.111  10.366  0.4071  0.6732  0.3289
  524TMC3    C6 7835   3.026   1.188  10.278  0.3908 -0.2663 -0.7536
  524TMC3     C 7836   3.015   0.783  10.200 -0.2473  0.3411 -0.4410
  524TMC3     O 7837   2.983   0.716  10.294  0.2189  0.0589 -0.4071
  524TMC3     H 7838   3.178   0.961  10.079  0.9345  1.6632 -0.2960
  524TMC3    H1 7839   2.895   0.915  10.402  1.5416 -1.5379 -0.6506
  524TMC3    H2 7840   3.060   1.286  10.308  0.9634 -0.4150 -0.9235
  524TMC3    C7 7841   2.868   1.159  10.459  0.0931 -0.6317  0.3257
  524TMC3    C8 7842   3.231   1.197  10.130  0.0412 -0.7172  0.0712
  524TMC3    O1 7843   2.833   1.103  10.560 -0.0766  0.2832 -0.1819
  524TMC3    O2 7844   3.322   1.122  10.107  0.3295  0.2789 -0.2294
  525MPD2     C 7845   0.890   2.050  14.380  0.7817 -0.4538 -0.2780
  525MPD2    C1 7846   1.007   2.103  14.423 -0.0946 -0.4632 -0.1708
  525MPD2    C2 7847   1.060   2.213  14.362 -0.0520 -0.6033 -0.1556
  525MPD2    C3 7848   0.995   2.274  14.259 -0.0316  0.0268 -0.5379
  525MPD2    C4 7849   0.872   2.230  14.220  0.1265  0.5789  0.2818
  525MPD2    C5 7850   0.818   2.116  14.284 -0.3667 -0.2497 -0.0223
  525MPD2     H 7851   1.162   2.234  14.389 -1.0022  0.9528  2.2021
  525MPD2    H1 7852   0.798   2.282  14.162 -0.8237  0.0013  0.9805
  525MPD2    H2 7853   0.851   1.959  14.424 -0.0653  0.0011 -0.0903
  525MPD2    H3 7854   0.715   2.089  14.264  0.0617 -1.0619 -1.0827
  525MPD2     N 7855   1.045   2.389  14.195  0.0062 -0.0068 -0.6667
  525MPD2    H5 7856   0.979   2.448  14.147 -1.2241  0.4764  1.6100
  525MPD2    N1 7857   1.081   2.036  14.523  0.4157  0.1630  0.5158
  525MPD2    H7 7858   1.165   2.086  14.552 -0.6393  1.1130  1.9348
  526TMC3    C1 7859   1.110   1.910  14.729  0.5431  0.1006  0.1279
  526TMC3    C2 7860   1.052   1.866  14.844 -0.0829 -0.3272  0.3644
  526TMC3    C3 7861   1.130   1.837  14.954 -0.3507 -0.1825  0.0318
  526TMC3    C4 7862   1.246   1.935  14.720  0.6216  0.8008 -0.0193
  526TMC3    C5 7863   1.318   1.919  14.836 -0.2797 -0.1821  0.2392
  526TMC3    C6 7864   1.261   1.873  14.954 -0.6681 -0.1863 -0.6854
  526TMC3     C 7865   1.026   1.953  14.618 -0.1102 -0.4024 -0.6660
  526TMC3     O 7866   0.918   1.898  14.618 -0.8875  0.5247 -0.2236
  526TMC3     H 7867   0.944   1.859  14.843 -0.2651  2.6318  0.0231
  526TMC3    H1 7868   1.290   1.970  14.628 -0.4860  0.9907 -0.4753
  526TMC3    H2 7869   1.315   1.854  15.046 -1.1165 -1.6942 -0.7278
  526TMC3    C7 7870   1.462   1.890  14.814 -0.1161 -0.3690  0.7455
  526TMC3    C8 7871   1.070   1.777  15.076  0.2490  0.3887 -0.0803
  526TMC3    O1 7872   1.480   1.880  14.695  0.1364  0.2895  0.4377
  526TMC3    O2 7873   1.150   1.767  15.169 -0.0504 -0.3040 -0.3716
  527MPD2     C 7874   3.388   4.533   1.434 -0.3263 -0.0809 -0.2829
  527MPD2    C1 7875   3.424   4.538   1.298  0.7754 -0.2901  0.5442
  527MPD2    C2 7876   3.546   4.599   1.268 -0.8552  0.2178  0.1752
  527MPD2    C3 7877   3.629   4.640   1.366  0.1220 -0.6334  0.2363
  527MPD2    C4 7878   3.600   4.606   1.499 -0.4179 -0.3068  0.1263
  527MPD2    C5 7879   3.481   4.563   1.538  0.4741 -0.3194 -0.0956
  527MPD2     H 7880   3.569   4.612   1.163 -1.0058 -0.9192 -0.0023
  527MPD2    H1 7881   3.665   4.648   1.576 -1.4238  0.4731  0.5527
  527MPD2    H2 7882   3.304   4.478   1.474 -0.5023  0.5772  0.2592
  527MPD2    H3 7883   3.465   4.550   1.645 -2.3916 -0.7118 -0.5995
  527MPD2     N 7884   3.756   4.684   1.321  0.0969  0.6065  0.0876
  527MPD2    H5 7885   3.773   4.681   1.221 -0.5199  1.2605 -0.0379
  527MPD2    N1 7886   3.341   4.482   1.191  0.2461  0.0870  0.2978
  527MPD2    H7 7887   3.374   4.499   1.096 -1.2935  0.7397 -0.1213
  528TMC3    C1 7888   3.151   4.362   1.097 -0.2020  0.0083  0.1646
  528TMC3    C2 7889   3.201   4.377   0.969  0.4831 -0.0628  0.6460
  528TMC3    C3 7890   3.143   4.300   0.875 -0.3924  0.0147  0.4896
  528TMC3    C4 7891   3.072   4.261   1.134  0.7875 -0.4196  0.2691
  528TMC3    C5 7892   3.020   4.186   1.037  0.5914 -0.0995  0.2465
  528TMC3    C6 7893   3.052   4.203   0.904  0.7267 -0.1302 -0.0929
  528TMC3     C 7894   3.220   4.416   1.214  0.4742  0.3181 -0.2811
  528TMC3     O 7895   3.153   4.413   1.317  0.3849 -0.5133  0.3262
  528TMC3     H 7896   3.258   4.467   0.950  0.3525 -0.6921 -2.7333
  528TMC3    H1 7897   3.038   4.249   1.236 -0.4222  0.3576 -0.0362
  528TMC3    H2 7898   3.011   4.138   0.827 -1.6915  0.3399  0.8045
  528TMC3    C7 7899   2.893   4.112   1.069  0.4888 -0.1350  0.5555
  528TMC3    C8 7900   3.195   4.310   0.735 -0.2076  0.7702  0.4830
  528TMC3    O1 7901   2.844   4.119   1.182  0.2312  0.0385 -0.1507
  528TMC3    O2 7902   3.258   4.410   0.711  0.0157  0.4535 -0.0267
  529MPD2     C 7903   0.817   3.147   1.178 -0.1407 -0.3101 -0.0792
  529MPD2    C1 7904   0.824   3.059   1.075 -0.5318  0.3831  0.0061
  529MPD2    C2 7905   0.765   3.094   0.953 -0.1082  0.1279 -0.3954
  529MPD2    C3 7906   0.688   3.208   0.940  0.8482 -0.7323  0.5066
  529MPD2    C4 7907   0.694   3.300   1.045  0.3516 -0.0745  0.1837
  529MPD2    C5 7908   0.754   3.270   1.163  0.4957  0.4678  0.7982
  529MPD2     H 7909   0.782   3.025   0.870  1.0394  0.6461 -0.5828
  529MPD2    H1 7910   0.653   3.401   1.038 -0.2720 -0.1716  2.4759
  529MPD2    H2 7911   0.874   3.133   1.269  0.4366  1.2964 -0.1976
  529MPD2    H3 7912   0.740   3.330   1.252  1.1836 -1.0334  1.9042
  529MPD2     N 7913   0.627   3.241   0.816 -0.2542 -0.0004 -0.3185
  529MPD2    H5 7914   0.615   3.341   0.801 -1.2102 -0.0444  0.1545
  529MPD2    N1 7915   0.905   2.945   1.077 -0.0206 -0.7228 -0.1133
  529MPD2    H7 7916   0.925   2.897   0.990  0.9832 -1.1611  0.3701
  530TMC3    C1 7917   1.077   2.813   1.149 -0.0492  0.2937 -0.6322
  530TMC3    C2 7918   1.192   2.814   1.229 -0.2548 -0.2297 -0.4739
  530TMC3    C3 7919   1.286   2.719   1.205  0.6877 -0.2322 -0.7345
  530TMC3    C4 7920   1.063   2.727   1.045 -0.0382 -0.5631 -0.4734
  530TMC3    C5 7921   1.166   2.642   1.018  0.3577 -0.1091  0.7065
  530TMC3    C6 7922   1.280   2.641   1.096 -0.3847  0.6933  0.1928
  530TMC3     C 7923   0.978   2.908   1.180 -0.9528 -0.1682 -0.0971
  530TMC3     O 7924   0.974   2.928   1.302 -0.4274  0.1789  0.3477
  530TMC3     H 7925   1.197   2.888   1.308  1.3184 -0.1157 -0.6798
  530TMC3    H1 7926   0.972   2.715   0.988  0.2989  1.9502 -1.5372
  530TMC3    H2 7927   1.342   2.552   1.091 -1.8953 -0.2992 -0.5434
  530TMC3    C7 7928   1.132   2.513   0.959  0.5753  0.6010 -0.4243
  530TMC3    C8 7929   1.409   2.720   1.286 -0.6745  0.0267  0.0651
  530TMC3    O1 7930   1.216   2.453   0.895  0.2007 -0.1809 -1.0178
  530TMC3    O2 7931   1.508   2.678   1.223 -1.0177 -0.3365  0.2550
  531MPD2     C 7932   0.749   0.856  12.960  0.6472 -0.4727 -0.6003
  531MPD2    C1 7933   0.652   0.786  13.026  0.1287  0.6770  0.4475
  531MPD2    C2 7934   0.663   0.649  13.047 -0.7827 -0.2211  0.8129
  531MPD2    C3 7935   0.780   0.594  13.004 -0.4180 -0.5103  0.4284
  531MPD2    C4 7936   0.880   0.668  12.932 -0.0212  0.1001 -0.5211
  531MPD2    C5 7937   0.858   0.795  12.905  0.1244 -0.1077 -0.3515
  531MPD2     H 7938   0.587   0.598  13.107 -0.9523  0.7332  1.4088
  531MPD2    H1 7939   0.970   0.620  12.893  0.5625 -0.7130  1.7991
  531MPD2    H2 7940   0.753   0.964  12.955 -0.8869 -0.4238 -0.7686
  531MPD2    H3 7941   0.932   0.855  12.853  0.1436 -0.4774 -0.7570
  531MPD2     N 7942   0.815   0.459  13.039  0.1911  0.0042 -0.4000
  531MPD2    H5 7943   0.903   0.425  13.003  0.7334 -0.5014  1.4037
  531MPD2    N1 7944   0.545   0.862  13.075  0.6351 -0.3137 -0.2315
  531MPD2    H7 7945   0.550   0.962  13.061 -2.4007 -0.3330 -1.6190
  532TMC3    C1 7946   0.372   0.893  13.242  0.8674 -0.0011 -0.4756
  532TMC3    C2 7947   0.260   0.831  13.290 -0.3103  0.4412  0.7864
  532TMC3    C3 7948   0.229   0.843  13.425  0.0791  0.2855  0.3304
  532TMC3    C4 7949   0.448   0.982  13.322 -0.1311  0.5744  0.0405
  532TMC3    C5 7950   0.414   0.980  13.455 -0.1332 -0.0575  0.0186
  532TMC3    C6 7951   0.306   0.917  13.515 -0.1853  0.5478  0.5455
  532TMC3     C 7952   0.441   0.803  13.149 -0.8813 -0.2108 -0.1611
  532TMC3     O 7953   0.388   0.692  13.145 -0.0249 -0.0318 -0.5744
  532TMC3     H 7954   0.192   0.775  13.226  1.5186 -1.3502  0.4213
  532TMC3    H1 7955   0.537   1.024  13.277 -0.1478 -0.7182 -1.2055
  532TMC3    H2 7956   0.291   0.905  13.621  0.0942 -0.0168  0.5233
  532TMC3    C7 7957   0.521   1.030  13.537  0.1695  0.7123 -0.7743
  532TMC3    C8 7958   0.201   0.708  13.467  0.0714 -0.9762 -0.1516
  532TMC3    O1 7959   0.585   1.122  13.491 -0.2398  0.4721  0.3824
  532TMC3    O2 7960   0.140   0.691  13.568  0.1066 -0.2345 -0.1679
  533TMC3    C1 7961   1.157   2.589  14.189 -0.4935  0.0178  0.5740
  533TMC3    C2 7962   1.282   2.659  14.197  0.3402 -0.1966  0.5527
  533TMC3    C3 7963   1.270   2.787  14.242  0.4467  0.2453  0.2431
  533TMC3    C4 7964   1.043   2.642  14.252  0.0640 -0.1072  0.0003
  533TMC3    C5 7965   1.045   2.776  14.295 -0.2053  0.1241  0.6648
  533TMC3    C6 7966   1.155   2.853  14.277 -0.0036  1.0022  0.9352
  533TMC3     C 7967   1.165   2.445  14.211  0.0929 -0.1850 -0.4448
  533TMC3     O 7968   1.272   2.384  14.217  0.0811 -0.4469  0.1833
  533TMC3     H 7969   1.377   2.617  14.168  0.9788  2.1677 -0.7673
  533TMC3    H1 7970   0.949   2.589  14.255  1.0671 -1.8314  1.1913
  533TMC3    H2 7971   1.155   2.957  14.306 -0.4610  1.0649  0.7139
  533TMC3    C7 7972   0.997   2.770  14.431  0.0220  0.8565 -0.0024
  533TMC3    C8 7973   1.400   2.859  14.260 -0.0312 -0.5325  0.5328
  533TMC3    O1 7974   0.942   2.667  14.469 -0.5546  0.1975  0.2996
  533TMC3    O2 7975   1.393   2.977  14.284 -0.0019 -0.7394 -0.0518
  534MPD2     C 7976   3.652   3.310   1.911 -0.1385 -0.0474  0.2483
  534MPD2    C1 7977   3.712   3.296   1.788 -0.5383 -0.7860 -0.0618
  534MPD2    C2 7978   3.634   3.300   1.673 -0.0034  0.3750 -0.2720
  534MPD2    C3 7979   3.494   3.323   1.686 -0.4256 -0.0706  0.4359
  534MPD2    C4 7980   3.440   3.340   1.809  0.3931 -0.6482 -0.6106
  534MPD2    C5 7981   3.517   3.337   1.916  0.4283 -0.4803  0.0322
  534MPD2     H 7982   3.689   3.291   1.580  0.4340 -1.4403  0.1534
  534MPD2    H1 7983   3.332   3.339   1.817  0.2191 -1.5721 -2.9377
  534MPD2    H2 7984   3.710   3.320   2.002  0.6685  0.8940 -0.3653
  534MPD2    H3 7985   3.475   3.349   2.015  1.6748  2.2525  0.2359
  534MPD2     N 7986   3.405   3.321   1.571 -0.2214 -0.0851 -0.1748
  534MPD2    H5 7987   3.305   3.337   1.577 -0.3983 -1.4514  0.4863
  534MPD2    N1 7988   3.853   3.283   1.768 -0.4350  1.2733  0.3954
  534MPD2    H7 7989   3.897   3.295   1.678 -1.4971  0.8897 -0.1742
  535TMC3    C1 7990   3.333   3.263   1.354 -0.3574 -0.4737  0.4749
  535TMC3    C2 7991   3.198   3.268   1.393 -0.4403  0.2131  0.6826
  535TMC3    C3 7992   3.099   3.273   1.301  0.4655 -0.0866  0.1000
  535TMC3    C4 7993   3.372   3.253   1.227  0.3140  0.1476  0.1848
  535TMC3    C5 7994   3.266   3.251   1.134 -0.1882  0.3209  0.4417
  535TMC3    C6 7995   3.128   3.259   1.167  0.1779 -0.7517 -0.3944
  535TMC3     C 7996   3.441   3.268   1.451 -0.1058 -0.2598 -0.0687
  535TMC3     O 7997   3.543   3.230   1.405  0.1969  0.5953  0.2167
  535TMC3     H 7998   3.168   3.274   1.497 -1.4126  1.3798  0.3281
  535TMC3    H1 7999   3.474   3.226   1.204 -0.1350 -2.8467  1.7504
  535TMC3    H2 8000   3.059   3.284   1.087 -3.3575  2.6109  3.6983
  535TMC3    C7 8001   3.298   3.300   0.993  0.6393 -0.5722 -0.0334
  535TMC3    C8 8002   2.955   3.261   1.334  0.3507  0.1644  0.1224
  535TMC3    O1 8003   3.210   3.274   0.913 -0.3453  0.1090 -0.3134
  535TMC3    O2 8004   2.884   3.212   1.252 -0.8080  0.6467  0.5960
  536MPD2     C 8005   2.485   1.686  15.707  0.7825  0.1988 -0.2807
  536MPD2    C1 8006   2.416   1.732  15.815 -0.2402  0.3921 -0.0928
  536MPD2    C2 8007   2.364   1.858  15.809  0.0295 -0.0744 -0.4423
  536MPD2    C3 8008   2.386   1.946  15.699  0.5147  0.2910  0.0804
  536MPD2    C4 8009   2.454   1.896  15.593  0.2109 -0.2285  0.7860
  536MPD2    C5 8010   2.500   1.763  15.600 -0.7381  0.0025 -0.0443
  536MPD2     H 8011   2.307   1.893  15.895  0.8226  0.0879  0.0135
  536MPD2    H1 8012   2.470   1.957  15.505 -2.1659 -0.9498 -0.1423
  536MPD2    H2 8013   2.532   1.589  15.703  0.2484 -0.1991  3.1811
  536MPD2    H3 8014   2.553   1.713  15.520 -0.2737  0.6935 -0.1717
  536MPD2     N 8015   2.332   2.077  15.687 -0.6076 -0.3362 -0.3417
  536MPD2    H5 8016   2.359   2.129  15.604  0.4165 -0.3485 -0.0156
  536MPD2    N1 8017   2.404   1.650  15.923 -0.5195 -0.0454  0.7893
  536MPD2    H7 8018   2.456   1.563  15.914 -2.2442 -0.8431 -1.3259
  537TMC3    C1 8019   2.320   1.562  16.125 -0.3260  0.9100 -0.0121
  537TMC3    C2 8020   2.435   1.518  16.183 -0.3260  0.1525  0.3096
  537TMC3    C3 8021   2.432   1.420  16.279  0.0679 -0.1448  0.7578
  537TMC3    C4 8022   2.198   1.535  16.182 -0.4588 -0.8406 -0.1890
  537TMC3    C5 8023   2.194   1.442  16.282 -0.6340 -0.6955 -0.0560
  537TMC3    C6 8024   2.310   1.387  16.336  0.2848  0.2934  0.6556
  537TMC3     C 8025   2.328   1.673  16.036 -0.8987  0.0227 -0.0994
  537TMC3     O 8026   2.245   1.758  16.062 -0.3364 -0.1625  0.0251
  537TMC3     H 8027   2.526   1.554  16.137 -0.5022 -2.4102 -2.0582
  537TMC3    H1 8028   2.100   1.572  16.157  0.7873  1.1696 -2.1268
  537TMC3    H2 8029   2.304   1.306  16.408 -0.2434  0.5227  0.8690
  537TMC3    C7 8030   2.075   1.360  16.286  0.4374 -0.2233 -0.1047
  537TMC3    C8 8031   2.563   1.387  16.342 -0.3213  0.2777 -0.0104
  537TMC3    O1 8032   1.979   1.363  16.209  0.5164 -0.0852 -0.5309
  537TMC3    O2 8033   2.666   1.446  16.306 -0.1376  0.0732  0.2780
  538TMC3    C1 8034   4.015   4.652  11.217 -0.4908 -0.8911 -0.4495
  538TMC3    C2 8035   4.068   4.628  11.093  0.5495  0.8842 -0.3247
  538TMC3    C3 8036   4.093   0.002  11.019  1.1027  0.2683 -0.3873
  538TMC3    C4 8037   3.985   0.040  11.268  0.2314  0.0102  0.7044
  538TMC3    C5 8038   4.016   0.149  11.180 -0.5064 -0.2268 -0.4980
  538TMC3    C6 8039   4.062   0.129  11.054  0.5810  0.5927  0.2844
  538TMC3     C 8040   3.973   4.537  11.304 -0.3735  0.0592 -0.1558
  538TMC3     O 8041   3.953   4.431  11.248  0.2301  0.2352  0.3528
  538TMC3     H 8042   4.082   4.527  11.057  0.0708 -0.5648  3.5345
  538TMC3    H1 8043   3.926   0.051  11.359 -0.9518  0.5676 -0.1373
  538TMC3    H2 8044   4.085   0.216  10.995  1.5178 -0.1363 -0.4176
  538TMC3    C7 8045   3.917   0.252  11.201 -0.0999  0.0641  0.0576
  538TMC3    C8 8046   4.156   4.725  10.887 -0.8074  0.0222 -0.4692
  538TMC3    O1 8047   3.884   0.267  11.317  0.1589 -0.4128  0.0656
  538TMC3    O2 8048   4.119   0.063  10.798 -0.0148 -0.6343 -0.1383
  539MPD2     C 8049   3.261   3.644  11.738 -0.7669  0.3638 -0.3939
  539MPD2    C1 8050   3.363   3.676  11.648  0.1508  0.1769  0.2339
  539MPD2    C2 8051   3.418   3.805  11.650  0.4682 -0.6029  0.4709
  539MPD2    C3 8052   3.393   3.895  11.752 -0.1217 -0.4848  0.1798
  539MPD2    C4 8053   3.295   3.853  11.843 -0.4928  0.5184  0.5433
  539MPD2    C5 8054   3.236   3.733  11.841 -1.1838 -0.5073  1.0294
  539MPD2     H 8055   3.490   3.827  11.572 -0.5952  0.3403 -0.2300
  539MPD2    H1 8056   3.276   3.919  11.927 -0.0617  1.9377 -0.4562
  539MPD2    H2 8057   3.203   3.552  11.739  1.5343 -1.1015 -2.1472
  539MPD2    H3 8058   3.180   3.698  11.927 -0.1842 -0.4995  1.6820
  539MPD2     N 8059   3.441   4.029  11.755  0.4401  0.5936 -0.1119
  539MPD2    H5 8060   3.397   4.093  11.820 -1.5903  0.1502 -1.0500
  539MPD2    N1 8061   3.403   3.596  11.543 -0.3709 -0.2719 -0.4505
  539MPD2    H7 8062   3.480   3.620  11.481 -2.1859 -0.9935 -2.9783
  540TMC3    C1 8063   3.502   4.242  11.671 -0.0867 -0.2823  0.3133
  540TMC3    C2 8064   3.504   4.313  11.556 -0.5114 -0.2407  0.4100
  540TMC3    C3 8065   3.496   4.447  11.573 -0.3018 -1.4085 -0.3851
  540TMC3    C4 8066   3.490   4.299  11.797 -0.2184 -0.6652 -0.2845
  540TMC3    C5 8067   3.478   4.435  11.801 -0.1069  0.0293 -0.2988
  540TMC3    C6 8068   3.490   4.513  11.689  0.1553 -0.1724  0.5858
  540TMC3     C 8069   3.510   4.096  11.660 -0.0993 -0.5823  0.1069
  540TMC3     O 8070   3.550   4.057  11.550 -0.2334  0.5493  0.7413
  540TMC3     H 8071   3.517   4.274  11.456  0.6860  2.9510 -0.7005
  540TMC3    H1 8072   3.490   4.240  11.887 -1.1978  1.2840  0.9923
  540TMC3    H2 8073   3.498   4.621  11.684  2.8150 -0.4785 -1.3702
  540TMC3    C7 8074   3.451   4.486  11.934  0.0498 -0.1510 -0.0424
  540TMC3    C8 8075   3.475   4.531  11.457  0.4188 -0.0788 -0.2311
  540TMC3    O1 8076   3.459   4.414  12.033  0.1256 -0.3084 -0.2183
  540TMC3    O2 8077   3.522   4.643  11.450 -0.0621 -0.2832  0.3126
  541MPD2     C 8078   2.063   1.357  13.405 -0.8170  0.3484 -0.0778
  541MPD2    C1 8079   2.022   1.247  13.333  1.3060 -0.5228 -0.3106
  541MPD2    C2 8080   2.027   1.251  13.195 -0.0877  0.1476 -0.1235
  541MPD2    C3 8081   2.047   1.368  13.129 -0.3032  0.0056 -0.6240
  541MPD2    C4 8082   2.072   1.482  13.202  0.3091  0.2258  0.4504
  541MPD2    C5 8083   2.092   1.475  13.342 -0.8257 -0.3137  0.4073
  541MPD2     H 8084   1.989   1.165  13.141 -1.8798 -0.1391  1.5819
  541MPD2    H1 8085   2.083   1.577  13.151  1.3728 -0.2626 -0.2631
  541MPD2    H2 8086   2.058   1.359  13.513 -2.6801 -0.7118 -0.1507
  541MPD2    H3 8087   2.112   1.561  13.405 -0.1979 -0.8362  0.9196
  541MPD2     N 8088   2.031   1.376  12.990  0.3479  0.2537 -0.1288
  541MPD2    H5 8089   2.027   1.471  12.954 -1.4918 -0.0046 -0.5959
  541MPD2    N1 8090   1.964   1.128  13.390 -0.0562 -0.1840  0.1092
  541MPD2    H7 8091   1.937   1.064  13.316 -0.1118  0.7165 -0.6501
  542TMC3    C1 8092   1.959   1.301  12.781  0.6433  0.1812 -0.4263
  542TMC3    C2 8093   1.968   1.208  12.683 -1.0323  0.0778 -0.8482
  542TMC3    C3 8094   1.863   1.198  12.592 -0.4028  0.2822  0.2211
  542TMC3    C4 8095   1.848   1.380  12.785 -0.6696 -0.0558  0.0328
  542TMC3    C5 8096   1.752   1.367  12.691 -0.2711  0.1714  0.4717
  542TMC3    C6 8097   1.755   1.276  12.596  0.0255 -0.4167  0.3218
  542TMC3     C 8098   2.020   1.266  12.906 -0.6838 -0.6799 -0.8578
  542TMC3     O 8099   2.062   1.151  12.926 -0.5403 -0.3182  0.2830
  542TMC3     H 8100   2.062   1.154  12.676 -1.3048 -0.6627  1.2525
  542TMC3    H1 8101   1.835   1.459  12.857 -0.3048 -0.8290  0.9541
  542TMC3    H2 8102   1.682   1.258  12.518  0.1856  1.0989 -0.1815
  542TMC3    C7 8103   1.631   1.449  12.697 -0.0581  0.3987  0.2190
  542TMC3    C8 8104   1.852   1.078  12.507  0.7200  0.0176 -0.5770
  542TMC3    O1 8105   1.600   1.496  12.804  0.0673 -0.1776  0.1639
  542TMC3    O2 8106   1.784   1.085  12.406 -0.5870 -0.3074  0.1896
  543TMC3    C1 8107   1.196   2.625  17.439 -0.1848 -0.1441 -0.7728
  543TMC3    C2 8108   1.175   2.524  17.532 -0.6667  0.3504  0.3770
  543TMC3    C3 8109   1.067   2.529  17.609 -0.2339 -0.3496 -0.1401
  543TMC3    C4 8110   1.115   2.735  17.451 -0.5627 -0.1442 -0.0584
  543TMC3    C5 8111   1.013   2.748  17.544 -0.8556 -1.0122 -0.6514
  543TMC3    C6 8112   0.980   2.641  17.615 -0.4940  0.9729 -0.3073
  543TMC3     C 8113   1.216   2.572  17.303 -0.2105  0.3438 -1.3034
  543TMC3     O 8114   1.275   2.467  17.283  0.2182  0.2092  0.1674
  543TMC3     H 8115   1.238   2.436  17.541 -0.5261  0.1817 -2.2603
  543TMC3    H1 8116   1.130   2.828  17.397  1.4839  0.3921  1.3909
  543TMC3    H2 8117   0.906   2.656  17.693 -1.8888  1.4803 -1.7338
  543TMC3    C7 8118   0.902   2.814  17.471  0.0534 -0.1592 -0.1272
  543TMC3    C8 8119   1.061   2.419  17.704 -0.6659  0.1317 -0.1806
  543TMC3    O1 8120   0.914   2.813  17.348  0.2588 -0.0229  0.1157
  543TMC3    O2 8121   1.143   2.323  17.696 -0.2293 -0.1645  0.2636
  544MPD2     C 8122   0.804   2.192   0.335 -0.4687  0.2479  1.1015
  544MPD2    C1 8123   0.894   2.143   0.245 -1.1079  0.3104  0.2482
  544MPD2    C2 8124   0.957   2.226   0.153  0.7869  0.0246  0.4632
  544MPD2    C3 8125   0.921   2.362   0.155  0.0907  0.4095  0.8715
  544MPD2    C4 8126   0.826   2.405   0.246 -0.8207 -0.5153 -0.3466
  544MPD2    C5 8127   0.766   2.322   0.334  0.5638 -0.2649  0.7885
  544MPD2     H 8128   1.031   2.188   0.083 -1.0854  0.0149 -1.5077
  544MPD2    H1 8129   0.785   2.506   0.248 -2.3706 -1.1482  0.0490
  544MPD2    H2 8130   0.739   2.127   0.393  1.1571  0.0562  2.7349
  544MPD2    H3 8131   0.697   2.357   0.410 -0.0595  0.4011 -0.0777
  544MPD2     N 8132   0.965   2.445   0.050 -0.1076  0.5619 -0.6600
  544MPD2    H5 8133   0.926   2.538   0.046  0.5498  0.7570 -2.4275
  544MPD2    N1 8134   0.900   2.002   0.245 -0.6881  0.1355  0.0577
  544MPD2    H7 8135   0.850   1.944   0.312 -0.0173  0.9295  1.2357
  545TMC3    C1 8136   0.938   1.787   0.162  0.6349  0.1011  0.0090
  545TMC3    C2 8137   0.847   1.742   0.259 -0.1116 -0.1573  0.0904
  545TMC3    C3 8138   0.841   1.604   0.273 -0.4409 -0.2009 -0.2010
  545TMC3    C4 8139   0.996   1.701   0.080  0.3947  1.0589 -0.1023
  545TMC3    C5 8140   0.966   1.567   0.087 -0.1644  0.4545  0.2217
  545TMC3    C6 8141   0.888   1.516   0.187  0.8185 -0.4608 -0.4137
  545TMC3     C 8142   0.969   1.929   0.155  0.6737  0.3920  0.0700
  545TMC3     O 8143   1.057   1.964   0.078 -0.0170 -0.5314  0.0816
  545TMC3     H 8144   0.793   1.803   0.331  0.8337  0.1241  0.5681
  545TMC3    H1 8145   1.051   1.740  17.749 -0.4724 -0.5303 -1.4160
  545TMC3    H2 8146   0.837   1.421   0.183  2.6524 -1.5929  2.6109
  545TMC3    C7 8147   1.014   1.474  17.744 -0.3675 -0.3128 -0.8263
  545TMC3    C8 8148   0.767   1.566   0.395  0.0509  0.4221 -0.2262
  545TMC3    O1 8149   1.048   1.518  17.632  0.1078  0.3403 -0.2829
  545TMC3    O2 8150   0.688   1.645   0.438  0.0077  0.2878  0.0620
  546MPD2     C 8151   2.727   2.155  16.719  0.0975  0.4245 -0.2758
  546MPD2    C1 8152   2.679   2.168  16.850  0.6137 -0.3713  0.5264
  546MPD2    C2 8153   2.714   2.282  16.923 -0.1815 -0.3180 -0.1942
  546MPD2    C3 8154   2.779   2.387  16.860 -0.1299 -0.1111  0.1848
  546MPD2    C4 8155   2.823   2.368  16.730 -0.5125  0.3391  0.3833
  546MPD2    C5 8156   2.799   2.256  16.657 -0.1366  0.2808 -0.5648
  546MPD2     H 8157   2.679   2.299  17.024 -0.3346 -0.4084 -0.2318
  546MPD2    H1 8158   2.875   2.451  16.683  0.8236  0.2113  1.6348
  546MPD2    H2 8159   2.711   2.059  16.670  0.9724 -0.2749  0.8280
  546MPD2    H3 8160   2.834   2.255  16.555 -1.7676  1.6735 -1.1296
  546MPD2     N 8161   2.801   2.512  16.921  0.0037  0.1383 -0.1024
  546MPD2    H5 8162   2.840   2.582  16.859  0.0578  1.8215  1.8112
  546MPD2    N1 8163   2.593   2.062  16.894  0.3082 -0.1293 -0.2795
  546MPD2    H7 8164   2.557   2.004  16.818 -0.9318 -0.5320  0.6234
  547TMC3    C1 8165   2.466   1.941  17.050  0.5141 -0.4494 -0.2055
  547TMC3    C2 8166   2.361   1.937  16.967 -0.0243 -0.1356 -0.1207
  547TMC3    C3 8167   2.245   1.876  16.999  0.0049  0.1562 -0.7729
  547TMC3    C4 8168   2.457   1.878  17.171 -0.3352 -0.2268 -0.1972
  547TMC3    C5 8169   2.340   1.815  17.200 -0.2093  0.4094 -0.1643
  547TMC3    C6 8170   2.234   1.814  17.118  0.1712  0.0571 -0.2377
  547TMC3     C 8171   2.564   2.042  17.030  0.1940 -1.5106 -0.1530
  547TMC3     O 8172   2.624   2.076  17.134 -0.3986 -0.2622 -0.2853
  547TMC3     H 8173   2.349   2.010  16.888  0.1056  1.3264  1.2206
  547TMC3    H1 8174   2.543   1.865  17.237 -0.1803  1.4192 -0.0934
  547TMC3    H2 8175   2.155   1.752  17.158 -0.0398  1.3173  1.3075
  547TMC3    C7 8176   2.311   1.781  17.337 -0.5349  0.0828  0.1661
  547TMC3    C8 8177   2.126   1.903  16.919 -0.1327  0.3811 -0.1026
  547TMC3    O1 8178   2.200   1.810  17.376 -0.1618 -0.5145  0.1523
  547TMC3    O2 8179   2.122   1.993  16.833 -0.4374 -0.0006  0.6073
  548MPD2     C 8180   2.915   2.828  12.772  0.5570  0.5117  1.4129
  548MPD2    C1 8181   2.833   2.722  12.793 -0.1360 -1.1166  0.2954
  548MPD2    C2 8182   2.887   2.605  12.785 -0.0050  0.5378 -0.3861
  548MPD2    C3 8183   3.014   2.585  12.733 -0.0434  0.3330  0.4131
  548MPD2    C4 8184   3.093   2.696  12.709 -0.9865  0.7803  0.0459
  548MPD2    C5 8185   3.037   2.819  12.734 -0.4011 -0.3041  0.4783
  548MPD2     H 8186   2.834   2.513  12.806 -0.1121  1.0559  1.6225
  548MPD2    H1 8187   3.196   2.689  12.676 -1.1083  1.2850 -0.4457
  548MPD2    H2 8188   2.869   2.926  12.762 -0.4202 -0.0455  0.4418
  548MPD2    H3 8189   3.102   2.902  12.707 -1.9592  0.8562  0.2778
  548MPD2     N 8190   3.059   2.458  12.703 -0.3445  0.4388  0.4561
  548MPD2    H5 8191   2.993   2.381  12.715 -1.2425  1.2338  0.6320
  548MPD2    N1 8192   2.692   2.732  12.822 -0.5735 -0.5899  0.4686
  548MPD2    H7 8193   2.658   2.827  12.821  0.5268 -0.1983  0.1807
  549TMC3    C1 8194   2.468   2.674  12.858  0.5249  0.7366  0.3334
  549TMC3    C2 8195   2.433   2.790  12.811  0.1386 -0.5154  0.0712
  549TMC3    C3 8196   2.302   2.829  12.841 -0.6581 -0.3716 -0.5908
  549TMC3    C4 8197   2.382   2.589  12.926  0.6602 -0.1145  0.3784
  549TMC3    C5 8198   2.247   2.623  12.935  0.1807  0.8483 -0.1907
  549TMC3    C6 8199   2.204   2.747  12.894 -1.3298 -0.4039  0.1300
  549TMC3     C 8200   2.602   2.627  12.832  0.1062  1.2792  0.8158
  549TMC3     O 8201   2.610   2.508  12.818 -0.1030  0.0557  0.5965
  549TMC3     H 8202   2.486   2.848  12.737  0.1190  0.6006  0.9331
  549TMC3    H1 8203   2.420   2.495  12.964  0.9789 -0.3058 -0.4251
  549TMC3    H2 8204   2.106   2.789  12.911 -0.6810  0.5620  1.5811
  549TMC3    C7 8205   2.134   2.527  12.937 -0.6210  0.4622  0.5203
  549TMC3    C8 8206   2.256   2.953  12.771  0.4989 -0.3031  0.2233
  549TMC3    O1 8207   2.022   2.572  12.908  0.4358  0.1812 -0.3016
  549TMC3    O2 8208   2.145   2.946  12.726  0.4243  0.3852  0.0898
  550TMC3    C1 8209   1.635   0.566  12.644  0.4285  0.0605  0.3237
  550TMC3    C2 8210   1.610   0.651  12.749 -0.3879 -0.5413 -0.7112
  550TMC3    C3 8211   1.609   0.784  12.731 -0.0393  0.8687 -0.4812
  550TMC3    C4 8212   1.651   0.615  12.518 -0.2826  0.4489 -0.1676
  550TMC3    C5 8213   1.644   0.751  12.496  0.4604  0.4229 -0.4237
  550TMC3    C6 8214   1.624   0.837  12.604 -0.3237  0.5774  0.3118
  550TMC3     C 8215   1.526   0.470  12.655 -0.4910 -0.4562 -0.1043
  550TMC3     O 8216   1.510   0.407  12.757  0.2236  0.0775 -0.4177
  550TMC3     H 8217   1.569   0.605  12.838 -0.6390 -1.6730 -1.3957
  550TMC3    H1 8218   1.675   0.541  12.443 -0.9558  1.4191 -1.3419
  550TMC3    H2 8219   1.619   0.945  12.600  1.8102  0.7314  2.1615
  550TMC3    C7 8220   1.557   0.779  12.384  0.1536 -1.0027 -0.4090
  550TMC3    C8 8221   1.488   0.840  12.776  0.2806  0.0314 -0.1791
  550TMC3    O1 8222   1.483   0.686  12.357 -0.5058 -0.3385  0.0113
  550TMC3    O2 8223   1.491   0.950  12.828  0.1244  0.0722 -1.0758
  551TMC3    C1 8224   3.470   3.583  13.351  0.4151 -0.6154  0.5466
  551TMC3    C2 8225   3.577   3.630  13.270  0.0950 -0.1209 -0.0631
  551TMC3    C3 8226   3.673   3.701  13.332  0.4223  0.3353  0.4747
  551TMC3    C4 8227   3.461   3.610  13.484  0.0155  0.0670 -0.0000
  551TMC3    C5 8228   3.565   3.675  13.538 -1.0802 -0.6347  0.1470
  551TMC3    C6 8229   3.673   3.724  13.466 -0.2922 -0.4527  0.1727
  551TMC3     C 8230   3.388   3.477  13.306 -0.2062  0.2474  0.1558
  551TMC3     O 8231   3.278   3.460  13.359  0.4839  0.5014  0.1024
  551TMC3     H 8232   3.571   3.624  13.162 -0.4290  0.1286 -0.0477
  551TMC3    H1 8233   3.374   3.565  13.532 -1.2319  1.6365 -0.8225
  551TMC3    H2 8234   3.734   3.788  13.530 -1.8074  0.1172  1.0518
  551TMC3    C7 8235   3.550   3.727  13.668  0.4349 -0.1678  0.2219
  551TMC3    C8 8236   3.795   3.739  13.255  0.2775 -0.4887  0.5342
  551TMC3    O1 8237   3.638   3.705  13.747  0.4649  0.1406 -0.4516
  551TMC3    O2 8238   3.812   3.676  13.152  0.1112  0.0020 -0.4789
  552MPD2     C 8239   0.894   0.886  14.063 -0.4136  0.7459 -0.7056
  552MPD2    C1 8240   0.833   0.821  14.169  1.0794  0.0945 -0.6661
  552MPD2    C2 8241   0.918   0.780  14.273 -0.3064  0.5418  0.0729
  552MPD2    C3 8242   1.053   0.816  14.285  0.1124 -0.3104 -0.0990
  552MPD2    C4 8243   1.106   0.895  14.184  0.0219 -0.4269  0.8132
  552MPD2    C5 8244   1.028   0.923  14.077 -0.9739 -0.0297  0.1298
  552MPD2     H 8245   0.868   0.726  14.353 -1.5117  2.2622  0.4634
  552MPD2    H1 8246   1.209   0.927  14.189  0.5568 -2.0252 -0.3509
  552MPD2    H2 8247   0.842   0.924  13.976 -2.8738  1.2762  1.0122
  552MPD2    H3 8248   1.071   0.985  13.999 -0.2286  0.8506  1.2231
  552MPD2     N 8249   1.134   0.779  14.391 -0.5940  0.8605  0.7626
  552MPD2    H5 8250   1.231   0.807  14.394 -0.0898 -0.5797 -2.1170
  552MPD2    N1 8251   0.693   0.785  14.168  0.0957 -0.4300 -0.0783
  552MPD2    H7 8252   0.655   0.717  14.233  0.0351 -0.7137 -0.4130
  553TMC3    C1 8253   0.496   0.740  14.052 -0.8275  0.2628 -0.7231
  553TMC3    C2 8254   0.442   0.746  13.928 -0.6091 -0.1047  0.1647
  553TMC3    C3 8255   0.357   0.643  13.898 -0.6501 -0.2202  0.5657
  553TMC3    C4 8256   0.465   0.649  14.148 -0.2643 -0.0741 -0.4054
  553TMC3    C5 8257   0.382   0.549  14.114  0.5555 -0.9549 -0.9136
  553TMC3    C6 8258   0.316   0.554  13.991  0.1008 -0.0578 -0.0142
  553TMC3     C 8259   0.605   0.826  14.069 -0.3662 -0.2922  0.1166
  553TMC3     O 8260   0.609   0.917  13.989  0.1902 -0.4385  0.4603
  553TMC3     H 8261   0.494   0.798  13.849  1.4791 -0.6672  1.1593
  553TMC3    H1 8262   0.509   0.640  14.247 -0.5374  3.0084 -0.0024
  553TMC3    H2 8263   0.245   0.477  13.961 -1.4036 -0.0166  3.4200
  553TMC3    C7 8264   0.400   0.417  14.181 -0.6777  0.2975 -0.0958
  553TMC3    C8 8265   0.369   0.604  13.756  0.1526  0.3571  0.1483
  553TMC3    O1 8266   0.298   0.356  14.206  0.1401  0.0195 -0.0190
  553TMC3    O2 8267   0.449   0.667  13.689 -0.0990 -0.3890 -0.2136
  554TMC3    C1 8268   2.394   4.288  12.037 -0.0728  0.5999  0.3463
  554TMC3    C2 8269   2.294   4.292  11.944 -0.1288 -0.0151  0.0753
  554TMC3    C3 8270   2.336   4.284  11.808  0.4572  1.1444 -0.0336
  554TMC3    C4 8271   2.525   4.280  12.010 -0.0054  0.0099  0.2018
  554TMC3    C5 8272   2.563   4.255  11.884 -0.1171  0.2209  0.1888
  554TMC3    C6 8273   2.470   4.251  11.780 -0.4133 -0.3203 -0.3401
  554TMC3     C 8274   2.354   4.320  12.175  0.1787  0.0924  0.8537
  554TMC3     O 8275   2.250   4.378  12.199  0.1561 -0.0907  0.3903
  554TMC3     H 8276   2.197   4.338  11.960 -1.0973 -1.7506 -0.7634
  554TMC3    H1 8277   2.600   4.301  12.085  0.7354 -1.7542 -0.0598
  554TMC3    H2 8278   2.504   4.232  11.679 -0.9427 -0.5547 -0.4771
  554TMC3    C7 8279   2.683   4.316  11.828  0.3451  1.0309  1.1514
  554TMC3    C8 8280   2.271   4.353  11.698  0.2607 -0.1180 -0.0645
  554TMC3    O1 8281   2.700   4.313  11.705  0.4462 -0.2536 -0.5969
  554TMC3    O2 8282   2.343   4.386  11.604  0.3090 -0.1737 -0.2481
  555TMC3    C1 8283   1.730   4.160  15.300  0.4455  0.2368  0.4843
  555TMC3    C2 8284   1.779   4.212  15.422 -0.1758  0.2800  0.6288
  555TMC3    C3 8285   1.718   4.163  15.539  0.4173  0.4954  0.3770
  555TMC3    C4 8286   1.633   4.065  15.294  0.0369  0.3760  0.0542
  555TMC3    C5 8287   1.588   4.015  15.417 -0.3928 -0.1350 -0.5904
  555TMC3    C6 8288   1.618   4.066  15.541 -0.9147  0.3453 -0.4226
  555TMC3     C 8289   1.766   4.244  15.183  0.0530  0.0018  0.2786
  555TMC3     O 8290   1.821   4.351  15.207 -0.2908 -0.0931  0.0917
  555TMC3     H 8291   1.847   4.296  15.433 -0.5307  0.8254 -1.3544
  555TMC3    H1 8292   1.593   4.041  15.196  2.3365  0.5212 -0.9312
  555TMC3    H2 8293   1.577   4.027  15.634 -0.6645  3.1325  0.8521
  555TMC3    C7 8294   1.531   3.882  15.410 -0.6286 -0.3351  1.0530
  555TMC3    C8 8295   1.775   4.209  15.661 -0.1683 -0.1729  0.4090
  555TMC3    O1 8296   1.449   3.848  15.493  0.1718 -0.1201 -0.4395
  555TMC3    O2 8297   1.826   4.320  15.658  0.8123  0.4505 -0.2191
  556MPD2     C 8298   4.408   0.972  10.786  0.0607  0.9652  1.0334
  556MPD2    C1 8299   4.463   0.867  10.852 -0.2892 -0.4720 -1.2913
  556MPD2    C2 8300   4.496   0.756  10.777 -0.1624 -0.0357  0.4538
  556MPD2    C3 8301   4.478   0.753  10.639 -0.3698 -0.3630 -0.0320
  556MPD2    C4 8302   4.441   0.871  10.571  0.3219 -0.0396  0.2678
  556MPD2    C5 8303   4.385   0.971  10.653 -0.6189  0.4950  0.1015
  556MPD2     H 8304   4.534   0.661  10.813 -0.7293  0.0504  1.2693
  556MPD2    H1 8305   4.418   0.873  10.465  0.9899 -0.4669  0.1185
  556MPD2    H2 8306   4.364   1.053  10.843 -0.0939  0.6961  1.3003
  556MPD2    H3 8307   4.330   1.056  10.615 -3.3584 -1.9182 -1.3737
  556MPD2     N 8308   4.508   0.638  10.562 -0.4584  0.1334  0.1648
  556MPD2    H5 8309   4.526   0.555  10.618  1.6138 -0.1907 -0.9722
  556MPD2    N1 8310   4.502   0.871  10.990 -0.1709 -0.3820 -0.1483
  556MPD2    H7 8311   4.542   0.788  11.033  2.1342  0.8701  0.1077
  557TMC3    C1 8312   4.574   0.506  10.401  0.0982  0.2898  0.3442
  557TMC3    C2 8313   4.684   0.480  10.326 -0.1257  0.3513 -0.3738
  557TMC3    C3 8314   4.691   0.351  10.274  0.6222  0.3406  0.3887
  557TMC3    C4 8315   4.484   0.406  10.440  0.2541  0.3586 -0.1659
  557TMC3    C5 8316   4.497   0.275  10.394  0.7069 -0.5892  0.2429
  557TMC3    C6 8317   4.605   0.250  10.307  0.1277  0.1972  0.3588
  557TMC3     C 8318   4.544   0.639  10.436 -0.1260 -0.5817  0.6403
  557TMC3     O 8319   4.563   0.728  10.353  0.0421  0.1118  0.2927
  557TMC3     H 8320   0.002   0.561  10.283  0.4468 -0.7906 -1.7864
  557TMC3    H1 8321   4.396   0.436  10.495 -0.0650 -0.3824 -0.2768
  557TMC3    H2 8322   4.614   0.151  10.265  2.2753 -0.0340  1.3848
  557TMC3    C7 8323   4.446   0.179  10.485  0.0022  0.5684 -0.1341
  557TMC3    C8 8324   0.060   0.322  10.175 -0.0768  0.4054 -0.0458
  557TMC3    O1 8325   4.349   0.206  10.551 -0.4211 -0.6248 -0.3256
  557TMC3    O2 8326   0.129   0.417  10.135 -0.4170 -0.5874 -0.7173
  558TMC3    C1 8327   2.212   3.006  10.615 -0.3158 -0.5797 -0.0430
  558TMC3    C2 8328   2.091   3.052  10.657  0.7698 -0.4464 -0.3227
  558TMC3    C3 8329   1.996   3.059  10.563 -0.1646 -0.1777  0.4192
  558TMC3    C4 8330   2.242   2.969  10.486  0.6582  1.0422 -0.8361
  558TMC3    C5 8331   2.146   3.000  10.394 -0.3215 -0.7863  0.1593
  558TMC3    C6 8332   2.025   3.043  10.432 -0.7449 -0.1956  0.7353
  558TMC3     C 8333   2.312   2.979  10.717  0.1074  0.4651 -0.0155
  558TMC3     O 8334   2.301   3.043  10.820  0.6807  0.7707 -0.5244
  558TMC3     H 8335   2.069   3.059  10.762  1.1196 -0.5117 -0.2432
  558TMC3    H1 8336   2.340   2.932  10.456  1.5005  0.8460  2.1042
  558TMC3    H2 8337   1.947   3.077  10.365 -0.4136  2.4694  1.6766
  558TMC3    C7 8338   2.189   3.012  10.255 -0.2954 -0.3545  0.3917
  558TMC3    C8 8339   1.850   3.057  10.594 -0.8082  0.1802  0.1893
  558TMC3    O1 8340   2.307   3.028  10.248 -0.2964 -0.1685 -0.0191
  558TMC3    O2 8341   1.773   3.012  10.513  0.4251 -0.0947 -0.2436
  559MPD2     C 8342   2.087   4.179  10.448 -0.6409  0.0097 -0.0855
  559MPD2    C1 8343   2.028   4.071  10.512 -0.3413 -0.4489 -0.9066
  559MPD2    C2 8344   2.074   4.032  10.634  0.2544  0.2694  0.0404
  559MPD2    C3 8345   2.182   4.092  10.695 -0.1936  0.0048 -0.5743
  559MPD2    C4 8346   2.238   4.206  10.640 -0.1244 -0.1045 -0.4649
  559MPD2    C5 8347   2.188   4.247  10.516  0.1530  0.2661  0.4014
  559MPD2     H 8348   2.019   3.953  10.684  2.1348 -1.7487 -1.0944
  559MPD2    H1 8349   2.319   4.267  10.678  0.7222  0.2568 -2.8757
  559MPD2    H2 8350   2.053   4.207  10.349 -2.3479 -2.3284 -0.1612
  559MPD2    H3 8351   2.240   4.331  10.470  2.3127  0.3361  2.9841
  559MPD2     N 8352   2.231   4.036  10.819  0.6705  0.3656  0.3768
  559MPD2    H5 8353   2.193   3.952  10.860 -2.4013  1.5866  0.0419
  559MPD2    N1 8354   1.916   4.024  10.447  0.8539  0.2352 -0.0665
  559MPD2    H7 8355   1.886   4.073  10.364  1.5720 -1.9040 -1.5980
  560TMC3    C1 8356   2.384   3.996  10.989  0.0245 -0.6187  0.3761
  560TMC3    C2 8357   2.323   3.880  11.026 -0.6538  0.1005  0.2029
  560TMC3    C3 8358   2.386   3.789  11.103  0.1449  1.0429 -0.1065
  560TMC3    C4 8359   2.515   4.023  11.030  0.6995  0.2740 -0.1342
  560TMC3    C5 8360   2.576   3.935  11.118  0.5415 -0.1796 -0.6791
  560TMC3    C6 8361   2.512   3.813  11.149  0.6942  0.8556 -0.7680
  560TMC3     C 8362   2.327   4.091  10.895  0.5989 -0.2530 -0.1760
  560TMC3     O 8363   2.389   4.195  10.880  0.1291  0.3875 -0.1370
  560TMC3     H 8364   2.223   3.871  10.985 -0.6691  2.3904 -0.2755
  560TMC3    H1 8365   2.568   4.111  10.999 -0.3871  0.3528 -1.7584
  560TMC3    H2 8366   2.576   3.732  11.180  0.1899  1.2055  1.2358
  560TMC3    C7 8367   2.723   3.951  11.136 -0.3077  0.5972 -0.5522
  560TMC3    C8 8368   2.314   3.660  11.137  0.6485 -0.0260 -0.1259
  560TMC3    O1 8369   2.782   4.055  11.113 -0.2293  0.5636  0.0212
  560TMC3    O2 8370   2.203   3.643  11.086 -0.5231  0.3009  0.6157
  561TMC3    C1 8371   0.256   2.703  11.495 -0.4265  0.5222  0.4551
  561TMC3    C2 8372   0.213   2.663  11.621  0.2902 -0.8000 -0.4433
  561TMC3    C3 8373   0.132   2.747  11.692  0.2191  0.3757 -0.1271
  561TMC3    C4 8374   0.216   2.825  11.444  0.7321 -0.7485 -0.2897
  561TMC3    C5 8375   0.145   2.904  11.529 -0.6277 -0.7240  0.2217
  561TMC3    C6 8376   0.091   2.869  11.649  0.3851 -0.8119  0.2268
  561TMC3     C 8377   0.248   2.593  11.402 -0.1048  0.5188  0.0015
  561TMC3     O 8378   0.149   2.525  11.426  0.7403  0.3566  0.4570
  561TMC3     H 8379   0.248   2.566  11.654  1.4062  0.1301  1.0838
  561TMC3    H1 8380   0.249   2.837  11.341 -1.6239  0.6565 -0.8616
  561TMC3    H2 8381   0.032   2.937  11.709 -0.4164 -3.0050  1.9257
  561TMC3    C7 8382   0.157   3.048  11.508  0.6946 -0.3463 -0.5077
  561TMC3    C8 8383   0.116   2.706  11.829 -0.2589 -0.4954 -0.6305
  561TMC3    O1 8384   0.065   3.107  11.561  0.6362 -0.0982  0.2984
  561TMC3    O2 8385   0.209   2.641  11.874 -0.1810 -0.7540 -0.2511
  562TMC3    C1 8386   1.528   4.079  16.328  0.0152 -0.1305 -0.9528
  562TMC3    C2 8387   1.468   4.199  16.335 -0.4655 -0.5540 -0.0388
  562TMC3    C3 8388   1.402   4.251  16.219  0.3554  0.7395 -0.6687
  562TMC3    C4 8389   1.514   3.997  16.222  1.0382  0.3620  0.2334
  562TMC3    C5 8390   1.451   4.046  16.112  0.4409  0.3037 -0.1620
  562TMC3    C6 8391   1.388   4.171  16.108 -0.1137 -0.1516  0.0618
  562TMC3     C 8392   1.535   4.002  16.449 -0.2332 -0.0185  0.5202
  562TMC3     O 8393   1.515   3.883  16.441 -0.2676  0.4671 -0.6350
  562TMC3     H 8394   1.468   4.252  16.429 -0.9968 -1.6161  0.5515
  562TMC3    H1 8395   1.574   3.908  16.225 -0.8239 -0.8883  0.2797
  562TMC3    H2 8396   1.343   4.209  16.017 -2.4996  0.2761  1.3995
  562TMC3    C7 8397   1.442   3.964  15.985  0.1345 -0.2068  0.7517
  562TMC3    C8 8398   1.302   4.350  16.238  0.0963 -0.5374  0.4863
  562TMC3    O1 8399   1.414   4.013  15.879 -0.1876  0.3504  0.5556
  562TMC3    O2 8400   1.253   4.370  16.350  0.3282  0.1707  0.3537
  563MPD2     C 8401   3.664   1.397  15.692 -0.3338 -0.3948 -0.6524
  563MPD2    C1 8402   3.690   1.308  15.787  0.1827  0.0713 -0.3453
  563MPD2    C2 8403   3.813   1.251  15.790  0.3359  0.1241 -0.0286
  563MPD2    C3 8404   3.913   1.264  15.691  0.1732 -1.0263  0.4816
  563MPD2    C4 8405   3.886   1.366  15.599 -0.0943 -0.2312 -0.2859
  563MPD2    C5 8406   3.765   1.429  15.605  0.1107  0.2756  1.0782
  563MPD2     H 8407   3.841   1.182  15.869 -0.0595  0.2210  0.1976
  563MPD2    H1 8408   3.963   1.406  15.533 -1.7025  3.5007  0.1415
  563MPD2    H2 8409   3.573   1.456  15.697 -0.9064 -1.3373  0.1210
  563MPD2    H3 8410   3.742   1.512  15.540  1.0464  0.1519  0.5889
  563MPD2     N 8411   4.033   1.196  15.711  0.2256  0.0462  0.0089
  563MPD2    H5 8412   4.038   1.143  15.797  3.4168 -0.0700 -0.2576
  563MPD2    N1 8413   3.597   1.301  15.887 -0.5384  0.4076 -0.1700
  563MPD2    H7 8414   3.503   1.330  15.863 -1.2517 -0.2483  1.8680
  564TMC3    C1 8415   3.496   1.231  16.086 -0.2351  0.0381 -0.4693
  564TMC3    C2 8416   3.385   1.170  16.044 -0.2175  0.2783 -0.3633
  564TMC3    C3 8417   3.306   1.114  16.141 -0.2743 -1.2072 -0.4949
  564TMC3    C4 8418   3.532   1.238  16.220 -0.5426 -0.0697  0.0833
  564TMC3    C5 8419   3.447   1.187  16.312  0.8174  0.8667  0.5548
  564TMC3    C6 8420   3.330   1.123  16.274  0.4043  0.3103  0.0147
  564TMC3     C 8421   3.612   1.223  16.004 -0.2123  0.1556  1.0108
  564TMC3     O 8422   3.710   1.178  16.060 -0.3741 -0.1079 -0.3536
  564TMC3     H 8423   3.365   1.151  15.939  0.0853 -2.7622  0.1411
  564TMC3    H1 8424   3.621   1.291  16.251 -0.4283 -0.2454  0.0589
  564TMC3    H2 8425   3.256   1.082  16.341  0.0450  1.0785  0.0778
  564TMC3    C7 8426   3.521   1.143  16.436 -0.6952  0.1517  0.0292
  564TMC3    C8 8427   3.240   0.989  16.096  0.8957  1.0711 -0.0715
  564TMC3    O1 8428   3.633   1.195  16.452 -0.0478 -0.3374  0.1875
  564TMC3    O2 8429   3.233   0.903  16.186 -0.1417  0.2810  0.7098
  565TMC3    C1 8430   4.602   2.186  10.370 -0.1985  0.5451  0.1591
  565TMC3    C2 8431   4.581   2.111  10.485 -0.2338  1.0218 -0.0988
  565TMC3    C3 8432   4.481   2.021  10.491 -0.0098 -0.2424 -0.6347
  565TMC3    C4 8433   4.529   2.153  10.259 -0.1529  0.2873  1.0471
  565TMC3    C5 8434   4.424   2.066  10.273 -0.7263  0.3272  0.0342
  565TMC3    C6 8435   4.401   1.990  10.381 -0.7315 -0.4369  0.1553
  565TMC3     C 8436   4.670   2.321  10.378 -0.0006  0.0775 -0.7100
  565TMC3     O 8437   4.682   2.380  10.274  0.2598  0.0663 -0.0218
  565TMC3     H 8438   4.633   2.124  10.579 -1.0911  0.6514  0.4287
  565TMC3    H1 8439   4.543   2.210  10.168 -1.5183  0.9002  1.2287
  565TMC3    H2 8440   4.305   1.941  10.398  1.4664 -4.4513  1.1635
  565TMC3    C7 8441   4.348   2.045  10.155  0.2402  0.4347  0.1969
  565TMC3    C8 8442   4.499   1.909  10.588  0.5246  0.4060  0.2011
  565TMC3    O1 8443   4.366   2.125  10.060  0.1198  0.1219 -0.8370
  565TMC3    O2 8444   4.591   1.931  10.666 -0.5335 -0.2402 -0.3205
  566MPD2     C 8445   0.849   3.151  14.392 -0.3999  0.1600 -0.0105
  566MPD2    C1 8446   0.836   3.276  14.340 -0.1126 -0.3312 -0.2316
  566MPD2    C2 8447   0.731   3.313  14.256 -1.1031 -0.0818 -0.0393
  566MPD2    C3 8448   0.628   3.229  14.234  0.4509  0.0687  0.1329
  566MPD2    C4 8449   0.650   3.094  14.273  0.1918  0.7166  0.1730
  566MPD2    C5 8450   0.760   3.059  14.347 -0.0114 -0.2891  0.0297
  566MPD2     H 8451   0.724   3.412  14.212  0.3058  0.6133  1.3457
  566MPD2    H1 8452   0.581   3.019  14.236  1.0492 -0.1833  0.4031
  566MPD2    H2 8453   0.927   3.136  14.466 -0.9267  0.2864  0.5736
  566MPD2    H3 8454   0.774   2.958  14.384 -1.0975  0.1253  1.5458
  566MPD2     N 8455   0.518   3.257  14.152 -1.0436 -0.0120  0.5790
  566MPD2    H5 8456   0.473   3.172  14.118  2.1645 -1.7228  0.5360
  566MPD2    N1 8457   0.935   3.363  14.385  0.3510 -0.7256  0.2602
  566MPD2    H7 8458   1.018   3.330  14.432  1.6244  2.0860  0.0259
  567TMC3    C1 8459   1.087   3.522  14.364  0.4453 -0.2750  0.5962
  567TMC3    C2 8460   1.131   3.586  14.255  0.5090 -0.4458 -0.1623
  567TMC3    C3 8461   1.242   3.663  14.259  0.1933 -0.0789  0.9037
  567TMC3    C4 8462   1.144   3.539  14.492 -0.2304 -0.6586  0.0073
  567TMC3    C5 8463   1.252   3.615  14.497  0.5683  0.3659  0.0360
  567TMC3    C6 8464   1.302   3.679  14.384  0.0720 -0.5218  0.3212
  567TMC3     C 8465   0.951   3.495  14.357 -0.3287 -0.1492  0.6467
  567TMC3     O 8466   0.887   3.567  14.283 -0.2937 -0.6520 -0.3906
  567TMC3     H 8467   1.079   3.577  14.160 -0.7010  0.3399  0.4183
  567TMC3    H1 8468   1.087   3.499  14.576 -0.9085 -1.7435 -0.9731
  567TMC3    H2 8469   1.390   3.739  14.404  0.2967 -0.5900 -0.4662
  567TMC3    C7 8470   1.320   3.647  14.624 -0.4346  0.2981  0.2105
  567TMC3    C8 8471   1.244   3.773  14.165  0.8380 -0.2515  0.6371
  567TMC3    O1 8472   1.437   3.685  14.611 -0.2293  0.1025  0.5807
  567TMC3    O2 8473   1.139   3.793  14.104 -0.2975  0.2556  0.5591
  568MPD2     C 8474   3.038   4.375  16.327 -0.2051 -0.0369  0.6839
  568MPD2    C1 8475   2.982   4.422  16.439  0.1001 -0.9170  0.5010
  568MPD2    C2 8476   2.953   4.558  16.449 -0.6886 -0.0005  0.4084
  568MPD2    C3 8477   2.969   4.638  16.338 -0.2914 -0.4312 -0.0394
  568MPD2    C4 8478   3.027   4.585  16.222  0.1866  0.0612 -0.1408
  568MPD2    C5 8479   3.068   4.456  16.217 -0.6625  0.0844 -0.3058
  568MPD2     H 8480   2.920   4.594  16.546 -1.6339 -1.8039  0.7552
  568MPD2    H1 8481   3.038   4.642  16.130  0.8883 -0.7029 -0.5326
  568MPD2    H2 8482   3.068   4.272  16.317  0.5707  0.1328  1.3244
  568MPD2    H3 8483   3.104   4.415  16.124  0.6048  0.3777  0.0519
  568MPD2     N 8484   2.921   0.033  16.350 -0.1076 -0.5433 -0.5016
  568MPD2    H5 8485   2.882   0.062  16.439  1.3683 -0.3550  0.0930
  568MPD2    N1 8486   2.953   4.323  16.532 -0.6100  0.3543 -0.0682
  568MPD2    H7 8487   2.998   4.234  16.515 -2.4257 -0.5307 -0.2590
  569TMC3    C1 8488   2.870   0.261  16.280 -0.2383 -0.0660  1.0758
  569TMC3    C2 8489   2.797   0.273  16.395  0.7474  0.3761  0.0382
  569TMC3    C3 8490   2.694   0.363  16.392  0.5492  0.3197 -0.2686
  569TMC3    C4 8491   2.860   0.355  16.182 -0.6731  0.2730  0.7961
  569TMC3    C5 8492   2.763   0.447  16.188 -0.4129 -0.4869  0.6166
  569TMC3    C6 8493   2.669   0.450  16.291  0.7780 -0.3165 -0.1925
  569TMC3     C 8494   2.921   0.122  16.249  0.2128  0.1179 -0.0674
  569TMC3     O 8495   2.964   0.102  16.134  0.4973 -0.3406  0.2817
  569TMC3     H 8496   2.804   0.197  16.472 -2.4653  1.3455  1.2695
  569TMC3    H1 8497   2.928   0.361  16.097  0.7897  0.1436  1.9540
  569TMC3    H2 8498   2.590   0.524  16.297  0.0774 -1.1114  0.3235
  569TMC3    C7 8499   2.764   0.552  16.089 -0.4995  0.0122  0.5262
  569TMC3    C8 8500   2.629   0.391  16.519 -0.0970 -0.2488  0.7400
  569TMC3    O1 8501   2.659   0.574  16.026 -0.2401 -0.1487 -0.0886
  569TMC3    O2 8502   2.511   0.430  16.510 -0.0984  0.8285  0.2797
  570TMC3    C1 8503   2.731   3.208  15.946 -0.3003 -0.8059 -0.1272
  570TMC3    C2 8504   2.834   3.260  15.873 -0.4369 -0.4106 -0.3531
  570TMC3    C3 8505   2.869   3.388  15.888 -0.9963 -0.1879  0.2024
  570TMC3    C4 8506   2.657   3.275  16.043  0.8163 -0.2762 -0.1292
  570TMC3    C5 8507   2.694   3.405  16.059  0.3618 -0.3409 -0.0840
  570TMC3    C6 8508   2.805   3.454  15.986  1.0797 -0.5869 -0.3561
  570TMC3     C 8509   2.721   3.063  15.947  0.1119 -0.3341  0.5299
  570TMC3     O 8510   2.770   3.020  15.847  0.2479  0.7977 -0.2735
  570TMC3     H 8511   2.907   3.193  15.831  0.9316  1.2404 -0.6290
  570TMC3    H1 8512   2.579   3.226  16.100  0.5255  0.3301  0.0048
  570TMC3    H2 8513   2.846   3.551  16.015 -0.6834 -0.0107  0.2281
  570TMC3    C7 8514   2.635   3.487  16.163 -1.2093  0.4636  0.2898
  570TMC3    C8 8515   2.992   3.454  15.826  0.1866 -1.0223 -0.3932
  570TMC3    O1 8516   2.697   3.589  16.194 -0.3675  0.0684 -0.0118
  570TMC3    O2 8517   3.013   3.568  15.867 -0.1091  0.4908 -0.7328
  571MPD2     C 8518   0.198   4.391  17.629  0.5951 -0.1968 -0.7441
  571MPD2    C1 8519   0.269   4.368  17.748 -0.0746  0.1497 -0.1313
  571MPD2    C2 8520   0.299   4.481   0.070 -0.2093 -0.0295  0.0859
  571MPD2    C3 8521   0.276   4.608   0.026  1.2480 -0.5565 -0.6855
  571MPD2    C4 8522   0.219   4.629  17.658 -0.1398  0.0111 -1.6578
  571MPD2    C5 8523   0.176   4.522  17.588 -0.3590  0.7039  0.1329
  571MPD2     H 8524   0.360   4.470   0.159  0.0536  1.4739  0.0901
  571MPD2    H1 8525   0.200   4.728  17.618  1.1423  0.4442 -1.1905
  571MPD2    H2 8526   0.156   4.310  17.570  0.5282 -0.2228 -0.6615
  571MPD2    H3 8527   0.125   4.550  17.497 -1.9722  1.4381  1.2642
  571MPD2     N 8528   0.290   4.725   0.099 -0.2466  0.1042  0.3855
  571MPD2    H5 8529   0.261   0.069   0.046  3.7972  1.3107  0.0402
  571MPD2    N1 8530   0.284   4.233   0.042  0.1860  0.1752 -0.4361
  571MPD2    H7 8531   0.253   4.167  17.724 -0.5381  0.5979 -0.5070
  572TMC3    C1 8532   0.316   0.143   0.281  0.6949  0.2872  0.0375
  572TMC3    C2 8533   0.244   0.178   0.391  0.0813  0.2290 -0.6175
  572TMC3    C3 8534   0.218   0.315   0.407  0.5055 -0.1660 -0.4966
  572TMC3    C4 8535   0.361   0.238   0.188 -0.2931  0.4165 -0.3016
  572TMC3    C5 8536   0.326   0.371   0.211 -0.3623 -0.3223 -0.2236
  572TMC3    C6 8537   0.266   0.417   0.328 -0.0286  1.0432  0.1272
  572TMC3     C 8538   0.315   0.005   0.236  0.7634 -0.0143 -0.5855
  572TMC3     O 8539   0.329   4.657   0.320  0.2859  0.2114  0.3969
  572TMC3     H 8540   0.174   0.105   0.430 -1.6756  2.2446 -0.0023
  572TMC3    H1 8541   0.419   0.212   0.100  0.4636 -0.6081  0.4937
  572TMC3    H2 8542   0.253   0.522   0.352  0.8353  1.4016 -0.9434
  572TMC3    C7 8543   0.374   0.472   0.125 -0.2698  0.5379 -0.5098
  572TMC3    C8 8544   0.114   0.354   0.497 -0.1590 -0.2476  0.0792
  572TMC3    O1 8545   0.394   0.583   0.175 -0.6920 -0.2142 -0.3905
  572TMC3    O2 8546   0.060   0.462   0.465 -0.0708 -0.7252  0.2575
  573MPD2     C 8547   0.923   0.432   0.913  0.7253  0.3420  0.0721
  573MPD2    C1 8548   0.988   0.527   0.852 -0.2373  0.8474 -0.3304
  573MPD2    C2 8549   0.987   0.543   0.712  0.6019  0.7269 -0.6934
  573MPD2    C3 8550   0.903   0.459   0.634  0.1088  0.7986  0.0693
  573MPD2    C4 8551   0.816   0.375   0.695 -0.4220 -0.6070  0.6017
  573MPD2    C5 8552   0.826   0.362   0.835  0.3546 -0.2714 -0.8411
  573MPD2     H 8553   1.060   0.614   0.675 -0.4325  2.7588  1.1877
  573MPD2    H1 8554   0.746   0.315   0.637 -2.1056  0.6518  1.3442
  573MPD2    H2 8555   0.921   0.401   1.017 -3.8941  0.9707  0.1783
  573MPD2    H3 8556   0.760   0.291   0.882 -0.8817 -0.0549 -2.2514
  573MPD2     N 8557   0.884   0.470   0.497 -0.2612  0.4013  0.5301
  573MPD2    H5 8558   0.814   0.418   0.444  2.7319 -2.0406 -1.0473
  573MPD2    N1 8559   1.074   0.603   0.932  0.0582 -0.3656 -0.2597
  573MPD2    H7 8560   1.065   0.609   1.033  1.1305 -1.9011 -0.0790
  574TMC3    C1 8561   0.899   0.557   0.269 -0.9032 -0.1481  0.5404
  574TMC3    C2 8562   0.922   0.662   0.197 -0.0436 -0.5306 -0.1815
  574TMC3    C3 8563   0.881   0.667   0.069  0.4891  0.7543 -0.1235
  574TMC3    C4 8564   0.833   0.445   0.223 -0.2114  0.0499 -0.0826
  574TMC3    C5 8565   0.792   0.450   0.089  0.0625  0.3285  0.3602
  574TMC3    C6 8566   0.816   0.560   0.009  0.1985  0.5719  0.2027
  574TMC3     C 8567   0.941   0.563   0.412 -0.3835 -0.3344  0.2246
  574TMC3     O 8568   1.009   0.659   0.445 -0.3851  0.8225 -0.0242
  574TMC3     H 8569   0.982   0.739   0.245 -0.7006  0.8990 -1.6806
  574TMC3    H1 8570   0.820   0.353   0.279 -0.6012  0.1646  0.0127
  574TMC3    H2 8571   0.805   0.549  17.654  0.5771  1.5399  0.0676
  574TMC3    C7 8572   0.718   0.335   0.040  0.1442 -0.5738 -0.5159
  574TMC3    C8 8573   0.923   0.768  17.730  0.4588  0.0862 -0.0683
  574TMC3    O1 8574   0.662   0.264   0.125 -0.0091 -0.4941  0.6669
  574TMC3    O2 8575   0.887   0.753  17.612 -0.8115  0.0289 -0.6027
  575TMC3    C1 8576   0.123   1.544  11.298  0.8257  0.4974  0.0948
  575TMC3    C2 8577   0.030   1.493  11.389  0.7985  0.1631  0.0577
  575TMC3    C3 8578   4.637   1.487  11.351 -0.3577 -0.5717 -0.3359
  575TMC3    C4 8579   0.081   1.589  11.179  0.1666  0.2255  0.3860
  575TMC3    C5 8580   4.687   1.599  11.156 -0.6187  0.7904 -0.0830
  575TMC3    C6 8581   4.591   1.549  11.237  0.2494  0.0104  0.2125
  575TMC3     C 8582   0.261   1.573  11.339 -0.0125 -0.4259 -0.2762
  575TMC3     O 8583   0.287   1.559  11.457  0.1646 -0.0627  0.6011
  575TMC3     H 8584   0.077   1.445  11.475  3.6515 -2.0972 -2.7707
  575TMC3    H1 8585   0.144   1.628  11.099 -1.5608 -0.1658 -1.1390
  575TMC3    H2 8586   4.488   1.575  11.219  0.6823  1.7938  0.2660
  575TMC3    C7 8587   4.652   1.638  11.022  0.1600  0.4386  0.2096
  575TMC3    C8 8588   4.541   1.396  11.414  0.0891 -0.0136 -0.5477
  575TMC3    O1 8589   4.721   1.725  10.973 -0.5082  0.4108 -0.7141
  575TMC3    O2 8590   4.429   1.390  11.362  0.4248 -0.4948 -0.0036
  576MPD2     C 8591   3.782   3.142  12.756 -0.0562 -0.1200  0.4437
  576MPD2    C1 8592   3.780   3.208  12.631  0.1701  0.2083 -0.0179
  576MPD2    C2 8593   3.705   3.321  12.619 -0.0425  0.2362  0.4657
  576MPD2    C3 8594   3.634   3.371  12.725 -0.4214  0.4066 -0.3038
  576MPD2    C4 8595   3.628   3.300  12.840  0.2931 -1.1030 -1.0850
  576MPD2    C5 8596   3.705   3.189  12.859  0.5240 -0.4930  0.5793
  576MPD2     H 8597   3.717   3.378  12.528 -1.9867  1.8057  1.1939
  576MPD2    H1 8598   3.588   3.331  12.935  0.5927 -1.1803 -0.9321
  576MPD2    H2 8599   3.841   3.054  12.776 -2.5884 -1.7795  0.6681
  576MPD2    H3 8600   3.710   3.132  12.951  2.1421 -1.1416  0.0956
  576MPD2     N 8601   3.586   3.501  12.713  0.1631  0.3436 -0.0171
  576MPD2    H5 8602   3.612   3.549  12.628  0.1133  0.0623 -0.1923
  576MPD2    N1 8603   3.857   3.176  12.518 -0.4442  0.4365 -0.7480
  576MPD2    H7 8604   3.826   3.221  12.432 -0.2990 -0.6886 -1.3904
  577TMC3    C1 8605   4.026   3.043  12.399 -0.5995 -0.2171  0.1048
  577TMC3    C2 8606   4.138   2.965  12.409 -0.0168 -0.5713  0.5402
  577TMC3    C3 8607   4.186   2.920  12.289  0.5982  0.0966  0.4368
  577TMC3    C4 8608   3.947   3.046  12.287 -0.0773 -0.8261  0.0455
  577TMC3    C5 8609   3.989   2.985  12.170 -0.2169  0.4574  0.5928
  577TMC3    C6 8610   4.115   2.932  12.167  0.1549  0.0603 -1.3596
  577TMC3     C 8611   3.976   3.102  12.522  0.5944 -0.3042  0.4577
  577TMC3     O 8612   4.037   3.063  12.619  0.7673  0.1767  0.1116
  577TMC3     H 8613   4.184   2.944  12.505  0.2054  2.4232  1.0988
  577TMC3    H1 8614   3.850   3.095  12.285  0.8000  0.9382  0.9031
  577TMC3    H2 8615   4.150   2.905  12.068  0.9186  1.0265 -1.3581
  577TMC3    C7 8616   3.909   3.000  12.049  0.7065  0.0698 -0.1452
  577TMC3    C8 8617   4.319   2.849  12.296  0.6264  0.1236  0.4741
  577TMC3    O1 8618   3.848   3.102  12.033  0.0045 -0.2113  1.0640
  577TMC3    O2 8619   4.375   2.824  12.403 -0.3116  0.2989  0.1823
  578MPD2     C 8620   1.359   3.087   1.536 -0.4245 -0.0647  0.0770
  578MPD2    C1 8621   1.397   3.112   1.408  0.0870  0.3585 -0.5756
  578MPD2    C2 8622   1.535   3.115   1.384 -0.2473 -0.2576 -0.6243
  578MPD2    C3 8623   1.629   3.095   1.489  0.0769 -0.2721 -0.2893
  578MPD2    C4 8624   1.584   3.054   1.610  0.2498  0.0081 -0.8870
  578MPD2    C5 8625   1.455   3.061   1.641 -0.8686  0.4051 -0.6118
  578MPD2     H 8626   1.567   3.146   1.285  2.3709 -0.8115  0.0583
  578MPD2    H1 8627   1.659   3.029   1.684  1.3037 -2.1534 -2.6771
  578MPD2    H2 8628   1.252   3.097   1.555 -0.3790  1.9119 -0.6600
  578MPD2    H3 8629   1.420   3.024   1.736 -0.2084  1.6685  0.1128
  578MPD2     N 8630   1.765   3.098   1.458  0.5598 -0.1984 -0.0152
  578MPD2    H5 8631   1.785   3.112   1.359  0.8288 -2.8281 -0.3196
  578MPD2    N1 8632   1.304   3.148   1.309  0.5605  0.0439  0.1665
  578MPD2    H7 8633   1.211   3.159   1.347  0.2289 -0.7918 -0.4056
  579TMC3    C1 8634   1.999   3.074   1.473  0.3246 -0.9089 -0.2773
  579TMC3    C2 8635   2.095   3.126   1.554 -0.1570  0.2169 -0.0531
  579TMC3    C3 8636   2.206   3.158   1.485 -0.2436 -0.3821 -0.9205
  579TMC3    C4 8637   2.004   3.038   1.342 -0.0328 -0.1356 -0.7931
  579TMC3    C5 8638   2.122   3.059   1.284 -0.0533  0.1971  0.2972
  579TMC3    C6 8639   2.226   3.111   1.358  0.2982  0.3786  1.2343
  579TMC3     C 8640   1.872   3.076   1.545 -0.3552  0.2157 -0.3551
  579TMC3     O 8641   1.872   3.057   1.666  0.0455 -0.8837  0.1838
  579TMC3     H 8642   2.076   3.153   1.657 -1.7147  1.2130 -0.5942
  579TMC3    H1 8643   1.921   2.987   1.293 -1.0986 -1.3905  2.2912
  579TMC3    H2 8644   2.317   3.135   1.305 -0.8209  0.6130 -0.5635
  579TMC3    C7 8645   2.128   3.079   1.138 -0.5582  0.4990  0.3202
  579TMC3    C8 8646   2.311   3.230   1.561 -0.3086 -0.6434  0.4017
  579TMC3    O1 8647   2.219   3.152   1.099 -0.1555 -0.0259 -0.5859
  579TMC3    O2 8648   2.272   3.299   1.654  0.0649  0.0488  0.1732
  580TMC3    C1 8649   2.170   2.709  12.454  0.9640  0.2114  0.0540
  580TMC3    C2 8650   2.289   2.769  12.479 -0.5951 -0.1278 -0.0136
  580TMC3    C3 8651   2.403   2.690  12.500  0.3516 -0.0344 -0.3526
  580TMC3    C4 8652   2.166   2.570  12.454 -0.7920  0.1910  0.1724
  580TMC3    C5 8653   2.280   2.496  12.465 -0.5194  0.2729  0.4506
  580TMC3    C6 8654   2.399   2.550  12.505  0.1679 -0.5328  0.0549
  580TMC3     C 8655   2.130   2.761  12.328  0.2317  0.5595 -0.3564
  580TMC3     O 8656   2.206   2.758  12.230 -0.2489 -0.4103  0.0275
  580TMC3     H 8657   2.292   2.878  12.478 -1.3689 -0.0805  2.2807
  580TMC3    H1 8658   2.073   2.515  12.446 -1.2785  0.9158  0.8049
  580TMC3    H2 8659   2.485   2.486  12.523  1.0855  0.4926 -0.6457
  580TMC3    C7 8660   2.264   2.358  12.503  0.4701 -0.1733  0.1156
  580TMC3    C8 8661   2.533   2.755  12.473  0.3422 -0.0794 -0.3469
  580TMC3    O1 8662   2.337   2.317  12.597  0.4779 -0.1452  0.0227
  580TMC3    O2 8663   2.539   2.873  12.509 -0.5115 -0.0392  0.2302
  581MPD2     C 8664   4.390   2.384  14.859  0.1281 -0.8752  0.3760
  581MPD2    C1 8665   4.387   2.475  14.960  0.3167  0.3805 -0.8784
  581MPD2    C2 8666   4.274   2.548  14.994  0.3768 -0.4453 -0.3895
  581MPD2    C3 8667   4.165   2.538  14.910 -0.3579  0.3263 -0.0177
  581MPD2    C4 8668   4.166   2.448  14.799 -0.5111 -0.3104  0.4445
  581MPD2    C5 8669   4.278   2.373  14.777  0.0422  0.9456  0.2440
  581MPD2     H 8670   4.271   2.612  15.081  1.9836 -0.5498 -0.2613
  581MPD2    H1 8671   4.078   2.444  14.737 -0.8780 -1.4270  1.0501
  581MPD2    H2 8672   4.479   2.326  14.839 -0.5686 -1.3840 -1.2198
  581MPD2    H3 8673   4.286   2.296  14.701 -1.7315 -0.0579  1.0802
  581MPD2     N 8674   4.048   2.605  14.956 -0.0600 -0.4658  0.3726
  581MPD2    H5 8675   4.060   2.668  15.035  0.0248 -0.2846  0.2167
  581MPD2    N1 8676   4.512   2.493  15.027  0.1789 -0.2740  0.1432
  581MPD2    H7 8677   4.586   2.441  14.982 -1.3786 -3.0203  0.7175
  582TMC3    C1 8678   4.683   2.541  15.161  0.2657 -0.0477 -0.2183
  582TMC3    C2 8679   4.691   2.531  15.295 -0.7428 -0.9611 -0.0925
  582TMC3    C3 8680   4.719   2.418  15.356  0.0047 -0.0674 -0.5233
  582TMC3    C4 8681   0.001   2.439  15.087  0.4330 -0.0621  0.2659
  582TMC3    C5 8682   0.026   2.322  15.149  0.9081  0.1314 -0.0492
  582TMC3    C6 8683   0.030   2.311  15.286 -0.2399  0.3877  0.7133
  582TMC3     C 8684   4.543   2.571  15.135 -0.8206  0.6182 -0.4041
  582TMC3     O 8685   4.462   2.609  15.221 -0.6598  0.3779 -0.7553
  582TMC3     H 8686   4.637   2.608  15.349  1.0262 -0.0716  0.3867
  582TMC3    H1 8687   0.023   2.451  14.982  1.2220 -1.9850  0.2181
  582TMC3    H2 8688   0.044   2.215  15.335  1.8930 -0.1001 -0.8277
  582TMC3    C7 8689   4.687   2.221  15.086  0.0819 -0.5239 -0.3168
  582TMC3    C8 8690   4.738   2.420  15.496  0.5921 -0.4189 -0.4117
  582TMC3    O1 8691   4.680   2.225  14.965  0.3751  0.6064 -0.4010
  582TMC3    O2 8692   4.687   2.510  15.562  0.2268  0.8779  0.3137
  583MPD2     C 8693   4.293   3.895  16.836  0.0750 -0.1435  0.4691
  583MPD2    C1 8694   4.330   4.025  16.816  0.4176 -0.0947  0.5216
  583MPD2    C2 8695   4.265   4.121  16.886  0.2643 -0.0849  0.1466
  583MPD2    C3 8696   4.173   4.094  16.982  0.3378  0.9439  0.5138
  583MPD2    C4 8697   4.146   3.963  17.020  0.0799  0.5221 -0.5816
  583MPD2    C5 8698   4.209   3.864  16.943  1.2225 -0.0114 -0.6066
  583MPD2     H 8699   4.277   4.226  16.861  1.4676 -0.3768 -0.5143
  583MPD2    H1 8700   4.075   3.935  17.098  2.3277  1.7435  1.9215
  583MPD2    H2 8701   4.337   3.809  16.787 -1.0946 -0.4124 -0.0808
  583MPD2    H3 8702   4.196   3.763  16.980 -2.4992  0.2655 -1.1564
  583MPD2     N 8703   4.099   4.208  17.032  0.2435 -0.1640  0.2891
  583MPD2    H5 8704   4.110   4.301  16.992 -1.0486 -0.3657 -0.5377
  583MPD2    N1 8705   4.431   4.060  16.722  0.0559  0.0950 -0.6801
  583MPD2    H7 8706   4.437   4.151  16.678  0.1283 -0.7514 -2.4347
  584TMC3    C1 8707   4.043   4.337  17.208 -0.0636 -0.1928 -0.4020
  584TMC3    C2 8708   3.990   4.436  17.128 -0.1293  0.9871  0.3535
  584TMC3    C3 8709   3.995   4.558  17.192  0.3687  0.1456 -0.8226
  584TMC3    C4 8710   4.090   4.344  17.340 -0.4515  0.2461 -0.2872
  584TMC3    C5 8711   4.075   4.464  17.398 -0.0867  0.1649  0.7518
  584TMC3    C6 8712   4.026   4.570  17.323  0.8147 -0.0219 -0.4860
  584TMC3     C 8713   4.044   4.204  17.156 -0.0129  0.0493 -0.7861
  584TMC3     O 8714   4.028   4.114  17.240 -0.0150  0.4290 -0.5411
  584TMC3     H 8715   3.954   4.413  17.029 -0.7468 -0.1422  0.8380
  584TMC3    H1 8716   4.127   4.256  17.391 -0.7684  1.4020  1.9742
  584TMC3    H2 8717   3.988   4.660  17.369 -0.1084 -0.6183 -0.0741
  584TMC3    C7 8718   4.050   4.454  17.545 -0.2942 -0.0992 -0.0323
  584TMC3    C8 8719   3.911   4.663  17.131  0.1779  0.1314  0.6057
  584TMC3    O1 8720   4.071   4.352  17.607  0.2890 -0.1578  0.2364
  584TMC3    O2 8721   3.819   4.621  17.058  0.4927  0.2217 -0.2156
  585MPD2     C 8722   3.196   2.932   0.198 -1.0991 -0.0404  0.0976
  585MPD2    C1 8723   3.207   3.042   0.118  0.2799  0.0561  0.1428
  585MPD2    C2 8724   3.239   3.017  17.741  0.0512 -0.9482 -0.0169
  585MPD2    C3 8725   3.254   2.888  17.696 -0.0543  0.2452  0.0251
  585MPD2    C4 8726   3.255   2.781   0.027 -0.3548  0.3294  0.5050
  585MPD2    C5 8727   3.223   2.809   0.155  0.1410  0.3985  0.8838
  585MPD2     H 8728   3.241   3.096  17.667 -0.4089 -0.2332  0.7400
  585MPD2    H1 8729   3.270   2.677  17.752  0.9009  0.1423  1.9001
  585MPD2    H2 8730   3.196   2.943   0.306  1.0953 -0.2691  0.1085
  585MPD2    H3 8731   3.208   2.726   0.224  0.8610 -0.0520  0.5015
  585MPD2     N 8732   3.276   2.876  17.559  0.3707  0.1049  0.1960
  585MPD2    H5 8733   3.272   2.962  17.504  0.1072 -0.8774 -1.3057
  585MPD2    N1 8734   3.180   3.167   0.173 -0.0739 -1.0704 -0.3174
  585MPD2    H7 8735   3.156   3.172   0.272 -0.5095 -2.3018 -0.3532
  586TMC3    C1 8736   3.327   2.790  17.356  0.8453  0.5339 -0.1321
  586TMC3    C2 8737   3.414   2.885  17.313  0.6477  0.7341 -0.4071
  586TMC3    C3 8738   3.447   2.896  17.182  0.5293  0.5696  0.4581
  586TMC3    C4 8739   3.279   2.697  17.266 -0.5862  0.2272  0.3556
  586TMC3    C5 8740   3.308   2.722  17.129 -0.1090  0.3788  0.3370
  586TMC3    C6 8741   3.387   2.825  17.084  0.2650 -0.3761  0.1563
  586TMC3     C 8742   3.303   2.760  17.498 -0.1988  0.0493 -0.0271
  586TMC3     O 8743   3.312   2.649  17.542 -0.3983  0.2225 -0.3318
  586TMC3     H 8744   3.449   2.961  17.383 -1.9385  1.3505  0.2193
  586TMC3    H1 8745   3.222   2.609  17.292  2.4577 -1.8434  0.1312
  586TMC3    H2 8746   3.394   2.848  16.978  0.3683  2.1144  0.7209
  586TMC3    C7 8747   3.244   2.639  17.033  0.6994  0.1500 -0.0398
  586TMC3    C8 8748   3.558   2.984  17.146  0.1172  0.8763 -0.4099
  586TMC3    O1 8749   3.149   2.567  17.072  0.3049 -0.1861 -0.3214
  586TMC3    O2 8750   3.574   3.076  17.222 -0.2688  0.5999  0.1262
  587TMC3    C1 8751   1.165   1.925  16.375  0.8288 -0.8285  0.0192
  587TMC3    C2 8752   1.133   1.958  16.507 -0.5639 -0.6552 -0.6166
  587TMC3    C3 8753   1.241   1.952  16.592 -0.5839 -0.5030  0.0246
  587TMC3    C4 8754   1.293   1.904  16.335 -0.2790 -0.0872  0.0597
  587TMC3    C5 8755   1.386   1.886  16.430 -0.5420 -0.0259 -0.2107
  587TMC3    C6 8756   1.362   1.909  16.565  0.9380  0.3050 -0.0634
  587TMC3     C 8757   1.077   1.988  16.278 -0.1130  0.1526 -0.2207
  587TMC3     O 8758   1.124   2.060  16.190 -0.3162 -0.4106 -0.0101
  587TMC3     H 8759   1.040   2.003  16.540 -0.8557 -0.7631 -1.2927
  587TMC3    H1 8760   1.314   1.895  16.229 -1.5535  2.4771 -0.3947
  587TMC3    H2 8761   1.431   1.871  16.639  0.2352 -1.3782 -0.2653
  587TMC3    C7 8762   1.509   1.814  16.398 -0.3884  0.5939  0.6327
  587TMC3    C8 8763   1.234   2.027  16.719  1.0559  0.1745 -0.3630
  587TMC3    O1 8764   1.552   1.734  16.481  0.1576  0.3571  0.2668
  587TMC3    O2 8765   1.331   2.016  16.799 -0.1868  0.4806  0.6033
  588TMC3    C1 8766   3.939   3.650  10.011  0.3644  0.1368 -0.2176
  588TMC3    C2 8767   3.895   3.528  10.040  0.4830  0.0811  0.1763
  588TMC3    C3 8768   3.992   3.436  10.064 -0.4184 -0.6058 -0.8723
  588TMC3    C4 8769   4.070   3.695  10.007  0.1917 -0.3820  0.5128
  588TMC3    C5 8770   4.162   3.597  10.032 -0.3642  0.2930  0.6345
  588TMC3    C6 8771   4.125   3.466  10.060  0.6908  0.6956  0.7832
  588TMC3     C 8772   3.834   3.752  10.045  0.2988 -0.4398  0.1073
  588TMC3     O 8773   3.716   3.720  10.040  0.5860  0.0323  0.0415
  588TMC3     H 8774   3.791   3.506  10.060  0.2910  1.2448  0.4399
  588TMC3    H1 8775   4.109   3.793   9.981  2.9033 -1.2386  1.3580
  588TMC3    H2 8776   4.201   3.390  10.078 -1.2218 -1.3328  0.2898
  588TMC3    C7 8777   4.296   3.646  10.066 -0.3068  0.2715  0.7306
  588TMC3    C8 8778   3.942   3.311  10.116 -0.1694  0.0378  0.4669
  588TMC3    O1 8779   4.381   3.593   9.997 -0.3005  0.3120  0.0014
  588TMC3    O2 8780   3.838   3.269  10.073  0.1826 -0.2729 -0.2498
  589TMC3    C1 8781   2.043   1.391   0.680 -0.1865 -0.8071 -0.5144
  589TMC3    C2 8782   2.108   1.502   0.724 -0.2410  0.6100  0.0562
  589TMC3    C3 8783   2.240   1.493   0.727  0.2722 -0.4053  1.0896
  589TMC3    C4 8784   2.108   1.276   0.636 -0.9432 -0.1416  0.0643
  589TMC3    C5 8785   2.250   1.279   0.630 -0.5677  0.2767 -0.0129
  589TMC3    C6 8786   2.316   1.384   0.687 -0.0521  0.5558  0.1553
  589TMC3     C 8787   1.906   1.399   0.650  1.0911  0.4090 -0.2290
  589TMC3     O 8788   1.857   1.332   0.566 -0.5901  0.2562 -0.3375
  589TMC3     H 8789   2.050   1.585   0.764  0.5456  0.4415  1.5371
  589TMC3    H1 8790   2.050   1.190   0.606 -2.2978  1.1843 -1.1375
  589TMC3    H2 8791   2.425   1.384   0.689 -0.0242  0.0283 -1.9909
  589TMC3    C7 8792   2.312   1.151   0.603 -0.8153  0.5622 -0.4494
  589TMC3    C8 8793   2.307   1.598   0.802 -0.4142 -0.6329  0.5789
  589TMC3    O1 8794   2.236   1.071   0.554 -0.7692 -0.6712 -0.4220
  589TMC3    O2 8795   2.236   1.664   0.876  0.4114 -0.0551 -0.2442
  590MPD2     C 8796   1.839   4.721  16.524  0.0962 -0.0809 -0.6920
  590MPD2    C1 8797   1.803   0.099  16.452 -0.3409  0.1428 -0.4441
  590MPD2    C2 8798   1.900   0.189  16.406  0.1598  0.4833 -0.4279
  590MPD2    C3 8799   2.037   0.156  16.413 -0.2970  0.6326 -0.0116
  590MPD2    C4 8800   2.069   0.037  16.478  0.2015  0.2488 -0.1596
  590MPD2    C5 8801   1.976   4.694  16.541  0.4984 -0.3607 -0.3777
  590MPD2     H 8802   1.879   0.284  16.358 -0.5214  0.7552  0.4134
  590MPD2    H1 8803   2.174   0.016  16.494  0.0912 -1.2493 -1.3744
  590MPD2    H2 8804   1.763   4.656  16.566  0.0759  1.7287  2.0574
  590MPD2    H3 8805   2.015   4.608  16.593 -1.4012 -0.3126  1.1306
  590MPD2     N 8806   2.137   0.227  16.339 -0.4303  0.7755  0.3108
  590MPD2    H5 8807   2.102   0.300  16.278 -0.4673 -0.6843 -1.3739
  590MPD2    N1 8808   1.674   0.133  16.412  0.2942  0.0691 -0.4696
  590MPD2    H7 8809   1.673   0.221  16.361  2.1253  2.1909  3.1673
  591TMC3    C1 8810   2.329   0.268  16.216 -0.0863 -0.0288  0.4095
  591TMC3    C2 8811   2.406   0.199  16.135 -0.3175  0.8575 -0.1426
  591TMC3    C3 8812   2.463   0.265  16.022 -0.0694  0.1613 -0.1261
  591TMC3    C4 8813   2.308   0.407  16.197  0.1868  0.7820 -0.4630
  591TMC3    C5 8814   2.355   0.466  16.083  0.0486  0.4612  0.1957
  591TMC3    C6 8815   2.432   0.397  15.993 -0.2748 -0.4275  0.2523
  591TMC3     C 8816   2.270   0.202  16.330 -0.2155  0.6747  0.2063
  591TMC3     O 8817   2.342   0.118  16.381  0.1518  0.1390 -0.2428
  591TMC3     H 8818   2.445   0.105  16.173 -3.2352  0.7008  2.5097
  591TMC3    H1 8819   2.250   0.455  16.275 -0.2389 -2.4544  1.1918
  591TMC3    H2 8820   2.467   0.451  15.905  4.2029 -1.0795  1.6508
  591TMC3    C7 8821   2.291   0.588  16.051 -0.1123  0.5871  0.4897
  591TMC3    C8 8822   2.582   0.208  15.971 -0.0509  0.2803  0.0962
  591TMC3    O1 8823   2.196   0.623  16.119  0.2257 -0.2902 -0.0572
  591TMC3    O2 8824   2.606   0.089  15.995  0.1499  0.0687 -0.0893
  592MPD2     C 8825   2.911   2.024  11.447 -0.6697 -0.4148 -0.1019
  592MPD2    C1 8826   2.948   2.044  11.581 -0.3297 -0.1729  0.1682
  592MPD2    C2 8827   2.856   1.993  11.677 -0.2732  0.6241  1.1662
  592MPD2    C3 8828   2.743   1.923  11.633  0.0127 -0.6339 -0.3972
  592MPD2    C4 8829   2.712   1.902  11.500 -0.0265 -0.2553  0.3572
  592MPD2    C5 8830   2.801   1.955  11.408 -0.8289  0.5923 -0.1905
  592MPD2     H 8831   2.870   2.013  11.783  0.1796 -0.2759  1.2805
  592MPD2    H1 8832   2.632   1.832  11.478  0.1880 -0.3626 -0.0746
  592MPD2    H2 8833   2.969   2.058  11.363 -0.0423 -0.7099  0.2110
  592MPD2    H3 8834   2.784   1.936  11.302 -0.8392  0.3894 -0.1523
  592MPD2     N 8835   2.671   1.848  11.737  0.3232  0.0169 -0.1552
  592MPD2    H5 8836   2.598   1.784  11.706  0.7791  0.4394 -2.1213
  592MPD2    N1 8837   3.064   2.116  11.615 -0.1219 -0.2721  0.2906
  592MPD2    H7 8838   3.135   2.126  11.544 -0.6254  3.0067  0.2568
  593TMC3    C1 8839   3.221   2.235  11.746  0.1806  0.3569  0.6660
  593TMC3    C2 8840   3.266   2.250  11.873  1.1997 -0.0287 -0.3370
  593TMC3    C3 8841   3.402   2.281  11.888  0.4366  0.2318  0.0277
  593TMC3    C4 8842   3.292   2.263  11.640  0.3192  0.1377  0.8272
  593TMC3    C5 8843   3.421   2.311  11.654  0.5566  0.5326  0.1417
  593TMC3    C6 8844   3.469   2.326  11.776  0.2671  0.1870 -0.4516
  593TMC3     C 8845   3.091   2.165  11.738  0.6456  0.1412 -0.0069
  593TMC3     O 8846   3.035   2.154  11.845  0.0414  0.2141 -0.0414
  593TMC3     H 8847   3.210   2.218  11.960 -0.2840  0.8666 -0.9575
  593TMC3    H1 8848   3.235   2.272  11.548  0.2986 -0.3520  0.7950
  593TMC3    H2 8849   3.572   2.357  11.787  0.7549 -1.3539 -0.5977
  593TMC3    C7 8850   3.496   2.354  11.544  0.3709  0.5740 -0.5832
  593TMC3    C8 8851   3.444   2.352  12.011 -0.2118  0.5002  0.3314
  593TMC3    O1 8852   3.591   2.426  11.556 -0.2365  0.1109  0.3898
  593TMC3    O2 8853   3.562   2.352  12.034 -0.4132  0.0187  0.0829
  594MPD2     C 8854   1.897   0.745  14.651 -0.2404 -0.7903  0.2678
  594MPD2    C1 8855   1.793   0.825  14.632 -0.1861  0.2295 -0.0712
  594MPD2    C2 8856   1.818   0.954  14.590  0.1920 -0.4538  0.3345
  594MPD2    C3 8857   1.944   1.005  14.580 -0.2788 -0.1194 -0.1221
  594MPD2    C4 8858   2.055   0.926  14.624  0.4551 -0.6669  0.1346
  594MPD2    C5 8859   2.022   0.797  14.646  0.3656 -0.5140  0.3922
  594MPD2     H 8860   1.741   1.021  14.555 -0.0527 -0.8705  0.0661
  594MPD2    H1 8861   2.158   0.958  14.615 -0.3867  1.3074 -2.3670
  594MPD2    H2 8862   1.886   0.638  14.663  0.4825 -0.6901  1.8371
  594MPD2    H3 8863   2.104   0.729  14.665  0.2710 -0.7272  0.0415
  594MPD2     N 8864   1.953   1.139  14.543 -0.0988 -0.2654 -0.3433
  594MPD2    H5 8865   1.865   1.187  14.526 -0.4345 -0.6016  0.4428
  594MPD2    N1 8866   1.668   0.769  14.643 -0.0639  0.1657  0.1728
  594MPD2    H7 8867   1.657   0.674  14.677 -0.7442 -0.0312 -0.5917
  595TMC3    C1 8868   2.058   1.502  14.309 -1.1357 -0.6970  0.6381
  595TMC3    C2 8869   2.078   1.372  14.345  0.1563 -0.6969  0.4802
  595TMC3    C3 8870   2.038   1.334  14.468  0.2401 -0.3740 -0.5322
  595TMC3    C4 8871   1.984   1.589  14.379 -0.9671 -0.2662 -0.0934
  595TMC3    C5 8872   1.919   1.537  14.493  0.1277 -0.8506 -0.3628
  595TMC3    C6 8873   1.956   1.411  14.543 -0.1735  0.6112  0.3230
  595TMC3     C 8874   2.172   1.564  14.245 -0.3157  0.0427  0.3381
  595TMC3     O 8875   2.220   1.672  14.281  0.3844  0.1715 -0.2874
  595TMC3     H 8876   2.130   1.296  14.287  1.4967  0.5722  0.0232
  595TMC3    H1 8877   1.979   1.693  14.348  0.3496 -0.7791 -1.9714
  595TMC3    H2 8878   1.933   1.374  14.643  1.1639  0.4572  0.5735
  595TMC3    C7 8879   1.854   1.627  14.585  0.2102  0.0318 -0.0874
  595TMC3    C8 8880   2.069   1.201  14.509  1.6104 -0.2748 -0.8284
  595TMC3    O1 8881   1.796   1.722  14.542 -0.0219  0.3217 -0.3362
  595TMC3    O2 8882   2.186   1.159  14.500  0.1451 -0.1665 -0.1873
  596MPD2     C 8883   0.589   3.784  16.908  0.2652 -0.5854 -0.3967
  596MPD2    C1 8884   0.582   3.916  16.868 -0.1231  0.6486 -0.0662
  596MPD2    C2 8885   0.631   3.952  16.742  0.2636  0.0195 -0.5152
  596MPD2    C3 8886   0.657   3.853  16.658  0.9808  1.2995 -0.0593
  596MPD2    C4 8887   0.663   3.720  16.700  0.2429 -0.0331  1.0466
  596MPD2    C5 8888   0.630   3.685  16.829 -0.3042  0.6369  0.3272
  596MPD2     H 8889   0.636   4.056  16.714 -0.4381  0.2833  0.3200
  596MPD2    H1 8890   0.686   3.647  16.623 -2.0961  1.8911 -1.4746
  596MPD2    H2 8891   0.558   3.756  17.008  0.5768  0.7735  0.0803
  596MPD2    H3 8892   0.623   3.579  16.852 -0.9502  1.0097  1.7850
  596MPD2     N 8893   0.671   3.870  16.520 -0.1772 -0.1515  0.1808
  596MPD2    H5 8894   0.691   3.790  16.462  0.4924 -0.3447  0.6720
  596MPD2    N1 8895   0.518   4.014  16.946 -0.5178 -0.0740 -0.4951
  596MPD2    H7 8896   0.514   4.105  16.903  0.1315 -0.0390 -0.4832
  597TMC3    C1 8897   0.397   4.122  17.101 -0.3107 -0.4258 -0.0508
  597TMC3    C2 8898   0.468   4.233  17.079  0.0359 -0.7398 -0.4457
  597TMC3    C3 8899   0.432   4.355  17.126 -0.2368  0.2955 -0.4486
  597TMC3    C4 8900   0.280   4.124  17.181  1.0625 -0.0365 -0.7277
  597TMC3    C5 8901   0.242   4.251  17.212 -0.2800 -0.0008 -0.1443
  597TMC3    C6 8902   0.308   4.368  17.184 -0.7199 -0.6766  0.4798
  597TMC3     C 8903   0.452   3.999  17.064 -0.2259  0.3599 -0.3278
  597TMC3     O 8904   0.411   3.895  17.114  0.1475  0.2644  0.0177
  597TMC3     H 8905   0.563   4.232  17.025  1.3277 -0.0342  1.8185
  597TMC3    H1 8906   0.230   4.031  17.206 -0.1787  1.0729  0.9205
  597TMC3    H2 8907   0.289   4.471  17.212 -3.3261 -0.7201 -1.2234
  597TMC3    C7 8908   0.117   4.267  17.281  0.5140 -0.1183 -0.1865
  597TMC3    C8 8909   0.511   4.479  17.095  0.0031 -0.0472 -0.7370
  597TMC3    O1 8910   0.067   4.175  17.346  0.4372  0.5118 -0.6088
  597TMC3    O2 8911   0.444   4.587  17.104  0.4801 -0.4099 -0.0202
  598TMC3    C1 8912   3.482   0.601  15.307  0.5244 -0.0782 -0.0895
  598TMC3    C2 8913   3.370   0.540  15.355  0.5094  0.1416 -0.2798
  598TMC3    C3 8914   3.262   0.535  15.267  0.1136 -0.1606  0.0952
  598TMC3    C4 8915   3.493   0.650  15.176 -0.3778  0.4987  0.2471
  598TMC3    C5 8916   3.388   0.642  15.096 -0.0649  0.4773  0.6080
  598TMC3    C6 8917   3.273   0.578  15.137  0.3480  0.1767 -0.5034
  598TMC3     C 8918   3.601   0.616  15.391  0.0787 -0.7615  0.8254
  598TMC3     O 8919   3.717   0.610  15.340 -0.0835  0.4450  0.8741
  598TMC3     H 8920   3.367   0.503  15.457  0.2408 -0.5864 -0.5579
  598TMC3    H1 8921   3.583   0.708  15.160  0.5500 -0.9699  0.2278
  598TMC3    H2 8922   3.190   0.575  15.068 -0.4677 -2.2891  0.5940
  598TMC3    C7 8923   3.378   0.734  14.985  0.1630 -0.4251  0.0485
  598TMC3    C8 8924   3.132   0.488  15.320  0.1668 -0.4332  0.2973
  598TMC3    O1 8925   3.305   0.696  14.893  0.1064  0.8267 -0.2695
  598TMC3    O2 8926   3.140   0.427  15.426 -0.3275 -0.4661 -0.1736
  599MPD2     C 8927   4.025   3.089  15.784 -0.1942  0.1388  0.3005
  599MPD2    C1 8928   3.970   2.964  15.800 -0.6951 -0.3060  0.3712
  599MPD2    C2 8929   3.834   2.953  15.816 -0.4058  0.3601 -0.0190
  599MPD2    C3 8930   3.752   3.065  15.808  0.3375  0.6273  0.3643
  599MPD2    C4 8931   3.813   3.194  15.808  0.3944 -0.1152  0.3349
  599MPD2    C5 8932   3.949   3.204  15.782 -0.6961  0.1428  0.6198
  599MPD2     H 8933   3.788   2.855  15.829 -1.8377  1.3517  2.3580
  599MPD2    H1 8934   3.752   3.283  15.800  0.3615 -0.2268 -0.6638
  599MPD2    H2 8935   4.132   3.092  15.766 -0.4616  3.0719 -0.9181
  599MPD2    H3 8936   3.993   3.303  15.773  0.2090 -0.5022 -1.9138
  599MPD2     N 8937   3.612   3.058  15.817  0.2791 -0.6157  0.1385
  599MPD2    H5 8938   3.561   3.146  15.825  1.2098 -0.0913  0.2922
  599MPD2    N1 8939   4.063   2.856  15.800 -0.9238 -0.5894  0.2331
  599MPD2    H7 8940   4.160   2.887  15.801 -0.5977 -1.5265 -1.3699
  600TMC3    C1 8941   3.394   2.956  15.838  0.3277 -0.7532 -0.2260
  600TMC3    C2 8942   3.317   2.855  15.783 -0.0576  0.7412  0.0680
  600TMC3    C3 8943   3.183   2.874  15.795 -0.4261 -0.2927  0.2308
  600TMC3    C4 8944   3.346   3.060  15.908  0.1689 -0.0172 -0.1453
  600TMC3    C5 8945   3.208   3.068  15.921 -0.6736  0.1573  0.2582
  600TMC3    C6 8946   3.126   2.973  15.871  0.7472  0.2408 -0.1743
  600TMC3     C 8947   3.537   2.943  15.808  0.1606  0.0325 -0.3472
  600TMC3     O 8948   3.582   2.840  15.765  0.2259  0.0427  0.1174
  600TMC3     H 8949   3.364   2.768  15.738  2.4421  2.1146  0.0143
  600TMC3    H1 8950   3.416   3.128  15.957 -0.8391  0.8995  0.0287
  600TMC3    H2 8951   3.019   2.989  15.876  0.4364 -2.5523  2.0319
  600TMC3    C7 8952   3.155   3.166  16.010  0.6272 -0.0750 -0.1986
  600TMC3    C8 8953   3.108   2.757  15.766 -0.4725 -0.0918 -0.5930
  600TMC3    O1 8954   3.044   3.145  16.059  0.2701  0.1759 -0.3910
  600TMC3    O2 8955   3.152   2.647  15.802 -0.3652  0.3892  0.2110
  601MPD2     C 8956   0.445   0.636  17.401  0.1451  0.5702  0.7699
  601MPD2    C1 8957   0.504   0.676  17.521 -0.5412  0.9083  0.6985
  601MPD2    C2 8958   0.476   0.602  17.633 -0.3331  1.1709  1.3316
  601MPD2    C3 8959   0.402   0.486  17.629  0.6590  0.7817 -0.5821
  601MPD2    C4 8960   0.349   0.448  17.510  0.1067  0.2689  0.8522
  601MPD2    C5 8961   0.381   0.516  17.394  1.0856  0.2548  0.0660
  601MPD2     H 8962   0.506   0.629  17.733  0.5565  1.1988  1.0589
  601MPD2    H1 8963   0.293   0.356  17.503  1.6473 -0.5725 -0.5818
  601MPD2    H2 8964   0.460   0.691  17.309 -1.2179  0.4112  0.4647
  601MPD2    H3 8965   0.356   0.480  17.295  0.8104 -0.6741  0.4647
  601MPD2     N 8966   0.370   0.417  17.752 -0.0986 -0.0223  0.2215
  601MPD2    H5 8967   0.307   0.339  17.736 -0.3670  0.5695 -1.6343
  601MPD2    N1 8968   0.581   0.794  17.539  1.0229 -0.0236 -0.2240
  601MPD2    H7 8969   0.617   0.807  17.633 -0.4477  1.8417  0.0701
  602TMC3    C1 8970   0.722   0.981  17.464 -0.0383  0.2875  1.3968
  602TMC3    C2 8971   0.762   1.052  17.352 -0.3873 -0.8316  0.3267
  602TMC3    C3 8972   0.772   1.191  17.354  0.1971 -0.7174 -0.2891
  602TMC3    C4 8973   0.701   1.045  17.579 -0.4393  0.2477 -0.0141
  602TMC3    C5 8974   0.718   1.181  17.581 -0.5124  0.0145  0.2970
  602TMC3    C6 8975   0.756   1.259  17.474  0.0040  0.1647  0.2404
  602TMC3     C 8976   0.636   0.864  17.430  0.3127  0.1024  0.6056
  602TMC3     O 8977   0.606   0.855  17.312  0.5027 -0.1381  0.7734
  602TMC3     H 8978   0.799   1.004  17.262 -0.2852 -0.1137 -0.0140
  602TMC3    H1 8979   0.679   0.987  17.667  2.1110  0.2535  0.6068
  602TMC3    H2 8980   0.789   1.361  17.490 -1.4889  0.3774  2.0287
  602TMC3    C7 8981   0.668   1.248  17.697 -0.1448 -0.7377 -0.1493
  602TMC3    C8 8982   0.778   1.264  17.234 -0.9610  0.2403  0.1839
  602TMC3    O1 8983   0.653   1.187   0.049  0.4427 -0.0955  0.1001
  602TMC3    O2 8984   0.767   1.191  17.137  0.0048  0.1829  0.7761
  603TMC3    C1 8985   4.124   1.222  11.019  0.7302  0.7851  0.6513
  603TMC3    C2 8986   4.123   1.197  11.155 -0.0319 -0.1671 -0.4064
  603TMC3    C3 8987   4.127   1.299  11.247  0.0761  0.2233  0.4591
  603TMC3    C4 8988   4.120   1.352  10.975  0.3898  0.5989  0.4024
  603TMC3    C5 8989   4.130   1.451  11.070  0.0160  0.4290 -0.0635
  603TMC3    C6 8990   4.144   1.430  11.203 -0.1864 -0.1762 -0.0124
  603TMC3     C 8991   4.094   1.122  10.920 -0.4330  0.2262  0.2573
  603TMC3     O 8992   4.073   1.160  10.807  0.2878  0.5387  0.5779
  603TMC3     H 8993   4.132   1.096  11.194 -2.3618  0.3012  1.3135
  603TMC3    H1 8994   4.123   1.376  10.869  0.1858 -0.5649  0.1376
  603TMC3    H2 8995   4.139   1.521  11.261 -0.2980  0.1836 -0.5978
  603TMC3    C7 8996   4.162   1.581  11.016 -0.2771 -0.4379  0.0020
  603TMC3    C8 8997   4.102   1.269  11.384 -0.2466 -0.1700 -0.0045
  603TMC3    O1 8998   4.211   1.662  11.096 -0.0803 -0.3318  0.6262
  603TMC3    O2 8999   4.093   1.146  11.409  0.4749 -0.3253  0.2166
  604MPD2     C 9000   4.566   0.923  16.297 -0.2676 -0.2754  0.0017
  604MPD2    C1 9001   4.480   0.811  16.315 -0.1526 -0.4583  0.0276
  604MPD2    C2 9002   4.479   0.709  16.220 -0.8379 -0.8179  0.4595
  604MPD2    C3 9003   4.561   0.717  16.112 -0.0195 -0.2510  0.4990
  604MPD2    C4 9004   4.633   0.828  16.087  0.4561 -0.9391  0.0992
  604MPD2    C5 9005   4.632   0.928  16.178 -0.3400  0.0178  0.1607
  604MPD2     H 9006   4.417   0.623  16.243 -1.7650 -0.4383 -0.6270
  604MPD2    H1 9007   4.691   0.844  15.997  0.4795  0.9065  0.4379
  604MPD2    H2 9008   4.563   1.013  16.358 -0.5243 -0.3457  0.0916
  604MPD2    H3 9009   4.682   1.017  16.141 -1.7729  0.9770  0.5264
  604MPD2     N 9010   4.566   0.599  16.025  0.7647  0.0245 -0.0356
  604MPD2    H5 9011   4.497   0.528  16.045  1.6722 -1.1941 -1.2819
  604MPD2    N1 9012   4.410   0.809  16.438  0.3271  0.4393  0.4604
  604MPD2    H7 9013   4.434   0.878  16.509  1.8209 -0.4815  0.8626
  605TMC3    C1 9014   4.265   0.747  16.605  0.1125  0.7241 -0.1584
  605TMC3    C2 9015   4.354   0.823  16.675 -0.2977 -0.0389 -1.2784
  605TMC3    C3 9016   4.315   0.937  16.738  0.0418 -0.2521  0.5074
  605TMC3    C4 9017   4.136   0.777  16.618  0.3078 -0.0171  0.5308
  605TMC3    C5 9018   4.095   0.884  16.690 -0.5602  0.3413 -0.0601
  605TMC3    C6 9019   4.183   0.974  16.740  0.0604 -0.0953 -0.5160
  605TMC3     C 9020   4.302   0.728  16.460  0.5013 -0.0455  0.8486
  605TMC3     O 9021   4.232   0.656  16.389  0.7568  0.2765 -0.4324
  605TMC3     H 9022   4.454   0.784  16.673  0.3229  1.4707  1.2194
  605TMC3    H1 9023   4.059   0.729  16.558 -0.4403 -2.2023  3.2625
  605TMC3    H2 9024   4.157   1.066  16.791 -0.6477  0.0326 -1.1115
  605TMC3    C7 9025   3.959   0.929  16.683 -0.2080 -0.0949  0.7149
  605TMC3    C8 9026   4.413   1.038  16.713 -0.2458 -0.2760 -0.3780
  605TMC3    O1 9027   3.942   1.051  16.658  0.2296  0.3420 -0.1052
  605TMC3    O2 9028   4.492   1.004  16.624  0.8336  0.2026  0.0365
  606TMC3    C1 9029   0.022   4.276   0.258  0.4335  0.1114  0.9190
  606TMC3    C2 9030   0.079   4.186   0.345 -0.2921  0.2746 -0.5226
  606TMC3    C3 9031   0.053   4.049   0.321  0.5721 -0.1508 -0.4857
  606TMC3    C4 9032   4.678   4.235   0.160  0.1779 -0.2937 -0.8829
  606TMC3    C5 9033   4.655   4.105   0.134 -0.0467 -0.4239 -0.4452
  606TMC3    C6 9034   4.720   4.012   0.217 -0.3155 -0.2900 -0.2278
  606TMC3     C 9035   4.722   4.399   0.321 -0.0029 -0.5776  0.2671
  606TMC3     O 9036   4.706   4.404   0.443 -1.1049 -0.3136 -0.0281
  606TMC3     H 9037   0.149   4.229   0.417  0.5062 -0.5311 -0.8147
  606TMC3    H1 9038   4.621   4.307   0.102  1.9908 -0.0716 -2.3754
  606TMC3    H2 9039   4.719   3.907   0.188  0.1616 -0.7482  1.4201
  606TMC3    C7 9040   4.610   4.075   0.006  0.1043  0.4242  0.3696
  606TMC3    C8 9041   0.122   3.944   0.391 -0.3645 -0.5119  0.2216
  606TMC3    O1 9042   4.600   4.168  17.681 -0.0089  0.0340 -0.1379
  606TMC3    O2 9043   0.115   3.827   0.348 -0.3172  0.9183  0.2302
  607MPD2     C 9044   2.819   1.359  12.053 -0.7827  0.0940  0.2579
  607MPD2    C1 9045   2.913   1.404  12.152 -0.5508 -0.6288 -0.1662
  607MPD2    C2 9046   2.936   1.317  12.257 -0.3730 -0.5964 -0.3667
  607MPD2    C3 9047   2.871   1.198  12.269 -0.0244  0.5397 -0.0378
  607MPD2    C4 9048   2.782   1.155  12.171  0.6067 -0.1120 -0.3540
  607MPD2    C5 9049   2.758   1.236  12.064 -0.1585 -0.7902  0.6657
  607MPD2     H 9050   2.999   1.353  12.337 -0.2880  1.4228 -1.3532
  607MPD2    H1 9051   2.739   1.055  12.176  0.5652  0.0164  2.0546
  607MPD2    H2 9052   2.791   1.432  11.977 -0.0202  0.6374  0.4949
  607MPD2    H3 9053   2.685   1.199  11.993 -1.2892 -1.3142  2.0763
  607MPD2     N 9054   2.898   1.120  12.379 -0.0617  0.4550 -0.0465
  607MPD2    H5 9055   2.955   1.176  12.442 -0.8500  1.3267 -0.1167
  607MPD2    N1 9056   2.994   1.522  12.148 -0.7123 -0.2418  0.7653
  607MPD2    H7 9057   3.062   1.542  12.221  0.9297 -0.8177 -0.6033
  608TMC3    C1 9058   3.090   1.712  12.099 -0.3863 -0.0959  0.3778
  608TMC3    C2 9059   3.102   1.729  12.235 -0.0589 -0.7663  0.0114
  608TMC3    C3 9060   3.200   1.814  12.270 -0.7829 -0.1352  0.6142
  608TMC3    C4 9061   3.165   1.779  12.000 -0.3517  0.7994 -0.0983
  608TMC3    C5 9062   3.271   1.849  12.051 -0.0064  0.1444  0.2221
  608TMC3    C6 9063   3.292   1.875  12.183  0.4639  0.1174  1.0851
  608TMC3     C 9064   2.993   1.617  12.050  0.2005  0.2719 -0.3366
  608TMC3     O 9065   2.937   1.623  11.944  0.0422  0.0952 -0.1196
  608TMC3     H 9066   3.034   1.694  12.312  0.9028 -2.4325  0.1234
  608TMC3    H1 9067   3.149   1.755  11.895 -1.1708  5.3381 -0.9887
  608TMC3    H2 9068   3.358   1.953  12.222  1.0197  0.8421 -1.3316
  608TMC3    C7 9069   3.376   1.892  11.957  0.9610 -0.2575 -0.1050
  608TMC3    C8 9070   3.255   1.798  12.399 -0.0983  0.7585 -0.1571
  608TMC3    O1 9071   3.350   1.886  11.840  0.2533 -0.3514 -0.4480
  608TMC3    O2 9072   3.314   1.888  12.455 -0.2068  0.4836  0.7228
  609TMC3    C1 9073   2.274   1.137   9.693  0.5689  0.1030 -0.5954
  609TMC3    C2 9074   2.248   1.189   9.571  0.4894 -0.2249  0.0147
  609TMC3    C3 9075   2.288   1.124   9.457 -0.0127 -0.7071  0.5834
  609TMC3    C4 9076   2.339   1.015   9.702 -1.3597 -0.2063 -0.1040
  609TMC3    C5 9077   2.379   0.949   9.589  0.1640  0.2031 -0.1049
  609TMC3    C6 9078   2.361   1.007   9.464 -0.0897  0.7320 -0.5127
  609TMC3     C 9079   2.164   1.166   9.794 -0.0388  0.0192 -0.3314
  609TMC3     O 9080   2.148   1.092   9.890  0.1626  0.1055  0.3232
  609TMC3     H 9081   2.213   1.290   9.555 -0.2644 -0.3694  0.7617
  609TMC3    H1 9082   2.361   0.967   9.796 -0.9561  4.6714  2.2998
  609TMC3    H2 9083   2.412   0.975   9.374  0.5080  0.8651 -0.2168
  609TMC3    C7 9084   2.464   0.839   9.613  0.0463  0.6483  0.5242
  609TMC3    C8 9085   2.285   1.205   9.337  0.1051  0.6159 -0.0029
  609TMC3    O1 9086   2.539   0.843   9.711 -0.4255  0.2094  0.0967
  609TMC3    O2 9087   2.201   1.294   9.344 -0.4130 -0.2251 -0.7126
  610TMC3    C1 9088   3.623   1.765  12.422  0.3520  0.2856  0.0231
  610TMC3    C2 9089   3.598   1.704  12.304  0.3612 -0.0538  0.4477
  610TMC3    C3 9090   3.612   1.568  12.299  0.0427  0.3728 -0.0011
  610TMC3    C4 9091   3.630   1.693  12.540  0.1244  0.7677 -0.3100
  610TMC3    C5 9092   3.617   1.559  12.536  1.4895 -0.6557  0.1952
  610TMC3    C6 9093   3.622   1.496  12.420 -0.3194  0.3768  0.4451
  610TMC3     C 9094   3.624   1.912  12.412  0.9235  0.6284  0.6043
  610TMC3     O 9095   3.578   1.968  12.313  0.1892  0.4634 -0.2449
  610TMC3     H 9096   3.574   1.763  12.216  0.8133 -0.3602  0.1148
  610TMC3    H1 9097   3.647   1.741  12.636  2.4661  1.1094 -0.9066
  610TMC3    H2 9098   3.648   1.393  12.401 -1.6492  0.1617 -0.2354
  610TMC3    C7 9099   3.650   1.482  12.653  0.3226 -0.7688  0.4550
  610TMC3    C8 9100   3.632   1.522  12.166  0.0501 -0.0524 -0.2328
  610TMC3    O1 9101   3.724   1.535  12.737 -0.4984 -0.0677 -0.3989
  610TMC3    O2 9102   3.621   1.606  12.075 -0.0960  0.0754  0.6273
  611MPD2     C 9103   2.943   1.706  10.374  0.9541  1.0513  0.3278
  611MPD2    C1 9104   3.030   1.617  10.441  0.2900 -0.1187  0.2727
  611MPD2    C2 9105   3.161   1.617  10.400 -0.0141  0.1412 -1.1688
  611MPD2    C3 9106   3.195   1.708  10.298 -0.4023  0.3947 -0.0670
  611MPD2    C4 9107   3.104   1.778  10.225  0.1661 -0.0046 -0.2549
  611MPD2    C5 9108   2.979   1.774  10.257  0.1196  0.1212  0.1421
  611MPD2     H 9109   3.239   1.566  10.455 -1.5347 -1.9703 -1.0048
  611MPD2    H1 9110   3.138   1.836  10.139  0.0556  0.1917 -0.1646
  611MPD2    H2 9111   2.847   1.722  10.421  0.2057  0.2645 -0.9046
  611MPD2    H3 9112   2.907   1.836  10.204 -0.1920  1.0197  1.5773
  611MPD2     N 9113   3.332   1.738  10.263 -0.5091  0.5512  0.0850
  611MPD2    H5 9114   3.336   1.819  10.202 -2.6695 -1.1684 -2.3225
  611MPD2    N1 9115   2.986   1.558  10.566  0.4002  0.7227 -0.3130
  611MPD2    H7 9116   2.895   1.583  10.601  0.2920 -1.3566  0.9267
  612TMC3    C1 9117   3.566   1.771  10.296  0.3567  0.0171 -0.6317
  612TMC3    C2 9118   3.664   1.788  10.386 -0.0637 -0.3805  0.3542
  612TMC3    C3 9119   3.779   1.859  10.345  1.2683 -0.9186  0.4388
  612TMC3    C4 9120   3.570   1.843  10.178  0.4549  0.0608  0.2423
  612TMC3    C5 9121   3.688   1.903  10.138  0.0305  0.1989  0.0632
  612TMC3    C6 9122   3.792   1.917  10.226  0.0207  0.3445 -0.5068
  612TMC3     C 9123   3.441   1.708  10.336  0.0380 -0.0021  0.1188
  612TMC3     O 9124   3.457   1.637  10.437  0.6676  0.4311  0.3928
  612TMC3     H 9125   3.636   1.767  10.489 -2.5410 -0.7662 -0.4144
  612TMC3    H1 9126   3.501   1.828  10.095  0.2222  2.9925 -0.0963
  612TMC3    H2 9127   3.890   1.961  10.209  0.2325 -0.7608 -2.0944
  612TMC3    C7 9128   3.685   1.974  10.008 -0.7914 -0.2024 -0.0560
  612TMC3    C8 9129   3.875   1.911  10.440  0.0363 -0.2105 -0.1991
  612TMC3    O1 9130   3.617   1.927   9.918 -0.1899 -0.0784  0.3843
  612TMC3    O2 9131   3.947   2.006  10.412 -0.3410 -0.4792  0.3636
  613MPD2     C 9132   1.742   3.207  16.735 -0.0246  0.0963  0.0913
  613MPD2    C1 9133   1.707   3.301  16.640 -0.7786  0.1728 -0.0551
  613MPD2    C2 9134   1.604   3.285  16.548 -0.4322 -0.1126 -0.3331
  613MPD2    C3 9135   1.556   3.153  16.542 -0.3245  0.0773 -0.1736
  613MPD2    C4 9136   1.584   3.059  16.639 -0.1573  0.0162  0.3766
  613MPD2    C5 9137   1.671   3.087  16.734  0.1815  0.1575 -0.0255
  613MPD2     H 9138   1.585   3.364  16.477 -0.1328 -1.2278 -1.6573
  613MPD2    H1 9139   1.539   2.961  16.639 -1.3763  0.5768  1.5100
  613MPD2    H2 9140   1.808   3.228  16.818 -0.3813  0.8891  0.1698
  613MPD2    H3 9141   1.695   3.010  16.806  1.6785  0.2443 -0.4304
  613MPD2     N 9142   1.498   3.110  16.425 -0.0792 -0.7590 -0.0326
  613MPD2    H5 9143   1.479   3.011  16.410 -1.6575 -0.6669  1.4662
  613MPD2    N1 9144   1.787   3.415  16.642 -0.8569  0.2306  0.1161
  613MPD2    H7 9145   1.874   3.415  16.694 -1.1006  1.8234  0.5402
  614TMC3    C1 9146   1.866   3.618  16.544 -0.4277  0.5486 -0.2481
  614TMC3    C2 9147   1.973   3.553  16.483  0.4025 -0.1327  0.0280
  614TMC3    C3 9148   2.016   3.599  16.360  0.5672  0.2010  0.1322
  614TMC3    C4 9149   1.831   3.744  16.500  0.4934  0.6593  0.4770
  614TMC3    C5 9150   1.892   3.795  16.381 -0.3567  0.1894  0.3911
  614TMC3    C6 9151   1.980   3.719  16.310 -0.1620 -0.4247  0.7416
  614TMC3     C 9152   1.751   3.530  16.577 -0.3526  0.2861  0.2208
  614TMC3     O 9153   1.640   3.568  16.542  0.8247  0.1921 -0.2936
  614TMC3     H 9154   1.996   3.455  16.523  0.3766 -0.3921 -0.5777
  614TMC3    H1 9155   1.749   3.794  16.549  0.8707 -1.9687  3.7608
  614TMC3    H2 9156   2.039   3.769  16.234  0.3110 -2.5600 -0.2950
  614TMC3    C7 9157   1.875   3.935  16.336 -0.5366  0.2477  0.1689
  614TMC3    C8 9158   2.033   3.493  16.260  0.0969 -0.2165  0.3805
  614TMC3    O1 9159   1.852   4.020  16.422 -0.0431 -0.0530  0.5716
  614TMC3    O2 9160   2.012   3.378  16.304  0.0885  0.0911  0.4081
  615MPD2     C 9161   1.076   0.679  16.219  0.2718  0.7597  0.2712
  615MPD2    C1 9162   1.023   0.552  16.244 -0.6749 -0.4862  0.3846
  615MPD2    C2 9163   0.924   0.508  16.166  0.2535 -0.0873 -0.0386
  615MPD2    C3 9164   0.881   0.582  16.060  0.1680  0.3956 -0.4231
  615MPD2    C4 9165   0.935   0.704  16.033  0.3735  0.3861 -0.1658
  615MPD2    C5 9166   1.038   0.752  16.109  0.8231  0.2863 -0.3843
  615MPD2     H 9167   0.894   0.404  16.177 -2.1054  0.6374  0.3600
  615MPD2    H1 9168   0.899   0.757  15.945 -0.2191  1.4405  0.7208
  615MPD2    H2 9169   1.150   0.724  16.285  0.8147 -0.5724  0.5735
  615MPD2    H3 9170   1.093   0.843  16.093 -0.6769  1.0644 -1.1640
  615MPD2     N 9171   0.796   0.526  15.962 -0.1299  0.1525 -0.5427
  615MPD2    H5 9172   0.761   0.592  15.893 -0.5302  0.4047 -0.0971
  615MPD2    N1 9173   1.057   0.478  16.354  0.5474  0.3277  0.2617
  615MPD2    H7 9174   1.016   0.386  16.357  0.5678  0.2480 -2.2045
  616TMC3    C1 9175   1.187   0.415  16.539 -0.3328  0.4509  0.1028
  616TMC3    C2 9176   1.313   0.387  16.576  0.2406 -0.4804  0.2257
  616TMC3    C3 9177   1.334   0.345  16.702  0.1644 -0.4122 -0.0382
  616TMC3    C4 9178   1.080   0.403  16.621  0.0347 -0.2938  0.2106
  616TMC3    C5 9179   1.110   0.356  16.749 -0.3213  0.0379 -0.2963
  616TMC3    C6 9180   1.237   0.321  16.785 -0.5173  0.2141 -0.3956
  616TMC3     C 9181   1.173   0.505  16.424  0.0627  0.3897 -0.4434
  616TMC3     O 9182   1.270   0.573  16.388 -0.1104  0.4605 -0.9000
  616TMC3     H 9183   1.381   0.409  16.495 -0.7149  2.1350  0.1531
  616TMC3    H1 9184   0.989   0.457  16.598  0.8896  0.5498 -1.1881
  616TMC3    H2 9185   1.247   0.267  16.878 -1.2257  2.0250  0.7349
  616TMC3    C7 9186   1.027   0.415  16.848  0.4396 -0.0454  0.3754
  616TMC3    C8 9187   1.463   0.289  16.725  0.3611 -0.6321  0.1097
  616TMC3    O1 9188   0.906   0.414  16.833  0.9286  0.8860 -0.2798
  616TMC3    O2 9189   1.467   0.200  16.804 -0.6710 -0.2795  0.0897
  617MPD2     C 9190   4.214   3.635  13.558 -0.4667 -0.2463 -0.0482
  617MPD2    C1 9191   4.224   3.549  13.665 -0.2658  0.5417  0.1110
  617MPD2    C2 9192   4.128   3.539  13.764  0.2513  0.9023 -0.0110
  617MPD2    C3 9193   4.022   3.629  13.759  0.3451  0.1315 -0.0566
  617MPD2    C4 9194   4.008   3.713  13.655  0.2835 -0.4792 -0.2338
  617MPD2    C5 9195   4.104   3.719  13.552  0.9780 -0.1149  0.3216
  617MPD2     H 9196   4.151   3.483  13.854  2.3937  3.8458  1.2561
  617MPD2    H1 9197   3.928   3.786  13.653  1.8635  1.2843  0.6501
  617MPD2    H2 9198   4.284   3.642  13.476  0.3791 -2.8512  0.4516
  617MPD2    H3 9199   4.090   3.790  13.472 -0.6414 -0.1288  0.5830
  617MPD2     N 9200   3.918   3.634  13.866 -0.3698 -0.3246  0.4692
  617MPD2    H5 9201   3.833   3.688  13.853 -0.5169 -1.0362 -1.5321
  617MPD2    N1 9202   4.346   3.478  13.672  0.1404  0.3390 -0.8948
  617MPD2    H7 9203   4.412   3.508  13.601  1.4511 -0.1159  0.1412
  618TMC3    C1 9204   4.509   3.331  13.713 -0.5441 -0.2527 -0.1290
  618TMC3    C2 9205   4.527   3.206  13.661  0.3024  0.5185  0.3052
  618TMC3    C3 9206   4.630   3.190  13.574 -0.4815  0.0387  0.1547
  618TMC3    C4 9207   4.603   3.429  13.695 -0.6964 -0.3000 -0.2468
  618TMC3    C5 9208   4.707   3.410  13.606 -0.3137  0.4259  0.6012
  618TMC3    C6 9209   4.725   3.289  13.549  0.4648  0.8054 -0.0314
  618TMC3     C 9210   4.376   3.369  13.746 -0.4125 -0.7128 -0.5836
  618TMC3     O 9211   4.295   3.293  13.800 -0.1198  0.0359  0.0961
  618TMC3     H 9212   4.458   3.123  13.675  0.7200 -0.2026 -1.9478
  618TMC3    H1 9213   4.599   3.531  13.731 -2.0641  0.2306 -1.9002
  618TMC3    H2 9214   0.075   3.266  13.490  0.6842 -1.2304  1.1115
  618TMC3    C7 9215   4.711   3.514  13.510 -0.1579  0.4592  1.0195
  618TMC3    C8 9216   4.642   3.063  13.502 -0.6483  0.1224  0.2634
  618TMC3    O1 9217   4.619   3.596  13.523  0.2092 -0.6991 -0.4809
  618TMC3    O2 9218   4.543   2.994  13.489 -0.3736  0.0275  0.1821
  619MPD2     C 9219   1.047   0.007  14.010 -0.2152 -0.5873 -0.6176
  619MPD2    C1 9220   0.961   0.088  13.948 -0.4297  0.2274 -0.3529
  619MPD2    C2 9221   0.824   0.062  13.944  0.0202 -0.3452  0.2913
  619MPD2    C3 9222   0.775   4.685  14.004  0.9191 -0.0072 -0.6027
  619MPD2    C4 9223   0.866   4.590  14.047  0.0023 -0.3866  0.2740
  619MPD2    C5 9224   1.001   4.620  14.054 -0.9464  0.5068 -0.6811
  619MPD2     H 9225   0.762   0.137  13.896  1.8679  2.8418  2.8246
  619MPD2    H1 9226   0.840   4.497  14.096  1.4744 -1.1947 -0.4958
  619MPD2    H2 9227   1.155   0.016  14.019 -0.2284 -1.2920  0.2064
  619MPD2    H3 9228   1.074   4.556  14.102 -2.1476 -2.7145 -3.1335
  619MPD2     N 9229   0.635   4.652  14.005 -0.2463  0.2283 -0.2297
  619MPD2    H5 9230   0.605   4.561  14.038  0.3759 -0.0206 -0.3321
  619MPD2    N1 9231   0.996   0.206  13.884  1.0465  0.0729  0.2065
  619MPD2    H7 9232   0.917   0.256  13.846  3.2963  3.3464 -0.1771
  620TMC3    C1 9233   1.112   0.353  13.771  0.8212 -0.0378 -0.2105
  620TMC3    C2 9234   1.041   0.316  13.663  0.5993 -0.4015  0.3994
  620TMC3    C3 9235   1.002   0.417  13.578 -0.6070 -0.5398 -0.4466
  620TMC3    C4 9236   1.163   0.480  13.791  0.6922  0.2350 -0.1375
  620TMC3    C5 9237   1.132   0.574  13.702 -0.1877  0.4862  0.0741
  620TMC3    C6 9238   1.054   0.545  13.595 -0.6787  0.1683 -0.7363
  620TMC3     C 9239   1.124   0.259  13.877  1.0471  0.0454  0.8520
  620TMC3     O 9240   1.227   0.231  13.933 -0.3799  0.0137 -0.4589
  620TMC3     H 9241   1.024   0.212  13.640  1.0395 -0.1705 -1.0012
  620TMC3    H1 9242   1.219   0.508  13.880  1.5108 -0.7358 -0.3479
  620TMC3    H2 9243   1.023   0.613  13.517  0.8552  2.0415  0.2821
  620TMC3    C7 9244   1.102   0.708  13.750 -0.0745 -0.0337  0.1308
  620TMC3    C8 9245   0.852   0.427  13.576 -0.2748  0.1574  0.1056
  620TMC3    O1 9246   1.191   0.781  13.792 -0.5161 -0.2359  0.3710
  620TMC3    O2 9247   0.813   0.542  13.602  0.3197 -0.1172  0.2022
  621MPD2     C 9248   1.347   4.328  10.006  0.2810  0.0026 -0.2215
  621MPD2    C1 9249   1.360   4.402   9.891 -0.0038  0.4402  0.4380
  621MPD2    C2 9250   1.431   4.521   9.902 -0.2490 -0.9340 -0.2806
  621MPD2    C3 9251   1.467   4.582  10.020 -0.3027 -0.2326 -0.5611
  621MPD2    C4 9252   1.424   4.522  10.136 -0.4520  0.7946 -0.0256
  621MPD2    C5 9253   1.371   4.393  10.125 -1.0350 -0.4162 -0.3993
  621MPD2     H 9254   1.456   4.565   9.806  3.9052  0.3507  1.4201
  621MPD2    H1 9255   1.444   4.574  10.229  0.6846 -2.2336  1.4217
  621MPD2    H2 9256   1.306   4.228  10.000  1.6446 -0.6848  1.7206
  621MPD2    H3 9257   1.341   4.348  10.219  1.2249  1.0298  1.0132
  621MPD2     N 9258   1.511   4.717  10.011 -0.4037  0.7800  0.3211
  621MPD2    H5 9259   1.543   0.014   9.921  1.3108 -0.5527  0.3893
  621MPD2    N1 9260   1.297   4.367   9.771 -0.4615 -0.0222 -0.0450
  621MPD2    H7 9261   1.291   4.436   9.697 -1.0556 -0.8903 -0.7982
  622TMC3    C1 9262   1.177   4.226   9.610  0.0490 -0.8018  1.1537
  622TMC3    C2 9263   1.099   4.117   9.595 -0.2942  0.1691  0.5144
  622TMC3    C3 9264   0.994   4.118   9.504 -0.2632  0.1980  0.2995
  622TMC3    C4 9265   1.160   4.336   9.532  0.5055  0.8634 -0.3566
  622TMC3    C5 9266   1.061   4.337   9.441  0.1501  0.1969  0.1478
  622TMC3    C6 9267   0.973   4.232   9.429 -0.1756  0.1421 -0.4758
  622TMC3     C 9268   1.257   4.236   9.740 -0.7355  0.0758  0.3384
  622TMC3     O 9269   1.291   4.134   9.790  0.6437  0.1554 -0.2677
  622TMC3     H 9270   1.115   4.029   9.657  2.4556 -0.7429 -1.4966
  622TMC3    H1 9271   1.238   4.411   9.538 -0.8220  2.0639  1.6904
  622TMC3    H2 9272   0.884   4.248   9.369 -0.1769  2.2149  0.0846
  622TMC3    C7 9273   1.052   4.454   9.350  0.2452  0.1811  0.0962
  622TMC3    C8 9274   0.878   4.030   9.520 -0.1516  0.3010 -0.6723
  622TMC3    O1 9275   0.985   4.446   9.249  0.2534 -0.0824 -0.5896
  622TMC3    O2 9276   0.824   4.006   9.416  0.0089  0.1693  0.1383
  623MPD2     C 9277   0.015   1.539  15.777  0.0014  0.8730 -0.5381
  623MPD2    C1 9278   4.711   1.430  15.847 -0.1052  0.0283 -0.1193
  623MPD2    C2 9279   0.023   1.410  15.975  0.6264  0.3572  0.2544
  623MPD2    C3 9280   0.106   1.497  16.035 -0.8648  0.4391 -0.5396
  623MPD2    C4 9281   0.158   1.598  15.958 -0.7383 -0.1719 -0.5786
  623MPD2    C5 9282   0.115   1.615  15.834 -0.5202 -0.0761  0.1626
  623MPD2     H 9283   0.005   1.321  16.035  0.7016 -0.3269 -0.7440
  623MPD2    H1 9284   0.227   1.668  16.003 -0.8235  0.8586 -2.0692
  623MPD2    H2 9285   4.719   1.580  15.683  1.4114 -1.1353 -1.9274
  623MPD2    H3 9286   0.144   1.691  15.762 -0.4666  0.7153  1.0270
  623MPD2     N 9287   0.167   1.463  16.155  0.4913 -0.2997 -0.0369
  623MPD2    H5 9288   0.119   1.398  16.217  0.8825  1.2587  1.8939
  623MPD2    N1 9289   4.612   1.347  15.786 -0.1668 -0.4795  0.5222
  623MPD2    H7 9290   4.570   1.375  15.698  1.1346  0.1289  0.0881
  624TMC3    C1 9291   0.470   1.362  16.474  0.1224  1.0402 -0.1196
  624TMC3    C2 9292   0.383   1.392  16.569 -0.0249 -0.5027  0.2040
  624TMC3    C3 9293   0.267   1.436  16.550  0.3526  0.7155 -0.3200
  624TMC3    C4 9294   0.443   1.405  16.344  0.1395  0.4563  0.1749
  624TMC3    C5 9295   0.319   1.448  16.321 -0.0723 -0.1423  0.4825
  624TMC3    C6 9296   0.224   1.458  16.418  0.7485  0.2281 -0.0441
  624TMC3     C 9297   0.498   1.219  16.493  0.2166 -0.5032 -0.3191
  624TMC3     O 9298   0.484   1.158  16.596 -0.1130  0.6063 -0.1321
  624TMC3     H 9299   0.412   1.383  16.673  1.3440 -0.8276 -0.2023
  624TMC3    H1 9300   0.514   1.394  16.263  1.3576  0.5175  1.2250
  624TMC3    H2 9301   0.121   1.489  16.403 -0.0466 -1.3187  2.3609
  624TMC3    C7 9302   0.292   1.505  16.191 -0.0898  0.0541 -0.3326
  624TMC3    C8 9303   0.177   1.450  16.662  0.5245 -0.0123  0.0096
  624TMC3    O1 9304   0.388   1.543  16.130 -0.0844 -0.7185 -0.2025
  624TMC3    O2 9305   0.224   1.473  16.774  0.2435  0.2620  0.3430
  625MPD2     C 9306   4.447   1.998   0.631  0.0650 -0.1929  0.3593
  625MPD2    C1 9307   4.533   2.110   0.643  0.3396 -0.1131 -0.0962
  625MPD2    C2 9308   4.643   2.111   0.725  0.7579 -0.6905 -0.7736
  625MPD2    C3 9309   4.683   1.992   0.784 -0.0162  0.2770  0.2401
  625MPD2    C4 9310   4.607   1.879   0.774 -0.5431  0.4067  0.4443
  625MPD2    C5 9311   4.480   1.888   0.708 -0.3757  0.6457  1.0549
  625MPD2     H 9312   4.706   2.200   0.725  0.0710 -0.1964 -1.5360
  625MPD2    H1 9313   4.639   1.787   0.820 -1.0074 -1.2365 -2.5716
  625MPD2    H2 9314   4.361   1.990   0.565  1.4937  0.6276 -1.5959
  625MPD2    H3 9315   4.419   1.799   0.714  1.6197 -0.9928 -3.1599
  625MPD2     N 9316   0.070   1.985   0.851  0.1443 -0.4139 -0.0378
  625MPD2    H5 9317   0.124   2.070   0.862 -0.7115  0.2461 -0.9644
  625MPD2    N1 9318   4.503   2.227   0.582  0.6119  0.1227  0.7866
  625MPD2    H7 9319   4.564   2.303   0.611 -0.6396  1.8426 -1.0628
  626TMC3    C1 9320   4.386   2.398   0.492  0.2897  0.3416  0.2333
  626TMC3    C2 9321   4.325   2.449   0.380 -0.0001 -0.5117 -0.5468
  626TMC3    C3 9322   4.283   2.574   0.399 -0.1234 -0.1397 -0.3412
  626TMC3    C4 9323   4.417   2.477   0.600 -0.1927 -0.5703 -0.2739
  626TMC3    C5 9324   4.378   2.608   0.606 -0.0729 -0.0030 -0.6756
  626TMC3    C6 9325   4.306   2.657   0.503 -0.9575  0.0117 -0.0976
  626TMC3     C 9326   4.395   2.257   0.507 -0.0492 -0.4614  0.3769
  626TMC3     O 9327   4.316   2.189   0.444  0.1105 -0.6428  0.5859
  626TMC3     H 9328   4.286   2.396   0.295  1.1790 -2.7273  0.3105
  626TMC3    H1 9329   4.450   2.440   0.696  0.3742  0.8727  0.0818
  626TMC3    H2 9330   4.278   2.761   0.497  2.8418  0.9540 -1.3978
  626TMC3    C7 9331   4.383   2.682   0.733  0.2824 -0.3690 -0.4066
  626TMC3    C8 9332   4.203   2.640   0.299 -0.4102  0.3588 -0.4717
  626TMC3    O1 9333   4.470   2.653   0.812 -0.0632  0.0731  0.3223
  626TMC3    O2 9334   4.121   2.731   0.333 -0.7595 -0.1882 -0.6305
  627MPD2     C 9335   3.367   2.690  14.518 -0.7222  0.0640  0.4708
  627MPD2    C1 9336   3.396   2.620  14.640 -0.0483 -0.1608 -0.7562
  627MPD2    C2 9337   3.327   2.505  14.663 -0.5387  0.3434 -0.0072
  627MPD2    C3 9338   3.235   2.457  14.576  0.0424  0.4430  0.0330
  627MPD2    C4 9339   3.207   2.523  14.462  0.0887  0.4638 -0.1726
  627MPD2    C5 9340   3.272   2.638  14.434  0.0893  0.1651  0.3895
  627MPD2     H 9341   3.337   2.464  14.762  2.7187 -0.2325 -0.5513
  627MPD2    H1 9342   3.150   2.480  14.380  1.4088 -0.2355 -0.7333
  627MPD2    H2 9343   3.421   2.779  14.489 -0.6710  0.9530  3.3756
  627MPD2    H3 9344   3.257   2.681  14.335  0.6791  0.0731  0.2555
  627MPD2     N 9345   3.172   2.337  14.615  0.2816 -0.9050  1.2313
  627MPD2    H5 9346   3.192   2.302  14.709  0.5802 -1.0079  1.1293
  627MPD2    N1 9347   3.477   2.672  14.739  0.3382 -0.4924  0.4002
  627MPD2    H7 9348   3.488   2.613  14.821 -1.6361  0.0214  1.0368
  628TMC3    C1 9349   3.658   2.811  14.818 -0.3649  0.3042  0.1185
  628TMC3    C2 9350   3.720   2.704  14.870 -0.7923 -0.8006  0.6281
  628TMC3    C3 9351   3.846   2.720  14.922 -0.1151  0.1144 -0.1001
  628TMC3    C4 9352   3.719   2.931  14.811  0.3770  0.1075 -0.1399
  628TMC3    C5 9353   3.842   2.944  14.868 -0.6550 -0.1168 -0.3612
  628TMC3    C6 9354   3.900   2.843  14.932 -0.2890  0.0570  0.3116
  628TMC3     C 9355   3.535   2.789  14.735  0.2323 -0.8755  0.0552
  628TMC3     O 9356   3.510   2.893  14.672 -0.9547  0.2054  0.2671
  628TMC3     H 9357   3.679   2.604  14.864 -1.2546 -0.6232  0.7873
  628TMC3    H1 9358   3.654   3.015  14.794 -0.0416 -0.2517 -0.3146
  628TMC3    H2 9359   4.006   2.853  14.955  0.0585 -1.0770 -0.7924
  628TMC3    C7 9360   3.900   3.080  14.879  0.0717  0.3757 -0.9961
  628TMC3    C8 9361   3.925   2.601  14.887  0.2025  0.4761  0.3654
  628TMC3    O1 9362   3.987   3.098  14.962  0.2076  0.2525  0.6623
  628TMC3    O2 9363   3.873   2.515  14.812 -0.2784 -0.1670  0.1994
  629MPD2     C 9364   1.975   0.356  16.699 -0.6656 -0.1296 -0.5262
  629MPD2    C1 9365   1.918   0.464  16.640  0.5056  0.1231  1.5841
  629MPD2    C2 9366   1.781   0.468  16.616  0.9408  0.0864 -0.3683
  629MPD2    C3 9367   1.702   0.365  16.671 -0.0306 -0.1233  0.2017
  629MPD2    C4 9368   1.767   0.261  16.740  0.6969  0.3606  0.5797
  629MPD2    C5 9369   1.902   0.259  16.747 -0.4479 -1.0539  0.5212
  629MPD2     H 9370   1.742   0.554  16.563 -0.1267  0.6352  1.3122
  629MPD2    H1 9371   1.705   0.182  16.780 -0.2085  0.7878  0.0173
  629MPD2    H2 9372   2.083   0.356  16.704 -0.5239  1.1807 -4.1230
  629MPD2    H3 9373   1.948   0.173  16.794 -0.7331 -0.3697  2.0778
  629MPD2     N 9374   1.558   0.369  16.662  0.4455 -0.3098  0.6633
  629MPD2    H5 9375   1.521   0.452  16.618  0.4187  0.0478  1.3636
  629MPD2    N1 9376   2.009   0.562  16.600  0.6240 -1.0002 -0.0168
  629MPD2    H7 9377   2.108   0.540  16.609  0.7358 -1.6220 -2.6312
  630TMC3    C1 9378   2.090   0.778  16.560  0.3125  0.7838 -0.0633
  630TMC3    C2 9379   2.127   0.852  16.452 -0.1546 -0.6377 -0.5860
  630TMC3    C3 9380   2.222   0.947  16.468 -0.6184  0.4757 -0.9463
  630TMC3    C4 9381   2.133   0.801  16.686 -0.0848  0.0621 -0.4180
  630TMC3    C5 9382   2.215   0.909  16.698 -0.6843 -0.2126 -0.3402
  630TMC3    C6 9383   2.267   0.981  16.596  0.2232 -0.6913  0.1675
  630TMC3     C 9384   1.980   0.683  16.543  0.5135 -0.3926  0.0346
  630TMC3     O 9385   1.887   0.707  16.470  0.2914 -0.4044 -0.2312
  630TMC3     H 9386   2.095   0.819  16.354  0.2587 -1.6129 -0.3885
  630TMC3    H1 9387   2.108   0.728  16.762 -2.7471  1.4058 -0.0332
  630TMC3    H2 9388   2.340   1.061  16.606 -0.0366 -0.6646  1.8561
  630TMC3    C7 9389   2.246   0.943  16.833  0.1748  0.0537  0.5276
  630TMC3    C8 9390   2.284   1.018  16.364 -0.0358 -0.1339 -0.1556
  630TMC3    O1 9391   2.204   0.869  16.921 -0.1461 -0.3873  0.2701
  630TMC3    O2 9392   2.385   1.079  16.397  0.2378 -0.2743 -0.3299
  631MPD2     C 9393   0.231   1.063  15.648  0.1324 -0.4362 -1.0745
  631MPD2    C1 9394   0.323   1.038  15.549 -0.1574 -0.6658 -1.2706
  631MPD2    C2 9395   0.370   0.908  15.539  1.4769  0.0533  0.4373
  631MPD2    C3 9396   0.358   0.819  15.644  0.2730  0.8390 -0.2791
  631MPD2    C4 9397   0.262   0.843  15.744 -0.2892 -0.3201 -0.1895
  631MPD2    C5 9398   0.210   0.969  15.748 -0.3679 -0.0773 -0.5297
  631MPD2     H 9399   0.433   0.874  15.458  1.7246  2.6361 -0.4783
  631MPD2    H1 9400   0.242   0.767  15.818  0.9818 -0.5970 -0.1260
  631MPD2    H2 9401   0.172   1.154  15.649  0.2723 -0.3872  2.0694
  631MPD2    H3 9402   0.158   0.991  15.841 -0.6998  4.9498 -1.8847
  631MPD2     N 9403   0.430   0.700  15.633  0.6617 -0.0096 -0.5683
  631MPD2    H5 9404   0.498   0.697  15.557 -1.3142  0.2062 -2.3395
  631MPD2    N1 9405   0.341   1.142  15.452  0.4015  0.1581 -0.4743
  631MPD2    H7 9406   0.281   1.223  15.456  1.0266  0.7025 -1.8847
  632TMC3    C1 9407   0.412   1.242  15.248 -0.3434 -0.1081  0.0038
  632TMC3    C2 9408   0.297   1.323  15.246 -0.4926 -0.4382  0.1061
  632TMC3    C3 9409   0.301   1.422  15.152 -0.8743 -0.3197  0.6819
  632TMC3    C4 9410   0.514   1.265  15.148  0.2935  0.4320  0.2050
  632TMC3    C5 9411   0.511   1.378  15.062  0.5997  0.3824 -0.9175
  632TMC3    C6 9412   0.399   1.461  15.063  0.5208  0.3252  0.9485
  632TMC3     C 9413   0.433   1.136  15.347 -0.8437  0.1575 -0.5108
  632TMC3     O 9414   0.519   1.050  15.338 -0.0950 -0.3857 -0.1405
  632TMC3     H 9415   0.204   1.305  15.298 -0.5648  2.2108  0.8750
  632TMC3    H1 9416   0.601   1.200  15.156 -1.0543 -1.4826 -0.4852
  632TMC3    H2 9417   0.395   1.543  14.992  1.3225 -2.1927 -2.0562
  632TMC3    C7 9418   0.593   1.380  14.940  0.3355  0.0786 -0.1699
  632TMC3    C8 9419   0.198   1.516  15.154  0.2159  0.4956  0.1672
  632TMC3    O1 9420   0.585   1.483  14.876 -0.5554  0.5038 -0.0366
  632TMC3    O2 9421   0.119   1.513  15.246 -0.1113 -0.2561 -0.0154
  633MPD2     C 9422   4.324   4.042  17.449 -1.5608 -0.3109  0.7716
  633MPD2    C1 9423   4.333   3.962  17.333 -0.0024 -0.2610 -0.5173
  633MPD2    C2 9424   4.288   3.832  17.324 -0.4277  0.2807  0.6471
  633MPD2    C3 9425   4.232   3.775  17.435  0.4494  0.2072  0.0102
  633MPD2    C4 9426   4.220   3.854  17.548 -0.8179 -0.1375 -0.0269
  633MPD2    C5 9427   4.273   3.983  17.557 -0.1636  0.3421  0.1933
  633MPD2     H 9428   4.309   3.783  17.230 -0.8218 -0.3189  0.8696
  633MPD2    H1 9429   4.179   3.814  17.640 -1.2661  2.4144  0.8729
  633MPD2    H2 9430   4.359   4.143  17.464  3.4496 -1.8843 -0.4853
  633MPD2    H3 9431   4.288   4.031  17.652 -1.0529  0.4154  0.3014
  633MPD2     N 9432   4.198   3.639  17.442 -0.0381 -0.3988  0.1271
  633MPD2    H5 9433   4.163   3.614  17.534  1.5600 -1.5847  0.4229
  633MPD2    N1 9434   4.408   4.006  17.223  0.3751 -0.1963 -0.1972
  633MPD2    H7 9435   4.438   3.941  17.152  3.3751 -1.0256  1.8743
  634TMC3    C1 9436   4.529   4.172  17.094 -0.2056 -0.8997  0.8078
  634TMC3    C2 9437   4.636   4.088  17.073 -0.3233  0.4717  0.6287
  634TMC3    C3 9438   4.723   4.126  16.979  0.4421  0.6450  0.2828
  634TMC3    C4 9439   4.507   4.288  17.022 -0.3066 -0.5332 -0.7010
  634TMC3    C5 9440   4.584   4.309  16.909 -0.1224 -0.1440  0.1251
  634TMC3    C6 9441   4.697   4.233  16.893  0.0248 -0.5958 -0.0412
  634TMC3     C 9442   4.437   4.144  17.199  0.3069 -0.2320 -0.5033
  634TMC3     O 9443   4.391   4.245  17.249 -0.3180  0.1875  0.2889
  634TMC3     H 9444   4.658   4.009  17.145  0.9940 -0.0627 -0.3618
  634TMC3    H1 9445   4.413   4.340  17.039  0.0813 -0.5426  1.3640
  634TMC3    H2 9446   0.033   4.270  16.824  0.7819 -0.6492  0.7576
  634TMC3    C7 9447   4.548   4.406  16.803  0.1828 -0.3248  0.4492
  634TMC3    C8 9448   0.080   4.019  16.934 -0.2506 -0.2803 -0.6631
  634TMC3    O1 9449   4.623   4.416  16.705  0.3206 -0.2292 -0.8134
  634TMC3    O2 9450   0.064   3.911  16.988 -0.3694  0.5147  0.0252
  635TMC3    C1 9451   0.382   4.047   0.166  0.3765 -0.3401  0.0871
  635TMC3    C2 9452   0.501   4.015   0.230 -0.0819  0.1745  0.3867
  635TMC3    C3 9453   0.547   3.889   0.235 -0.0040  0.4041 -0.8843
  635TMC3    C4 9454   0.309   3.945   0.109 -0.6555  0.6594 -0.0369
  635TMC3    C5 9455   0.346   3.814   0.130 -0.4505 -0.5407  0.2070
  635TMC3    C6 9456   0.470   3.789   0.180  0.0053  0.1365 -0.3591
  635TMC3     C 9457   0.349   4.191   0.156 -0.1304  0.2868 -0.0960
  635TMC3     O 9458   0.406   4.261   0.242 -0.3101  0.2981  0.1809
  635TMC3     H 9459   0.571   4.087   0.271 -0.3371  0.1782  0.8155
  635TMC3    H1 9460   0.210   3.964   0.069 -0.8452  0.7547  0.4765
  635TMC3    H2 9461   0.512   3.690   0.186  0.8634  0.6082  1.3431
  635TMC3    C7 9462   0.257   3.713   0.082 -0.3391 -0.6765  0.2801
  635TMC3    C8 9463   0.650   3.854   0.338  0.4033 -0.0366 -0.5596
  635TMC3    O1 9464   0.160   3.742   0.011  0.8876 -0.2126 -0.4737
  635TMC3    O2 9465   0.669   3.943   0.421 -0.0143 -0.0343  0.0772
  636MPD2     C 9466   1.449   3.742  15.790  0.6582 -0.4947  0.2788
  636MPD2    C1 9467   1.433   3.722  15.924  0.0862 -0.1000  0.2395
  636MPD2    C2 9468   1.413   3.592  15.972 -0.5008  0.0165  0.3621
  636MPD2    C3 9469   1.416   3.483  15.888  0.4901 -0.4310 -0.1120
  636MPD2    C4 9470   1.429   3.509  15.757  0.1010 -0.1740  0.0058
  636MPD2    C5 9471   1.456   3.634  15.711  0.2274 -0.8494 -0.2181
  636MPD2     H 9472   1.410   3.575  16.079  0.5677 -2.3879  0.0157
  636MPD2    H1 9473   1.423   3.440  15.673 -0.3623 -0.2104  0.0694
  636MPD2    H2 9474   1.464   3.843  15.755 -0.0893 -0.6100 -0.3788
  636MPD2    H3 9475   1.449   3.642  15.603 -1.7088  0.9734  0.0690
  636MPD2     N 9476   1.398   3.350  15.939 -0.4378 -0.0171 -0.3585
  636MPD2    H5 9477   1.411   3.329  16.037 -0.7245 -1.5705 -0.6396
  636MPD2    N1 9478   1.443   3.829  16.018  0.2390  0.4755 -0.1451
  636MPD2    H7 9479   1.444   3.808  16.117 -0.7066  2.2106  0.2313
  637TMC3    C1 9480   1.428   3.124  15.965 -0.2636  0.1111  0.1761
  637TMC3    C2 9481   1.386   3.152  16.094  0.2232  0.4132 -0.0717
  637TMC3    C3 9482   1.461   3.106  16.195  0.2628 -0.4223 -0.1054
  637TMC3    C4 9483   1.543   3.063  15.935  0.1868 -0.2738 -0.4393
  637TMC3    C5 9484   1.622   3.029  16.043 -0.6412 -0.2660  0.4520
  637TMC3    C6 9485   1.578   3.039  16.170 -0.4189  0.0581  0.0449
  637TMC3     C 9486   1.400   3.226  15.869  0.8349  0.6647  0.7759
  637TMC3     O 9487   1.415   3.206  15.747  0.4065  0.5357  0.0518
  637TMC3     H 9488   1.297   3.210  16.117  1.8416  3.3611 -1.4040
  637TMC3    H1 9489   1.571   3.052  15.830 -1.1180  1.2193 -0.9479
  637TMC3    H2 9490   1.642   3.010  16.253  0.5838  0.8621 -0.4545
  637TMC3    C7 9491   1.750   3.100  16.040  0.6895 -0.2471  0.3040
  637TMC3    C8 9492   1.453   3.187  16.316  0.0401 -0.1016  0.3881
  637TMC3    O1 9493   1.826   3.091  16.138 -0.3259 -0.2813 -0.7930
  637TMC3    O2 9494   1.433   3.306  16.297  0.0164  0.2566 -0.3116
  638MPD2     C 9495   1.047   2.986  14.724 -0.2800 -0.5936 -1.3377
  638MPD2    C1 9496   1.033   2.865  14.651  0.5777  0.2096 -0.7187
  638MPD2    C2 9497   1.005   2.748  14.720 -0.1599 -0.2804 -0.7095
  638MPD2    C3 9498   0.999   2.753  14.859 -0.7113  0.0568 -0.6778
  638MPD2    C4 9499   1.018   2.877  14.925  0.4756 -1.3066 -0.3222
  638MPD2    C5 9500   1.034   2.994  14.859 -0.4718 -0.1454 -0.6943
  638MPD2     H 9501   1.016   2.647  14.683  0.5989 -0.3967 -0.1703
  638MPD2    H1 9502   1.011   2.881  15.033 -0.9152  0.8624 -0.4849
  638MPD2    H2 9503   1.081   3.077  14.675 -0.8345 -0.5116 -1.5583
  638MPD2    H3 9504   1.025   3.092  14.904  1.2435 -0.3921  0.2062
  638MPD2     N 9505   0.981   2.636  14.933  0.0029  0.3913  0.7757
  638MPD2    H5 9506   0.962   2.550  14.883 -0.3283  0.5598  0.6171
  638MPD2    N1 9507   1.042   2.875  14.511  0.0943  0.3004 -0.0779
  638MPD2    H7 9508   1.081   2.961  14.475 -1.4782  0.8125 -0.5870
  639TMC3    C1 9509   0.973   2.487  15.100 -0.8290 -0.2449 -1.0494
  639TMC3    C2 9510   0.873   2.419  15.040 -0.4867  0.6750 -0.3600
  639TMC3    C3 9511   0.849   2.294  15.073 -0.3958 -0.2399 -0.6489
  639TMC3    C4 9512   1.061   2.426  15.180 -0.6163 -0.2994  0.2108
  639TMC3    C5 9513   1.043   2.295  15.200  0.6117  0.8658 -0.4428
  639TMC3    C6 9514   0.933   2.230  15.162 -0.5096 -0.0180  0.6648
  639TMC3     C 9515   0.995   2.620  15.068  0.5762 -0.1891 -0.2880
  639TMC3     O 9516   1.045   2.683  15.155 -0.1419  0.1846  0.5780
  639TMC3     H 9517   0.799   2.473  14.982  0.1358  0.0224 -1.7710
  639TMC3    H1 9518   1.156   2.472  15.204 -1.1603 -0.1939  2.1374
  639TMC3    H2 9519   0.910   2.126  15.183 -2.4337  0.1024 -0.8540
  639TMC3    C7 9520   1.159   2.208  15.205  0.1115  0.3345 -1.1405
  639TMC3    C8 9521   0.783   2.212  14.976  0.0517  0.0731 -0.1118
  639TMC3    O1 9522   1.136   2.092  15.238  0.4989  0.8945 -0.2460
  639TMC3    O2 9523   0.764   2.252  14.857 -0.9005 -0.1454  0.5359
  640MPD2     C 9524   2.093   1.205  10.593  0.1915 -0.3799  0.6049
  640MPD2    C1 9525   2.103   1.288  10.484  0.8163  0.2816  0.6234
  640MPD2    C2 9526   1.987   1.346  10.438  0.5381  0.0669 -0.4581
  640MPD2    C3 9527   1.863   1.317  10.489  0.3101 -0.3586  0.3520
  640MPD2    C4 9528   1.860   1.238  10.604 -0.8371  0.0808 -0.1036
  640MPD2    C5 9529   1.971   1.180  10.655  0.6403  0.1007  0.1400
  640MPD2     H 9530   1.989   1.407  10.348  0.0571  1.1895  0.2920
  640MPD2    H1 9531   1.767   1.204  10.648 -1.5907  2.0808 -0.1639
  640MPD2    H2 9532   2.180   1.156  10.636  0.7227 -1.8778 -2.1881
  640MPD2    H3 9533   1.946   1.101  10.725 -2.6932  0.8296 -0.1791
  640MPD2     N 9534   1.745   1.369  10.448 -0.2468  0.0671 -0.0372
  640MPD2    H5 9535   1.656   1.338  10.486 -1.0916  0.5743 -1.6040
  640MPD2    N1 9536   2.230   1.290  10.424 -0.0300  0.1388 -0.1425
  640MPD2    H7 9537   2.304   1.236  10.469  0.2624  2.6965  2.4656
  641TMC3    C1 9538   2.394   1.326  10.258  0.1479  0.5835  0.2416
  641TMC3    C2 9539   2.450   1.206  10.281 -0.3185  0.2218 -0.0223
  641TMC3    C3 9540   2.565   1.165  10.221  0.4174  0.1044 -0.4365
  641TMC3    C4 9541   2.441   1.395  10.152  0.3403 -0.8091 -0.1353
  641TMC3    C5 9542   2.547   1.350  10.079 -0.1223  0.0870  0.7375
  641TMC3    C6 9543   2.619   1.239  10.118 -0.5636 -0.0909  0.0988
  641TMC3     C 9544   2.262   1.360  10.314  0.3630  0.5274 -0.1646
  641TMC3     O 9545   2.204   1.436  10.242  0.1176  0.1595 -0.8001
  641TMC3     H 9546   2.400   1.140  10.351  0.5325  0.2307  0.6014
  641TMC3    H1 9547   2.390   1.478  10.105 -0.0239 -0.5964  0.6381
  641TMC3    H2 9548   2.700   1.200  10.058 -1.5621 -2.5725  0.3817
  641TMC3    C7 9549   2.571   1.412   9.952 -0.4437  0.1254  0.0659
  641TMC3    C8 9550   2.613   1.031  10.239  0.2580 -0.2769 -0.5256
  641TMC3    O1 9551   2.527   1.528   9.938 -0.2883 -0.2386 -0.1820
  641TMC3    O2 9552   2.707   0.999  10.167  0.0936  0.9913 -0.1253
  642TMC3    C1 9553   3.213   2.279  12.676 -0.7309 -0.3300  0.8778
  642TMC3    C2 9554   3.320   2.226  12.742  0.2111  0.2607  0.1646
  642TMC3    C3 9555   3.316   2.088  12.772  0.3136  0.6695 -0.0327
  642TMC3    C4 9556   3.106   2.199  12.637 -0.4509 -0.2883  0.7600
  642TMC3    C5 9557   3.107   2.069  12.681 -0.4820 -0.3821 -0.3851
  642TMC3    C6 9558   3.211   2.013  12.741 -0.2545 -0.0568 -0.0531
  642TMC3     C 9559   3.191   2.422  12.687  0.2363 -0.2998  0.2314
  642TMC3     O 9560   3.292   2.488  12.704 -0.2470 -0.5752 -0.5513
  642TMC3     H 9561   3.409   2.287  12.754  0.8889 -0.7395  0.1999
  642TMC3    H1 9562   3.020   2.237  12.584  1.3162  1.3176 -0.9526
  642TMC3    H2 9563   3.203   1.910  12.773 -0.3484 -0.5175 -1.6029
  642TMC3    C7 9564   3.009   1.991  12.614  1.1683  0.3777 -0.1139
  642TMC3    C8 9565   3.420   2.038  12.859  0.1526 -0.9802  0.5442
  642TMC3    O1 9566   2.962   2.032  12.510  0.2150 -0.1759 -0.5613
  642TMC3    O2 9567   3.420   1.921  12.877 -0.2740  0.4183 -0.7205
  643TMC3    C1 9568   1.861   1.619   0.322 -0.3125  0.2056  0.2453
  643TMC3    C2 9569   1.735   1.562   0.293  0.2714  0.7022  0.6368
  643TMC3    C3 9570   1.706   1.506   0.168  0.4430 -0.2781 -0.3897
  643TMC3    C4 9571   1.955   1.620   0.225  0.2733  0.4307  0.2514
  643TMC3    C5 9572   1.922   1.560   0.107  0.8347  0.2351 -0.0791
  643TMC3    C6 9573   1.805   1.500   0.070  0.3484  0.2282  0.2988
  643TMC3     C 9574   1.873   1.704   0.435 -0.1370  0.2829  0.7280
  643TMC3     O 9575   1.767   1.755   0.474  0.1619 -0.2319  0.5794
  643TMC3     H 9576   1.663   1.577   0.374  1.2653  3.5660  0.9853
  643TMC3    H1 9577   2.052   1.669   0.233 -0.1570  1.9123 -3.5257
  643TMC3    H2 9578   1.792   1.464  17.722  2.0032  0.0127  0.1593
  643TMC3    C7 9579   2.017   1.578   0.004  0.9043 -0.3359  0.4642
  643TMC3    C8 9580   1.579   1.554   0.124 -0.2069  0.0414 -0.1843
  643TMC3    O1 9581   1.969   1.568  17.645  0.3470 -0.3573  0.0087
  643TMC3    O2 9582   1.488   1.556   0.207 -0.0502  0.0559  0.0051
  644MPD2     C 9583   1.976   1.830   9.855 -0.5081  0.0909  0.0213
  644MPD2    C1 9584   2.046   1.946   9.885  0.2357  0.2929 -0.1844
  644MPD2    C2 9585   1.995   2.063   9.833  0.0347  0.0145 -0.0282
  644MPD2    C3 9586   1.882   2.062   9.753  0.4081  1.0034 -0.2197
  644MPD2    C4 9587   1.825   1.941   9.717  0.7388  0.5265 -0.5547
  644MPD2    C5 9588   1.874   1.827   9.765  0.7565  0.1836  0.4149
  644MPD2     H 9589   2.041   2.158   9.861 -2.8611  1.2952  0.3830
  644MPD2    H1 9590   1.739   1.925   9.652 -0.8916  0.8316  1.5350
  644MPD2    H2 9591   2.022   1.742   9.898 -1.3309 -0.6460 -0.6128
  644MPD2    H3 9592   1.827   1.736   9.728  1.0046  0.8205 -1.4918
  644MPD2     N 9593   1.826   2.191   9.718 -0.4677 -0.1195 -0.0632
  644MPD2    H5 9594   1.877   2.268   9.760 -1.7325  1.0175 -0.6084
  644MPD2    N1 9595   2.149   1.943   9.988  0.5184 -0.5343 -0.1938
  644MPD2    H7 9596   2.173   1.853  10.028 -0.2421 -1.1965 -1.2026
  645TMC3    C1 9597   1.667   2.345   9.635 -0.5594  0.9593 -0.7873
  645TMC3    C2 9598   1.764   2.434   9.605  0.4034 -0.3027 -0.4467
  645TMC3    C3 9599   1.724   2.552   9.549  0.1321 -0.5044  0.0792
  645TMC3    C4 9600   1.527   2.370   9.609  1.1556 -0.0484 -0.2924
  645TMC3    C5 9601   1.495   2.490   9.553 -0.2256 -0.4930  0.7031
  645TMC3    C6 9602   1.589   2.580   9.518 -0.5143 -0.0600  0.1627
  645TMC3     C 9603   1.699   2.207   9.675 -0.0993  0.3917  0.1245
  645TMC3     O 9604   1.603   2.135   9.700 -0.1015 -0.4329  0.0384
  645TMC3     H 9605   1.871   2.417   9.606  0.4378 -0.0473  0.8759
  645TMC3    H1 9606   1.460   2.289   9.635 -0.1849  1.0499 -0.3434
  645TMC3    H2 9607   1.567   2.680   9.482 -0.6303 -0.2141 -0.1899
  645TMC3    C7 9608   1.359   2.521   9.521  0.5510  0.3479  0.1384
  645TMC3    C8 9609   1.823   2.641   9.487 -0.4022  0.1788 -0.3292
  645TMC3    O1 9610   1.346   2.616   9.441  0.0554 -0.8157 -0.2047
  645TMC3    O2 9611   1.938   2.618   9.522  0.1862  0.1160  0.1540
  646MPD2     C 9612   1.415   1.634  14.408  0.4438  0.2121 -0.0050
  646MPD2    C1 9613   1.337   1.594  14.506 -0.0046  0.2028  0.3220
  646MPD2    C2 9614   1.201   1.599  14.495  0.0295 -0.0118  0.3590
  646MPD2    C3 9615   1.134   1.659  14.388 -0.2692 -0.7841 -0.4358
  646MPD2    C4 9616   1.213   1.701  14.284 -0.1170  0.4725 -0.1164
  646MPD2    C5 9617   1.352   1.687  14.298 -0.0608 -0.0991  0.1151
  646MPD2     H 9618   1.141   1.563  14.578 -1.1281  1.8110  0.3038
  646MPD2    H1 9619   1.181   1.748  14.192 -0.8156  1.3543  0.5756
  646MPD2    H2 9620   1.522   1.637  14.423  0.3033  0.9209  0.8104
  646MPD2    H3 9621   1.419   1.724  14.221  0.5093  0.5141  0.8987
  646MPD2     N 9622   0.989   1.665  14.380  1.1075 -0.1365 -0.1314
  646MPD2    H5 9623   0.939   1.625  14.459  1.8639 -0.1804  0.3228
  646MPD2    N1 9624   1.402   1.555  14.625  0.2319 -0.1832  0.3297
  646MPD2    H7 9625   1.502   1.536  14.630  0.5887  2.5624  3.0930
  647TMC3    C1 9626   1.433   1.503  14.845 -0.2317  0.4836 -0.6757
  647TMC3    C2 9627   1.390   1.545  14.971  0.1477 -0.0265  0.0458
  647TMC3    C3 9628   1.478   1.513  15.068 -0.4801  0.0725 -0.5852
  647TMC3    C4 9629   1.549   1.445  14.808 -0.4051 -0.0014 -0.2484
  647TMC3    C5 9630   1.631   1.420  14.910 -0.3091  0.2362  0.4654
  647TMC3    C6 9631   1.601   1.456  15.046  0.6294 -0.2761 -0.0068
  647TMC3     C 9632   1.340   1.542  14.740 -0.0830 -0.0010  0.5415
  647TMC3     O 9633   1.221   1.565  14.775 -0.4159  0.2954 -0.1780
  647TMC3     H 9634   1.295   1.595  14.980  1.1172  2.0091 -1.0787
  647TMC3    H1 9635   1.563   1.393  14.714  1.3232 -0.6961  0.3931
  647TMC3    H2 9636   1.668   1.414  15.120 -1.1784  0.4892  2.0470
  647TMC3    C7 9637   1.716   1.307  14.894 -0.4349 -0.0920  0.0874
  647TMC3    C8 9638   1.422   1.465  15.192  0.3892  0.4411  0.3904
  647TMC3    O1 9639   1.833   1.319  14.936  0.5795  0.2899 -0.1208
  647TMC3    O2 9640   1.498   1.438  15.284  1.3013 -0.5919 -1.0445
  648TMC3    C1 9641   0.679   3.966  16.308  0.1153 -0.3865 -0.0137
  648TMC3    C2 9642   0.727   3.847  16.256 -0.7904 -0.0698  1.1280
  648TMC3    C3 9643   0.723   3.842  16.120  0.3170 -0.0497  0.4433
  648TMC3    C4 9644   0.615   4.058  16.228  0.1181  0.5192 -0.1048
  648TMC3    C5 9645   0.587   4.025  16.098 -0.5710  1.3706  0.8725
  648TMC3    C6 9646   0.658   3.930  16.034  0.6128  0.3571 -0.2440
  648TMC3     C 9647   0.667   3.992  16.452 -0.4231  0.0372  0.4828
  648TMC3     O 9648   0.638   4.106  16.491 -0.0541 -0.5359  0.5470
  648TMC3     H 9649   0.763   3.766  16.317 -0.3603 -0.0504  0.9054
  648TMC3    H1 9650   0.582   4.152  16.272 -0.2138  0.8182 -0.9859
  648TMC3    H2 9651   0.638   3.907  15.930  1.5093 -0.2936 -0.2764
  648TMC3    C7 9652   0.533   4.127  16.009 -0.4674  0.4422 -0.3369
  648TMC3    C8 9653   0.772   3.719  16.072  0.3306 -0.2223  0.0261
  648TMC3    O1 9654   0.557   4.125  15.889  0.0793 -0.2704 -0.3356
  648TMC3    O2 9655   0.714   3.666  15.982  0.1620 -0.2444 -0.7852
  649TMC3    C1 9656   0.041   4.608  13.344 -0.2154  0.0903 -0.2833
  649TMC3    C2 9657   0.172   4.590  13.391 -1.0703  0.0390  0.1138
  649TMC3    C3 9658   0.181   4.583  13.528 -0.3559  0.5233 -0.5520
  649TMC3    C4 9659   4.669   4.620  13.429  1.3062  0.1122 -0.4736
  649TMC3    C5 9660   4.688   4.599  13.558  0.1766  0.6942  0.0599
  649TMC3    C6 9661   0.076   4.589  13.610  0.4628 -0.0098  0.2499
  649TMC3     C 9662   0.011   4.637  13.206 -0.0939  0.3733  0.0158
  649TMC3     O 9663   4.637   4.670  13.173 -0.1927  0.5044  0.2812
  649TMC3     H 9664   0.255   4.595  13.322 -0.3282 -3.4107  0.7528
  649TMC3    H1 9665   4.573   4.638  13.382  0.9256  0.0112  0.2696
  649TMC3    H2 9666   0.092   4.598  13.717 -4.9820  2.3084  0.8785
  649TMC3    C7 9667   4.575   4.608  13.648 -0.4094 -0.0768 -0.2995
  649TMC3    C8 9668   0.312   4.563  13.595  0.3215  0.3202 -0.0249
  649TMC3    O1 9669   4.480   4.675  13.615 -0.1305  0.0519 -0.1674
  649TMC3    O2 9670   0.311   4.512  13.708  0.9034  0.0820 -0.1622
  650TMC3    C1 9671   2.498   1.632  12.827  0.7443 -0.4634  0.8596
  650TMC3    C2 9672   2.435   1.712  12.917  0.5069  0.0766  0.3783
  650TMC3    C3 9673   2.309   1.762  12.882  0.7827 -0.1239  0.8097
  650TMC3    C4 9674   2.453   1.603  12.700 -0.6707 -0.1852 -0.5161
  650TMC3    C5 9675   2.335   1.662  12.658 -0.7678  0.2025  0.2734
  650TMC3    C6 9676   2.261   1.738  12.750 -0.3980  0.2280  0.6651
  650TMC3     C 9677   2.603   1.548  12.881 -0.5792  0.4736 -0.3948
  650TMC3     O 9678   2.662   1.588  12.977  0.1364 -0.1811 -0.1246
  650TMC3     H 9679   2.470   1.729  13.018 -1.8144  1.2255  0.9925
  650TMC3    H1 9680   2.520   1.554  12.630 -1.0280  1.5275 -2.0525
  650TMC3    H2 9681   2.171   1.783  12.708 -1.1274  0.0855  2.0624
  650TMC3    C7 9682   2.329   1.710  12.521 -0.0784 -0.1310  0.6097
  650TMC3    C8 9683   2.264   1.877  12.956 -0.7315  0.3391  0.3559
  650TMC3    O1 9684   2.331   1.635  12.430 -0.1711  0.4283  0.0546
  650TMC3    O2 9685   2.330   1.932  13.048 -0.2773  0.7156  0.3865
  651MPD2     C 9686   1.063   3.401  10.553 -0.4252 -0.6061 -0.4747
  651MPD2    C1 9687   1.096   3.505  10.639  0.3484  0.3852  0.0504
  651MPD2    C2 9688   1.197   3.584  10.597  0.0353  0.0107 -0.1920
  651MPD2    C3 9689   1.266   3.570  10.481 -0.0765  0.0436 -0.0451
  651MPD2    C4 9690   1.226   3.472  10.390 -0.3461 -0.2217 -0.0619
  651MPD2    C5 9691   1.119   3.391  10.431  0.5685  0.1710  0.4914
  651MPD2     H 9692   1.240   3.657  10.665 -0.3331  0.6664 -0.6508
  651MPD2    H1 9693   1.274   3.472  10.294  2.3805 -1.4984  1.2987
  651MPD2    H2 9694   0.989   3.326  10.577 -1.7493  0.2897 -1.7409
  651MPD2    H3 9695   1.098   3.309  10.364  3.4729  0.3249 -0.6028
  651MPD2     N 9696   1.357   3.674  10.450 -0.1037 -0.1750  0.6201
  651MPD2    H5 9697   1.362   3.761  10.502 -1.3419  0.2129  0.1038
  651MPD2    N1 9698   1.043   3.523  10.767  0.2665  0.2867 -0.0508
  651MPD2    H7 9699   1.097   3.592  10.818 -1.8784  2.8501 -1.2703
  652TMC3    C1 9700   1.716   3.920  10.402 -0.2761  0.0509 -0.1112
  652TMC3    C2 9701   1.664   3.795  10.386 -0.2701 -0.4473 -0.6058
  652TMC3    C3 9702   1.531   3.788  10.342  0.2753  0.0052 -0.5800
  652TMC3    C4 9703   1.643   4.041  10.392 -0.5143 -0.1739 -0.3471
  652TMC3    C5 9704   1.511   4.021  10.357 -0.6935 -0.1882  0.4709
  652TMC3    C6 9705   1.452   3.902  10.326 -0.2488  0.2964  0.4711
  652TMC3     C 9706   1.834   3.927  10.486 -0.1305  0.6870 -0.4236
  652TMC3     O 9707   1.856   3.827  10.555  0.2098 -0.0419  0.3045
  652TMC3     H 9708   1.730   3.709  10.392 -1.3231 -1.2295 -0.2660
  652TMC3    H1 9709   1.686   4.131  10.434  0.0393 -0.8691  0.5651
  652TMC3    H2 9710   1.353   3.892  10.282  0.5571 -0.1244 -1.2593
  652TMC3    C7 9711   1.418   4.130  10.391  0.5852 -0.3199  0.3540
  652TMC3    C8 9712   1.455   3.663  10.352 -0.7734 -0.2728 -0.3638
  652TMC3    O1 9713   1.298   4.109  10.359 -0.0277 -0.0433 -0.0335
  652TMC3    O2 9714   1.502   3.556  10.312  0.1857 -0.1864  0.4583
  653MPD2     C 9715   3.946   3.914   0.060 -0.1209 -0.2630 -0.2317
  653MPD2    C1 9716   3.988   4.013  17.733 -0.7596 -0.2557  1.4271
  653MPD2    C2 9717   3.943   4.017  17.603  0.1580  0.5003  0.0041
  653MPD2    C3 9718   3.872   3.910  17.545 -0.0795  0.4434 -0.4780
  653MPD2    C4 9719   3.815   3.819  17.633 -0.3250 -0.8478  0.0739
  653MPD2    C5 9720   3.851   3.829   0.010  0.0180 -0.6013 -0.2281
  653MPD2     H 9721   3.978   4.096  17.537  0.2052 -0.9195 -1.6664
  653MPD2    H1 9722   3.758   3.733  17.598 -0.9871 -1.3452  2.3119
  653MPD2    H2 9723   3.959   3.916   0.167  3.5490 -1.1100 -0.6746
  653MPD2    H3 9724   3.799   3.769   0.084  1.5093 -3.4787 -1.5050
  653MPD2     N 9725   3.860   3.908  17.403 -0.7697 -0.3066  0.0487
  653MPD2    H5 9726   3.896   3.985  17.348  0.4463 -0.9877 -0.0981
  653MPD2    N1 9727   4.072   4.119   0.020  0.2955  0.3387 -0.1953
  653MPD2    H7 9728   4.086   4.196  17.709  1.5661 -0.1132 -0.4636
  654TMC3    C1 9729   3.841   3.814  17.188 -0.1381 -0.5618  0.6308
  654TMC3    C2 9730   3.774   3.925  17.144  0.2085  0.3629 -0.1874
  654TMC3    C3 9731   3.770   3.943  17.010 -0.1168  0.1095  0.8344
  654TMC3    C4 9732   3.898   3.722  17.104  0.2352  0.2325  0.0213
  654TMC3    C5 9733   3.897   3.745  16.973 -0.2695  0.4580  0.0845
  654TMC3    C6 9734   3.836   3.857  16.925 -0.0437  0.7353  0.0274
  654TMC3     C 9735   3.838   3.790  17.334  0.1006 -0.1709  0.0056
  654TMC3     O 9736   3.843   3.670  17.363 -0.7446 -0.7344 -0.1718
  654TMC3     H 9737   3.715   3.988  17.209  1.4530  0.2728  1.0280
  654TMC3    H1 9738   3.956   3.643  17.150  0.8699  0.3846 -0.5193
  654TMC3    H2 9739   3.841   3.885  16.820  0.9947 -0.6768 -0.2918
  654TMC3    C7 9740   3.953   3.651  16.877 -0.2957  0.4285 -0.0536
  654TMC3    C8 9741   3.627   3.944  16.978 -0.2090 -0.0601 -0.0512
  654TMC3    O1 9742   3.952   3.695  16.762 -0.0620  0.4809  0.6157
  654TMC3    O2 9743   3.557   4.012  17.055  0.1139  0.4187  0.3409
  655MPD2     C 9744   1.025   4.008  15.984 -0.4771  0.8186 -0.0027
  655MPD2    C1 9745   0.919   4.072  15.920  0.4301 -0.1126 -0.2738
  655MPD2    C2 9746   0.874   4.014  15.802  0.2424  0.2561  0.0803
  655MPD2    C3 9747   0.940   3.909  15.742 -0.2785 -0.1906  1.2185
  655MPD2    C4 9748   1.052   3.847  15.801 -0.5140  1.2866  0.6716
  655MPD2    C5 9749   1.082   3.899  15.925 -0.1845  0.2247 -0.9616
  655MPD2     H 9750   0.790   4.067  15.758 -0.3869 -1.7664 -1.1609
  655MPD2    H1 9751   1.106   3.764  15.759 -1.7774  1.3808 -1.1310
  655MPD2    H2 9752   1.078   4.049  16.068  1.4698 -1.0327 -0.3255
  655MPD2    H3 9753   1.170   3.859  15.973 -1.0716 -0.4376  0.0956
  655MPD2     N 9754   0.908   3.862  15.615  0.2357  0.2531  0.7261
  655MPD2    H5 9755   0.968   3.795  15.569  1.9424  1.7056  0.8198
  655MPD2    N1 9756   0.861   4.193  15.961 -0.2173  0.5950  0.0075
  655MPD2    H7 9757   0.779   4.219  15.907 -0.5682 -0.6054 -0.0420
  656TMC3    C1 9758   0.821   4.377  16.101 -0.3621 -0.7056  0.2076
  656TMC3    C2 9759   0.749   4.391  16.219  0.0184 -0.3261 -0.2951
  656TMC3    C3 9760   0.653   4.484  16.220 -0.2915 -0.2068  0.0854
  656TMC3    C4 9761   0.810   4.448  15.987 -0.4244  0.1697 -0.8636
  656TMC3    C5 9762   0.726   4.553  16.007  0.1984  0.2987 -0.4933
  656TMC3    C6 9763   0.645   4.577  16.120  0.8273  0.1968 -0.4467
  656TMC3     C 9764   0.896   4.257  16.080 -0.0885 -0.2489 -0.1124
  656TMC3     O 9765   0.951   4.205  16.177  0.2336  0.0304  0.3709
  656TMC3     H 9766   0.759   4.323  16.303  0.0973  0.3454  0.2378
  656TMC3    H1 9767   0.880   4.444  15.904 -0.0342  1.9211 -0.5984
  656TMC3    H2 9768   0.561   4.646  16.125  0.2837 -0.5181  0.3144
  656TMC3    C7 9769   0.720   4.660  15.900  0.4589  0.2452  0.1472
  656TMC3    C8 9770   0.546   4.471  16.320 -0.1997 -0.4131  0.1373
  656TMC3    O1 9771   0.804   4.653  15.809  0.6770 -0.1823  0.2369
  656TMC3    O2 9772   0.537   4.353  16.351  0.9620  0.0800 -0.2124
  657TMC3    C1 9773   4.584   3.381  15.255  0.1250 -0.1530  0.6056
  657TMC3    C2 9774   4.648   3.317  15.359 -0.4886 -0.0470 -0.3161
  657TMC3    C3 9775   4.613   3.357  15.488 -0.8554  0.2703  0.4400
  657TMC3    C4 9776   4.502   3.490  15.272 -0.7412  0.3554 -0.4309
  657TMC3    C5 9777   4.474   3.522  15.403  0.3870 -0.9792 -0.5995
  657TMC3    C6 9778   4.523   3.453  15.512 -0.2796 -0.7103 -0.3675
  657TMC3     C 9779   4.626   3.349  15.117  0.9986  0.0510 -0.0704
  657TMC3     O 9780   4.559   3.402  15.026 -0.4843 -0.8629 -0.1568
  657TMC3     H 9781   4.720   3.237  15.349 -0.5189 -0.4824  2.8600
  657TMC3    H1 9782   4.452   3.536  15.187 -0.9775 -0.6437 -0.8423
  657TMC3    H2 9783   4.480   3.469  15.610  1.7153  1.3891  0.1732
  657TMC3    C7 9784   4.377   3.627  15.426  0.2674 -0.7505 -0.3233
  657TMC3    C8 9785   4.679   3.303  15.604 -0.3401  0.2578  0.5361
  657TMC3    O1 9786   4.305   3.607  15.523  0.4246 -0.1039 -0.1384
  657TMC3    O2 9787   4.611   3.286  15.709 -0.3618  0.1368 -0.2462
  658MPD2     C 9788   1.281   3.811  15.103  0.6243 -0.4331 -0.0074
  658MPD2    C1 9789   1.163   3.748  15.068  0.0754 -0.0240 -0.2470
  658MPD2    C2 9790   1.159   3.692  14.942  0.5042 -0.3568 -0.4982
  658MPD2    C3 9791   1.256   3.707  14.849 -0.6980 -0.1841 -0.3419
  658MPD2    C4 9792   1.367   3.783  14.887 -0.3764  0.0071  0.6683
  658MPD2    C5 9793   1.381   3.825  15.013  0.0874 -0.3061 -0.2815
  658MPD2     H 9794   1.076   3.627  14.919 -0.2235  0.5717 -0.5144
  658MPD2    H1 9795   1.451   3.788  14.819  0.1616 -2.0093  1.1832
  658MPD2    H2 9796   1.286   3.855  15.202  0.9470 -0.9952  0.2219
  658MPD2    H3 9797   1.475   3.869  15.046 -0.6365  0.6037  0.5567
  658MPD2     N 9798   1.230   3.658  14.722  0.4484 -0.5194  0.1012
  658MPD2    H5 9799   1.132   3.645  14.700  0.7483 -0.8365 -1.0554
  658MPD2    N1 9800   1.067   3.729  15.169  0.4964  0.0075  0.3812
  658MPD2    H7 9801   1.079   3.772  15.261  0.1024 -1.8638  1.3169
  659TMC3    C1 9802   0.853   3.704  15.248 -0.5223 -0.6535  0.2466
  659TMC3    C2 9803   0.880   3.775  15.360  0.6257 -0.1813  1.1573
  659TMC3    C3 9804   0.774   3.825  15.427  0.6606  0.5196  0.3922
  659TMC3    C4 9805   0.727   3.680  15.199  0.5050 -0.3163 -0.6544
  659TMC3    C5 9806   0.622   3.718  15.277  0.4311  0.3123  0.0689
  659TMC3    C6 9807   0.647   3.785  15.394  0.3726 -0.3543  0.6893
  659TMC3     C 9808   0.958   3.657  15.160 -0.8866  0.0461  0.3956
  659TMC3     O 9809   0.931   3.563  15.083 -0.4339 -0.4382  0.5927
  659TMC3     H 9810   0.982   3.789  15.394  0.3471  1.8097  1.1829
  659TMC3    H1 9811   0.722   3.640  15.098  1.0107 -0.9336 -0.4353
  659TMC3    H2 9812   0.560   3.831  15.441 -0.3530 -2.1892  1.1178
  659TMC3    C7 9813   0.486   3.729  15.226  0.2272  0.0516 -0.7605
  659TMC3    C8 9814   0.787   3.890  15.555 -0.6462 -0.5057 -0.2232
  659TMC3    O1 9815   0.394   3.786  15.283 -0.0235  0.2424  0.1328
  659TMC3    O2 9816   0.685   3.936  15.605 -0.5323  1.0336  0.5377
  660MPD2     C 9817   3.881   2.967  13.091 -0.0025  0.1591  0.7586
  660MPD2    C1 9818   3.854   2.848  13.029 -0.9535  0.2383  0.0175
  660MPD2    C2 9819   3.755   2.765  13.087 -0.6910 -0.3574 -0.7531
  660MPD2    C3 9820   3.698   2.803  13.210 -1.3416  0.2137 -0.2823
  660MPD2    C4 9821   3.748   2.904  13.285  0.2991 -0.7829 -0.7126
  660MPD2    C5 9822   3.830   2.994  13.217  0.4582 -0.8138 -0.5550
  660MPD2     H 9823   3.714   2.679  13.037 -0.6642 -1.0749  0.4500
  660MPD2    H1 9824   3.714   2.933  13.384 -1.0250 -0.4250 -1.2697
  660MPD2    H2 9825   3.936   3.043  13.037 -1.1258  0.0198 -0.5802
  660MPD2    H3 9826   3.855   3.089  13.262 -2.8959  0.0269 -0.4858
  660MPD2     N 9827   3.600   2.733  13.283  0.4447 -0.8210 -0.1797
  660MPD2    H5 9828   3.571   2.762  13.376 -1.9104 -0.0805 -1.1506
  660MPD2    N1 9829   3.897   2.828  12.895  0.6974 -0.4211 -0.1205
  660MPD2    H7 9830   3.941   2.904  12.844 -1.0892  1.1567  0.6958
  661TMC3    C1 9831   3.913   2.744  12.684  0.2997  0.5752  0.1725
  661TMC3    C2 9832   3.982   2.648  12.614 -0.4227  0.0132  0.0811
  661TMC3    C3 9833   3.976   2.656  12.484  0.6490  0.8226  0.3762
  661TMC3    C4 9834   3.822   2.822  12.632 -0.4712  0.6164 -0.6568
  661TMC3    C5 9835   3.796   2.804  12.500  0.0304  0.0421 -0.0087
  661TMC3    C6 9836   3.873   2.724  12.424 -0.2321  0.3899 -0.2826
  661TMC3     C 9837   3.882   2.714  12.825  0.0668  0.2546 -0.5137
  661TMC3     O 9838   3.863   2.600  12.861  0.3765  0.5674 -0.6477
  661TMC3     H 9839   4.074   2.616  12.661 -1.3534 -1.2214  1.0798
  661TMC3    H1 9840   3.761   2.892  12.688 -1.0828  1.1100 -1.9445
  661TMC3    H2 9841   3.876   2.733  12.316  0.2235  2.5305 -0.0949
  661TMC3    C7 9842   3.655   2.791  12.468  0.2846 -0.5200  0.0824
  661TMC3    C8 9843   4.084   2.596  12.405 -0.3096  0.3543  0.5064
  661TMC3    O1 9844   3.578   2.833  12.557  0.0841  0.3962  0.3795
  661TMC3    O2 9845   4.083   2.643  12.289 -0.7798 -0.0205 -0.1037
  662MPD2     C 9846   3.784   2.651  16.814  0.8736 -0.2623  0.5907
  662MPD2    C1 9847   3.725   2.619  16.939  0.7555  0.4712 -0.0709
  662MPD2    C2 9848   3.670   2.727  17.013  0.0725  0.2196  0.0125
  662MPD2    C3 9849   3.678   2.853  16.963 -1.0972  0.1406 -0.0558
  662MPD2    C4 9850   3.737   2.882  16.846 -0.4938  0.2931 -0.3121
  662MPD2    C5 9851   3.788   2.781  16.771 -0.1964 -0.2212  0.2950
  662MPD2     H 9852   3.626   2.699  17.109 -3.3902 -0.0276 -1.6357
  662MPD2    H1 9853   3.747   2.984  16.810  0.4590 -0.1077 -1.2119
  662MPD2    H2 9854   3.836   2.567  16.770 -2.0385 -1.4766 -0.5509
  662MPD2    H3 9855   3.840   2.812  16.681 -0.2059 -0.6096  0.1573
  662MPD2     N 9856   3.621   2.970  17.025 -0.0464  0.3213  0.7461
  662MPD2    H5 9857   3.635   3.060  16.980  1.2226 -0.3564 -0.1869
  662MPD2    N1 9858   3.698   2.486  16.979  0.4627 -0.2321  0.2776
  662MPD2    H7 9859   3.640   2.478  17.061  1.1444  1.0264  0.8756
  663TMC3    C1 9860   3.642   2.256  16.925  0.4719  0.4886  0.1613
  663TMC3    C2 9861   3.547   2.253  17.029  0.0523  0.3170  0.3887
  663TMC3    C3 9862   3.469   2.141  17.048 -0.2532  0.4163  1.0137
  663TMC3    C4 9863   3.652   2.151  16.840  0.3331 -0.4940  0.1014
  663TMC3    C5 9864   3.573   2.045  16.863 -0.6633 -0.3551 -0.0349
  663TMC3    C6 9865   3.485   2.032  16.967 -0.4318  0.3805 -0.5527
  663TMC3     C 9866   3.723   2.374  16.896 -0.2472 -0.2383  0.3254
  663TMC3     O 9867   3.798   2.362  16.800 -0.0452 -0.1241  0.1949
  663TMC3     H 9868   3.509   2.346  17.070 -2.4777  0.0666 -1.3740
  663TMC3    H1 9869   3.731   2.149  16.765  0.6078  1.0107  0.3531
  663TMC3    H2 9870   3.396   1.973  16.949 -1.8870  1.8023  1.9737
  663TMC3    C7 9871   3.624   1.922  16.801 -0.3078 -0.1549 -0.0175
  663TMC3    C8 9872   3.332   2.174  17.079 -0.0293  0.3963 -0.1850
  663TMC3    O1 9873   3.663   1.942  16.686  0.6479 -0.2613  0.1663
  663TMC3    O2 9874   3.247   2.100  17.028 -0.3087  0.2218 -0.0149
  664MPD2     C 9875   1.556   0.533  17.030 -0.4210 -0.2332 -0.3618
  664MPD2    C1 9876   1.590   0.636  17.122  0.3985 -1.1289  0.1969
  664MPD2    C2 9877   1.515   0.656  17.233  0.1012 -0.1193  0.3212
  664MPD2    C3 9878   1.416   0.563  17.269 -0.6080  0.1607  0.5863
  664MPD2    C4 9879   1.385   0.469  17.181 -0.0439 -0.4442 -0.0911
  664MPD2    C5 9880   1.454   0.451  17.066 -0.3899  0.3522  0.4241
  664MPD2     H 9881   1.531   0.747  17.290  2.5954  0.5991 -1.5260
  664MPD2    H1 9882   1.309   0.395  17.203 -0.1243 -1.1412 -2.6608
  664MPD2    H2 9883   1.600   0.533  16.931  1.1506 -1.6281  0.3345
  664MPD2    H3 9884   1.422   0.371  17.000 -1.5325  0.4129  0.9109
  664MPD2     N 9885   1.341   0.591  17.392  0.0517  0.2911 -0.0515
  664MPD2    H5 9886   1.370   0.665  17.454 -0.2843  0.4731 -0.1125
  664MPD2    N1 9887   1.703   0.716  17.092 -0.4264 -0.3798 -0.3972
  664MPD2    H7 9888   1.747   0.705  17.001  2.9921 -0.3103  1.2282
  665TMC3    C1 9889   1.223   0.567  17.569 -0.2349 -0.1533  0.5865
  665TMC3    C2 9890   1.204   0.469  17.665  0.3059 -0.5728 -0.2544
  665TMC3    C3 9891   1.218   0.504   0.045 -1.1157 -0.2757 -0.0006
  665TMC3    C4 9892   1.253   0.695  17.605  0.2864  0.5079  0.1434
  665TMC3    C5 9893   1.275   0.726  17.739  0.1829  0.4830  0.0308
  665TMC3    C6 9894   1.268   0.626   0.076  0.1040  0.7641  0.6943
  665TMC3     C 9895   1.238   0.518  17.433  0.5462  0.0695  0.0505
  665TMC3     O 9896   1.195   0.409  17.396  0.3249 -0.2669 -0.2007
  665TMC3     H 9897   1.206   0.365  17.635 -2.4701 -0.3296 -1.2581
  665TMC3    H1 9898   1.259   0.777  17.535 -3.1882  0.5804 -0.0850
  665TMC3    H2 9899   1.291   0.637   0.181  0.8000  1.1908  0.4951
  665TMC3    C7 9900   1.382   0.815  17.747 -0.6271  0.2958 -0.6916
  665TMC3    C8 9901   1.184   0.412   0.153  0.1697 -0.0205 -0.0789
  665TMC3    O1 9902   1.443   0.842  17.642  0.3915  0.3852  0.3204
  665TMC3    O2 9903   1.232   0.431   0.263 -0.0772  0.5140  0.2875
  666TMC3    C1 9904   1.593   0.183  10.081  0.3857 -0.2878 -1.2747
  666TMC3    C2 9905   1.693   0.189   9.994 -0.4107 -0.1796  0.5395
  666TMC3    C3 9906   1.746   0.314   9.969  0.0187  0.4180 -0.0700
  666TMC3    C4 9907   1.549   0.291  10.157 -0.7652  0.3412  0.2412
  666TMC3    C5 9908   1.598   0.412  10.122  0.3408  0.6284  0.7228
  666TMC3    C6 9909   1.694   0.428  10.024  0.5611  0.0287 -0.3620
  666TMC3     C 9910   1.525   0.063  10.113  0.3570  0.0905 -0.6037
  666TMC3     O 9911   1.492   0.045  10.232  0.2595  0.2509  0.1350
  666TMC3     H 9912   1.734   0.112   9.929 -0.4024  1.2464 -1.1681
  666TMC3    H1 9913   1.486   0.272  10.243 -0.2360  0.1750  0.5905
  666TMC3    H2 9914   1.726   0.520   9.977  0.8042  0.0361 -0.1812
  666TMC3    C7 9915   1.583   0.522  10.210 -0.6682 -0.5603 -0.0188
  666TMC3    C8 9916   1.870   0.330   9.893 -0.2103 -0.3244 -0.4750
  666TMC3    O1 9917   1.482   0.518  10.284 -0.3213  0.2660 -0.1365
  666TMC3    O2 9918   1.881   0.255   9.801 -0.6930 -0.0460  0.2170
  667MPD2     C 9919   2.574   0.973  14.797  0.3219 -0.5092 -0.3456
  667MPD2    C1 9920   2.667   0.879  14.852  0.8781 -0.3374 -0.2228
  667MPD2    C2 9921   2.625   0.753  14.892  0.6132 -0.6003  0.5654
  667MPD2    C3 9922   2.493   0.718  14.867  0.1977  0.1286 -0.3718
  667MPD2    C4 9923   2.397   0.811  14.831 -0.3088 -0.6949  0.8049
  667MPD2    C5 9924   2.440   0.937  14.795  0.3745  0.2793 -0.0276
  667MPD2     H 9925   2.691   0.690  14.951 -2.4376 -2.0351  2.4301
  667MPD2    H1 9926   2.293   0.787  14.815 -0.0294 -0.4994 -1.2523
  667MPD2    H2 9927   2.601   1.069  14.754  0.2204  0.0253  0.7644
  667MPD2    H3 9928   2.366   1.009  14.762  0.7561  0.3649 -0.7047
  667MPD2     N 9929   2.435   0.591  14.900 -0.1782 -0.3137 -0.1611
  667MPD2    H5 9930   2.334   0.577  14.902 -0.0902 -0.8697  0.4832
  667MPD2    N1 9931   2.804   0.904  14.862 -0.0137  0.0877 -0.7770
  667MPD2    H7 9932   2.854   0.826  14.903  2.5711  2.9879  1.5563
  668TMC3    C1 9933   3.003   1.021  14.872  0.2225 -0.3599  0.3121
  668TMC3    C2 9934   3.055   1.148  14.877 -0.4239 -0.4207  0.3668
  668TMC3    C3 9935   3.138   1.171  14.978 -0.4322  0.4468 -0.8542
  668TMC3    C4 9936   3.036   0.931  14.968 -0.2417 -0.0014  0.0770
  668TMC3    C5 9937   3.135   0.957  15.060  0.0274  0.4503  0.6258
  668TMC3    C6 9938   3.176   1.089  15.070 -0.0160  0.4645  0.7029
  668TMC3     C 9939   2.868   1.018  14.830 -0.4028  0.3683 -0.5104
  668TMC3     O 9940   2.814   1.121  14.790 -0.0312  0.0839 -0.7052
  668TMC3     H 9941   3.027   1.222  14.803 -0.1368  0.9882  1.6930
  668TMC3    H1 9942   3.003   0.828  14.957 -1.5246  0.1714  2.1209
  668TMC3    H2 9943   3.238   1.128  15.150  0.9095  1.1285 -0.3469
  668TMC3    C7 9944   3.122   0.881  15.183  0.1397  0.9552 -1.1910
  668TMC3    C8 9945   3.193   1.307  14.981 -0.2019 -0.4974 -0.6311
  668TMC3    O1 9946   3.036   0.798  15.190 -0.2407 -0.0551 -0.0775
  668TMC3    O2 9947   3.229   1.354  15.087  0.1096 -0.4904 -0.0346
  669TMC3    C1 9948   1.327   0.568  14.739  0.5075 -0.5018 -0.2134
  669TMC3    C2 9949   1.205   0.596  14.676 -0.2612 -0.2201 -0.0106
  669TMC3    C3 9950   1.206   0.711  14.602  1.0455  0.0096  0.4817
  669TMC3    C4 9951   1.439   0.643  14.716 -0.2567  0.0159 -0.1601
  669TMC3    C5 9952   1.431   0.759  14.638 -0.1846 -0.3256  0.4966
  669TMC3    C6 9953   1.315   0.795  14.579 -0.0003 -0.4395 -0.4402
  669TMC3     C 9954   1.314   0.481  14.855  0.4238  0.2639  0.3238
  669TMC3     O 9955   1.400   0.501  14.944  0.1550  0.4174 -0.0938
  669TMC3     H 9956   1.113   0.541  14.689  0.8436 -1.9976  0.2726
  669TMC3    H1 9957   1.526   0.623  14.778 -1.1276 -0.6215  0.8401
  669TMC3    H2 9958   1.306   0.884  14.518 -1.6460  0.1919  0.7317
  669TMC3    C7 9959   1.549   0.840  14.625 -0.2845  0.1990  0.5419
  669TMC3    C8 9960   1.092   0.729  14.507 -0.7181 -0.6295 -0.1826
  669TMC3    O1 9961   1.524   0.957  14.593 -0.3413  0.1150  0.5639
  669TMC3    O2 9962   0.981   0.693  14.544  0.2151 -0.0985  0.4683
  670MPD2     C 9963   3.743   3.328  13.591  0.3487 -0.0799  0.4045
  670MPD2    C1 9964   3.875   3.334  13.573 -0.1579 -0.2666  0.5407
  670MPD2    C2 9965   3.958   3.300  13.684  0.0303  0.3087  0.1322
  670MPD2    C3 9966   3.912   3.279  13.816 -0.4685  0.0379 -0.8459
  670MPD2    C4 9967   3.775   3.286  13.831 -0.4037 -0.1216  0.1472
  670MPD2    C5 9968   3.700   3.304  13.721  0.3021 -0.4296 -0.9912
  670MPD2     H 9969   4.066   3.305  13.678  0.1358  0.3887  2.0990
  670MPD2    H1 9970   3.732   3.267  13.928  0.3046 -1.2372  0.2408
  670MPD2    H2 9971   3.665   3.330  13.516 -0.8421 -2.2231  1.5416
  670MPD2    H3 9972   3.592   3.297  13.727  0.3775  1.1089  2.1078
  670MPD2     N 9973   4.001   3.265  13.924 -0.4603 -0.1501 -1.0870
  670MPD2    H5 9974   4.096   3.295  13.905 -0.6174  0.5058 -0.8397
  670MPD2    N1 9975   3.928   3.349  13.446 -0.6592  0.1206 -0.4903
  670MPD2    H7 9976   4.029   3.345  13.435 -0.3360  1.5555  2.0110
  671TMC3    C1 9977   4.069   3.234  14.151  0.0508 -0.0622  0.4789
  671TMC3    C2 9978   4.202   3.246  14.119 -0.4850 -0.8637 -0.3400
  671TMC3    C3 9979   4.294   3.190  14.203 -0.0064  0.8186 -0.0451
  671TMC3    C4 9980   4.026   3.203  14.279 -0.3365  0.3309  0.1713
  671TMC3    C5 9981   4.120   3.150  14.370  0.5137 -0.5278  0.1592
  671TMC3    C6 9982   4.255   3.142  14.326 -0.7763  0.5253  0.0520
  671TMC3     C 9983   3.959   3.239  14.055  0.3593 -0.4792 -0.2748
  671TMC3     O 9984   3.852   3.208  14.107 -0.3906 -0.4889  0.7126
  671TMC3     H 9985   4.233   3.245  14.015  0.2685  0.2568 -0.1339
  671TMC3    H1 9986   3.922   3.216  14.306 -0.7731 -0.6751 -1.0447
  671TMC3    H2 9987   4.328   3.095  14.390 -1.6774  0.7013  1.2146
  671TMC3    C7 9988   4.072   3.050  14.463  0.4050 -0.4096  0.3230
  671TMC3    C8 9989   4.367   3.086  14.136 -0.0071 -0.1037 -0.9083
  671TMC3    O1 9990   4.146   3.000  14.544 -0.3968 -0.1447 -0.2148
  671TMC3    O2 9991   4.310   2.981  14.133 -0.2848  0.2078  0.9405
  672MPD2     C 9992   4.121   3.745   0.588  1.0328 -0.1733 -0.3942
  672MPD2    C1 9993   4.184   3.665   0.673 -0.2130 -0.5803 -0.0246
  672MPD2    C2 9994   4.310   3.709   0.715 -0.5005  0.5110  0.8201
  672MPD2    C3 9995   4.375   3.823   0.671 -0.1079  0.1991  0.1541
  672MPD2    C4 9996   4.311   3.889   0.570 -0.3226 -0.2423 -0.0145
  672MPD2    C5 9997   4.188   3.844   0.528 -0.1095  0.0176  0.7199
  672MPD2     H 9998   4.354   3.643   0.788  1.0334  1.3713  0.6732
  672MPD2    H1 9999   4.362   3.972   0.522 -1.6814 -0.0265 -1.0673
  672MPD2    H210000   4.026   3.712   0.547  1.0355 -1.6241  0.7626
  672MPD2    H310001   4.146   3.901   0.446  0.1385 -0.7800  0.0311
  672MPD2     N10002   4.496   3.875   0.720 -0.0587 -0.2169 -0.1249
  672MPD2    H510003   4.528   3.965   0.687  0.9178 -0.5147  0.0140
  672MPD2    N110004   4.127   3.540   0.708  0.6702  0.2006  0.2941
  672MPD2    H710005   4.186   3.471   0.753 -0.7870 -2.1797 -1.3870
  673TMC3    C110006   3.976   3.348   0.712 -0.6495  0.0553 -0.1744
  673TMC3    C210007   4.088   3.275   0.671  1.0905  0.2990 -0.4119
  673TMC3    C310008   4.053   3.161   0.606  0.4086  0.6044 -0.0140
  673TMC3    C410009   3.847   3.318   0.672  0.5701 -0.8626 -0.5527
  673TMC3    C510010   3.819   3.215   0.588 -0.7250  0.1091 -0.6340
  673TMC3    C610011   3.927   3.140   0.552 -0.5573  0.0203 -0.6045
  673TMC3     C10012   3.997   3.493   0.695  0.4877  0.4864 -0.0074
  673TMC3     O10013   3.900   3.564   0.666 -0.3874 -0.1176 -0.2192
  673TMC3     H10014   4.186   3.321   0.670  1.9677 -1.5933 -2.1631
  673TMC3    H110015   3.767   3.378   0.714  1.8337  1.5571 -1.5970
  673TMC3    H210016   3.907   3.051   0.495  1.4843  1.7028 -3.9868
  673TMC3    C710017   3.733   3.250   0.473 -0.0375 -0.0540 -0.0942
  673TMC3    C810018   4.152   3.072   0.537 -0.1416 -0.0550 -0.0254
  673TMC3    O110019   3.686   3.158   0.407 -0.0662 -0.3462  0.8348
  673TMC3    O210020   4.107   2.988   0.458  0.2452 -0.6994 -0.2957
  674MPD2     C10021   3.548   3.556  17.451  0.3168  0.4991  0.0239
  674MPD2    C110022   3.496   3.437  17.492  0.1186 -0.0206 -0.0073
  674MPD2    C210023   3.373   3.439  17.558  0.8751 -0.2330  0.1349
  674MPD2    C310024   3.315   3.561  17.590 -0.4203  0.9308 -0.3463
  674MPD2    C410025   3.383   3.676  17.554  0.2816  0.3350  0.3543
  674MPD2    C510026   3.489   3.673  17.477  0.3740  0.0864  0.4546
  674MPD2     H10027   3.332   3.353  17.609 -0.9772  0.7026  0.2212
  674MPD2    H110028   3.327   3.765  17.582 -0.3552  0.3144 -0.8227
  674MPD2    H210029   3.635   3.554  17.387 -1.3741 -0.0388 -2.2701
  674MPD2    H310030   3.532   3.767  17.443  2.4177 -1.5922 -1.6169
  674MPD2     N10031   3.208   3.567  17.684  0.0179 -0.3709 -0.4193
  674MPD2    H510032   3.184   3.476  17.722  1.5810 -0.2105  0.9656
  674MPD2    N110033   3.585   3.327  17.491 -0.8002  0.3448  0.0128
  674MPD2    H710034   3.685   3.347  17.484 -0.7597 -0.7218 -2.6095
  675TMC3    C110035   3.654   3.118  17.596 -0.3069  0.4913  0.1201
  675TMC3    C210036   3.589   3.033  17.681 -0.6064  0.0999 -0.5217
  675TMC3    C310037   3.643   3.023   0.049  0.4921 -0.1096  1.0865
  675TMC3    C410038   3.775   3.178  17.618  0.0301 -0.2258 -0.0225
  675TMC3    C510039   3.824   3.163  17.746  0.2407  0.3324  0.6113
  675TMC3    C610040   3.758   3.083   0.087 -0.5996 -0.4607 -0.5313
  675TMC3     C10041   3.552   3.201  17.527  0.8367 -0.5842  0.0726
  675TMC3     O10042   3.443   3.145  17.537  0.3310 -0.1118  0.1852
  675TMC3     H10043   3.502   2.970  17.663 -2.2521  1.9418  1.0223
  675TMC3    H110044   3.816   3.250  17.547  1.1340  0.7385  1.5999
  675TMC3    H210045   3.789   3.091   0.190  0.8689 -1.3011 -0.9149
  675TMC3    C710046   3.898   3.278   0.040  0.8274 -0.2896  0.1016
  675TMC3    C810047   3.611   2.909   0.127 -0.5097  0.0195 -0.5778
  675TMC3    O110048   3.862   3.385  17.741  0.3713 -0.3423  0.0605
  675TMC3    O210049   3.576   2.809   0.066 -0.3041  0.1195  0.3366
  676MPD2     C10050   2.558   1.452  11.423 -0.1870  0.0704 -0.4386
  676MPD2    C110051   2.433   1.407  11.459  0.5488  0.0727  0.0384
  676MPD2    C210052   2.390   1.279  11.407 -0.4848  0.0489  0.5425
  676MPD2    C310053   2.468   1.193  11.335  0.0060 -0.1094  1.1539
  676MPD2    C410054   2.590   1.243  11.308 -0.6483 -0.7027 -0.4876
  676MPD2    C510055   2.636   1.368  11.349  0.4182  0.1574  0.3727
  676MPD2     H10056   2.290   1.249  11.438 -0.5756 -1.5712 -1.3362
  676MPD2    H110057   2.662   1.188  11.247  0.7082  0.2094  0.2809
  676MPD2    H210058   2.600   1.550  11.441 -0.5047  0.1160  0.0430
  676MPD2    H310059   2.733   1.400  11.314  0.3179 -2.7150 -2.5019
  676MPD2     N10060   2.438   1.059  11.291 -0.4646  0.5421 -0.1302
  676MPD2    H510061   2.516   1.007  11.252  0.1395 -0.3110  2.1695
  676MPD2    N110062   2.333   1.492  11.508  0.0817  0.5715 -0.9819
  676MPD2    H710063   2.238   1.457  11.497  0.0412  0.8057 -1.3857
  677TMC3    C110064   2.239   1.703  11.547 -0.4975  0.3045  0.4424
  677TMC3    C210065   2.113   1.650  11.548 -0.0407  0.6572  0.1687
  677TMC3    C310066   2.009   1.736  11.597  0.3687 -0.2684  0.2259
  677TMC3    C410067   2.260   1.842  11.574  0.3289 -0.2044  0.6066
  677TMC3    C510068   2.156   1.920  11.614  0.6224 -0.1382 -0.0387
  677TMC3    C610069   2.030   1.871  11.610  0.3133 -0.5393  0.0053
  677TMC3     C10070   2.356   1.615  11.553 -0.2077  0.3611 -0.0963
  677TMC3     O10071   2.458   1.657  11.608  0.3392 -0.3699  0.1261
  677TMC3     H10072   2.092   1.544  11.546  3.6972 -0.1308  1.6998
  677TMC3    H110073   2.359   1.885  11.567  0.2777 -0.2400 -0.3985
  677TMC3    H210074   1.945   1.924  11.650  2.9565  2.3407  1.8067
  677TMC3    C710075   2.182   2.032  11.706  0.3796 -0.5505  0.1781
  677TMC3    C810076   1.873   1.689  11.586 -0.2082  0.9617 -0.2262
  677TMC3    O110077   2.094   2.059  11.787 -0.3108  0.3817 -0.0724
  677TMC3    O210078   1.792   1.765  11.538  0.0846  0.4973 -0.3021
  678MPD2     C10079   2.699   1.799   1.056  0.4806 -1.0618  1.0317
  678MPD2    C110080   2.756   1.715   0.960  0.3650 -0.0632 -0.5417
  678MPD2    C210081   2.667   1.655   0.872  0.4586  0.1594  0.1836
  678MPD2    C310082   2.530   1.677   0.882 -0.2232 -0.8209 -0.0328
  678MPD2    C410083   2.476   1.762   0.972  0.4375 -0.2386  0.3249
  678MPD2    C510084   2.563   1.829   1.059 -0.4136  0.3341 -0.5981
  678MPD2     H10085   2.708   1.588   0.797 -1.2709  0.5841 -1.1254
  678MPD2    H110086   2.373   1.791   0.988  0.6889 -0.3149  2.0582
  678MPD2    H210087   2.758   1.861   1.123  0.4292 -0.1654  0.2389
  678MPD2    H310088   2.524   1.898   1.132 -0.2596 -0.7340  0.5018
  678MPD2     N10089   2.445   1.592   0.796 -0.0686  0.1170 -0.2218
  678MPD2    H510090   2.498   1.527   0.740 -2.0653 -0.3492 -1.5814
  678MPD2    N110091   2.894   1.700   0.942  0.3750 -0.0081 -0.2725
  678MPD2    H710092   2.918   1.638   0.866  2.2432  0.3167  0.0458
  679TMC3    C110093   3.282   1.594   0.836  0.3883 -0.7318 -0.4530
  679TMC3    C210094   3.154   1.620   0.877 -0.2564 -0.4749  0.1464
  679TMC3    C310095   3.122   1.747   0.918 -0.5175 -0.5614  0.9725
  679TMC3    C410096   3.376   1.698   0.817  0.7932 -0.6425  0.2073
  679TMC3    C510097   3.327   1.820   0.846 -0.2355  0.5326  0.1918
  679TMC3    C610098   3.205   1.854   0.894  1.0799 -0.4327 -0.3111
  679TMC3     C10099   3.319   1.457   0.800  0.2617  0.0154 -0.5524
  679TMC3     O10100   3.229   1.380   0.789  0.0856 -0.0732  0.6064
  679TMC3     H10101   3.090   1.534   0.891  1.3300 -1.4462  1.3687
  679TMC3    H110102   3.472   1.667   0.777  0.6732  1.2645 -1.5469
  679TMC3    H210103   3.179   1.959   0.903 -0.7301 -0.9230  0.0989
  679TMC3    C710104   3.386   1.929   0.762  0.9232 -0.0688  0.0775
  679TMC3    C810105   2.998   1.785   0.979  0.1838 -0.6486 -0.4221
  679TMC3    O110106   3.333   2.039   0.771 -0.5111 -0.0740  0.4012
  679TMC3    O210107   2.982   1.896   1.031 -0.3418  0.3049  0.2142
  680MPD2     C10108   3.869   0.452  13.732  0.3342 -0.8947 -0.2912
  680MPD2    C110109   3.922   0.403  13.849 -0.0869 -0.2298 -0.1332
  680MPD2    C210110   3.989   0.482  13.942 -0.2444  0.4793 -0.7013
  680MPD2    C310111   4.006   0.614  13.912  0.3390 -0.6180  0.1820
  680MPD2    C410112   3.957   0.663  13.794 -0.1956  0.1554  0.1219
  680MPD2    C510113   3.887   0.586  13.703 -0.3812 -0.9917 -0.1509
  680MPD2     H10114   4.040   0.435  14.026  0.5293  1.1894 -0.7768
  680MPD2    H110115   3.968   0.765  13.760 -0.7339  0.9357  2.2456
  680MPD2    H210116   3.810   0.400  13.658  0.4366  0.4363 -1.3179
  680MPD2    H310117   3.841   0.626  13.614 -1.1292 -0.6453  0.3940
  680MPD2     N10118   4.073   0.706  13.985 -0.5672 -0.2694 -0.0055
  680MPD2    H510119   4.094   0.796  13.942 -0.1561  0.6563  2.1379
  680MPD2    N110120   3.907   0.266  13.874 -0.1099  0.3111  0.2944
  680MPD2    H710121   3.970   0.228  13.944  0.0638 -0.7331 -0.4345
  681TMC3    C110122   3.786   0.087  13.905  0.3750  0.0615 -0.1107
  681TMC3    C210123   3.726   0.123  14.021 -0.5024  0.5779 -0.3529
  681TMC3    C310124   3.765   0.079  14.145  0.0795 -0.1022 -0.0616
  681TMC3    C410125   3.908   0.017  13.917 -0.4410 -0.0432 -0.6442
  681TMC3    C510126   3.939   4.708  14.044 -0.0145 -0.1474  0.2197
  681TMC3    C610127   3.870   0.001  14.163  0.3771  0.5178  0.1862
  681TMC3     C10128   3.804   0.198  13.819  1.2948  0.4719 -0.4182
  681TMC3     O10129   3.700   0.235  13.772 -0.9754 -0.1964 -0.5324
  681TMC3     H10130   3.640   0.189  14.009 -0.9499  0.1710  0.6219
  681TMC3    H110131   3.967   4.723  13.832  0.0028  1.2543 -0.8354
  681TMC3    H210132   3.902   4.698  14.258 -0.3160 -0.3447  0.0426
  681TMC3    C710133   4.058   4.625  14.061 -0.4201  0.1905  0.1743
  681TMC3    C810134   3.750   0.190  14.243  0.0482 -0.2627  0.3715
  681TMC3    O110135   4.044   4.545  14.148 -0.3002 -0.2054  0.0543
  681TMC3    O210136   3.655   0.259  14.222 -0.3637  0.0314 -0.6270
  682MPD2     C10137   1.410   1.588  11.083 -0.1007  0.3200  0.0231
  682MPD2    C110138   1.339   1.481  11.128  0.5060 -0.2611  0.2089
  682MPD2    C210139   1.246   1.493  11.226 -0.5103  0.0855  0.5605
  682MPD2    C310140   1.227   1.614  11.286  0.9309  0.5209 -0.6348
  682MPD2    C410141   1.285   1.726  11.231  0.8069  0.0756 -0.4646
  682MPD2    C510142   1.385   1.710  11.141 -0.4988  0.7272 -0.8683
  682MPD2     H10143   1.193   1.407  11.264  0.8938 -0.5336  1.0988
  682MPD2    H110144   1.270   1.828  11.266  1.3828 -0.2257  0.6451
  682MPD2    H210145   1.486   1.579  11.006  1.6574  1.7069  1.6032
  682MPD2    H310146   1.427   1.803  11.103  3.5944 -1.1355 -0.9872
  682MPD2     N10147   1.133   1.621  11.390  0.8512  0.4783 -0.2227
  682MPD2    H510148   1.107   1.530  11.426 -0.6604  1.0061  0.0228
  682MPD2    N110149   1.346   1.356  11.065  0.4551 -0.1897 -0.4916
  682MPD2    H710150   1.288   1.279  11.096 -1.5943  1.3613 -0.4419
  683TMC3    C110151   1.146   1.580  11.790  0.4566  0.2829 -0.1751
  683TMC3    C210152   1.068   1.469  11.779 -0.1010  0.0449 -0.1521
  683TMC3    C310153   0.978   1.463  11.677 -0.2764  0.2707 -0.0423
  683TMC3    C410154   1.142   1.686  11.707 -0.4430  0.1590 -0.0329
  683TMC3    C510155   1.050   1.680  11.601  0.3395  0.2639 -0.1176
  683TMC3    C610156   0.970   1.570  11.590  0.4664  0.5911  0.2674
  683TMC3     C10157   1.264   1.585  11.869  0.6038  0.2705  0.3860
  683TMC3     O10158   1.318   1.696  11.894 -1.0608 -0.4201 -0.3675
  683TMC3     H10159   1.080   1.391  11.853 -1.5853 -0.5591 -0.5567
  683TMC3    H110160   1.197   1.779  11.718  1.1707 -0.5201 -2.5301
  683TMC3    H210161   0.887   1.565  11.520  1.0826  0.3930 -0.4424
  683TMC3    C710162   1.108   1.728  11.476  0.3431 -0.2691  0.3817
  683TMC3    C810163   0.990   1.344  11.597 -0.4011 -0.7183  0.1478
  683TMC3    O110164   1.154   1.842  11.469 -0.3544 -0.5233 -0.9183
  683TMC3    O210165   1.029   1.367  11.485  0.2804 -0.7765  0.2696
  684MPD2     C10166   4.178   0.951  16.199 -0.0076 -0.1217 -0.3324
  684MPD2    C110167   4.274   1.024  16.143 -0.1505  0.1230 -0.9647
  684MPD2    C210168   4.317   1.139  16.212 -0.0650  0.6963 -0.6030
  684MPD2    C310169   4.263   1.179  16.333  0.8831  0.5735  0.0259
  684MPD2    C410170   4.166   1.101  16.388 -0.1911 -0.6759  0.4101
  684MPD2    C510171   4.131   0.986  16.322  0.3061  1.0481  0.7529
  684MPD2     H10172   4.390   1.203  16.165  1.2945  1.0101  1.9530
  684MPD2    H110173   4.125   1.125  16.485  0.6377  1.1304  0.3160
  684MPD2    H210174   4.136   0.863  16.152 -0.1745  0.4288 -1.2117
  684MPD2    H310175   4.082   0.912  16.382  1.7621 -1.5523 -1.2604
  684MPD2     N10176   4.319   1.301  16.387  0.2225 -0.1205 -0.0095
  684MPD2    H510177   4.377   1.360  16.328 -0.5766  0.5768 -0.1078
  684MPD2    N110178   4.336   0.995  16.021 -0.3559  0.1762  0.6856
  684MPD2    H710179   4.411   1.056  15.991  0.3681  0.0001  2.1503
  685TMC3    C110180   4.343   0.957  15.804 -0.2527  0.4329 -0.2868
  685TMC3    C210181   4.241   1.018  15.728 -0.9535  0.0517  0.0886
  685TMC3    C310182   4.260   1.142  15.678  0.3379 -0.0405 -0.3826
  685TMC3    C410183   4.467   1.022  15.811 -0.6395 -0.0074 -0.3941
  685TMC3    C510184   4.474   1.155  15.761 -0.5614 -0.2599 -0.2913
  685TMC3    C610185   4.376   1.218  15.688  0.4407  0.3469 -0.0866
  685TMC3     C10186   4.288   0.914  15.932 -0.2045 -0.8993  0.3822
  685TMC3     O10187   4.185   0.847  15.933 -0.1698 -0.0572 -0.0047
  685TMC3     H10188   4.148   0.965  15.713 -1.5362  0.7921  1.0917
  685TMC3    H110189   4.549   0.978  15.867  0.1201  1.5499 -0.2532
  685TMC3    H210190   4.379   1.324  15.665 -1.3572  0.2370 -0.8622
  685TMC3    C710191   4.556   1.239  15.853 -0.6294 -0.6422  0.4206
  685TMC3    C810192   4.145   1.222  15.637  0.4972  0.0787 -0.4827
  685TMC3    O110193   4.566   1.189  15.966 -0.0813  0.1085 -0.6268
  685TMC3    O210194   4.170   1.305  15.549 -0.2010  0.4098  0.0732
  686MPD2     C10195   0.805   0.896  15.410  0.0843 -0.4491 -1.1766
  686MPD2    C110196   0.782   0.834  15.526 -0.2208 -0.3724  0.3325
  686MPD2    C210197   0.815   0.703  15.540 -0.1371 -0.2971  0.1380
  686MPD2    C310198   0.840   0.635  15.422  0.2720 -0.4502  0.3706
  686MPD2    C410199   0.851   0.694  15.303 -0.0961 -0.0717  0.2338
  686MPD2    C510200   0.849   0.829  15.300 -0.0178  0.3474 -0.3754
  686MPD2     H10201   0.812   0.656  15.638  0.0667  2.0631  1.2786
  686MPD2    H110202   0.871   0.632  15.217  1.2009  1.1760 -0.3755
  686MPD2    H210203   0.782   1.002  15.412  1.9132 -0.0292 -2.0113
  686MPD2    H310204   0.862   0.885  15.209 -0.5608  2.0807  0.6094
  686MPD2     N10205   0.854   0.493  15.409  0.0948 -0.5777  0.0441
  686MPD2    H510206   0.908   0.458  15.330  0.6519  1.6103 -0.5317
  686MPD2    N110207   0.750   0.920  15.637  0.5081 -0.2401 -0.1513
  686MPD2    H710208   0.741   1.021  15.635 -2.9349 -0.5731 -1.1956
  687TMC3    C110209   0.737   0.423  15.611  0.0883 -0.1108  0.2285
  687TMC3    C210210   0.617   0.493  15.593  0.3267  0.3091  0.1009
  687TMC3    C310211   0.538   0.497  15.707  0.8695 -0.3833 -0.5714
  687TMC3    C410212   0.773   0.368  15.726 -0.0445  0.7549 -0.0462
  687TMC3    C510213   0.693   0.370  15.829  0.0141 -0.1130 -0.3358
  687TMC3    C610214   0.581   0.446  15.825 -0.6306  0.1527 -0.3580
  687TMC3     C10215   0.828   0.393  15.503 -0.4003 -0.2879 -0.9195
  687TMC3     O10216   0.885   0.283  15.517 -0.1283 -0.3064  0.4002
  687TMC3     H10217   0.585   0.532  15.497 -1.4570  1.7376  1.2695
  687TMC3    H110218   0.854   0.299  15.747 -0.5906  0.2715  0.5023
  687TMC3    H210219   0.532   0.456  15.921 -1.6786  1.1637 -0.9948
  687TMC3    C710220   0.778   0.394  15.944  0.1338  0.0643 -0.8900
  687TMC3    C810221   0.428   0.592  15.715  0.2583 -0.2268 -0.7992
  687TMC3    O110222   0.851   0.301  15.975  0.7359  0.5293 -0.6979
  687TMC3    O210223   0.351   0.571  15.807 -0.1806 -0.2121  0.6235
  688MPD2     C10224   4.504   4.596  17.472 -0.4137  0.0747  0.2469
  688MPD2    C110225   4.520   4.466  17.510  0.0555  0.1926 -0.4932
  688MPD2    C210226   4.622   4.394  17.442  0.7936  0.5189 -0.5404
  688MPD2    C310227   4.694   4.452  17.331 -0.0304  1.0224 -1.3286
  688MPD2    C410228   4.659   4.580  17.296 -0.5363 -0.2166 -0.4915
  688MPD2    C510229   4.570   4.651  17.365  0.2513 -0.0623  0.5278
  688MPD2     H10230   4.638   4.291  17.473  1.0636  0.3409 -1.2566
  688MPD2    H110231   4.709   4.629  17.214 -1.7767  1.1124 -0.4553
  688MPD2    H210232   4.428   4.657  17.520 -0.3196  0.0101  0.4767
  688MPD2    H310233   4.543   0.013  17.336 -1.0189 -0.1765  1.3330
  688MPD2     N10234   0.057   4.390  17.258 -0.2667 -0.0232 -0.2395
  688MPD2    H510235   0.106   4.449  17.191  1.7318 -1.8058 -0.3145
  688MPD2    N110236   4.454   4.418  17.623  0.0270  0.7241  0.1501
  688MPD2    H710237   4.492   4.327  17.647  0.4253  0.9345  0.3040
  689TMC3    C110238   4.374   4.409   0.076  0.5049 -0.0244  0.7317
  689TMC3    C210239   4.357   4.481   0.191 -0.0267  0.2578  0.1365
  689TMC3    C310240   4.294   4.419   0.298 -0.4791 -0.4729 -0.3534
  689TMC3    C410241   4.308   4.289   0.049  0.0151 -0.0539 -0.5187
  689TMC3    C510242   4.230   4.242   0.153 -0.3289  0.7785  0.8874
  689TMC3    C610243   4.229   4.302   0.279  0.2455 -0.0638  0.3484
  689TMC3     C10244   4.389   4.490  17.717 -0.2079  0.5956 -0.2906
  689TMC3     O10245   4.346   4.604  17.723 -0.4535  0.9192  0.3906
  689TMC3     H10246   4.404   4.578   0.201 -0.9595  0.7810 -0.5086
  689TMC3    H110247   4.310   4.246  17.702 -1.3359 -0.1910 -0.4840
  689TMC3    H210248   4.171   4.268   0.364  0.0346  1.0888  0.6599
  689TMC3    C710249   4.136   4.132   0.144  0.7544  0.1961 -0.2779
  689TMC3    C810250   4.273   4.486   0.426 -0.2091 -0.3625 -0.5823
  689TMC3    O110251   4.105   4.071   0.247 -0.1651  0.7873  0.2542
  689TMC3    O210252   4.227   4.425   0.524 -0.1932 -0.4291 -0.5225
  690MPD2     C10253   1.946   2.086  15.467 -0.6104 -0.4694  0.0865
  690MPD2    C110254   2.026   1.983  15.504  0.1988 -0.2330  0.3669
  690MPD2    C210255   2.134   1.945  15.419  0.3782 -0.2053  0.9255
  690MPD2    C310256   2.152   2.003  15.299  0.5418  0.4377 -0.1619
  690MPD2    C410257   2.066   2.103  15.263 -0.0597  0.0476  0.2434
  690MPD2    C510258   1.961   2.137  15.346 -1.1452 -0.4177 -0.5137
  690MPD2     H10259   2.202   1.873  15.463  0.3614  0.5392  2.1825
  690MPD2    H110260   2.080   2.143  15.163  1.8350 -0.6354  0.2384
  690MPD2    H210261   1.864   2.127  15.526 -0.0301  1.2114 -0.2750
  690MPD2    H310262   1.887   2.215  15.331 -0.4413  0.2589 -0.4309
  690MPD2     N10263   2.268   1.964  15.227  0.1124 -0.5017  0.5475
  690MPD2    H510264   2.322   1.884  15.261  0.4331 -0.9118 -0.9236
  690MPD2    N110265   2.009   1.912  15.619 -0.3092  0.4722  0.6674
  690MPD2    H710266   2.061   1.826  15.632 -0.8883 -0.1523 -1.1957
  691TMC3    C110267   1.926   1.820  15.823  0.6434 -0.3372  0.9007
  691TMC3    C210268   1.806   1.790  15.874  0.5333 -0.0836  0.4094
  691TMC3    C310269   1.787   1.663  15.928  0.2806 -1.0754  0.7355
  691TMC3    C410270   2.028   1.729  15.820  0.2511  0.3141  1.0804
  691TMC3    C510271   1.994   1.596  15.847  0.1326 -0.0303 -0.5496
  691TMC3    C610272   1.880   1.560  15.913 -0.3829  0.1801 -0.2233
  691TMC3     C10273   1.921   1.928  15.721 -0.8908 -0.3666  0.5832
  691TMC3     O10274   1.830   2.008  15.746  0.6870 -0.4289  0.0675
  691TMC3     H10275   1.736   1.871  15.891 -1.2652 -2.2133  3.2340
  691TMC3    H110276   2.129   1.758  15.795 -0.6064  2.2812 -0.1363
  691TMC3    H210277   1.862   1.460  15.950  0.9883  0.1674  0.4016
  691TMC3    C710278   2.050   1.492  15.755 -0.3609  0.3378  0.4394
  691TMC3    C810279   1.667   1.613  15.999  0.0614  0.2448  0.4026
  691TMC3    O110280   2.150   1.534  15.695  0.3484 -0.3144  0.5210
  691TMC3    O210281   1.666   1.513  16.064  0.0860 -0.3368 -0.2055
  692TMC3    C110282   4.138   2.642  15.844 -0.4122 -0.6436  0.4653
  692TMC3    C210283   4.208   2.685  15.954 -0.0714  0.4642  0.1101
  692TMC3    C310284   4.267   2.591  16.041  0.0059 -0.1760 -0.1886
  692TMC3    C410285   4.108   2.510  15.828 -0.4499 -0.9870  0.5542
  692TMC3    C510286   4.153   2.422  15.928 -0.5132  0.3020 -0.6325
  692TMC3    C610287   4.235   2.461  16.030  0.1968  0.0479  0.4093
  692TMC3     C10288   4.031   2.726  15.793 -0.0981  0.0051  0.0182
  692TMC3     O10289   3.927   2.669  15.762 -0.0654 -0.1331  0.5661
  692TMC3     H10290   4.240   2.788  15.955 -2.7313  1.3018 -0.2625
  692TMC3    H110291   4.048   2.480  15.743  0.6635  1.2666 -1.0370
  692TMC3    H210292   4.245   2.392  16.114 -3.4347 -2.2464 -1.0163
  692TMC3    C710293   4.097   2.287  15.916 -0.0823 -0.1292 -0.1997
  692TMC3    C810294   4.270   2.639  16.182 -0.2605 -0.8230  0.4919
  692TMC3    O110295   4.022   2.269  15.818 -0.3556  0.4756  0.4102
  692TMC3    O210296   4.286   2.548  16.267 -0.3226  0.2619 -0.0393
  693MPD2     C10297   3.481   0.424  11.003 -0.5647  0.2021  0.0528
  693MPD2    C110298   3.508   0.366  11.124  0.3310  0.4211  0.3848
  693MPD2    C210299   3.638   0.331  11.155  0.1829  0.1778  0.1543
  693MPD2    C310300   3.742   0.349  11.063 -0.3723  0.5385  0.2876
  693MPD2    C410301   3.708   0.418  10.949  0.2305 -0.2681 -0.6238
  693MPD2    C510302   3.580   0.445  10.918 -0.2888  0.2987  0.1958
  693MPD2     H10303   3.658   0.278  11.247  0.4018  0.4864  0.2869
  693MPD2    H110304   3.783   0.442  10.875 -1.5646  0.7424 -2.0998
  693MPD2    H210305   3.378   0.439  10.973 -1.4425  1.9834  3.9289
  693MPD2    H310306   3.547   0.488  10.824 -1.7018  0.2140  0.6531
  693MPD2     N10307   3.875   0.313  11.086 -0.5319  0.0298  0.4511
  693MPD2    H510308   3.937   0.307  11.006 -1.3083  0.2158 -0.1623
  693MPD2    N110309   3.403   0.310  11.197  0.6176 -0.1846 -0.4912
  693MPD2    H710310   3.309   0.310  11.160  0.6715 -1.0026 -0.6165
  694TMC3    C110311   3.282   0.177  11.354  0.3955  0.7481 -0.6289
  694TMC3    C210312   3.169   0.178  11.270  0.5651  1.1205  0.2880
  694TMC3    C310313   3.055   0.131  11.323 -0.4253 -0.2524  0.8278
  694TMC3    C410314   3.289   0.107  11.466  0.4735 -0.1095  0.3997
  694TMC3    C510315   3.168   0.060  11.512 -0.5721  0.0410 -0.1158
  694TMC3    C610316   3.052   0.076  11.448 -0.2582 -0.0943 -0.3413
  694TMC3     C10317   3.413   0.239  11.317 -0.5208  0.1628 -0.1706
  694TMC3     O10318   3.494   0.256  11.406 -0.2018  0.3385  0.2374
  694TMC3     H10319   3.169   0.229  11.175 -1.0093  0.9021  0.1699
  694TMC3    H110320   3.378   0.102  11.528  1.3590  1.2689 -0.7726
  694TMC3    H210321   2.959   0.044  11.493 -0.5292  0.5845 -0.4264
  694TMC3    C710322   3.179   4.720  11.629 -0.1177 -0.3528  0.2817
  694TMC3    C810323   2.927   0.115  11.250 -0.2966  0.5409 -0.2743
  694TMC3    O110324   3.257   0.015  11.713  0.9477 -0.2747  0.4035
  694TMC3    O210325   2.845   0.035  11.297 -0.3531 -0.0964 -0.0851
  695MPD2     C10326   3.971   2.205  13.731  0.0538 -0.6046 -0.3943
  695MPD2    C110327   4.021   2.309  13.814 -0.1710  0.0106  0.3363
  695MPD2    C210328   3.932   2.406  13.848 -0.5599  0.4918  0.4154
  695MPD2    C310329   3.799   2.402  13.811  0.7753  0.0955  0.5232
  695MPD2    C410330   3.760   2.303  13.724  0.2133  1.0522  0.6497
  695MPD2    C510331   3.842   2.202  13.683 -0.4564  0.4059  0.4204
  695MPD2     H10332   3.964   2.484  13.915 -0.4888  1.0715 -0.2899
  695MPD2    H110333   3.657   2.297  13.691  0.6979  1.8377 -1.0002
  695MPD2    H210334   4.028   2.115  13.708  0.5332 -1.2923  3.3995
  695MPD2    H310335   3.813   2.109  13.635  0.3876  0.3230  0.0787
  695MPD2     N10336   3.709   2.501  13.859  0.0510 -0.0315 -0.5807
  695MPD2    H510337   3.749   2.574  13.917  0.9455 -2.7580  2.2226
  695MPD2    N110338   4.146   2.315  13.875 -0.9407  0.1570 -0.0222
  695MPD2    H710339   4.165   2.396  13.933  0.5775  0.1443 -0.5136
  696TMC3    C110340   3.509   2.617  13.896 -0.3829  0.3789 -0.1902
  696TMC3    C210341   3.550   2.632  14.024 -0.2829 -0.3912  0.2835
  696TMC3    C310342   3.472   2.719  14.099 -0.3996 -0.0833  0.2897
  696TMC3    C410343   3.412   2.694  13.842 -0.6178  0.1774 -0.4734
  696TMC3    C510344   3.347   2.787  13.917  0.5188  0.6518 -0.6595
  696TMC3    C610345   3.379   2.804  14.055 -0.5093  0.0652  0.0713
  696TMC3     C10346   3.577   2.514  13.815  0.8865  0.0746  0.0220
  696TMC3     O10347   3.504   2.448  13.744 -0.0678 -0.2709 -0.3737
  696TMC3     H10348   3.624   2.571  14.076  0.3529 -1.0878 -1.4383
  696TMC3    H110349   3.397   2.686  13.735  1.2949 -1.7408 -0.5986
  696TMC3    H210350   3.314   2.858  14.122  1.1649  1.5489  0.5178
  696TMC3    C710351   3.329   2.908  13.846  1.0997  0.7390 -0.0037
  696TMC3    C810352   3.538   2.785  14.209 -0.5236  0.7070  0.2467
  696TMC3    O110353   3.309   2.894  13.725  0.4979 -0.2889 -0.2550
  696TMC3    O210354   3.544   2.907  14.206  0.0182  0.1456  1.0266
  697MPD2     C10355   3.465   4.502  15.853 -0.4363  0.2585 -0.0227
  697MPD2    C110356   3.534   4.482  15.732  0.1324 -0.3883  0.0263
  697MPD2    C210357   3.564   4.599  15.657  0.0320 -0.1678 -0.0816
  697MPD2    C310358   3.539   4.726  15.711  0.1687 -1.0856  0.0377
  697MPD2    C410359   3.470   0.001  15.834 -0.7738  0.6346 -0.1304
  697MPD2    C510360   3.428   4.624  15.897  0.8130  0.0509 -0.0845
  697MPD2     H10361   3.617   4.604  15.562 -0.0592  4.3915  0.0753
  697MPD2    H110362   3.440   0.097  15.875 -1.7933 -0.2250  1.1265
  697MPD2    H210363   3.420   4.418  15.905  0.4131 -1.7755 -2.5254
  697MPD2    H310364   3.386   4.636  15.996  0.3021 -1.2464 -0.1494
  697MPD2     N10365   3.580   0.095  15.629 -0.3723  0.4059 -0.1214
  697MPD2    H510366   3.634   0.070  15.547  1.1070 -1.8109  1.5354
  697MPD2    N110367   3.555   4.350  15.681 -0.0277 -0.1834  0.6563
  697MPD2    H710368   3.570   4.330  15.583 -0.8705 -1.4257  0.7741
  698TMC3    C110369   3.652   0.298  15.561  0.3160  0.0052  0.1062
  698TMC3    C210370   3.767   0.365  15.606 -0.2452  0.6667 -0.3738
  698TMC3    C310371   3.876   0.378  15.522  0.3258  0.2191 -0.2511
  698TMC3    C410372   3.652   0.252  15.429 -0.1169  0.6511  0.8164
  698TMC3    C510373   3.761   0.273  15.347  0.3733  0.0521 -0.2879
  698TMC3    C610374   3.875   0.340  15.385  0.4971  0.4067  0.3738
  698TMC3     C10375   3.576   0.227  15.661  0.1845  0.6433  0.3092
  698TMC3     O10376   3.539   0.277  15.768 -0.5155  0.5179 -0.3126
  698TMC3     H10377   3.783   0.395  15.709 -2.1135 -2.7570  0.9253
  698TMC3    H110378   3.560   0.202  15.400 -0.2391  0.7455  1.0407
  698TMC3    H210379   3.951   0.369  15.313  0.5970  0.6826  0.5924
  698TMC3    C710380   3.744   0.232  15.213 -0.5000 -0.6982 -0.1971
  698TMC3    C810381   3.994   0.429  15.584 -0.1619  0.1469  0.1513
  698TMC3    O110382   3.628   0.220  15.175 -0.6213 -0.3161 -0.2587
  698TMC3    O210383   3.988   0.463  15.702  0.7187  0.2173 -0.8966
  699TMC3    C110384   3.457   2.565  13.339 -0.0917 -0.2793 -0.2362
  699TMC3    C210385   3.449   2.432  13.368  0.2632  0.2789 -0.5863
  699TMC3    C310386   3.332   2.378  13.419 -0.1961  0.1060  0.1245
  699TMC3    C410387   3.353   2.649  13.364 -0.3159  0.8974 -0.1413
  699TMC3    C510388   3.244   2.598  13.428  0.6067  0.7398  0.1237
  699TMC3    C610389   3.226   2.465  13.456 -0.1848 -0.0883  0.6587
  699TMC3     C10390   3.564   2.609  13.250 -0.0789  0.0216  0.2921
  699TMC3     O10391   3.622   2.525  13.181 -0.4534  0.2052 -0.3561
  699TMC3     H10392   3.542   2.377  13.372 -1.3893 -2.3257  1.8040
  699TMC3    H110393   3.366   2.746  13.317  1.4829  0.5297 -0.4143
  699TMC3    H210394   3.152   2.430  13.527 -1.1779 -0.4302 -0.5429
  699TMC3    C710395   3.130   2.681  13.463 -0.7602 -0.5728  0.0842
  699TMC3    C810396   3.327   2.247  13.486 -0.1304 -0.0286  0.2951
  699TMC3    O110397   3.029   2.625  13.507  0.0771  0.7165  0.2664
  699TMC3    O210398   3.247   2.229  13.580  0.4360  0.8813 -0.4925
  700TMC3    C110399   2.035   0.029  17.343  0.2087  0.7670  0.6604
  700TMC3    C210400   2.085   4.666  17.262 -0.3172 -0.4241  0.0358
  700TMC3    C310401   2.210   4.621  17.278 -0.2846 -0.0750  0.3319
  700TMC3    C410402   2.123   0.088  17.433  0.4535  0.0268  0.7175
  700TMC3    C510403   2.255   0.038  17.439  0.6327 -0.5348 -0.0088
  700TMC3    C610404   2.300   4.677  17.362  0.3682  0.2914  0.3141
  700TMC3     C10405   1.969   0.132  17.265  0.6232  0.2324  0.2974
  700TMC3     O10406   1.885   0.092  17.192  0.2562 -0.2116 -0.2240
  700TMC3     H10407   2.018   4.625  17.187 -0.9587  0.3686  0.1804
  700TMC3    H110408   2.089   0.164  17.502  0.0404 -1.3307  2.0035
  700TMC3    H210409   2.399   4.638  17.379 -0.5160 -1.7947  0.5829
  700TMC3    C710410   2.349   0.123  17.501 -0.0888 -0.3700 -0.0647
  700TMC3    C810411   2.263   4.524  17.196  0.3527 -0.4446 -0.1905
  700TMC3    O110412   2.343   0.226  17.445 -0.0548 -0.0895  1.3141
  700TMC3    O210413   2.378   4.540  17.170 -0.4225  0.9288 -0.5078
  701TMC3    C110414   2.551   3.420  15.589 -0.7591 -0.1035 -0.1896
  701TMC3    C210415   2.542   3.407  15.456 -0.8822 -0.0823 -0.2013
  701TMC3    C310416   2.631   3.478  15.379 -0.2280 -0.0839 -0.6162
  701TMC3    C410417   2.621   3.520  15.647  0.1812 -1.1731  0.2862
  701TMC3    C510418   2.698   3.605  15.569  0.8255  0.0131  0.1390
  701TMC3    C610419   2.708   3.576  15.437 -0.1699 -0.1561 -0.1529
  701TMC3     C10420   2.462   3.345  15.671 -0.3585  0.0704  0.0044
  701TMC3     O10421   2.496   3.306  15.782  0.0655 -0.1862 -0.2450
  701TMC3     H10422   2.503   3.314  15.416 -1.3408  0.4480 -0.9890
  701TMC3    H110423   2.621   3.535  15.755  1.0228 -1.3769  0.3172
  701TMC3    H210424   2.771   3.635  15.370 -0.5564  0.4623  0.0303
  701TMC3    C710425   2.749   3.733  15.627  0.3557  0.0331 -0.3361
  701TMC3    C810426   2.623   3.476  15.230  0.4253 -0.3704 -0.2075
  701TMC3    O110427   2.790   3.816  15.546 -0.5925 -0.2442  0.1766
  701TMC3    O210428   2.724   3.506  15.170  0.3334  0.1104 -0.0107
  702MPD2     C10429   2.761   0.646  10.876 -0.6763 -0.0637  1.0831
  702MPD2    C110430   2.751   0.724  10.987  0.0388 -0.1292 -0.1283
  702MPD2    C210431   2.821   0.840  10.989  0.1001  0.4356  0.4443
  702MPD2    C310432   2.867   0.897  10.868 -0.7585  0.2227 -0.7362
  702MPD2    C410433   2.878   0.816  10.758  0.4529  0.2341 -0.2775
  702MPD2    C510434   2.828   0.689  10.767 -0.1271  0.1902 -0.6737
  702MPD2     H10435   2.800   0.898  11.078 -0.8238 -0.8673  1.0754
  702MPD2    H110436   2.915   0.851  10.663  2.3271 -0.4685  0.1912
  702MPD2    H210437   2.716   0.547  10.870 -1.3841  0.2484  1.2817
  702MPD2    H310438   2.825   0.633  10.674  3.6448 -1.5700  0.2804
  702MPD2     N10439   2.919   1.028  10.853  0.6273 -0.0059 -0.0377
  702MPD2    H510440   2.940   1.062  10.759  1.5799  1.4014  0.6834
  702MPD2    N110441   2.657   0.696  11.097 -0.3877  0.5080 -0.3002
  702MPD2    H710442   2.662   0.755  11.180  1.0564  1.0643 -0.7735
  703TMC3    C110443   2.888   1.257  10.873  0.3812 -0.6797 -0.5816
  703TMC3    C210444   2.814   1.346  10.941 -0.4621  0.0277 -0.6691
  703TMC3    C310445   2.826   1.474  10.904 -0.2152  0.3148 -0.1169
  703TMC3    C410446   2.967   1.281  10.767 -0.3714  1.4491 -0.4269
  703TMC3    C510447   2.982   1.412  10.744  0.2078 -0.3553 -0.1175
  703TMC3    C610448   2.908   1.509  10.805  0.1861  0.3658 -0.3078
  703TMC3     C10449   2.900   1.129  10.942 -0.1075  0.5519  0.1053
  703TMC3     O10450   2.858   1.117  11.058 -0.6131 -0.4545  0.4263
  703TMC3     H10451   2.759   1.316  11.030  2.1223  0.0305  0.9223
  703TMC3    H110452   3.030   1.215  10.708 -1.2169  0.0421  0.2458
  703TMC3    H210453   2.928   1.616  10.796 -0.1339  0.4741  0.2838
  703TMC3    C710454   3.063   1.456  10.633 -0.1346  0.6244  0.4979
  703TMC3    C810455   2.775   1.579  10.994 -0.6793  0.1377  0.0765
  703TMC3    O110456   3.172   1.404  10.614  0.2716 -0.4320  0.0272
  703TMC3    O210457   2.835   1.685  10.991 -0.6075 -0.6647  0.2932
  704TMC3    C110458   0.347   3.763  12.729  0.2465  0.8606 -0.2773
  704TMC3    C210459   0.433   3.775  12.626  0.0484 -0.1270 -0.1866
  704TMC3    C310460   0.546   3.696  12.626 -0.0072 -0.2056  0.2800
  704TMC3    C410461   0.359   3.663  12.821 -0.0149  0.1121 -0.4023
  704TMC3    C510462   0.455   3.570  12.798 -0.3737  0.0171 -0.1071
  704TMC3    C610463   0.564   3.592  12.719 -0.2966 -0.0772 -0.5713
  704TMC3     C10464   0.229   3.851  12.744 -0.3832  0.2171  0.1946
  704TMC3     O10465   0.184   3.869  12.857 -0.4229  0.4828  0.0098
  704TMC3     H10466   0.422   3.853  12.551  0.3445  0.8340  0.7679
  704TMC3    H110467   0.284   3.651  12.898  0.9067  2.3883  0.8606
  704TMC3    H210468   0.633   3.511  12.700  3.1566  2.5349  0.8215
  704TMC3    C710469   0.406   3.436  12.802  0.1068  0.2430  0.8985
  704TMC3    C810470   0.598   3.657  12.500  0.0240  0.2864  0.2467
  704TMC3    O110471   0.446   3.361  12.716  0.0292  0.5787 -0.3832
  704TMC3    O210472   0.516   3.651  12.405 -0.0357 -0.0102 -0.0410
  705MPD2     C10473   4.237   2.134  16.467  0.0936  0.8196 -0.4398
  705MPD2    C110474   4.237   2.264  16.434 -0.6616 -0.3535  0.1599
  705MPD2    C210475   4.124   2.332  16.401  0.4780 -0.7353  0.7558
  705MPD2    C310476   4.000   2.264  16.409  0.5465 -0.2481 -0.1934
  705MPD2    C410477   3.996   2.135  16.447 -0.1835  0.0272 -0.3988
  705MPD2    C510478   4.112   2.066  16.458 -0.8628  0.0655 -0.0664
  705MPD2     H10479   4.123   2.440  16.390  0.7450 -0.6863  1.2104
  705MPD2    H110480   3.898   2.090  16.457 -0.4057  0.1921 -1.7232
  705MPD2    H210481   4.324   2.078  16.498  0.7410  1.6770 -0.7091
  705MPD2    H310482   4.113   1.960  16.479 -0.3874 -0.2156 -1.5558
  705MPD2     N10483   3.880   2.336  16.399  0.6733 -0.0931 -0.1068
  705MPD2    H510484   3.792   2.289  16.381  1.5871 -0.8931 -2.4678
  705MPD2    N110485   4.353   2.342  16.434 -0.2727 -0.0468 -0.3835
  705MPD2    H710486   4.342   2.437  16.400 -0.8190 -0.1031 -0.3671
  706TMC3    C110487   4.716   2.416  16.236  0.6279 -0.5022 -0.0856
  706TMC3    C210488   4.678   2.548  16.215  0.2648  0.2118  0.2361
  706TMC3    C310489   4.613   2.607  16.316  0.6891  0.2245 -0.2895
  706TMC3    C410490   4.681   2.340  16.342 -0.0311  0.2132 -0.6331
  706TMC3    C510491   4.590   2.398  16.423  0.0224 -0.0295 -0.3408
  706TMC3    C610492   4.553   2.530  16.415  0.5726 -0.0060  0.4014
  706TMC3     C10493   0.055   2.347  16.136 -0.6769  0.4306 -0.4630
  706TMC3     O10494   0.132   2.261  16.178 -0.1821 -0.3258 -0.1542
  706TMC3     H10495   4.724   2.606  16.136  0.2105  2.1896  1.6784
  706TMC3    H110496   4.703   2.234  16.344 -0.7800  0.0498 -1.1532
  706TMC3    H210497   4.479   2.574  16.480  0.7061  0.2916  0.3486
  706TMC3    C710498   4.483   2.300  16.462  0.0292 -0.4682 -0.1214
  706TMC3    C810499   4.592   2.758  16.312 -0.0731 -0.3734  0.2179
  706TMC3    O110500   4.511   2.183  16.485  0.3649 -0.1957  0.1184
  706TMC3    O210501   4.641   2.815  16.215 -0.1101 -0.1650 -0.4667
  707TMC3    C110502   0.521   0.445   1.551  0.5374 -0.8364  0.0921
  707TMC3    C210503   0.521   0.328   1.475  0.4040  0.8253  0.3295
  707TMC3    C310504   0.406   0.256   1.466  0.2640  0.0474 -0.1161
  707TMC3    C410505   0.404   0.495   1.608  0.1774  0.5010 -0.6585
  707TMC3    C510506   0.290   0.408   1.603 -0.1574  0.0051  0.0958
  707TMC3    C610507   0.294   0.288   1.538 -0.5553  0.0350 -0.0410
  707TMC3     C10508   0.637   0.531   1.517 -0.4388 -0.5636 -0.2193
  707TMC3     O10509   0.710   0.486   1.427 -0.2519 -0.1931 -0.0489
  707TMC3     H10510   0.615   0.301   1.428 -0.6570  0.8870 -1.8228
  707TMC3    H110511   0.403   0.578   1.678  1.5722  0.2150 -0.2950
  707TMC3    H210512   0.218   0.211   1.553 -0.8382  0.2121 -0.5880
  707TMC3    C710513   0.174   0.443   1.675  0.0215 -0.0841  0.0091
  707TMC3    C810514   0.411   0.113   1.422  0.2342  0.2438 -0.8273
  707TMC3    O110515   0.190   0.509   1.777  0.0093  0.2577  0.1280
  707TMC3    O210516   0.339   0.032   1.482  0.3008 -0.4869 -0.0412
  708MPD2     C10517   2.533   0.056  14.198 -0.0391  0.1421  0.8420
  708MPD2    C110518   2.433   0.140  14.154 -0.1758 -0.3110  1.1659
  708MPD2    C210519   2.387   0.240  14.237 -0.0036 -0.6345 -0.8777
  708MPD2    C310520   2.454   0.270  14.349 -0.4444 -0.3131  0.3291
  708MPD2    C410521   2.559   0.191  14.391  0.8481 -0.7514 -0.9602
  708MPD2    C510522   2.593   0.081  14.319  0.4959  0.1305  0.6579
  708MPD2     H10523   2.298   0.292  14.204  0.4575  0.2794 -0.6920
  708MPD2    H110524   2.613   0.218  14.481 -0.3392 -2.3008  0.2116
  708MPD2    H210525   2.582   4.719  14.139 -0.0841 -0.8049  2.0068
  708MPD2    H310526   2.681   0.022  14.341 -0.0524 -1.8646 -2.5116
  708MPD2     N10527   2.411   0.389  14.415  0.3998  0.3832  0.4673
  708MPD2    H510528   2.342   0.442  14.364 -0.8417  0.3656  2.1174
  708MPD2    N110529   2.392   0.111  14.023  0.0432 -0.0308  0.1011
  708MPD2    H710530   2.425   0.022  13.987  1.8884  0.2951  0.9636
  709TMC3    C110531   2.288   0.139  13.814  0.2371  0.0766 -0.0445
  709TMC3    C210532   2.406   0.112  13.751  0.2304  0.0776 -0.2705
  709TMC3    C310533   2.430   0.180  13.628 -0.0543 -0.1347 -0.2244
  709TMC3    C410534   2.190   0.223  13.756  0.0130  0.1504  0.0369
  709TMC3    C510535   2.223   0.288  13.638  0.0314  0.2307  0.1244
  709TMC3    C610536   2.340   0.263  13.569  0.4915  0.1992  0.0944
  709TMC3     C10537   2.295   0.175  13.960 -0.5899  0.1464 -0.1626
  709TMC3     O10538   2.229   0.275  13.988  0.2716  0.5729  0.7149
  709TMC3     H10539   2.474   0.039  13.792 -1.2946 -0.8603  0.5894
  709TMC3    H110540   2.102   0.240  13.818 -0.1582  0.5153 -0.3066
  709TMC3    H210541   2.363   0.310  13.474  0.0471 -3.0904 -1.6517
  709TMC3    C710542   2.213   0.432  13.641  0.3721  0.1489  1.1489
  709TMC3    C810543   2.548   0.147  13.552  0.1953 -0.1430  0.5273
  709TMC3    O110544   2.204   0.484  13.531  0.4853 -0.9258 -0.3279
  709TMC3    O210545   2.594   0.037  13.575 -0.0374 -0.1416 -0.2178
  710TMC3    C110546   3.036   2.473   0.249 -0.3893 -0.0770  1.2323
  710TMC3    C210547   3.059   2.449   0.117  0.2284 -0.4132  0.1708
  710TMC3    C310548   3.169   2.384   0.074 -0.6431 -0.5212  0.4464
  710TMC3    C410549   3.124   2.430   0.348 -0.2389  0.7848 -0.2063
  710TMC3    C510550   3.235   2.368   0.297 -0.3405 -0.1388 -0.2576
  710TMC3    C610551   3.261   2.346   0.162 -0.3920 -0.4564  0.6385
  710TMC3     C10552   2.898   2.489   0.284 -0.5591  0.6828 -0.2160
  710TMC3     O10553   2.820   2.494   0.190 -0.1253 -0.1735 -0.1683
  710TMC3     H10554   2.990   2.481   0.040  0.0957 -0.1696  0.3910
  710TMC3    H110555   3.113   2.446   0.454 -1.0660  0.6518 -0.2698
  710TMC3    H210556   3.359   2.312   0.129 -1.2628 -0.6304 -1.7148
  710TMC3    C710557   3.323   2.299   0.396 -0.0621  0.2006 -0.0444
  710TMC3    C810558   3.204   2.368  17.687 -0.5349  0.2812 -0.0231
  710TMC3    O110559   3.288   2.305   0.515  0.1347 -0.1088  0.5404
  710TMC3    O210560   3.324   2.353  17.660 -0.1580 -0.8240  0.6145
  711TMC3    C110561   3.559   3.518  15.008  0.1208 -0.2995 -0.1909
  711TMC3    C210562   3.612   3.596  15.099 -0.2656  0.5153  0.0005
  711TMC3    C310563   3.696   3.543  15.193  0.0575  0.4682  0.3387
  711TMC3    C410564   3.587   3.383  15.002  0.0539 -0.6173 -0.1608
  711TMC3    C510565   3.667   3.336  15.100  0.2117  0.5396 -0.1278
  711TMC3    C610566   3.723   3.413  15.196  0.0854  0.8565  0.1452
  711TMC3     C10567   3.417   3.535  15.009 -0.3251 -0.4479 -0.2638
  711TMC3     O10568   3.358   3.525  14.905 -0.4657 -0.3932 -0.2739
  711TMC3     H10569   3.592   3.703  15.090 -1.6937  0.1560 -1.1467
  711TMC3    H110570   3.522   3.331  14.933  3.1248 -1.7288 -2.1933
  711TMC3    H210571   3.794   3.363  15.260 -1.3201 -0.4380  0.6930
  711TMC3    C710572   3.644   3.196  15.137 -0.1430  0.1168 -0.4050
  711TMC3    C810573   3.700   3.612  15.324  0.3403 -0.8734  0.0612
  711TMC3    O110574   3.678   3.171  15.254 -0.1977 -0.4090 -0.9661
  711TMC3    O210575   3.601   3.684  15.344 -0.2839  0.2271 -0.2992
  712MPD2     C10576   0.263   3.880  14.062 -0.4774 -0.3596  0.2374
  712MPD2    C110577   0.170   3.956  13.995 -0.6018  0.1826 -0.1747
  712MPD2    C210578   0.179   4.091  14.004 -0.5140  0.5299  0.6144
  712MPD2    C310579   0.284   4.149  14.062 -0.2188 -0.0912  0.3194
  712MPD2    C410580   0.385   4.072  14.114  0.1714  0.7449  0.7693
  712MPD2    C510581   0.374   3.940  14.115  0.2211  0.3334  0.2541
  712MPD2     H10582   0.094   4.141  13.958 -1.4584 -0.6382  1.0875
  712MPD2    H110583   0.475   4.117  14.154  0.6609 -0.2270  0.7595
  712MPD2    H210584   0.253   3.772  14.066 -2.6961 -0.1323  0.7389
  712MPD2    H310585   0.452   3.874  14.149 -3.0954 -3.7534 -0.0913
  712MPD2     N10586   0.299   4.298  14.055 -0.5256  0.2455  0.0931
  712MPD2    H510587   0.373   4.333  14.114  0.2764 -1.0002 -0.1578
  712MPD2    N110588   0.060   3.902  13.937  0.2918 -0.0721 -0.8052
  712MPD2    H710589   4.732   3.965  13.893 -0.8758 -1.1154 -0.5384
  713TMC3    C110590   0.250   4.526  14.017  0.4519  0.7820  0.8230
  713TMC3    C210591   0.380   4.555  14.003  0.3976  0.9982  0.3316
  713TMC3    C310592   0.406   4.691  13.995 -0.2079  0.3933 -0.2341
  713TMC3    C410593   0.151   4.609  14.042 -0.1765  0.1150  0.5185
  713TMC3    C510594   0.179   4.738  14.035  0.3780  0.4312  0.4156
  713TMC3    C610595   0.305   0.048  14.008 -0.4495  0.5662  0.1554
  713TMC3     C10596   0.215   4.389  13.989 -0.0806  0.3708 -0.6819
  713TMC3     O10597   0.114   4.369  13.920 -0.4200  0.0737  0.0005
  713TMC3     H10598   0.455   4.483  13.971  0.8753  0.7813  1.9574
  713TMC3    H110599   0.051   4.569  14.052  0.3981 -1.1703  1.0415
  713TMC3    H210600   0.326   0.153  13.990 -0.3404  0.3845 -0.7910
  713TMC3    C710601   0.055   0.077  14.020  0.3085  0.3634  0.3825
  713TMC3    C810602   0.540   0.004  13.976 -0.3910  0.4068 -0.4805
  713TMC3    O110603   4.694   0.016  13.987  0.0304  0.0174  0.2372
  713TMC3    O210604   0.540   0.126  13.981  0.4388 -0.3984  0.0458
  714MPD2     C10605   1.679   2.702   1.724 -0.0232  0.1887 -0.3183
  714MPD2    C110606   1.722   2.710   1.591 -0.7195  0.2345  0.8221
  714MPD2    C210607   1.628   2.712   1.487 -0.2727 -0.2048  0.2708
  714MPD2    C310608   1.495   2.732   1.523 -0.3901 -0.5923 -0.0784
  714MPD2    C410609   1.457   2.753   1.650  0.5156 -0.9185  0.2522
  714MPD2    C510610   1.545   2.723   1.755  0.1067 -0.7678 -0.2421
  714MPD2     H10611   1.671   2.720   1.388 -0.6175  2.6723  0.3596
  714MPD2    H110612   1.360   2.786   1.685  0.5091 -0.0288 -0.5830
  714MPD2    H210613   1.752   2.682   1.802 -1.2063 -3.5922 -0.1816
  714MPD2    H310614   1.511   2.718   1.858 -0.2087  4.1522 -0.1503
  714MPD2     N10615   1.390   2.740   1.425 -0.3478 -0.0439  0.6155
  714MPD2    H510616   1.294   2.748   1.458 -0.2188  0.0290  0.9698
  714MPD2    N110617   1.863   2.704   1.568  0.2738 -0.7512  0.2768
  714MPD2    H710618   1.927   2.712   1.646  1.1407 -1.9099 -0.3076
  715TMC3    C110619   2.070   2.673   1.469  0.6516  0.1738 -0.0397
  715TMC3    C210620   2.146   2.591   1.388  0.5723  0.1608 -0.4135
  715TMC3    C310621   2.276   2.614   1.384 -0.2113 -0.0725 -0.1267
  715TMC3    C410622   2.119   2.764   1.550 -0.6002 -0.3798 -0.2934
  715TMC3    C510623   2.255   2.777   1.544  0.5121  0.6382 -0.1225
  715TMC3    C610624   2.339   2.706   1.460 -0.2841  0.0906  0.6351
  715TMC3     C10625   1.925   2.678   1.446 -0.3474  0.3945 -0.4800
  715TMC3     O10626   1.881   2.629   1.343 -0.4858 -0.2346  0.2020
  715TMC3     H10627   2.107   2.506   1.332 -1.0833  0.2802  0.5358
  715TMC3    H110628   2.061   2.840   1.602 -2.5884 -0.4131 -2.4522
  715TMC3    H210629   2.444   2.732   1.453 -0.2066 -1.1038 -2.6096
  715TMC3    C710630   2.317   2.860   1.648  0.5779 -0.5332  0.0477
  715TMC3    C810631   2.352   2.545   1.283 -0.3717  0.8164 -0.6793
  715TMC3    O110632   2.430   2.900   1.625 -0.5550 -0.2902  0.2686
  715TMC3    O210633   2.298   2.528   1.173  0.3245 -0.5953 -0.4247
  716MPD2     C10634   2.548   0.795  10.507 -0.1841  0.2582  0.0844
  716MPD2    C110635   2.598   0.834  10.382  0.2258  0.0599  0.2019
  716MPD2    C210636   2.666   0.740  10.309 -0.0165  0.3030  0.5832
  716MPD2    C310637   2.679   0.608  10.357  0.3229  0.2662  0.5164
  716MPD2    C410638   2.633   0.571  10.482 -0.2043 -0.1565  0.3009
  716MPD2    C510639   2.562   0.665  10.552 -0.1080  0.0911 -0.0378
  716MPD2     H10640   2.717   0.762  10.216 -1.9008 -0.1183 -0.5499
  716MPD2    H110641   2.643   0.471  10.524 -0.4635 -0.3804 -0.1710
  716MPD2    H210642   2.494   0.867  10.567 -0.8230 -0.5325  0.4538
  716MPD2    H310643   2.528   0.647  10.653  0.5502 -2.0358 -0.1824
  716MPD2     N10644   2.753   0.519  10.276 -0.2136 -0.1341  0.2057
  716MPD2    H510645   2.792   0.563  10.194 -0.4134  1.5109  0.9982
  716MPD2    N110646   2.574   0.970  10.348 -0.6270 -0.3718  0.1402
  716MPD2    H710647   2.512   1.028  10.405 -2.4789 -0.8451 -1.3921
  717TMC3    C110648   2.799   0.319  10.166  0.2265  0.1171 -0.1430
  717TMC3    C210649   2.794   0.395  10.051 -0.0672  0.4813  0.4129
  717TMC3    C310650   2.767   0.336   9.934  0.0004  0.1770 -0.6887
  717TMC3    C410651   2.799   0.185  10.164 -0.0425 -0.1608  0.3565
  717TMC3    C510652   2.775   0.123  10.041  0.5164  0.1013  0.5759
  717TMC3    C610653   2.749   0.198   9.926 -0.4132 -0.0121 -0.0469
  717TMC3     C10654   2.769   0.382  10.292 -0.0512 -0.4695 -0.5338
  717TMC3     O10655   2.747   0.312  10.392  0.0827 -0.6460  0.1808
  717TMC3     H10656   2.802   0.503  10.051 -2.8487  0.7010 -1.3993
  717TMC3    H110657   2.812   0.129  10.256 -1.6415 -0.9385  0.1099
  717TMC3    H210658   2.731   0.147   9.832  1.0525  2.0845 -1.4921
  717TMC3    C710659   2.749   4.714  10.044  0.4254  0.1745 -0.7861
  717TMC3    C810660   2.736   0.424   9.825  0.7475  0.0349  0.2272
  717TMC3    O110661   2.744   4.663  10.159  0.1752 -0.0480 -0.4529
  717TMC3    O210662   2.773   0.541   9.834 -0.7276  0.7900 -0.2043
  718MPD2     C10663   1.902   4.628  13.264  0.2966  0.1352 -0.6084
  718MPD2    C110664   1.808   4.605  13.161 -0.5652 -0.0991 -0.4003
  718MPD2    C210665   1.737   4.484  13.162  0.3754 -0.3740  0.1635
  718MPD2    C310666   1.769   4.388  13.255  0.0580 -0.0420  0.2149
  718MPD2    C410667   1.852   4.414  13.359  0.2746  0.6591  0.7144
  718MPD2    C510668   1.929   4.533  13.359 -0.1551  0.7577  0.0725
  718MPD2     H10669   1.670   4.457  13.082  0.0886  0.9168 -0.0344
  718MPD2    H110670   1.883   4.346  13.436 -3.0194 -2.1801 -0.4793
  718MPD2    H210671   1.968   4.713  13.265  3.1506 -2.0640 -2.5754
  718MPD2    H310672   1.996   4.554  13.442  0.3133  0.2479 -0.1791
  718MPD2     N10673   1.699   4.265  13.251  0.5525 -0.0180  0.1045
  718MPD2    H510674   1.635   4.254  13.173  3.2913 -0.0522 -2.1277
  718MPD2    N110675   1.803   4.694  13.050  0.5846 -0.2473  0.3308
  718MPD2    H710676   1.853   0.043  13.056 -1.0088  0.6220  0.9877
  719TMC3    C110677   1.735   0.034  12.838 -0.5492 -0.5877  0.0966
  719TMC3    C210678   1.674   4.710  12.732  0.3589 -0.0338  0.2199
  719TMC3    C310679   1.736   4.677  12.614 -0.1807  0.6016 -0.1466
  719TMC3    C410680   1.866   0.074  12.824 -0.1778 -0.1943  0.5212
  719TMC3    C510681   1.929   0.051  12.702 -0.3523 -0.7603  0.0401
  719TMC3    C610682   1.868   4.715  12.602 -0.0119  0.0307  0.4527
  719TMC3     C10683   1.706   4.682  12.945 -0.1452 -0.1835  0.3423
  719TMC3     O10684   1.624   4.597  12.917  1.0365 -0.1112  0.5131
  719TMC3     H10685   1.566   4.706  12.738  0.2998 -0.4905 -1.3629
  719TMC3    H110686   1.916   0.137  12.897  2.3054 -1.8006  0.2305
  719TMC3    H210687   1.927   4.686  12.517  1.6567  3.3726  0.4950
  719TMC3    C710688   2.073   0.080  12.689 -0.1009 -0.5591  0.3795
  719TMC3    C810689   1.720   4.547  12.558 -0.1206  0.1291 -0.7058
  719TMC3    O110690   2.117   0.038  12.583 -0.2140  0.5737  0.5611
  719TMC3    O210691   1.737   4.531  12.439  0.3549  0.5869 -0.5659
  720MPD2     C10692   4.400   1.688  13.941  0.7873  0.6438 -0.0905
  720MPD2    C110693   4.507   1.708  13.859  0.3813  0.2026  0.0294
  720MPD2    C210694   4.624   1.646  13.906 -0.6728  0.3452 -0.4994
  720MPD2    C310695   4.633   1.568  14.012 -0.3142  0.4852  0.4640
  720MPD2    C410696   4.530   1.553  14.102 -0.6440 -0.2881  0.5436
  720MPD2    C510697   4.411   1.604  14.055 -0.5746  0.2400 -0.1705
  720MPD2     H10698   4.711   1.668  13.845 -1.2346  1.6454 -0.8486
  720MPD2    H110699   4.534   1.497  14.195  0.1573 -3.2909 -1.3156
  720MPD2    H210700   4.299   1.721  13.919 -0.1480 -1.9609  0.3208
  720MPD2    H310701   4.315   1.590  14.104 -0.7089 -1.4215 -0.9148
  720MPD2     N10702   0.031   1.525  14.030 -0.3587  0.0952 -0.3651
  720MPD2    H510703   0.107   1.541  13.964 -0.9193 -0.7636 -1.2052
  720MPD2    N110704   4.503   1.786  13.742 -0.3280  0.0599  0.0677
  720MPD2    H710705   4.590   1.795  13.691 -1.7856  1.1120 -2.1776
  721TMC3    C110706   0.219   1.447  14.146  0.2807  0.6881  0.9198
  721TMC3    C210707   0.273   1.425  14.271 -0.3801 -0.2537  0.5396
  721TMC3    C310708   0.412   1.410  14.284  0.6692  0.1075  0.6591
  721TMC3    C410709   0.303   1.471  14.040  0.9516 -0.4905 -0.6984
  721TMC3    C510710   0.436   1.455  14.053  0.6928 -0.1910  0.3330
  721TMC3    C610711   0.492   1.427  14.170 -0.4865  0.1872 -0.1511
  721TMC3     C10712   0.077   1.472  14.147 -0.0112 -0.4526  0.0965
  721TMC3     O10713   0.012   1.429  14.241 -0.2514  0.3405  0.9909
  721TMC3     H10714   0.212   1.402  14.357  0.6428 -0.9416  1.0744
  721TMC3    H110715   0.266   1.502  13.943  0.1682 -1.9300 -0.8585
  721TMC3    H210716   0.600   1.427  14.181 -0.6394 -0.8222  1.4589
  721TMC3    C710717   0.524   1.493  13.945  0.0691 -0.6068 -0.0879
  721TMC3    C810718   0.460   1.370  14.417  0.4936 -0.1392  0.2620
  721TMC3    O110719   0.629   1.541  13.976 -0.1687  0.2198  0.3777
  721TMC3    O210720   0.383   1.401  14.509 -0.7868  0.1481 -0.4605
  722MPD2     C10721   3.972   4.575  13.606  0.1395 -0.1490 -0.1176
  722MPD2    C110722   3.925   4.692  13.546 -0.4808  0.4591  0.0688
  722MPD2    C210723   3.813   4.688  13.470  0.0189  0.1599 -0.3463
  722MPD2    C310724   3.740   4.567  13.456  0.1700  0.3769  0.0154
  722MPD2    C410725   3.785   4.455  13.515 -0.3989 -0.3419 -0.7566
  722MPD2    C510726   3.898   4.457  13.590  0.5221  0.3950 -0.0683
  722MPD2     H10727   3.780   0.045  13.430  1.7227  0.7472 -0.3610
  722MPD2    H110728   3.730   4.361  13.511 -0.2138 -0.4431 -0.9011
  722MPD2    H210729   4.068   4.565  13.656  0.4706  0.9669 -0.5225
  722MPD2    H310730   3.939   4.368  13.636 -0.9692  0.7990  2.0213
  722MPD2     N10731   3.613   4.577  13.408  0.2417  0.6949 -0.4720
  722MPD2    H510732   3.583   4.674  13.399  1.4617  1.2640  1.7250
  722MPD2    N110733   3.994   0.079  13.552 -0.0181  0.0596 -0.7983
  722MPD2    H710734   3.946   0.156  13.507  0.9231  2.6494  2.6646
  723TMC3    C110735   3.405   4.520  13.331 -0.2374 -0.4888  0.2552
  723TMC3    C210736   3.286   4.453  13.349  0.2724 -0.8512 -0.0887
  723TMC3    C310737   3.178   4.529  13.342 -0.2346 -0.2518  0.3538
  723TMC3    C410738   3.415   4.640  13.270  0.6204  0.2005  0.2451
  723TMC3    C510739   3.297   4.707  13.264  0.1699  1.1414  0.4540
  723TMC3    C610740   3.180   4.664  13.311  0.1013  0.8020  0.0881
  723TMC3     C10741   3.527   4.475  13.386  0.2267  0.6081 -0.5446
  723TMC3     O10742   3.530   4.350  13.400 -0.2882  0.1802 -0.2823
  723TMC3     H10743   3.281   4.361  13.405 -0.4180 -0.4808  0.4604
  723TMC3    H110744   3.507   4.675  13.225  0.0430 -0.3086 -1.3253
  723TMC3    H210745   3.083   4.711  13.301 -0.0904  0.2558 -0.6971
  723TMC3    C710746   3.296   0.093  13.195  0.1383  0.9744  0.1427
  723TMC3    C810747   3.054   4.457  13.356  0.2544 -0.4562 -0.3207
  723TMC3    O110748   3.388   0.108  13.113 -0.4360  0.6086  0.0754
  723TMC3    O210749   2.956   4.507  13.401  0.2423  0.0231  0.0758
  724TMC3    C110750   4.667   2.874  10.762 -0.0577 -0.4331 -0.1263
  724TMC3    C210751   4.631   2.908  10.633  0.0227 -0.4549  0.9261
  724TMC3    C310752   4.641   3.042  10.594  0.0508  0.3283  0.1866
  724TMC3    C410753   4.703   2.970  10.857  0.9965 -0.1012 -0.0892
  724TMC3    C510754   4.709   3.094  10.808 -0.4572  0.6213  0.5579
  724TMC3    C610755   4.680   3.134  10.683  0.5023 -0.5136  0.0149
  724TMC3     C10756   4.607   2.750  10.805 -0.5072 -0.2535  0.1275
  724TMC3     O10757   4.530   2.699  10.728  0.1155 -0.2885 -0.0372
  724TMC3     H10758   4.576   2.846  10.563 -0.0574  0.3780  0.2523
  724TMC3    H110759   4.728   2.957  10.962 -0.8616  0.8612  0.4687
  724TMC3    H210760   4.697   3.238  10.660 -1.0908  0.5055  3.4501
  724TMC3    C710761   0.078   3.171  10.865 -0.0728 -0.5826  0.3837
  724TMC3    C810762   4.622   3.072  10.450  0.4677  0.3685 -0.1454
  724TMC3    O110763   0.188   3.135  10.839  0.5077 -0.0927  0.3027
  724TMC3    O210764   4.597   2.984  10.367 -0.5314 -0.0362  0.3933
  725TMC3    C110765   1.026   1.584  12.762  0.0520  0.2078  0.1872
  725TMC3    C210766   0.913   1.605  12.686  0.3046  0.2680 -0.0008
  725TMC3    C310767   0.876   1.498  12.602  0.1805  0.6913  0.1400
  725TMC3    C410768   1.094   1.469  12.762 -0.3245 -0.0337 -1.0857
  725TMC3    C510769   1.047   1.361  12.689 -0.0861  0.5164  0.3293
  725TMC3    C610770   0.933   1.374  12.612 -0.6470  0.5158  0.0274
  725TMC3     C10771   1.058   1.696  12.852 -0.6966 -0.1836 -0.2321
  725TMC3     O10772   1.057   1.806  12.800  0.0886 -0.3889 -0.2337
  725TMC3     H10773   0.872   1.705  12.677 -0.5473 -0.0582  0.2761
  725TMC3    H110774   1.187   1.451  12.815 -0.1688  0.1685 -1.2894
  725TMC3    H210775   0.907   1.302  12.535 -0.0312  0.7381 -0.3855
  725TMC3    C710776   1.135   1.243  12.686  0.2064  0.0490  0.3218
  725TMC3    C810777   0.780   1.522  12.493  0.0637 -0.7161  0.3134
  725TMC3    O110778   1.254   1.250  12.710 -0.3797  0.6348 -0.6144
  725TMC3    O210779   0.712   1.426  12.456  0.4982 -0.2559 -0.0540
  726MPD2     C10780   3.618   3.262  10.359 -0.2511  0.4419  0.2765
  726MPD2    C110781   3.524   3.339  10.420 -0.7378  0.5275  0.2650
  726MPD2    C210782   3.421   3.284  10.490 -0.2012 -0.6496  0.0266
  726MPD2    C310783   3.425   3.145  10.513  0.2725 -0.2658  0.1899
  726MPD2    C410784   3.530   3.069  10.464  0.9345  0.3156 -0.2068
  726MPD2    C510785   3.630   3.128  10.391  0.0631 -0.5407 -0.5109
  726MPD2     H10786   3.347   3.347  10.538  0.4313  1.3834 -1.7256
  726MPD2    H110787   3.526   2.961  10.474 -0.1014  0.6158  2.5031
  726MPD2    H210788   3.692   3.309  10.295 -0.8627  2.1956  0.8509
  726MPD2    H310789   3.707   3.067  10.344  2.4016  1.3160  0.9204
  726MPD2     N10790   3.349   3.082  10.613 -0.4461 -0.0112 -0.7099
  726MPD2    H510791   3.375   2.986  10.635 -1.9272 -0.3582 -0.4664
  726MPD2    N110792   3.526   3.478  10.423  0.1116  0.2375 -0.7675
  726MPD2    H710793   3.441   3.517  10.462 -0.2542 -0.3159 -1.0026
  727TMC3    C110794   3.610   3.695  10.418  0.4146 -0.4896 -0.2202
  727TMC3    C210795   3.708   3.780  10.447  0.1881  0.0256 -0.2539
  727TMC3    C310796   3.674   3.912  10.482 -0.9745 -0.0969 -0.2761
  727TMC3    C410797   3.480   3.736  10.399 -0.0364  0.2354 -0.2283
  727TMC3    C510798   3.450   3.869  10.421 -0.1528 -0.7532 -0.1855
  727TMC3    C610799   3.542   3.957  10.472  0.4850 -0.2287 -0.1409
  727TMC3     C10800   3.636   3.553  10.407 -0.2585 -0.0115  0.5795
  727TMC3     O10801   3.750   3.509  10.417  0.4043 -0.7437 -0.1489
  727TMC3     H10802   3.806   3.734  10.455  0.3739  0.7008  1.4844
  727TMC3    H110803   3.401   3.670  10.367  0.9309 -0.3324 -1.4278
  727TMC3    H210804   3.529   4.057  10.511  0.7289  0.6015 -2.2136
  727TMC3    C710805   3.311   3.900  10.414 -0.3697  0.2618 -0.0032
  727TMC3    C810806   3.779   3.985  10.549  0.7877 -1.0621  0.5441
  727TMC3    O110807   3.235   3.811  10.381  0.7059 -0.0872  0.1492
  727TMC3    O210808   3.886   3.920  10.553 -0.3440  0.1092  0.3102
  728TMC3    C110809   2.449   2.008  15.103  0.2586  0.6177  0.3000
  728TMC3    C210810   2.523   1.951  15.202  0.0559  0.0873  0.4778
  728TMC3    C310811   2.657   1.965  15.189 -0.2475 -0.6373 -0.9039
  728TMC3    C410812   2.513   2.079  15.001  0.0095  0.2475 -0.1554
  728TMC3    C510813   2.651   2.092  14.998  0.1997  0.7220 -0.4479
  728TMC3    C610814   2.728   2.029  15.091 -0.9148 -0.2870 -0.5201
  728TMC3     C10815   2.308   2.023  15.110  0.1498  0.0402 -0.2905
  728TMC3     O10816   2.262   2.119  15.047  0.1155 -0.6484  0.6625
  728TMC3     H10817   2.487   1.905  15.293  0.2567 -1.3694 -0.1699
  728TMC3    H110818   2.459   2.135  14.925  0.6292  0.6201 -0.3217
  728TMC3    H210819   2.833   2.056  15.090 -0.6224 -1.4773 -1.1082
  728TMC3    C710820   2.701   2.222  14.954  0.4267  0.1708  0.5375
  728TMC3    C810821   2.742   1.903  15.294  0.4420  0.5051  0.2473
  728TMC3    O110822   2.760   2.291  15.039  0.1708  0.2350  0.7124
  728TMC3    O210823   2.687   1.907  15.404 -0.0687 -0.6458 -0.4865
  729MPD2     C10824   4.464   3.476  16.670  0.5600 -0.1151 -0.1108
  729MPD2    C110825   4.521   3.368  16.728  0.1161  0.4887 -0.1831
  729MPD2    C210826   4.470   3.323  16.846 -0.9033  0.5102 -0.0175
  729MPD2    C310827   4.386   3.398  16.923  0.8581 -0.0156 -0.5300
  729MPD2    C410828   4.327   3.514  16.857  0.2702  0.4532 -0.6671
  729MPD2    C510829   4.362   3.546  16.733 -1.2088 -0.0300  0.7686
  729MPD2     H10830   4.514   3.232  16.884  0.5319  0.7057 -1.1833
  729MPD2    H110831   4.244   3.566  16.904 -0.7028 -0.8626 -0.9266
  729MPD2    H210832   4.487   3.510  16.569  0.2340  0.5219  0.0361
  729MPD2    H310833   4.308   3.622  16.678  2.1073  1.5489 -0.3115
  729MPD2     N10834   4.350   3.371  17.060  0.3472 -0.6706  0.2552
  729MPD2    H510835   4.302   3.445  17.111  0.1371 -0.6120 -0.0274
  729MPD2    N110836   4.637   3.314  16.663  0.1415  0.1346  0.3179
  729MPD2    H710837   4.677   3.386  16.602 -0.9554 -0.3848 -1.0122
  730TMC3    C110838   4.329   3.254  17.260 -0.3423 -0.6584 -0.5680
  730TMC3    C210839   4.424   3.245  17.359  0.3963 -0.0836 -0.5484
  730TMC3    C310840   4.413   3.329  17.463 -0.5301 -0.0552 -1.0062
  730TMC3    C410841   4.220   3.336  17.273  0.7275 -0.7720 -0.0479
  730TMC3    C510842   4.215   3.418  17.375  1.0029 -0.6328 -0.6921
  730TMC3    C610843   4.304   3.409  17.479 -0.2187  0.9457 -0.0195
  730TMC3     C10844   4.375   3.251  17.127  0.3120 -0.4324 -0.0279
  730TMC3     O10845   4.445   3.156  17.090 -0.0049  0.1505  0.0022
  730TMC3     H10846   4.513   3.184  17.349  1.1293  0.7267  1.0434
  730TMC3    H110847   4.142   3.341  17.198 -0.1989  0.2831  0.9826
  730TMC3    H210848   4.290   3.465  17.571  1.5815  3.4643 -1.3009
  730TMC3    C710849   4.181   3.554  17.337  0.1060  0.1313  0.2480
  730TMC3    C810850   4.530   3.414  17.445  0.9650  0.1352 -0.1168
  730TMC3    O110851   4.177   3.580  17.215 -0.4136  0.3467  0.1370
  730TMC3    O210852   4.592   3.403  17.340  0.8018 -0.4690  0.1520
  731MPD2     C10853   0.555   0.249  12.324  0.0917  0.4967 -0.6575
  731MPD2    C110854   0.621   0.346  12.388 -0.0172  0.3737  0.0587
  731MPD2    C210855   0.667   0.319  12.516  0.0998  0.1908  0.4342
  731MPD2    C310856   0.635   0.209  12.585  0.3699  0.1941  0.1081
  731MPD2    C410857   0.551   0.120  12.528 -0.0838 -0.5960 -0.1409
  731MPD2    C510858   0.519   0.140  12.397  0.4343  0.2659  0.5552
  731MPD2     H10859   0.719   0.395  12.573  0.4492  0.7695 -0.6451
  731MPD2    H110860   0.521   0.027  12.575  1.5921 -1.4763 -0.8225
  731MPD2    H210861   0.532   0.255  12.219  1.2176 -4.0182 -1.1311
  731MPD2    H310862   0.463   0.059  12.352  1.6777  0.2643 -0.9904
  731MPD2     N10863   0.690   0.195  12.715  0.2272 -0.4540  0.4287
  731MPD2    H510864   0.745   0.275  12.746 -1.2119  0.5891  0.2776
  731MPD2    N110865   0.642   0.464  12.313  0.3162  0.4957  0.6806
  731MPD2    H710866   0.627   0.453  12.213 -0.9552  0.8465  0.8282
  732TMC3    C110867   0.716   0.682  12.271  0.0932 -0.1577  0.4009
  732TMC3    C210868   0.644   0.675  12.154  0.0608  0.0085 -0.2086
  732TMC3    C310869   0.671   0.771  12.061 -0.1985 -0.6675 -0.4731
  732TMC3    C410870   0.825   0.764  12.281 -0.1531  0.4863 -0.0631
  732TMC3    C510871   0.846   0.859  12.183  0.0876 -0.2968 -0.1298
  732TMC3    C610872   0.772   0.863  12.070  0.1728 -0.1386  0.4036
  732TMC3     C10873   0.704   0.577  12.369  0.6545  0.1439 -0.8234
  732TMC3     O10874   0.749   0.599  12.481 -0.4145  0.4875  0.1276
  732TMC3     H10875   0.566   0.601  12.144 -1.0128  1.0163  0.6969
  732TMC3    H110876   0.885   0.771  12.371  0.0228  2.8747 -0.3716
  732TMC3    H210877   0.774   0.939  11.993 -1.7866 -0.8501 -0.3440
  732TMC3    C710878   0.955   0.954  12.191 -1.1545  0.3795  0.2533
  732TMC3    C810879   0.575   0.775  11.950 -0.0769 -0.3974  0.7228
  732TMC3    O110880   0.917   1.070  12.181  0.2700  0.1825 -0.3187
  732TMC3    O210881   0.611   0.822  11.840  0.1993 -0.0444 -0.5959
  733TMC3    C110882   1.451   3.924  13.243  0.3344 -0.8074 -0.0827
  733TMC3    C210883   1.533   3.997  13.329 -0.7949 -0.0479 -0.3329
  733TMC3    C310884   1.658   4.037  13.287 -0.3932  0.7719  0.0369
  733TMC3    C410885   1.487   3.906  13.107  0.6451 -0.0180  0.4428
  733TMC3    C510886   1.614   3.935  13.076 -0.5130  0.8955 -0.0204
  733TMC3    C610887   1.691   4.010  13.157  0.0471  0.0592  0.2406
  733TMC3     C10888   1.312   3.899  13.272  0.7853 -0.2258  0.4252
  733TMC3     O10889   1.251   3.852  13.177  0.3897 -0.2406 -0.2059
  733TMC3     H10890   1.502   4.027  13.428 -2.3358 -1.3595 -0.4181
  733TMC3    H110891   1.428   3.862  13.027 -1.4654  1.1053  1.4079
  733TMC3    H210892   1.791   4.027  13.119 -0.3441  0.6171 -0.5522
  733TMC3    C710893   1.658   3.933  12.939 -0.0513  0.6399  0.1175
  733TMC3    C810894   1.711   4.162  13.338 -0.4017 -0.0741 -0.0811
  733TMC3    O110895   1.715   3.837  12.887  0.2913  0.2244 -0.3154
  733TMC3    O210896   1.750   4.161  13.455  0.3597 -0.1434  0.0015
  734MPD2     C10897   3.307   1.480  12.799  0.0143  0.3058 -0.8182
  734MPD2    C110898   3.236   1.415  12.703  0.5017 -1.0665  1.0244
  734MPD2    C210899   3.231   1.477  12.576 -0.5724  0.7469 -0.0464
  734MPD2    C310900   3.275   1.606  12.561  0.4758 -0.0636 -0.6613
  734MPD2    C410901   3.336   1.672  12.666 -1.1111  0.1171 -0.0685
  734MPD2    C510902   3.357   1.606  12.789  0.2932 -0.3741  0.5421
  734MPD2     H10903   3.188   1.432  12.488 -0.3002 -0.0565  0.2337
  734MPD2    H110904   3.367   1.775  12.652  0.1945 -0.4993 -1.7446
  734MPD2    H210905   3.322   1.436  12.897  1.7597 -0.2536 -1.3394
  734MPD2    H310906   3.398   1.658  12.875 -0.8078 -0.2994  1.0214
  734MPD2     N10907   3.248   1.665  12.434 -0.1373 -0.3269 -0.4419
  734MPD2    H510908   3.216   1.604  12.358  0.7491 -1.2829 -0.0464
  734MPD2    N110909   3.183   1.287  12.733  0.0477 -0.0488  0.7402
  734MPD2    H710910   3.204   1.241  12.821 -0.3721  0.3734  1.0573
  735TMC3    C110911   3.039   1.101  12.696  0.3073  0.2394  0.4048
  735TMC3    C210912   2.931   1.063  12.622  0.3635  0.3320  0.0133
  735TMC3    C310913   2.923   0.958  12.536  0.0824  0.1576  0.5989
  735TMC3    C410914   3.144   1.015  12.678  0.7938  0.1791  0.3619
  735TMC3    C510915   3.138   0.909  12.593  0.3067  0.7782 -0.2630
  735TMC3    C610916   3.028   0.870  12.522 -0.6080  0.2111 -0.2699
  735TMC3     C10917   3.084   1.229  12.655  0.4695  0.0216  0.0652
  735TMC3     O10918   3.020   1.274  12.559 -0.1123  0.1709 -0.1522
  735TMC3     H10919   2.843   1.126  12.626 -0.1195 -0.2437 -1.7904
  735TMC3    H110920   3.243   1.047  12.705  0.7823 -0.1374  0.7802
  735TMC3    H210921   3.031   0.800  12.439  0.3720 -2.3865  1.9737
  735TMC3    C710922   3.259   0.870  12.534 -0.0460 -0.3583 -0.3776
  735TMC3    C810923   2.863   0.994  12.413 -0.1960  0.2781  0.0094
  735TMC3    O110924   3.333   0.960  12.500 -0.1671  0.6338 -0.8509
  735TMC3    O210925   2.815   0.899  12.356 -0.6553 -0.2154  0.0795
  736MPD2     C10926   3.387   0.530  12.508 -0.4397  0.6857 -0.1779
  736MPD2    C110927   3.393   0.664  12.504  0.2829  0.0103  0.0323
  736MPD2    C210928   3.508   0.730  12.450  0.5415 -0.0673  0.2442
  736MPD2    C310929   3.625   0.655  12.417 -0.4366  0.4665  0.6910
  736MPD2    C410930   3.627   0.517  12.443  0.0057  0.2461 -0.4876
  736MPD2    C510931   3.504   0.456  12.485  0.2777  0.0360 -0.1991
  736MPD2     H10932   3.498   0.835  12.423 -1.3423 -0.2007  0.4179
  736MPD2    H110933   3.720   0.461  12.439 -0.3698 -0.4702  0.7362
  736MPD2    H210934   3.298   0.480  12.544 -0.1185  1.3301  1.5080
  736MPD2    H310935   3.501   0.349  12.498 -0.1190 -0.1527 -1.8476
  736MPD2     N10936   3.729   0.704  12.337 -0.3572 -0.4143 -0.1523
  736MPD2    H510937   3.803   0.637  12.318  3.0019  2.8220  1.5809
  736MPD2    N110938   3.278   0.728  12.540 -0.0944  0.2466 -0.2635
  736MPD2    H710939   3.199   0.675  12.576  0.7020 -0.6802  0.1034
  737TMC3    C110940   3.832   0.833  12.156 -0.3310 -0.5238 -0.0709
  737TMC3    C210941   3.881   0.956  12.121  0.4399 -0.5223  0.1346
  737TMC3    C310942   3.986   0.968  12.036  0.6890  1.0115 -0.5000
  737TMC3    C410943   3.878   0.718  12.095 -0.3945  0.3302  0.0840
  737TMC3    C510944   3.964   0.746  11.994 -0.4997 -0.0057  0.1212
  737TMC3    C610945   4.030   0.863  11.966  0.4197  0.0091  0.1074
  737TMC3     C10946   3.727   0.820  12.260  0.1917 -0.2585 -0.0487
  737TMC3     O10947   3.659   0.916  12.277 -0.3472  0.1789 -0.1330
  737TMC3     H10948   3.826   1.039  12.165 -0.6460 -0.9583 -0.3887
  737TMC3    H110949   3.848   0.617  12.119 -1.4404  0.8791  1.1029
  737TMC3    H210950   4.118   0.865  11.903  0.7643  0.1182  0.5888
  737TMC3    C710951   4.018   0.630  11.925  0.1166 -0.1238  0.1633
  737TMC3    C810952   4.035   1.099  12.018  0.6478 -0.0102 -0.2770
  737TMC3    O110953   4.012   0.517  11.976 -0.1688  0.1023  0.0959
  737TMC3    O210954   4.034   1.165  12.117 -0.4043  0.0060  0.3324
  738MPD2     C10955   4.257   0.565  15.650 -0.3090  0.2766 -0.0610
  738MPD2    C110956   4.234   0.489  15.533  0.3804 -0.5701  0.2400
  738MPD2    C210957   4.337   0.469  15.439  0.1848 -0.2395 -0.3047
  738MPD2    C310958   4.462   0.527  15.463  0.5163 -0.3516 -0.4616
  738MPD2    C410959   4.478   0.605  15.573 -0.6922  0.0497 -0.2851
  738MPD2    C510960   4.379   0.613  15.668  0.1284  0.3163  0.1278
  738MPD2     H10961   4.310   0.411  15.351  1.4031  0.6944 -1.2994
  738MPD2    H110962   4.574   0.645  15.604 -1.0559  1.1100 -0.5230
  738MPD2    H210963   4.181   0.590  15.723  2.3752  1.7961  2.2053
  738MPD2    H310964   4.399   0.675  15.754 -2.8202 -1.0140  1.7459
  738MPD2     N10965   4.563   0.509  15.367  0.0769  0.1711  0.0047
  738MPD2    H510966   4.660   0.531  15.390  0.3195 -0.8336 -0.0493
  738MPD2    N110967   4.106   0.426  15.503  0.4731  0.0795  0.6151
  738MPD2    H710968   4.111   0.362  15.424 -1.6683 -0.6102  1.0274
  739TMC3    C110969   4.665   0.465  15.151  0.1778 -0.2464 -0.0932
  739TMC3    C210970   4.646   0.516  15.027  0.6030  0.5973  0.2941
  739TMC3    C310971   0.018   0.531  14.950 -0.1875 -0.1613 -0.4112
  739TMC3    C410972   0.047   0.409  15.197  0.2849  0.4104  0.3718
  739TMC3    C510973   0.147   0.409  15.109 -0.0173 -0.2063 -0.2893
  739TMC3    C610974   0.135   0.470  14.988 -0.0321  1.1066  0.0734
  739TMC3     C10975   4.545   0.471  15.237  0.1758  0.9078  0.2658
  739TMC3     O10976   4.445   0.462  15.168  0.2816  0.5879 -0.3387
  739TMC3     H10977   4.551   0.555  14.994  0.3897  1.5836  2.0944
  739TMC3    H110978   0.058   0.371  15.298 -0.6146 -0.1884  0.2451
  739TMC3    H210979   0.202   0.450  14.905  0.4007  1.2122  0.4024
  739TMC3    C710980   0.275   0.343  15.141  0.7793  0.9382  0.2105
  739TMC3    C810981   4.737   0.595  14.824  0.1578 -0.1411 -0.5538
  739TMC3    O110982   0.268   0.268  15.239  0.1141  0.4369 -0.4995
  739TMC3    O210983   4.622   0.617  14.792 -0.8026  0.0622  0.5399
  740TMC3    C110984   4.548   1.800  14.305 -0.1482  0.2665 -0.2280
  740TMC3    C210985   4.566   1.704  14.404 -0.2824 -0.7583 -0.8258
  740TMC3    C310986   4.688   1.649  14.420 -0.1575 -0.4517 -0.9075
  740TMC3    C410987   4.641   1.851  14.221  0.3020  0.5454  0.1209
  740TMC3    C510988   0.027   1.796  14.254  0.6510  0.5614 -0.1184
  740TMC3    C610989   0.054   1.705  14.351  0.5559 -0.5237  0.2386
  740TMC3     C10990   4.434   1.893  14.320  0.5642 -0.0749 -0.7639
  740TMC3     O10991   4.420   1.995  14.253  0.3134  0.0574  0.4753
  740TMC3     H10992   4.491   1.677  14.478  0.4996  1.5201  0.7755
  740TMC3    H110993   4.621   1.937  14.157  0.4919  1.8802  1.8560
  740TMC3    H210994   0.151   1.682  14.393 -0.1228 -2.7195  0.6032
  740TMC3    C710995   0.134   1.823  14.160  0.3080 -0.4311 -0.6518
  740TMC3    C810996   4.718   1.562  14.531  0.6556 -0.2846  0.3414
  740TMC3    O110997   0.245   1.805  14.211 -0.0385 -0.4511 -0.3930
  740TMC3    O210998   0.093   1.564  14.568  0.0343  0.4118 -0.1373
  741TMC3    C110999   0.056   1.130  14.389  0.8042  0.3224 -0.1865
  741TMC3    C211000   4.657   1.136  14.379 -0.3240 -0.0125  0.1948
  741TMC3    C311001   4.583   1.106  14.489  0.0652 -0.7902 -0.6871
  741TMC3    C411002   0.116   1.070  14.499 -0.6810 -0.0031 -0.3561
  741TMC3    C511003   0.034   1.029  14.604 -0.4815 -0.2572 -0.5106
  741TMC3    C611004   4.637   1.051  14.601  0.0556  0.2075  0.3678
  741TMC3     C11005   0.137   1.108  14.266  0.6835 -0.3209  0.2330
  741TMC3     O11006   0.252   1.067  14.279 -0.7361  0.8456 -0.2047
  741TMC3     H11007   4.619   1.176  14.285  0.0054  1.5936  0.7329
  741TMC3    H111008   0.223   1.052  14.500 -0.9027 -1.2702  1.7691
  741TMC3    H211009   4.573   1.034  14.687  0.7684 -1.6412  0.5376
  741TMC3    C711010   0.110   0.997  14.727  0.1255 -0.0402  0.3363
  741TMC3    C811011   4.439   1.091  14.466  0.1845  0.4684 -0.1104
  741TMC3    O111012   0.232   0.999  14.727 -0.0002 -0.5705  0.9560
  741TMC3    O211013   4.398   1.152  14.369  0.0570 -0.2066  0.1215
  742TMC3    C111014   3.965   4.569  15.429 -0.4285  0.4502 -1.0598
  742TMC3    C211015   3.893   4.541  15.307  0.5650  0.3628 -0.0096
  742TMC3    C311016   3.957   4.460  15.217  0.3406  0.1087 -0.0201
  742TMC3    C411017   4.089   4.522  15.451  0.2818 -0.2696  0.2300
  742TMC3    C511018   4.137   4.440  15.358 -0.6541  0.3670  0.8257
  742TMC3    C611019   4.083   4.407  15.236 -0.2509 -0.3043  0.6705
  742TMC3     C11020   3.898   4.643  15.534  0.3940  0.2543  0.1222
  742TMC3     O11021   3.818   4.734  15.512  0.4194  0.1890  0.1363
  742TMC3     H11022   3.802   4.598  15.292  2.0286  2.5544 -0.5063
  742TMC3    H111023   4.150   4.556  15.534  1.0049  0.3990 -0.5779
  742TMC3    H211024   4.134   4.341  15.167 -0.2635  0.7535 -0.3519
  742TMC3    C711025   4.265   4.367  15.387  0.7255 -1.1147 -0.4084
  742TMC3    C811026   3.909   4.446  15.081 -0.1336  0.6792 -0.6401
  742TMC3    O111027   4.328   4.324  15.295  0.3221 -0.0231 -0.7774
  742TMC3    O211028   3.986   4.393  15.006 -0.6410  0.5080 -0.0993
  743MPD2     C11029   1.254   4.738   1.403  0.5740 -0.4344 -0.1837
  743MPD2    C111030   1.317   4.716   1.283  0.4563 -0.0375  0.1861
  743MPD2    C211031   1.457   4.686   1.280 -0.4319  1.0591  0.3856
  743MPD2    C311032   1.519   4.659   1.406  0.0162 -0.4007  0.2948
  743MPD2    C411033   1.447   4.667   1.521  0.1366 -0.3686 -0.4210
  743MPD2    C511034   1.318   4.712   1.524  0.7219  0.3462 -0.2265
  743MPD2     H11035   1.522   4.691   1.193  1.1477  0.6301  1.5526
  743MPD2    H111036   1.496   4.647   1.616 -0.3127  1.0971  0.1150
  743MPD2    H211037   1.149   0.021   1.411  0.5271 -0.9068  0.5095
  743MPD2    H311038   1.262   4.715   1.617  0.8127  0.4773 -0.1772
  743MPD2     N11039   1.654   4.620   1.403  0.1425  0.8627  0.2155
  743MPD2    H511040   1.716   4.634   1.325 -0.5151 -0.9367 -0.6436
  743MPD2    N111041   1.236   4.738   1.168 -0.4245  0.4132 -0.4502
  743MPD2    H711042   1.141   0.024   1.192 -0.0069  2.0764 -0.4755
  744TMC3    C111043   1.172   0.010   0.946  0.5174  0.3828 -0.7054
  744TMC3    C211044   1.052   4.694   0.973  0.8795 -0.1537 -0.3549
  744TMC3    C311045   0.946   4.719   0.892  0.1296  0.1232 -0.0019
  744TMC3    C411046   1.202   0.075   0.831 -0.2925  0.3805  0.0565
  744TMC3    C511047   1.097   0.102   0.753 -0.0442 -0.1045  0.8824
  744TMC3    C611048   0.973   0.048   0.770 -0.0965 -0.1393 -1.0313
  744TMC3     C11049   1.281   0.002   1.040  0.6136  0.2806  0.7487
  744TMC3     O11050   1.394   4.735   0.992  0.2993 -0.4197 -0.3322
  744TMC3     H11051   1.028   4.647   1.067  3.7820  0.2362  0.5766
  744TMC3    H111052   1.294   0.132   0.823 -0.9187  1.5473  1.1083
  744TMC3    H211053   0.888   0.070   0.707 -1.7188  1.7270  1.7953
  744TMC3    C711054   1.130   0.132   0.618 -0.1237 -0.9010 -0.8292
  744TMC3    C811055   0.808   4.692   0.942 -0.1332 -0.0482  0.1567
  744TMC3    O111056   1.224   0.213   0.598 -0.2433 -0.0679  0.0992
  744TMC3    O211057   0.715   0.021   0.899 -0.2894  0.2776 -0.1021
  745TMC3    C111058   4.628   3.757  13.897 -0.6355 -0.0052  0.0069
  745TMC3    C211059   4.511   3.741  13.968 -0.2894 -0.2284  0.0959
  745TMC3    C311060   4.388   3.776  13.915  0.1912 -0.0142  0.1727
  745TMC3    C411061   4.621   3.799  13.767  0.1181 -0.2533 -0.2245
  745TMC3    C511062   4.498   3.833  13.712 -0.5463 -0.3141  0.4465
  745TMC3    C611063   4.380   3.826  13.786 -0.5699 -0.5511 -0.9144
  745TMC3     C11064   0.011   3.780  13.965 -0.0639 -0.7486 -0.2561
  745TMC3     O11065   0.049   3.689  14.044 -0.0033  0.1177  0.0889
  745TMC3     H11066   4.518   3.682  14.059 -0.2041  0.1015  0.3041
  745TMC3    H111067   4.713   3.787  13.711  0.0047  2.0446 -0.8945
  745TMC3    H211068   4.283   3.841  13.739 -1.1164 -1.0384  0.0400
  745TMC3    C711069   4.492   3.883  13.577  0.0331  0.2107  0.3966
  745TMC3    C811070   4.314   3.870  13.995 -0.4475 -0.2325 -0.2954
  745TMC3    O111071   4.391   3.946  13.545  0.2458 -0.2053  0.3975
  745TMC3    O211072   4.212   3.921  13.951  0.4738 -0.4741 -0.1509
  746TMC3    C111073   2.328   0.852  11.262 -0.6497 -0.6105 -0.1163
  746TMC3    C211074   2.433   0.801  11.190  0.0109 -0.7508  0.1537
  746TMC3    C311075   2.447   0.668  11.176 -0.6643  0.2684 -0.4005
  746TMC3    C411076   2.241   0.772  11.328 -0.2161  0.4329  0.7742
  746TMC3    C511077   2.259   0.639  11.303  0.1425  0.2979 -0.1437
  746TMC3    C611078   2.354   0.580  11.223  0.9370  0.2449 -0.4644
  746TMC3     C11079   2.327   0.995  11.315 -0.0124 -0.3266 -0.8295
  746TMC3     O11080   2.227   1.035  11.370  0.1772 -0.1079 -0.7539
  746TMC3     H11081   2.492   0.867  11.127 -0.4447 -0.2084  0.2916
  746TMC3    H111082   2.154   0.812  11.379  0.0508  2.1695 -0.1520
  746TMC3    H211083   2.348   0.475  11.198 -1.4604  0.2085  0.3067
  746TMC3    C711084   2.166   0.561  11.372 -0.4106  0.1451 -0.8189
  746TMC3    C811085   2.554   0.620  11.091 -0.2967  0.4357  0.0792
  746TMC3    O111086   2.045   0.587  11.375  0.4951  0.4714  1.1772
  746TMC3    O211087   2.521   0.542  10.999  0.5335  0.6133 -0.2922
  747TMC3    C111088   4.530   0.955  11.205 -0.1623 -0.8612  0.3866
  747TMC3    C211089   4.512   0.831  11.248 -0.0612 -0.1192 -1.0476
  747TMC3    C311090   4.592   0.784  11.342 -0.1427 -0.4597 -0.4152
  747TMC3    C411091   4.628   1.041  11.252 -0.4441  0.8299  0.1153
  747TMC3    C511092   4.714   0.990  11.341 -0.0705  0.5355  0.2959
  747TMC3    C611093   4.685   0.871  11.400 -0.3296  0.3735  0.2526
  747TMC3     C11094   4.480   0.977  11.073  0.2046  0.3074 -0.3223
  747TMC3     O11095   4.444   1.087  11.048 -0.0692 -0.1699 -0.6618
  747TMC3     H11096   4.435   0.765  11.210 -0.5304  0.2156 -0.6755
  747TMC3    H111097   4.642   1.142  11.215  0.3072  1.2347  1.5374
  747TMC3    H211098   0.014   0.835  11.476  1.2880 -1.3749 -2.0216
  747TMC3    C711099   0.091   1.062  11.369 -0.0785  0.4181  0.2534
  747TMC3    C811100   4.553   0.669  11.427 -0.6603  0.7823 -0.3507
  747TMC3    O111101   0.086   1.181  11.360  0.0661 -0.1821  0.5401
  747TMC3    O211102   4.645   0.608  11.486 -0.0827 -0.0089  0.2125
  748MPD2     C11103   0.589   1.893   1.792 -0.4630  0.1722  0.7099
  748MPD2    C111104   0.651   1.769   1.757 -0.4322 -0.4225 -0.1995
  748MPD2    C211105   0.740   1.757   1.659  0.1370 -0.0978 -0.3299
  748MPD2    C311106   0.783   1.868   1.587  0.7345  0.5497  0.3667
  748MPD2    C411107   0.723   1.987   1.615 -0.2756 -0.3377  0.0919
  748MPD2    C511108   0.629   1.998   1.716  0.0954 -0.1163 -0.8432
  748MPD2     H11109   0.793   1.665   1.636  0.2183 -0.3492  0.8998
  748MPD2    H111110   0.740   2.077   1.557  1.7690 -0.7570  0.0156
  748MPD2    H211111   0.526   1.903   1.880 -0.3697 -0.3217  0.8394
  748MPD2    H311112   0.602   2.097   1.750  1.0996 -0.8488  2.0315
  748MPD2     N11113   0.874   1.848   1.481  0.1908  0.0717  0.1043
  748MPD2    H511114   0.905   1.753   1.465 -0.4455 -0.1550  0.1824
  748MPD2    N111115   0.595   1.657   1.821 -0.5957 -0.3252  0.1163
  748MPD2    H711116   0.500   1.668   1.854 -0.8080  0.6745 -0.8453
  749TMC3    C111117   1.007   1.897   1.284 -0.7952  0.0951  0.5400
  749TMC3    C211118   0.978   1.774   1.229 -0.2520 -0.2927 -0.4483
  749TMC3    C311119   1.014   1.746   1.098 -0.2871 -0.3506  0.6189
  749TMC3    C411120   1.064   1.998   1.210  1.4188 -0.9952 -0.2802
  749TMC3    C511121   1.103   1.959   1.086  0.5237 -0.5169 -0.0381
  749TMC3    C611122   1.086   1.837   1.028 -0.0753  0.3078 -0.6617
  749TMC3     C11123   0.931   1.946   1.404  0.1543 -0.7212 -0.1557
  749TMC3     O11124   0.931   2.068   1.415 -0.1780 -0.1000  0.3511
  749TMC3     H11125   0.925   1.706   1.295 -0.4476 -1.0402 -1.3679
  749TMC3    H111126   1.092   2.094   1.251 -1.0019 -0.5530  0.3691
  749TMC3    H211127   1.114   1.809   0.928  1.1804 -1.4439  0.1775
  749TMC3    C711128   1.198   2.051   1.026 -0.2936 -0.5872  0.5491
  749TMC3    C811129   1.067   1.612   1.076  0.0029 -0.0169  0.5487
  749TMC3    O111130   1.227   2.162   1.070 -0.3568  0.1883 -0.5235
  749TMC3    O211131   1.179   1.613   1.023  0.0229 -0.5316  0.0926
  750MPD2     C11132   2.814   3.062  11.557  0.0266  0.7338 -0.6659
  750MPD2    C111133   2.679   3.043  11.569  0.4074  0.1198  0.0162
  750MPD2    C211134   2.625   2.923  11.510  0.5887 -0.1631 -0.9026
  750MPD2    C311135   2.714   2.831  11.452  0.6201  0.2177  0.3014
  750MPD2    C411136   2.857   2.863  11.449  0.4073 -0.7591 -0.9681
  750MPD2    C511137   2.904   2.975  11.502  0.2680 -0.1224  0.2399
  750MPD2     H11138   2.518   2.912  11.514  0.7889 -0.6525  3.1806
  750MPD2    H111139   2.929   2.786  11.426  0.2297 -0.5347 -2.2812
  750MPD2    H211140   2.857   3.153  11.596 -0.5647  1.0412 -0.7378
  750MPD2    H311141   3.009   3.000  11.507  0.3415 -0.5748  0.8694
  750MPD2     N11142   2.677   2.712  11.389  0.1454 -0.4085  0.0950
  750MPD2    H511143   2.745   2.660  11.336  3.5913  1.7647  2.3412
  750MPD2    N111144   2.597   3.138  11.631 -0.3862 -0.5225 -0.0493
  750MPD2    H711145   2.645   3.227  11.647 -1.1170 -0.2735  0.7674
  751TMC3    C111146   2.517   2.534  11.355  0.2224  0.9897  0.0337
  751TMC3    C211147   2.378   2.505  11.374 -0.3210 -1.3749 -0.0370
  751TMC3    C311148   2.308   2.449  11.275  0.0880 -0.3347 -0.2170
  751TMC3    C411149   2.580   2.504  11.236  0.1632 -0.3607 -0.2400
  751TMC3    C511150   2.503   2.448  11.141  0.0017  0.4971 -0.6769
  751TMC3    C611151   2.370   2.426  11.156  0.6507 -0.6553  0.3973
  751TMC3     C11152   2.567   2.644  11.438  0.2361  1.2098 -0.8377
  751TMC3     O11153   2.502   2.665  11.540 -0.5158  0.0370 -0.4062
  751TMC3     H11154   2.335   2.504  11.474 -1.6307  2.2649 -0.5996
  751TMC3    H111155   2.688   2.496  11.226  0.3488 -0.9013  2.1280
  751TMC3    H211156   2.309   2.382  11.077  1.0357 -2.5509  1.1563
  751TMC3    C711157   2.563   2.342  11.061  0.6558  0.3928  0.0068
  751TMC3    C811158   2.216   2.340  11.302 -0.5103 -0.1679 -0.0428
  751TMC3    O111159   2.680   2.356  11.027 -0.7494  0.2997  0.1494
  751TMC3    O211160   2.252   2.244  11.240 -0.1410  0.4735  0.7855
  752TMC3    C111161   0.114   2.687  17.452  0.3653  0.6996  0.6689
  752TMC3    C211162   0.095   2.559  17.492 -0.0888 -0.0911 -0.0569
  752TMC3    C311163   4.710   2.521  17.533  0.9607  0.4813 -0.4347
  752TMC3    C411164   0.008   2.778  17.451  0.2849 -0.3054  0.0449
  752TMC3    C511165   4.627   2.733  17.487 -0.2624  0.8975 -0.1106
  752TMC3    C611166   4.604   2.607  17.535  0.8638 -0.8076 -0.7023
  752TMC3     C11167   0.244   2.711  17.378  0.1610  0.1299 -0.4316
  752TMC3     O11168   0.329   2.632  17.411 -0.2587  0.6579  0.0328
  752TMC3     H11169   0.172   2.483  17.478 -1.7638 -1.5503 -1.4087
  752TMC3    H111170   0.014   2.869  17.394  2.0240 -1.0315 -0.9335
  752TMC3    H211171   4.509   2.579  17.579  1.9912 -0.3776  1.9756
  752TMC3    C711172   4.519   2.828  17.490 -0.5927 -0.3316  0.4514
  752TMC3    C811173   4.685   2.379  17.560  0.0392 -0.8759 -0.7043
  752TMC3    O111174   4.413   2.776  17.472  0.4742  0.5613  0.5475
  752TMC3    O211175   4.571   2.336  17.570  0.1068  0.6499 -0.0581
  753TMC3    C111176   3.356   4.167  13.636  0.0970  1.1543 -0.8292
  753TMC3    C211177   3.281   4.193  13.750  0.1948  0.0537 -0.4208
  753TMC3    C311178   3.144   4.172  13.744  0.1981  0.2886 -0.6127
  753TMC3    C411179   3.303   4.098  13.536  0.0833 -0.2283  1.1841
  753TMC3    C511180   3.169   4.066  13.541  0.6896 -0.6383 -0.8497
  753TMC3    C611181   3.081   4.117  13.639 -0.0541  0.0472  0.2322
  753TMC3     C11182   3.498   4.154  13.657  0.1602  0.1808 -0.3412
  753TMC3     O11183   3.548   4.060  13.599 -0.2198  0.0925 -0.1399
  753TMC3     H11184   3.327   4.241  13.835 -0.7368 -0.9822  0.6759
  753TMC3    H111185   3.372   4.058  13.462 -1.9631  0.4817 -1.0867
  753TMC3    H211186   2.974   4.103  13.646  0.0225 -0.5828  0.0759
  753TMC3    C711187   3.138   3.925  13.504  0.0583  0.2369 -0.7119
  753TMC3    C811188   3.056   4.248  13.836 -0.2687 -0.2097 -0.3036
  753TMC3    O111189   3.236   3.858  13.484  0.1565  0.2540  0.3174
  753TMC3    O211190   2.937   4.213  13.852  0.5011  0.4865  0.2364
  754MPD2     C11191   2.011   2.599  13.351 -0.1539 -0.0781 -0.6814
  754MPD2    C111192   1.986   2.476  13.294 -0.0223  0.7198 -0.3374
  754MPD2    C211193   1.875   2.460  13.214  0.4868  0.0954  0.5172
  754MPD2    C311194   1.779   2.553  13.195  0.1819  0.0359  0.3204
  754MPD2    C411195   1.797   2.675  13.251 -0.7967  0.0134  0.8823
  754MPD2    C511196   1.915   2.697  13.322 -0.4832 -0.0507 -0.0101
  754MPD2     H11197   1.877   2.371  13.152  0.0014  0.2193  0.3292
  754MPD2    H111198   1.731   2.758  13.224  1.2696  0.6662 -2.1409
  754MPD2    H211199   2.091   2.630  13.417 -1.1877  0.1802  0.4383
  754MPD2    H311200   1.917   2.791  13.377  0.8085 -0.0699 -0.0289
  754MPD2     N11201   1.674   2.527  13.107  0.6995  0.4155 -0.3009
  754MPD2    H511202   1.611   2.607  13.102  0.7672  0.4609 -0.4512
  754MPD2    N111203   2.081   2.371  13.307  0.0313 -0.4087  0.1633
  754MPD2    H711204   2.170   2.408  13.337  0.1986  0.0516 -0.9089
  755MPD2     C11205   1.107   3.129  12.991  0.1892  0.3510 -0.2331
  755MPD2    C111206   1.022   3.023  13.003  0.0570  0.5496  0.3695
  755MPD2    C211207   1.082   2.898  13.010  0.6587 -0.4692  0.2216
  755MPD2    C311208   1.221   2.879  13.007  0.2247 -0.3043 -0.2467
  755MPD2    C411209   1.301   2.987  13.012 -0.2156 -0.7939  0.2639
  755MPD2    C511210   1.243   3.112  12.993  0.1224  0.6221 -0.4497
  755MPD2     H11211   1.017   2.811  13.015  1.5768 -1.0664  1.5569
  755MPD2    H111212   1.408   2.977  13.028 -0.1302  1.4288  1.0926
  755MPD2    H211213   1.085   3.235  12.987  0.1518  0.3741  0.5215
  755MPD2    H311214   1.300   3.202  12.971 -0.1228  0.9928  0.4343
  755MPD2     N11215   1.280   2.747  13.008 -0.7938 -0.4796 -0.1128
  755MPD2    H511216   1.381   2.740  13.021 -0.4675 -0.9529 -2.9543
  755MPD2    N111217   0.886   3.034  13.000 -0.2156  0.0899 -0.3531
  755MPD2    H711218   0.827   2.953  13.015  1.6449 -1.2155 -0.0646
  756MPD2     C11219   2.226   3.083   9.966 -0.4561 -0.4712 -0.6062
  756MPD2    C111220   2.110   3.033  10.018 -0.2688 -0.4026  0.3230
  756MPD2    C211221   2.002   3.013   9.938  0.8706 -0.3545  0.6872
  756MPD2    C311222   2.000   3.063   9.807 -0.0400  0.2260  0.0064
  756MPD2    C411223   2.115   3.110   9.755 -0.2263  0.7218  0.1414
  756MPD2    C511224   2.225   3.119   9.834  0.1740 -0.2426  0.3893
  756MPD2     H11225   1.914   2.968   9.981 -0.1545 -0.0963 -1.1376
  756MPD2    H111226   2.113   3.145   9.652 -0.7792 -0.7969 -0.3647
  756MPD2    H211227   2.309   3.108  10.030  0.2918 -0.3264 -1.6220
  756MPD2    H311228   2.313   3.164   9.789 -0.3296  0.4701  0.1075
  756MPD2     N11229   1.889   3.042   9.724 -0.5316  0.6723 -0.1866
  756MPD2    H511230   1.815   2.989   9.769  0.4141  1.4456  2.2829
  756MPD2    N111231   2.087   3.016  10.158 -0.0224 -0.5198  0.3097
  756MPD2    H711232   1.994   2.981  10.180 -0.1432  0.8799  2.0499
  757MPD2     C11233   1.310   2.460   9.906  0.2950 -0.3177 -0.1401
  757MPD2    C111234   1.447   2.485   9.926  0.6934  1.2858 -0.6201
  757MPD2    C211235   1.497   2.602   9.879 -0.5643 -0.3524  0.3340
  757MPD2    C311236   1.423   2.697   9.810 -0.0210  0.2473  0.0149
  757MPD2    C411237   1.289   2.671   9.794 -0.9553  0.1585  0.2694
  757MPD2    C511238   1.233   2.552   9.841  0.1707  0.5959  0.5077
  757MPD2     H11239   1.603   2.621   9.895 -0.2584 -1.9616  0.1822
  757MPD2    H111240   1.228   2.744   9.742  1.5160  1.1403 -1.2442
  757MPD2    H211241   1.268   2.365   9.937  1.5317 -0.3359  1.4882
  757MPD2    H311242   1.126   2.542   9.824  0.6166 -0.2286 -1.7884
  757MPD2     N11243   1.491   2.804   9.747 -0.0928 -0.9472  0.0056
  757MPD2    H511244   1.592   2.812   9.754 -0.2102 -0.7661  1.3144
  757MPD2    N111245   1.522   2.380   9.983 -0.5704 -0.0842  0.4929
  757MPD2    H711246   1.475   2.291   9.995  0.7998 -0.6333  1.8365
  758MPD2     C11247   1.500   2.406  15.765  0.6136  0.5366  0.3638
  758MPD2    C111248   1.610   2.385  15.844  0.1829  1.1766 -0.7474
  758MPD2    C211249   1.586   2.381  15.982  0.2238  0.3450  0.0055
  758MPD2    C311250   1.468   2.396  16.043  0.1477  0.1902  0.2535
  758MPD2    C411251   1.356   2.427  15.961 -0.6437  0.1373 -0.8133
  758MPD2    C511252   1.372   2.421  15.827 -1.2056 -0.7645  0.6584
  758MPD2     H11253   1.675   2.385  16.043  0.0081  0.3854  0.3166
  758MPD2    H111254   1.259   2.414  16.007  0.2180  1.0471  1.2649
  758MPD2    H211255   1.506   2.407  15.657  2.7629 -0.9277  0.4712
  758MPD2    H311256   1.291   2.445  15.760 -0.7864 -1.2813 -0.0428
  758MPD2     N11257   1.445   2.379  16.184 -0.0912 -0.4732 -0.3119
  758MPD2    H511258   1.355   2.400  16.224  0.2118 -0.5926  0.4309
  758MPD2    N111259   1.735   2.379  15.780  0.1556  0.3097 -0.0152
  758MPD2    H711260   1.735   2.370  15.679  1.1992 -0.7043  0.0758
  759MPD2     C11261   1.343   0.285   9.810  0.3794  1.2605  0.2162
  759MPD2    C111262   1.263   0.300   9.927 -0.4604 -0.0026  0.0118
  759MPD2    C211263   1.261   0.425   9.979 -1.0421  0.2059  0.2051
  759MPD2    C311264   1.333   0.531   9.924 -0.6936 -0.9764  0.3890
  759MPD2    C411265   1.420   0.513   9.818 -0.6190 -0.3700  0.0500
  759MPD2    C511266   1.416   0.392   9.759  0.3535  0.2319  0.6870
  759MPD2     H11267   1.204   0.439  10.070 -0.8880 -0.8238  0.4568
  759MPD2    H111268   1.485   0.584   9.768 -0.4020 -0.5907  0.0164
  759MPD2    H211269   1.361   0.193   9.754  1.0722 -0.2611  2.9310
  759MPD2    H311270   1.482   0.365   9.678  1.4135 -0.3480  1.7403
  759MPD2     N11271   1.341   0.656   9.989 -0.1921  0.3138  0.5448
  759MPD2    H511272   1.281   0.659  10.071  0.2567  1.2008  0.8384
  759MPD2    N111273   1.190   0.192   9.985  0.4703 -0.3447  0.4407
  759MPD2    H711274   1.147   0.208  10.076  0.4584  1.2515  0.1459
  760MPD2     C11275   0.582   2.950  11.673  0.3292  0.1990 -0.2812
  760MPD2    C111276   0.716   2.924  11.700  0.4098 -0.6057  0.0833
  760MPD2    C211277   0.755   2.811  11.780  0.4398  0.1276  0.2233
  760MPD2    C311278   0.656   2.716  11.819  0.6091 -0.1429 -1.1803
  760MPD2    C411279   0.525   2.745  11.783  0.0199  0.3991 -0.3965
  760MPD2    C511280   0.486   2.866  11.718 -0.8077 -0.1959 -0.2286
  760MPD2     H11281   0.857   2.802  11.815  2.1477  2.0524 -4.3222
  760MPD2    H111282   0.445   2.688  11.829  0.2769  1.1961  1.0677
  760MPD2    H211283   0.550   3.047  11.638  0.0901  0.1068 -0.3157
  760MPD2    H311284   0.387   2.909  11.711 -1.7792 -2.5437 -1.0386
  760MPD2     N11285   0.681   2.585  11.878 -0.1519  0.2560  0.1450
  760MPD2    H511286   0.598   2.527  11.886 -1.0935  1.6601  0.6242
  760MPD2    N111287   0.823   3.014  11.659 -0.2230 -0.0156 -0.2621
  760MPD2    H711288   0.911   2.984  11.699  1.6190  0.2500 -4.1225
  761MPD2     C11289   1.795   2.110  11.500  0.2766 -0.3615  0.7589
  761MPD2    C111290   1.881   2.082  11.400  0.1628 -0.1613  0.9114
  761MPD2    C211291   1.983   2.167  11.366 -0.9657 -0.5579  0.0127
  761MPD2    C311292   2.011   2.284  11.431  0.2341 -0.3911 -0.6145
  761MPD2    C411293   1.919   2.321  11.526 -0.3583 -0.2889 -0.3488
  761MPD2    C511294   1.820   2.232  11.560 -0.0263 -0.2804 -0.4256
  761MPD2     H11295   2.054   2.138  11.290 -0.6723 -0.9426  0.4376
  761MPD2    H111296   1.926   2.413  11.583 -1.0727 -0.5702  0.1940
  761MPD2    H211297   1.722   2.040  11.540  1.5917 -2.1935 -0.0666
  761MPD2    H311298   1.744   2.270  11.627  0.0258 -1.4653  0.2963
  761MPD2     N11299   2.121   2.363  11.403  0.1822  0.4748  0.3289
  761MPD2    H511300   2.134   2.449  11.456  0.1356 -0.0798  1.2303
  761MPD2    N111301   1.857   1.961  11.323  0.2567  0.1457  0.2622
  761MPD2    H711302   1.777   1.901  11.342  0.7101 -0.2031  1.0438
  762MPD2     C11303   2.408   1.805  11.251 -0.8426 -0.0136  0.6226
  762MPD2    C111304   2.361   1.689  11.203 -0.6014 -0.9125  1.1011
  762MPD2    C211305   2.443   1.593  11.146 -0.4765 -0.0149 -0.2576
  762MPD2    C311306   2.580   1.625  11.133  0.2333  0.1801  0.5416
  762MPD2    C411307   2.627   1.744  11.188  0.2487 -0.0058 -0.4026
  762MPD2    C511308   2.539   1.839  11.235  0.7639 -0.6767 -0.3820
  762MPD2     H11309   2.407   1.498  11.109 -0.9361  0.0259  0.0809
  762MPD2    H111310   2.733   1.768  11.179 -0.0422  0.8133 -1.7181
  762MPD2    H211311   2.328   1.873  11.279 -0.6499  0.7926 -0.7543
  762MPD2    H311312   2.573   1.935  11.270  3.1104 -1.5152 -0.3553
  762MPD2     N11313   2.655   1.543  11.048 -0.0151  0.3038  0.8473
  762MPD2    H511314   2.612   1.457  11.015  0.2380  0.6936 -0.4746
  762MPD2    N111315   2.224   1.670  11.192 -0.0638 -0.2566  0.3256
  762MPD2    H711316   2.168   1.754  11.206 -0.0275  0.4561 -3.7995
  763MPD2     C11317   3.800   2.485  16.065  0.4754  0.0902  0.9709
  763MPD2    C111318   3.684   2.548  16.040 -0.2488  0.3285 -0.7280
  763MPD2    C211319   3.668   2.678  16.084 -0.1640  0.9841  0.2433
  763MPD2    C311320   3.775   2.749  16.143 -0.0513  0.1894 -0.0828
  763MPD2    C411321   3.897   2.688  16.161  0.1290  0.5684  0.3528
  763MPD2    C511322   3.907   2.554  16.121 -0.1286  0.2200  0.9090
  763MPD2     H11323   3.572   2.722  16.060  0.6100  2.5511 -0.0063
  763MPD2    H111324   3.977   2.746  16.206  2.2414  0.2206 -2.9731
  763MPD2    H211325   3.819   2.383  16.033 -0.9733  0.0498  0.2632
  763MPD2    H311326   3.989   2.492  16.155 -0.9121 -2.0066 -1.2230
  763MPD2     N11327   3.758   2.886  16.175  0.1574 -0.8532 -0.0047
  763MPD2    H511328   3.845   2.933  16.195 -0.3196 -0.5087  1.2758
  763MPD2    N111329   3.581   2.483  15.968  0.2641  0.0406  0.4520
  763MPD2    H711330   3.500   2.538  15.941  0.9863 -0.3361 -2.4323
  764MPD2     C11331   1.009   3.160  17.627  0.1146  0.4942  0.9101
  764MPD2    C111332   0.892   3.216  17.594 -0.8629 -0.5507 -0.1539
  764MPD2    C211333   0.799   3.248  17.698 -0.1820  0.0830 -0.5784
  764MPD2    C311334   0.822   3.216   0.076  0.4078  0.4549 -0.1097
  764MPD2    C411335   0.944   3.163   0.107 -0.2800 -0.2212 -0.6199
  764MPD2    C511336   1.041   3.147   0.004 -0.1401  0.5515 -0.4077
  764MPD2     H11337   0.697   3.264  17.665 -0.3259 -0.2520 -0.2940
  764MPD2    H111338   0.979   3.138   0.206 -0.7589 -0.5140 -0.5228
  764MPD2    H211339   1.085   3.136  17.553 -0.3834  1.6255  0.0118
  764MPD2    H311340   1.139   3.105   0.020 -1.1661 -0.8865  2.1487
  764MPD2     N11341   0.720   3.245   0.168 -0.2940 -0.0319 -0.1143
  764MPD2    H511342   0.630   3.277   0.133 -0.4376  1.2966  1.4412
  764MPD2    N111343   0.851   3.238  17.458  0.1989  0.1519  0.5799
  764MPD2    H711344   0.762   3.281  17.439 -0.5325 -2.1089 -1.1544
  765MPD2     C11345   1.142   1.662  16.022 -0.1963  0.3504  0.3843
  765MPD2    C111346   1.195   1.777  15.961  0.4324  0.4738  0.8708
  765MPD2    C211347   1.333   1.784  15.949 -0.6326 -0.0394 -0.0110
  765MPD2    C311348   1.419   1.681  15.987  0.5051  0.1904 -0.0038
  765MPD2    C411349   1.368   1.575  16.055  0.0505 -0.1518  0.4795
  765MPD2    C511350   1.227   1.563  16.068  0.1046 -0.1702 -0.2228
  765MPD2     H11351   1.379   1.876  15.913 -0.5922  0.6719  1.8465
  765MPD2    H111352   1.435   1.511  16.111  0.0990 -0.0811  0.5031
  765MPD2    H211353   1.036   1.654  16.042 -0.2018 -1.7887 -0.4696
  765MPD2    H311354   1.193   1.474  16.120  0.9038  0.7076  1.7844
  765MPD2     N11355   1.560   1.695  15.957 -0.5660  0.2007 -0.1914
  765MPD2    H511356   1.581   1.779  15.904 -1.4011 -0.7853 -2.0628
  765MPD2    N111357   1.102   1.863  15.903 -0.6353  0.2436  0.3893
  765MPD2    H711358   1.004   1.839  15.902 -0.5055 -0.1976 -0.9608
  766MPD2     C11359   0.667   1.790  15.367 -0.3358 -0.0422  0.9326
  766MPD2    C111360   0.788   1.853  15.371  0.5514  0.1350  0.2253
  766MPD2    C211361   0.878   1.833  15.271  0.7410 -0.5128 -0.3203
  766MPD2    C311362   0.851   1.739  15.177 -0.6244 -0.5305 -0.0168
  766MPD2    C411363   0.729   1.666  15.175 -0.8998  0.8710  0.6151
  766MPD2    C511364   0.640   1.696  15.277 -0.5746  0.2939 -0.7080
  766MPD2     H11365   0.971   1.888  15.273  0.5567 -0.2577  1.1763
  766MPD2    H111366   0.693   1.610  15.089  1.4133 -0.9765  0.8304
  766MPD2    H211367   0.582   1.819  15.429  0.0568  0.5377  1.2027
  766MPD2    H311368   0.543   1.648  15.277 -0.2643 -0.3033  1.4770
  766MPD2     N11369   0.936   1.742  15.067 -0.0926  0.2766  0.4414
  766MPD2    H511370   0.908   1.697  14.981  0.8313  0.3391  0.1130
  766MPD2    N111371   0.837   1.941  15.475  0.7617 -0.3842  0.1277
  766MPD2    H711372   0.937   1.955  15.471  0.5213  0.9621 -1.0710
  767MPD2     C11373   0.562   1.928  15.053 -0.5175 -0.3466 -0.4936
  767MPD2    C111374   0.657   1.997  14.980  0.4952 -0.5960 -0.4641
  767MPD2    C211375   0.681   1.961  14.851 -0.4836 -0.1634  0.3003
  767MPD2    C311376   0.607   1.867  14.779 -0.4779  0.2028 -0.3298
  767MPD2    C411377   0.506   1.805  14.850  0.3514  0.0366  0.0674
  767MPD2    C511378   0.488   1.829  14.985  0.5478  0.0088 -0.4754
  767MPD2     H11379   0.752   2.017  14.792 -0.3535 -0.4256  0.2103
  767MPD2    H111380   0.448   1.726  14.806  1.4921 -0.6274 -0.2432
  767MPD2    H211381   0.538   1.953  15.156 -0.6319  1.3756 -0.9398
  767MPD2    H311382   0.419   1.777  15.050  1.1884 -0.5717 -0.2605
  767MPD2     N11383   0.641   1.829  14.648 -0.2371 -0.3242 -0.2042
  767MPD2    H511384   0.729   1.865  14.612 -0.0757  0.0697  0.5838
  767MPD2    N111385   0.725   2.109  15.038 -0.1072  0.1782  0.1903
  767MPD2    H711386   0.702   2.124  15.136 -0.3142 -2.2746  0.5087
  768MPD2     C11387   1.984   0.089  10.957  0.7174  0.0164 -0.1145
  768MPD2    C111388   1.970   0.057  11.094 -0.4865 -0.7846  0.4186
  768MPD2    C211389   2.080   0.064  11.180  0.0822  0.7923 -0.5610
  768MPD2    C311390   2.197   0.101  11.125 -0.0921  0.2817 -0.3831
  768MPD2    C411391   2.210   0.156  10.995  0.2537  0.5004 -0.1919
  768MPD2    C511392   2.108   0.138  10.908  0.2788 -0.4314 -0.1600
  768MPD2     H11393   2.079   0.034  11.284 -3.6094  1.1737 -0.4804
  768MPD2    H111394   2.302   0.199  10.957 -0.0714  2.0595  0.7691
  768MPD2    H211395   1.897   0.079  10.893  0.7569 -1.5091  0.0667
  768MPD2    H311396   2.120   0.170  10.805  3.5223  1.8952  0.9599
  768MPD2     N11397   2.318   0.109  11.201 -0.2763  0.3180 -0.6715
  768MPD2    H511398   2.394   0.146  11.145 -0.8769 -0.8883 -2.2757
  768MPD2    N111399   1.855   0.009  11.156  0.0574 -0.5418  0.0947
  768MPD2    H711400   1.853   4.723  11.255  1.2973 -0.2542  0.1866
  769MPD2     C11401   2.359   3.565  14.795  0.3319 -0.3384  0.2011
  769MPD2    C111402   2.284   3.482  14.867  0.2799  0.7270  0.3333
  769MPD2    C211403   2.332   3.439  14.989  0.3868 -0.0677  0.0175
  769MPD2    C311404   2.448   3.484  15.043  0.1669  0.0180 -0.0676
  769MPD2    C411405   2.523   3.578  14.971 -0.0104  0.5308 -0.6661
  769MPD2    C511406   2.482   3.608  14.840 -0.1485 -0.1612  0.5451
  769MPD2     H11407   2.271   3.372  15.049  3.0533 -0.7538  1.9407
  769MPD2    H111408   2.614   3.622  15.010  0.0268 -0.7795  0.7341
  769MPD2    H211409   2.327   3.595  14.696  2.8023 -0.3918 -0.6026
  769MPD2    H311410   2.542   3.669  14.773 -0.1685  0.5986  1.2327
  769MPD2     N11411   2.496   3.446  15.172 -0.1013  0.5370 -0.0058
  769MPD2    H511412   2.420   3.409  15.228 -1.0942 -0.7398 -2.1615
  769MPD2    N111413   2.164   3.432  14.811  0.0918 -0.2523 -0.1991
  769MPD2    H711414   2.146   3.461  14.716 -3.1629 -1.1960  0.1530
  770MPD2     C11415   1.479   2.678  14.621  0.0453 -0.5995 -0.0168
  770MPD2    C111416   1.606   2.690  14.668 -0.3923 -0.5582 -0.6863
  770MPD2    C211417   1.650   2.821  14.701  0.4576  0.2199  0.4511
  770MPD2    C311418   1.565   2.930  14.691  0.1826 -0.0699 -0.4639
  770MPD2    C411419   1.438   2.908  14.644 -0.9197 -0.2540  0.6931
  770MPD2    C511420   1.397   2.785  14.596  0.5012  0.2627  0.2766
  770MPD2     H11421   1.748   2.840  14.745  0.0737  0.3532  1.2547
  770MPD2    H111422   1.364   2.988  14.643 -0.0114  0.5767 -0.0922
  770MPD2    H211423   1.437   2.581  14.596 -1.3827 -0.1156  0.4704
  770MPD2    H311424   1.298   2.778  14.551  0.4573 -2.3947  0.7990
  770MPD2     N11425   1.601   3.061  14.732 -0.2758 -0.4923  0.3072
  770MPD2    H511426   1.548   3.141  14.700 -0.9805 -0.5523  1.3435
  770MPD2    N111427   1.686   2.572  14.662 -0.0375  0.7331  0.0949
  770MPD2    H711428   1.642   2.488  14.625  0.7334  0.3623  0.0189
  771MPD2     C11429   2.984   1.127  14.078 -0.1563 -0.6816  0.0200
  771MPD2    C111430   2.986   1.218  13.971 -0.4874 -0.4810 -1.0473
  771MPD2    C211431   2.952   1.182  13.842  0.7841  0.9564 -0.1849
  771MPD2    C311432   2.915   1.047  13.818  0.3505 -0.0085 -0.2958
  771MPD2    C411433   2.917   0.959  13.922  0.3449  0.3867 -0.0496
  771MPD2    C511434   2.944   0.997  14.050 -0.2900 -0.2401  0.1195
  771MPD2     H11435   2.956   1.249  13.757  1.9134 -1.5142 -2.1180
  771MPD2    H111436   2.886   0.855  13.918  1.7829 -0.1039  1.5868
  771MPD2    H211437   3.022   1.151  14.177  0.9859  0.5066 -0.7118
  771MPD2    H311438   2.946   0.926  14.132 -3.7646 -0.1063  0.3314
  771MPD2     N11439   2.883   1.010  13.685  0.2043  0.3013  0.4178
  771MPD2    H511440   2.876   1.084  13.617  1.1351  0.3543  0.3774
  771MPD2    N111441   3.030   1.354  13.988 -0.1160 -0.3535 -0.0807
  771MPD2    H711442   3.030   1.405  13.900 -0.5568  0.4310  0.3719
  772MPD2     C11443   2.837   2.030  14.263 -0.9574 -0.5635 -0.2470
  772MPD2    C111444   2.821   1.921  14.184  0.3488  0.6724  0.3707
  772MPD2    C211445   2.704   1.879  14.146 -0.1299  0.4473 -0.9279
  772MPD2    C311446   2.590   1.946  14.184 -0.1504 -0.6716  0.1859
  772MPD2    C411447   2.595   2.048  14.275 -0.0628 -0.0158  0.5390
  772MPD2    C511448   2.721   2.088  14.303  0.6397 -0.7096  0.5428
  772MPD2     H11449   2.693   1.792  14.081 -0.5901  0.2023 -0.5158
  772MPD2    H111450   2.511   2.109  14.306  0.2582  0.6610  0.0784
  772MPD2    H211451   2.934   2.064  14.297 -0.7077 -0.8922 -0.6347
  772MPD2    H311452   2.722   2.176  14.367 -2.0411  0.2186 -0.7013
  772MPD2     N11453   2.462   1.916  14.128 -0.6096  0.3332 -0.7441
  772MPD2    H511454   2.376   1.938  14.178  1.2347  1.3996  1.9451
  772MPD2    N111455   2.934   1.849  14.141  0.2626 -0.2294 -0.4778
  772MPD2    H711456   2.906   1.768  14.086  1.7375 -1.2331  0.2716
  773MPD2     C11457   2.073   2.345  17.631  0.6655  0.0048  1.6377
  773MPD2    C111458   2.047   2.223  17.580  0.1914 -0.5187 -0.7982
  773MPD2    C211459   2.112   2.111  17.630  0.2012  0.0525 -0.1941
  773MPD2    C311460   2.212   2.121  17.723  0.5573 -0.1943  0.7764
  773MPD2    C411461   2.240   2.246   0.024 -0.5670 -0.1358 -0.4240
  773MPD2    C511462   2.182   2.360  17.723 -0.1455  0.4052  0.1394
  773MPD2     H11463   2.099   2.009  17.595  2.8687 -0.5417  0.5506
  773MPD2    H111464   2.324   2.267   0.089  0.0057  1.5229 -1.6917
  773MPD2    H211465   2.030   2.440  17.602 -0.0271 -0.7733  0.1667
  773MPD2    H311466   2.208   2.456   0.014 -1.2867  0.5420  0.5321
  773MPD2     N11467   2.300   2.011   0.004  0.1480  0.3152  0.0229
  773MPD2    H511468   2.290   1.930  17.696 -2.3564  1.7324 -1.4505
  773MPD2    N111469   1.954   2.204  17.473  0.2780 -0.2366 -0.2887
  773MPD2    H711470   1.917   2.110  17.461 -0.8572 -0.3205  3.6853
  774MPD2     C11471   1.596   1.388  13.202  0.1851 -0.5658 -0.0365
  774MPD2    C111472   1.588   1.437  13.328 -0.8602 -0.5063  0.3340
  774MPD2    C211473   1.667   1.541  13.369  0.0773 -0.5465 -0.3769
  774MPD2    C311474   1.749   1.599  13.277 -0.3177  0.5241 -0.9198
  774MPD2    C411475   1.757   1.546  13.146 -0.0135  0.3444  0.3492
  774MPD2    C511476   1.681   1.441  13.111 -0.4907 -0.7700  0.0715
  774MPD2     H11477   1.667   1.589  13.466 -0.2614 -1.1373 -0.0811
  774MPD2    H111478   1.824   1.593  13.075  0.1011 -1.4592 -0.7392
  774MPD2    H211479   1.532   1.307  13.168 -0.7101  0.9266 -1.8573
  774MPD2    H311480   1.681   1.403  13.010  2.1162 -0.5237 -0.0305
  774MPD2     N11481   1.804   1.720  13.316  0.4432 -0.0674  0.0685
  774MPD2    H511482   1.772   1.752  13.407  1.3476  0.2948  0.2562
  774MPD2    N111483   1.487   1.384  13.407  0.2055  0.4248  0.9138
  774MPD2    H711484   1.415   1.320  13.377  1.2716 -0.3969  0.0908
  775MPD2     C11485   3.269   3.310  15.629  0.1750  0.7382  0.3395
  775MPD2    C111486   3.192   3.410  15.687 -0.6410  0.7395  0.3061
  775MPD2    C211487   3.232   3.546  15.665 -0.8995 -1.0576 -0.8028
  775MPD2    C311488   3.343   3.581  15.593 -0.4568  0.4591 -0.3362
  775MPD2    C411489   3.425   3.478  15.555 -0.1475 -0.7070  0.1683
  775MPD2    C511490   3.386   3.347  15.565  0.4974 -0.5257  0.0153
  775MPD2     H11491   3.165   3.628  15.689 -0.7982 -1.0988 -0.3901
  775MPD2    H111492   3.518   3.503  15.505 -0.9472  0.4163 -0.7725
  775MPD2    H211493   3.237   3.207  15.621 -1.3742  1.3044 -0.7494
  775MPD2    H311494   3.454   3.281  15.513  1.7080 -1.0926  2.3180
  775MPD2     N11495   3.394   3.713  15.575 -0.4515 -1.2099  0.3189
  775MPD2    H511496   3.480   3.717  15.521 -1.0968 -0.6356 -0.6604
  775MPD2    N111497   3.070   3.371  15.752 -0.2068  0.5399 -0.5026
  775MPD2    H711498   3.035   3.276  15.744  1.5884 -0.4227  2.9113
  776MPD2     C11499   2.361   3.781  11.472 -0.3581  0.4051 -0.4529
  776MPD2    C111500   2.432   3.720  11.579  1.2198  0.0087 -0.0333
  776MPD2    C211501   2.551   3.784  11.613 -0.3506 -0.4405  1.2086
  776MPD2    C311502   2.581   3.910  11.567 -0.4526 -0.4876  0.3721
  776MPD2    C411503   2.496   3.975  11.480  0.1558  0.0931 -0.0837
  776MPD2    C511504   2.393   3.907  11.426  0.0571 -0.3720  0.0172
  776MPD2     H11505   2.616   3.730  11.680 -1.4038 -1.5519  1.3342
  776MPD2    H111506   2.520   4.076  11.449 -0.0117 -0.0541 -0.6982
  776MPD2    H211507   2.277   3.736  11.420  1.3925  0.3676 -3.2468
  776MPD2    H311508   2.328   3.960  11.357  0.6412  0.5709  0.1979
  776MPD2     N11509   2.698   3.975  11.593 -0.3859 -0.2450  0.0361
  776MPD2    H511510   2.725   4.054  11.535  3.6048 -0.9952  0.8501
  776MPD2    N111511   2.400   3.596  11.632  0.2200  0.2663  0.3504
  776MPD2    H711512   2.469   3.554  11.693 -0.0300  0.4367  0.7502
  777MPD2     C11513   1.676   1.144   0.244 -0.4314  0.8915 -0.7019
  777MPD2    C111514   1.603   1.075   0.343  0.5627  0.1722 -0.2092
  777MPD2    C211515   1.512   0.974   0.297 -0.1224  0.0720  0.2583
  777MPD2    C311516   1.495   0.953   0.161  0.1829  0.3103 -0.0563
  777MPD2    C411517   1.571   1.026   0.069 -0.0955  0.5401 -0.1724
  777MPD2    C511518   1.655   1.124   0.111 -0.1651 -0.5078  0.0650
  777MPD2     H11519   1.442   0.924   0.363 -0.9671  0.5463 -0.2788
  777MPD2    H111520   1.556   1.011  17.715 -1.1339  1.0673 -0.0938
  777MPD2    H211521   1.758   1.210   0.270 -0.5308  1.1038 -0.9403
  777MPD2    H311522   1.713   1.183   0.041 -1.5178 -0.6073 -1.1203
  777MPD2     N11523   1.397   0.862   0.118  0.2926  0.1519 -0.6354
  777MPD2    H511524   1.339   0.825   0.193 -1.1351  1.1559 -1.2462
  777MPD2    N111525   1.626   1.116   0.478 -0.6175 -0.1871 -0.1266
  777MPD2    H711526   1.705   1.172   0.506 -0.7937  0.1196 -0.2454
  778MPD2     C11527   3.220   1.591  14.944  0.7170 -0.3103  0.2695
  778MPD2    C111528   3.263   1.500  14.853 -0.4328 -0.8358  0.2050
  778MPD2    C211529   3.362   1.531  14.753  0.3037 -0.2985 -0.5008
  778MPD2    C311530   3.420   1.654  14.760  0.3046 -0.1266 -0.1998
  778MPD2    C411531   3.383   1.742  14.862  0.4126 -0.0992  0.0050
  778MPD2    C511532   3.280   1.709  14.950  0.4785  0.1490 -0.3804
  778MPD2     H11533   3.379   1.458  14.675 -1.2117  1.0179 -2.0832
  778MPD2    H111534   3.435   1.833  14.890  2.7273 -1.6808  0.8419
  778MPD2    H211535   3.134   1.567  15.005 -0.8859  1.8352 -1.1371
  778MPD2    H311536   3.256   1.781  15.028 -1.8914  1.0784 -1.9801
  778MPD2     N11537   3.515   1.697  14.661  0.0691 -0.2952 -0.3004
  778MPD2    H511538   3.522   1.638  14.579  0.9850 -1.3181  0.5086
  778MPD2    N111539   3.222   1.359  14.862  0.5290 -0.4406 -0.2483
  778MPD2    H711540   3.237   1.298  14.782  2.7290 -1.6009  1.0607
  779MPD2     C11541   3.213   0.546  14.368  0.0919 -0.5066 -0.3754
  779MPD2    C111542   3.341   0.539  14.424  0.1610 -0.4628 -0.1497
  779MPD2    C211543   3.423   0.646  14.428 -0.5065  0.5557  0.6359
  779MPD2    C311544   3.389   0.766  14.362  0.6274  0.1045 -0.6914
  779MPD2    C411545   3.267   0.765  14.299 -0.0578  0.1358  0.7982
  779MPD2    C511546   3.181   0.662  14.309  0.5201 -0.1732  0.2266
  779MPD2     H11547   3.519   0.648  14.478 -0.8420  0.7287  1.2796
  779MPD2    H111548   3.221   0.850  14.248 -0.1051 -0.6401 -0.4557
  779MPD2    H211549   3.148   0.460  14.354 -0.9714  0.0608  1.1907
  779MPD2    H311550   3.085   0.668  14.259 -1.3421 -2.1752  3.4818
  779MPD2     N11551   3.462   0.884  14.386  0.3353 -0.3171 -0.0557
  779MPD2    H511552   3.554   0.871  14.426  0.5096  2.0701  0.2774
  779MPD2    N111553   3.391   0.417  14.471  0.6518 -0.1409  0.1469
  779MPD2    H711554   3.491   0.403  14.481  0.6034  1.5194  2.8345
  780MPD2     C11555   2.211   4.450   0.896  0.1507  0.2502  0.4708
  780MPD2    C111556   2.106   4.421   0.813 -0.6946 -0.4514 -0.4040
  780MPD2    C211557   2.110   4.466   0.679  0.5716 -0.5069 -0.3072
  780MPD2    C311558   2.219   4.532   0.627 -0.1507 -0.5748 -0.0579
  780MPD2    C411559   2.320   4.571   0.714 -0.1588 -0.0056 -0.0074
  780MPD2    C511560   2.318   4.527   0.850  0.5408  0.3114 -0.1717
  780MPD2     H11561   2.025   4.440   0.616  1.0398 -0.0152 -1.1491
  780MPD2    H111562   2.418   4.605   0.682  0.5729 -3.1978 -1.1235
  780MPD2    H211563   2.203   4.416   0.999  2.7465 -2.2084 -0.1192
  780MPD2    H311564   2.408   4.540   0.909 -1.0366 -0.7107  2.4363
  780MPD2     N11565   2.228   4.557   0.491 -0.4466 -0.4281 -0.4770
  780MPD2    H511566   2.157   4.526   0.424  0.4339 -0.5978 -1.3257
  780MPD2    N111567   1.999   4.340   0.863  0.2416 -0.6402 -0.1142
  780MPD2    H711568   2.003   4.304   0.957 -2.0624 -0.1773  0.1735
  781MPD2     C11569   4.492   1.601  11.895  0.3463 -0.4417  0.2926
  781MPD2    C111570   4.587   1.620  11.989 -0.1231  0.1625 -0.3182
  781MPD2    C211571   4.718   1.635  11.945  0.1149  0.3456  0.6039
  781MPD2    C311572   0.015   1.633  11.809 -0.0306 -0.6818 -0.1365
  781MPD2    C411573   4.650   1.619  11.717  0.4512  0.1534 -0.0451
  781MPD2    C511574   4.522   1.604  11.761 -0.9568  0.2607  0.1490
  781MPD2     H11575   0.047   1.645  12.028  1.4057  0.4086 -0.4522
  781MPD2    H111576   4.664   1.621  11.610 -0.7763 -1.8100 -0.2542
  781MPD2    H211577   4.389   1.583  11.922 -0.0824  2.1124  0.3873
  781MPD2    H311578   4.448   1.595  11.683  1.2217  1.1790 -2.0509
  781MPD2     N11579   0.149   1.657  11.766  0.0563  0.0672  0.1726
  781MPD2    H511580   0.171   1.646  11.668  0.8581  1.8875  0.1510
  781MPD2    N111581   4.562   1.622  12.129  0.3797 -0.4863  0.6167
  781MPD2    H711582   4.639   1.630  12.194  1.3907 -0.3903 -0.5890
  782MPD2     C11583   2.724   2.482  10.355 -0.3758  0.2326 -0.5191
  782MPD2    C111584   2.837   2.449  10.427 -0.5742 -0.0389 -0.4169
  782MPD2    C211585   2.905   2.544  10.505  0.3390  0.4108 -0.5284
  782MPD2    C311586   2.853   2.669  10.516 -0.1074 -0.8971 -0.2135
  782MPD2    C411587   2.735   2.706  10.449 -0.8888  0.9405 -0.3572
  782MPD2    C511588   2.682   2.615  10.362 -0.3622  0.0197 -0.1348
  782MPD2     H11589   2.983   2.506  10.569  0.7051 -0.7391 -1.6422
  782MPD2    H111590   2.691   2.804  10.455 -3.1386 -0.2425  2.5681
  782MPD2    H211591   2.676   2.411  10.288 -0.2450 -0.4930  0.1456
  782MPD2    H311592   2.605   2.641  10.290  0.6122  2.5377 -0.2804
  782MPD2     N11593   2.913   2.746  10.618 -0.4257  0.4206  0.6814
  782MPD2    H511594   2.986   2.707  10.676 -1.8169 -1.1686  1.3901
  782MPD2    N111595   2.886   2.317  10.415  0.0421 -0.1109 -0.0674
  782MPD2    H711596   2.832   2.251  10.360  2.0346 -1.4925 -0.3907
  783MPD2     C11597   2.425   2.012  10.978 -0.0351 -0.4697  0.2098
  783MPD2    C111598   2.514   2.119  10.971 -0.0991  0.5431 -0.1811
  783MPD2    C211599   2.620   2.121  10.882 -0.1267 -0.3026 -0.3647
  783MPD2    C311600   2.657   2.002  10.817  0.4099  0.5084 -0.4023
  783MPD2    C411601   2.577   1.895  10.833 -0.1654 -0.0944 -0.6499
  783MPD2    C511602   2.460   1.901  10.908 -0.0801 -0.4050 -0.1306
  783MPD2     H11603   2.680   2.211  10.875  2.3441 -1.6981  3.3702
  783MPD2    H111604   2.598   1.800  10.785  1.5911  0.8204 -1.6974
  783MPD2    H211605   2.334   2.020  11.037  0.7502 -1.9154  1.5844
  783MPD2    H311606   2.396   1.815  10.919 -0.9495 -0.0744 -2.4423
  783MPD2     N11607   2.772   2.003  10.735  0.1578  0.4434 -0.0576
  783MPD2    H511608   2.820   2.091  10.721  2.4396 -0.8126 -0.1712
  783MPD2    N111609   2.482   2.231  11.046 -0.0836 -0.2307 -0.0217
  783MPD2    H711610   2.397   2.220  11.099  0.7949  0.1425  1.4721
  784MPD2     C11611   4.604   2.878   0.390 -0.0150 -0.2177  0.7858
  784MPD2    C111612   4.621   2.956   0.497  0.0910 -0.0213 -1.0128
  784MPD2    C211613   4.528   3.048   0.543 -0.0418 -0.3179 -0.4019
  784MPD2    C311614   4.396   3.045   0.486 -0.0645 -0.1477 -0.0012
  784MPD2    C411615   4.383   2.967   0.371  0.9839  0.1626 -0.8126
  784MPD2    C511616   4.487   2.893   0.321 -0.1587  0.2146  0.1750
  784MPD2     H11617   4.545   3.104   0.634  0.1549 -1.3899  0.2286
  784MPD2    H111618   4.293   2.952   0.312  0.6582 -0.4392 -0.1568
  784MPD2    H211619   4.674   2.806   0.349 -0.0497 -1.0089  2.1301
  784MPD2    H311620   4.471   2.825   0.238  0.5384 -2.0559  1.9159
  784MPD2     N11621   4.286   3.108   0.553  0.2551  0.0414  0.2514
  784MPD2    H511622   4.302   3.163   0.637  1.7008 -2.3906  1.5467
  784MPD2    N111623   0.003   2.945   0.577  0.0037  1.0388  0.2437
  784MPD2    H711624   0.029   3.018   0.642  0.0084 -1.0617  2.6185
  785MPD2     C11625   0.782   0.698  10.851 -0.0221 -0.0037  0.2479
  785MPD2    C111626   0.657   0.758  10.893 -0.1482 -0.3348  0.2371
  785MPD2    C211627   0.542   0.726  10.826  0.0395 -0.3547  0.1818
  785MPD2    C311628   0.547   0.654  10.710  0.0752 -0.5870 -0.1340
  785MPD2    C411629   0.669   0.599  10.668  0.7145 -0.0577 -0.7984
  785MPD2    C511630   0.783   0.622  10.737  1.3488  0.0043  0.0763
  785MPD2     H11631   0.454   0.774  10.865 -0.0262  0.4345 -0.9080
  785MPD2    H111632   0.686   0.544  10.577  1.4487 -0.1074 -0.6326
  785MPD2    H211633   0.873   0.717  10.908  0.8626 -0.2119 -1.0880
  785MPD2    H311634   0.877   0.581  10.702  0.3456 -1.8520 -0.4831
  785MPD2     N11635   0.427   0.638  10.636 -0.0651  0.4865 -0.4724
  785MPD2    H511636   0.346   0.683  10.678 -1.5197 -1.3982 -1.2617
  785MPD2    N111637   0.640   0.840  11.005 -0.5246  0.0321 -0.1000
  785MPD2    H711638   0.546   0.863  11.033 -1.3692 -2.3690 -0.9759
  786MPD2     C11639   3.541   4.440  14.725 -0.7170  0.1642 -0.5065
  786MPD2    C111640   3.659   4.374  14.731 -0.1104 -0.6029  0.6509
  786MPD2    C211641   3.739   4.383  14.840  0.5554 -0.5254 -0.1621
  786MPD2    C311642   3.701   4.462  14.950  0.7236 -0.2481  0.5897
  786MPD2    C411643   3.582   4.527  14.936 -0.6488  0.4153 -0.3631
  786MPD2    C511644   3.499   4.510  14.831 -0.7352  0.0899  0.8240
  786MPD2     H11645   3.831   4.326  14.842  2.2275  2.0786 -2.1139
  786MPD2    H111646   3.542   4.595  15.010  1.3234  1.5692 -0.3340
  786MPD2    H211647   3.469   4.422  14.646  0.3375 -1.3766 -1.1022
  786MPD2    H311648   3.400   4.554  14.829  0.0225  1.7347 -0.2090
  786MPD2     N11649   3.780   4.488  15.066  0.1194 -0.2676 -0.5931
  786MPD2    H511650   3.740   4.544  15.139  0.5739 -0.6524 -0.0475
  786MPD2    N111651   3.700   4.286  14.629  0.4142 -0.2856 -0.5360
  786MPD2    H711652   3.796   4.252  14.632  0.9440  1.2601 -0.0954
  787MPD2     C11653   4.172   3.988  14.758 -0.4153 -0.7613  0.3465
  787MPD2    C111654   4.107   3.915  14.662  0.8162 -0.5170 -0.1501
  787MPD2    C211655   4.114   3.777  14.676  0.2052 -0.0824 -0.2499
  787MPD2    C311656   4.175   3.712  14.785  0.4385 -0.2962 -0.7313
  787MPD2    C411657   4.232   3.792  14.883  0.3594 -0.5006 -0.1432
  787MPD2    C511658   4.233   3.924  14.869  0.1578  0.9196 -0.3292
  787MPD2     H11659   4.070   3.708  14.605 -0.0207  0.5149 -0.6958
  787MPD2    H111660   4.292   3.767  14.970  1.9261 -1.6539 -1.5489
  787MPD2    H211661   4.183   4.096  14.756 -3.6939 -0.4609 -0.2334
  787MPD2    H311662   4.286   3.989  14.938  0.3099 -0.3260  0.7066
  787MPD2     N11663   4.184   3.569  14.796  0.1922  0.2271  0.7743
  787MPD2    H511664   4.168   3.518  14.709 -0.9437  0.6630  0.7355
  787MPD2    N111665   4.044   3.981  14.559  0.9823  0.1313  0.0888
  787MPD2    H711666   4.016   4.077  14.576 -0.5723 -0.0162 -1.7539
  788MPD2     C11667   0.553   2.491   1.049  0.0343  0.4487  0.0060
  788MPD2    C111668   0.546   2.423   0.928  0.1634 -0.3986  0.5344
  788MPD2    C211669   0.568   2.501   0.818 -0.3477  0.6161 -0.0201
  788MPD2    C311670   0.605   2.638   0.815  0.7978  0.5447  0.1310
  788MPD2    C411671   0.607   2.708   0.933 -0.3494 -0.7543  0.0707
  788MPD2    C511672   0.578   2.631   1.044  0.6030 -0.0577 -0.2512
  788MPD2     H11673   0.557   2.450   0.722  1.2837  0.3275 -0.0478
  788MPD2    H111674   0.638   2.810   0.948 -2.1003 -0.3884  1.2339
  788MPD2    H211675   0.534   2.447   1.146 -2.2125 -3.7111 -2.3359
  788MPD2    H311676   0.586   2.682   1.140  0.3587  0.8332 -0.7091
  788MPD2     N11677   0.634   2.709   0.698 -0.0014  0.2073  0.1820
  788MPD2    H511678   0.644   2.810   0.710 -1.7358  0.4595 -0.4730
  788MPD2    N111679   0.509   2.289   0.902  0.5826 -0.5469 -0.1233
  788MPD2    H711680   0.517   2.255   0.807 -2.0390 -0.7050 -0.2965
  789MPD2     C11681   1.154   2.150  16.976  0.2589 -0.0469  0.0104
  789MPD2    C111682   1.094   2.175  16.850 -0.3682  0.3049 -0.4213
  789MPD2    C211683   0.978   2.251  16.843  1.5428 -0.4052 -0.9097
  789MPD2    C311684   0.921   2.306  16.959 -0.2508  0.0241  0.6394
  789MPD2    C411685   0.979   2.285  17.080  0.2359  0.3184  0.5103
  789MPD2    C511686   1.096   2.211  17.086  0.6345 -0.2937  0.5801
  789MPD2     H11687   0.922   2.261  16.751  3.1785 -2.1439 -2.0846
  789MPD2    H111688   0.936   2.322  17.172 -3.5494  0.0288 -1.1340
  789MPD2    H211689   1.241   2.089  16.998  0.0703 -0.9881 -1.8498
  789MPD2    H311690   1.144   2.215  17.183 -2.3487 -2.0622  2.1526
  789MPD2     N11691   0.814   2.397  16.955 -0.5106  0.1097 -0.2529
  789MPD2    H511692   0.799   2.446  17.043 -2.9437  0.6568 -0.9772
  789MPD2    N111693   1.130   2.111  16.733  0.6461 -0.0019 -0.6070
  789MPD2    H711694   1.066   2.120  16.654 -2.5474  2.2422  2.2270
  790MPD2     C11695   1.917   3.867  13.680  0.4891 -0.1393 -0.2333
  790MPD2    C111696   2.040   3.804  13.658  0.0931 -0.2684 -0.0076
  790MPD2    C211697   2.061   3.738  13.546  0.0317 -0.0583 -0.2474
  790MPD2    C311698   1.964   3.724  13.448 -0.1366 -0.4612  0.2085
  790MPD2    C411699   1.843   3.784  13.476 -0.4792  0.5815  0.6092
  790MPD2    C511700   1.825   3.859  13.587  0.4982  0.4709  0.9778
  790MPD2     H11701   2.157   3.693  13.521  0.0677  0.7057 -1.4479
  790MPD2    H111702   1.757   3.771  13.411  0.2441 -0.5149 -0.1224
  790MPD2    H211703   1.898   3.918  13.774 -1.3953 -1.0724 -0.1106
  790MPD2    H311704   1.733   3.913  13.602 -0.3368 -0.6401 -0.1478
  790MPD2     N11705   1.996   3.658  13.327 -0.6340 -0.2988  0.3060
  790MPD2    H511706   2.081   3.603  13.323 -1.1338 -1.1631  1.9450
  790MPD2    N111707   2.137   3.839  13.760 -0.1160  0.0024 -0.3078
  790MPD2    H711708   2.101   3.898  13.833  2.7580 -0.1726  1.2629
  791MPD2     C11709   1.510   3.625  12.671  0.1673 -0.3396  0.1632
  791MPD2    C111710   1.584   3.515  12.701  0.4785 -0.3092 -0.0345
  791MPD2    C211711   1.543   3.384  12.676 -0.5692  0.2747  0.4422
  791MPD2    C311712   1.413   3.363  12.618  0.5652 -0.2265  0.3997
  791MPD2    C411713   1.333   3.474  12.585  1.0614 -0.3271 -0.6010
  791MPD2    C511714   1.384   3.601  12.618 -0.4473 -0.3119 -0.2686
  791MPD2     H11715   1.601   3.294  12.693 -2.2299 -1.1854 -1.6975
  791MPD2    H111716   1.236   3.464  12.536 -0.0667  2.0688  1.1079
  791MPD2    H211717   1.536   3.727  12.698 -0.7894 -0.2038  0.5882
  791MPD2    H311718   1.326   3.692  12.609  0.4267  0.5286  2.7290
  791MPD2     N11719   1.374   3.227  12.595 -0.9522 -0.8720  0.1264
  791MPD2    H511720   1.450   3.167  12.627 -1.2251 -1.0414  0.4540
  791MPD2    N111721   1.711   3.543  12.775  0.3045  0.1411 -0.6552
  791MPD2    H711722   1.733   3.636  12.809  2.6061 -0.3996 -0.6542
  792MPD2     C11723   2.434   3.359  11.293  0.1478 -0.4096  0.1262
  792MPD2    C111724   2.337   3.450  11.248  0.1805  1.1477 -0.0107
  792MPD2    C211725   2.204   3.416  11.258 -0.0630 -0.4706 -0.0475
  792MPD2    C311726   2.166   3.291  11.314  0.5434  0.1912  0.2813
  792MPD2    C411727   2.264   3.201  11.350  0.0964  0.1347  0.2530
  792MPD2    C511728   2.394   3.236  11.336 -0.3673 -0.1049 -0.6493
  792MPD2     H11729   2.129   3.481  11.216  0.2459 -0.0042  0.1275
  792MPD2    H111730   2.242   3.101  11.386 -0.0847 -0.4270 -1.3970
  792MPD2    H211731   2.542   3.373  11.289 -0.2108  2.3723  0.5205
  792MPD2    H311732   2.471   3.175  11.382  0.2407  0.5317 -0.8149
  792MPD2     N11733   2.033   3.263  11.338 -0.0165 -0.1347 -0.1207
  792MPD2    H511734   2.021   3.175  11.388  0.5841 -0.3384 -0.3416
  792MPD2    N111735   2.386   3.569  11.205  0.3868  0.7096  0.3116
  792MPD2    H711736   2.485   3.586  11.220  0.6921 -0.9439  0.2207
  793MPD2     C11737   1.607   3.054  10.759  0.3955  0.7100  0.2670
  793MPD2    C111738   1.714   3.134  10.793 -0.6036 -0.7896 -0.2806
  793MPD2    C211739   1.715   3.207  10.910 -0.5072 -0.0553 -0.0075
  793MPD2    C311740   1.598   3.198  10.990 -0.2488  0.1654  0.0468
  793MPD2    C411741   1.489   3.116  10.953 -0.2061  0.6581 -0.3161
  793MPD2    C511742   1.496   3.043  10.842  0.1997  0.4002  0.8079
  793MPD2     H11743   1.797   3.271  10.941 -0.1301  0.1310 -1.3598
  793MPD2    H111744   1.403   3.101  11.016 -1.3603  0.7766 -1.8574
  793MPD2    H211745   1.607   2.991  10.671 -1.0040 -1.0520  1.5477
  793MPD2    H311746   1.418   2.976  10.809 -0.2069  1.6499 -0.7990
  793MPD2     N11747   1.606   3.277  11.103 -0.1836  0.1089 -0.6395
  793MPD2    H511748   1.695   3.322  11.121  0.2564 -0.1164 -2.2679
  793MPD2    N111749   1.829   3.132  10.712 -0.8568  0.0232 -0.0444
  793MPD2    H711750   1.912   3.176  10.749 -1.4539 -1.2653  2.7731
  794MPD2     C11751   1.932   2.346  16.756 -0.0065  0.3877 -0.2142
  794MPD2    C111752   1.807   2.389  16.802  0.6364  0.2064 -0.2648
  794MPD2    C211753   1.737   2.471  16.717 -0.5572  1.0936 -0.6689
  794MPD2    C311754   1.782   2.492  16.589 -0.5249 -0.1782 -0.3861
  794MPD2    C411755   1.895   2.429  16.542 -0.2327 -0.3875 -0.3117
  794MPD2    C511756   1.972   2.366  16.628  0.3769  0.0777  0.3607
  794MPD2     H11757   1.645   2.515  16.755 -0.8037  0.4206 -0.4825
  794MPD2    H111758   1.925   2.438  16.438 -0.5129  2.7032 -0.1382
  794MPD2    H211759   1.983   2.265  16.808 -1.7324 -0.3278  0.3544
  794MPD2    H311760   2.060   2.312  16.596 -1.0612 -3.0009  1.5560
  794MPD2     N11761   1.711   2.580  16.501 -0.2953 -0.5053 -0.8462
  794MPD2    H511762   1.731   2.579  16.401  2.4358 -0.9592 -0.2883
  794MPD2    N111763   1.770   2.336  16.927 -0.2146  0.1757 -1.2614
  794MPD2    H711764   1.844   2.290  16.979  0.0270  1.1112 -0.7749
  795MPD2     C11765   4.536   0.519  14.015 -0.0426 -0.7214 -0.1821
  795MPD2    C111766   4.520   0.406  13.939 -0.2229  0.0290  0.1879
  795MPD2    C211767   4.610   0.300  13.963 -0.6790  0.1739  0.3025
  795MPD2    C311768   4.716   0.309  14.049  0.0095  0.4729  0.4360
  795MPD2    C411769   4.736   0.428  14.108  0.1388  0.4616 -0.6555
  795MPD2    C511770   4.650   0.525  14.096  0.0026  0.4779 -0.5625
  795MPD2     H11771   4.616   0.216  13.894 -0.5608  1.0592 -0.7813
  795MPD2    H111772   0.076   0.438  14.181 -2.4732 -0.1435  2.2230
  795MPD2    H211773   4.469   0.604  14.019  0.2111 -0.4165 -2.1857
  795MPD2    H311774   4.659   0.624  14.140 -0.4027 -0.1587  0.9852
  795MPD2     N11775   0.072   0.205  14.067  0.1719  0.2143 -0.6130
  795MPD2    H511776   0.161   0.219  14.114 -0.1395 -1.1733  0.4081
  795MPD2    N111777   4.415   0.392  13.843  0.0689 -0.5489 -1.1244
  795MPD2    H711778   4.421   0.305  13.790 -0.5863  0.9399 -3.6548
  796MPD2     C11779   4.097   1.787  16.023 -0.2638  0.2131 -0.4450
  796MPD2    C111780   4.176   1.850  16.115  0.6825 -0.2461  0.2922
  796MPD2    C211781   4.207   1.988  16.099 -0.5767  0.2414 -0.5523
  796MPD2    C311782   4.143   2.057  15.998 -0.0938  0.6093  0.1119
  796MPD2    C411783   4.054   1.993  15.913  1.2582 -0.8894  0.0125
  796MPD2    C511784   4.036   1.857  15.920 -0.3430  0.5238  0.1221
  796MPD2     H11785   4.270   2.045  16.167 -1.1254  1.1334 -0.7963
  796MPD2    H111786   4.010   2.048  15.830  0.7322  1.2353  1.7216
  796MPD2    H211787   4.083   1.681  16.037  0.7341 -0.0206 -1.1972
  796MPD2    H311788   3.978   1.810  15.842  1.0021 -1.8844  0.5657
  796MPD2     N11789   4.173   2.190  15.992  0.0355 -0.6179  0.3692
  796MPD2    H511790   4.241   2.224  16.059 -2.0736  1.9301  1.2183
  796MPD2    N111791   4.221   1.767  16.221 -0.2006  0.5325  0.1371
  796MPD2    H711792   4.194   1.670  16.225 -0.8088  0.5651 -3.2523
  797MPD2     C11793   0.516   1.448   0.102  0.1867 -0.3772  0.8739
  797MPD2    C111794   0.546   1.462  17.721 -0.4458 -0.2369  0.1318
  797MPD2    C211795   0.506   1.568  17.649 -0.8648 -0.3994 -0.0049
  797MPD2    C311796   0.427   1.667  17.712  0.2302  0.3214  0.0508
  797MPD2    C411797   0.384   1.645   0.088 -0.2308 -0.0786 -0.7735
  797MPD2    C511798   0.428   1.537   0.162  0.1044  0.4793 -0.3196
  797MPD2     H11799   0.533   1.573  17.544  1.6124 -0.3956  0.6232
  797MPD2    H111800   0.316   1.712   0.139 -0.2927  0.8033 -2.0107
  797MPD2    H211801   0.545   1.365   0.165 -1.0667 -1.2477  0.3066
  797MPD2    H311802   0.401   1.523   0.266 -0.3769  0.9969 -0.3740
  797MPD2     N11803   0.380   1.783  17.642 -0.4465 -0.1538 -0.3925
  797MPD2    H511804   0.313   1.840  17.692 -2.2211 -1.4068 -1.3337
  797MPD2    N111805   0.623   1.370  17.657  0.5891  0.3535  0.4002
  797MPD2    H711806   0.628   1.380  17.556 -0.0700  0.7324  0.4039
  798MPD2     C11807   0.538   1.663  16.990 -0.1639  0.0466 -0.1625
  798MPD2    C111808   0.553   1.683  17.127  0.7607 -0.2977 -0.5818
  798MPD2    C211809   0.633   1.599  17.210 -0.2349  0.7255  0.2043
  798MPD2    C311810   0.686   1.480  17.163 -0.4218  0.0291 -0.6679
  798MPD2    C411811   0.672   1.450  17.027 -0.3764  0.0405 -0.4435
  798MPD2    C511812   0.590   1.542  16.953  0.3469  0.1730  0.0568
  798MPD2     H11813   0.644   1.625  17.315  2.2414  1.7409 -0.2973
  798MPD2    H111814   0.710   1.359  16.981 -1.1939 -0.2108 -0.6396
  798MPD2    H211815   0.492   1.724  16.914 -0.6653  0.1556  0.2358
  798MPD2    H311816   0.570   1.519  16.849 -1.6314 -0.0586  0.4959
  798MPD2     N11817   0.749   1.398  17.255  0.2454 -0.1040 -0.3409
  798MPD2    H511818   0.776   1.438  17.344 -1.1393  1.9911 -0.8649
  798MPD2    N111819   0.485   1.797  17.182 -0.0547  0.6829  0.8710
  798MPD2    H711820   0.497   1.803  17.283 -0.8342 -0.0004  1.0091
  799MPD2     C11821   3.912   3.371  14.893  0.0542  0.1340  0.4260
  799MPD2    C111822   3.872   3.298  14.781 -0.1202 -0.2121  0.4972
  799MPD2    C211823   3.844   3.365  14.662  0.5103  0.5058 -0.1168
  799MPD2    C311824   3.836   3.505  14.663 -0.0750  0.0638 -0.6632
  799MPD2    C411825   3.850   3.573  14.781 -0.2566  0.4990 -0.4794
  799MPD2    C511826   3.896   3.504  14.886  0.3579 -0.3579  0.2545
  799MPD2     H11827   3.831   3.307  14.571  1.2173 -0.6846  0.5423
  799MPD2    H111828   3.843   3.681  14.789 -0.1610  0.6272 -1.9897
  799MPD2    H211829   3.929   3.317  14.986  3.0672 -0.2067 -0.3146
  799MPD2    H311830   3.915   3.567  14.972 -0.5666  0.5832 -0.2247
  799MPD2     N11831   3.811   3.583  14.544 -0.3333  0.1647 -0.5330
  799MPD2    H511832   3.768   3.674  14.551 -1.4585 -0.4259  0.2550
  799MPD2    N111833   3.851   3.158  14.779 -0.0348  0.4719  0.2787
  799MPD2    H711834   3.807   3.116  14.698 -0.7008 -1.0051  1.3843
  800MPD2     C11835   4.359   4.216  14.372  0.0115 -0.2604 -0.1246
  800MPD2    C111836   4.483   4.164  14.333 -0.2442 -0.0421  0.0241
  800MPD2    C211837   4.485   4.047  14.253 -0.3310  0.2702 -0.4890
  800MPD2    C311838   4.366   3.997  14.199  0.2148  0.3766 -0.8646
  800MPD2    C411839   4.247   4.058  14.225  0.0654 -0.0084 -0.1075
  800MPD2    C511840   4.243   4.167  14.315 -0.5982 -0.1037 -0.4713
  800MPD2     H11841   4.580   3.998  14.234 -1.0247 -2.1252  2.1410
  800MPD2    H111842   4.154   4.007  14.201  0.5616 -0.8447 -0.2362
  800MPD2    H211843   4.359   4.282  14.457  0.3000 -0.9610  0.4180
  800MPD2    H311844   4.147   4.192  14.359  0.0124 -3.5606  2.8717
  800MPD2     N11845   4.392   3.901  14.103  1.2710  0.2288  0.3247
  800MPD2    H511846   4.490   3.872  14.107  0.7960 -1.4124 -0.0851
  800MPD2    N111847   4.603   4.227  14.383  0.1564 -0.1636 -0.1006
  800MPD2    H711848   4.588   4.316  14.429 -1.8890 -0.7300  0.3326
  801MPD2     C11849   0.120   0.175  14.458  0.0543 -0.0741 -0.1163
  801MPD2    C111850   0.073   0.074  14.540  0.3673  0.1405  0.6488
  801MPD2    C211851   4.729   0.097  14.643  0.3204 -0.6633  0.2025
  801MPD2    C311852   4.672   0.223  14.663  0.5212 -0.7441 -0.0694
  801MPD2    C411853   4.712   0.325  14.584 -0.2331  0.4380 -0.6114
  801MPD2    C511854   0.071   0.300  14.491 -0.4079  0.3031  0.2489
  801MPD2     H11855   4.696   0.017  14.709  0.0735 -1.3282 -0.7342
  801MPD2    H111856   4.679   0.428  14.590 -4.3259 -0.9467  0.2990
  801MPD2    H211857   0.190   0.165  14.377 -0.4062  2.6399 -0.8695
  801MPD2    H311858   0.112   0.389  14.445  0.3864  1.1938  2.7113
  801MPD2     N11859   4.559   0.245  14.746  0.0077  0.4167  0.9059
  801MPD2    H511860   4.510   0.333  14.738  0.9981  0.8627 -0.2908
  801MPD2    N111861   0.118   4.677  14.517 -0.1146  0.4077  0.4212
  801MPD2    H711862   0.089   4.610  14.588 -0.0731  0.3313  0.3655
  802MPD2     C11863   3.120   0.800   0.694  0.1509  0.4738  0.4336
  802MPD2    C111864   3.063   0.731   0.588 -0.5709 -0.5383 -0.0260
  802MPD2    C211865   3.096   0.596   0.562 -0.6206  0.9464  0.2674
  802MPD2    C311866   3.195   0.537   0.638  0.6344 -0.0953 -0.4894
  802MPD2    C411867   3.249   0.602   0.743 -0.2516  0.1811  0.0984
  802MPD2    C511868   3.210   0.728   0.777 -0.1747 -0.1482 -0.4541
  802MPD2     H11869   3.053   0.537   0.481 -0.5803 -0.8166  1.5232
  802MPD2    H111870   3.327   0.556   0.804 -0.9608  1.1930  1.7745
  802MPD2    H211871   3.077   0.895   0.723 -0.6731  0.0286  0.6731
  802MPD2    H311872   3.262   0.771   0.862  3.1557 -2.7026 -1.1952
  802MPD2     N11873   3.222   0.401   0.614 -0.2318 -0.0258  0.3014
  802MPD2    H511874   3.181   0.359   0.531  0.3704  0.1852 -0.1031
  802MPD2    N111875   2.966   0.792   0.506  0.2909 -0.1087  0.6465
  802MPD2    H711876   2.926   0.737   0.430  2.1834 -0.6717  0.0476
  803MPD2     C11877   0.113   3.165  11.931  0.6274 -0.4838 -0.1669
  803MPD2    C111878   0.240   3.132  11.975 -0.1218 -0.4528  0.1248
  803MPD2    C211879   0.248   3.035  12.073 -0.6406  0.7795 -0.0552
  803MPD2    C311880   0.138   2.993  12.149  0.5754  0.0289  0.1529
  803MPD2    C411881   0.012   3.048  12.110  0.3863  0.3772 -0.0853
  803MPD2    C511882   0.006   3.116  11.993  0.1664 -0.0308 -0.1466
  803MPD2     H11883   0.344   3.004  12.113 -0.1112 -1.3696 -2.9606
  803MPD2    H111884   4.659   3.019  12.160  1.0932 -0.1960  0.8775
  803MPD2    H211885   0.100   3.240  11.854 -1.1692  1.4285  1.9961
  803MPD2    H311886   4.650   3.147  11.952  0.2989  0.5890  0.0180
  803MPD2     N11887   0.136   2.914  12.264  0.9200 -0.6485  0.7603
  803MPD2    H511888   0.043   2.900  12.301  0.9787 -0.6801  0.8966
  803MPD2    N111889   0.362   3.186  11.923 -0.2301  0.0497  0.3780
  803MPD2    H711890   0.446   3.135  11.951  0.2056 -0.4420 -1.8446
  804MPD2     C11891   3.797   0.172  17.033  0.7414 -0.0298 -0.1791
  804MPD2    C111892   3.914   0.171  17.104  0.1706 -0.2400 -0.1763
  804MPD2    C211893   3.978   0.287  17.130 -0.0228 -0.1765 -0.3610
  804MPD2    C311894   3.932   0.408  17.084  0.0534 -0.0457  0.3111
  804MPD2    C411895   3.817   0.408  17.011 -0.0266 -0.0435  0.5299
  804MPD2    C511896   3.756   0.290  16.981  0.1061 -0.7560 -0.1511
  804MPD2     H11897   4.072   0.282  17.185  1.3033  0.6286 -2.5601
  804MPD2    H111898   3.777   0.500  16.968  0.0997  0.1782  0.8889
  804MPD2    H211899   3.743   0.083  17.003 -0.9006  0.4974  1.2108
  804MPD2    H311900   3.669   0.289  16.915 -1.0920 -0.3190  1.4225
  804MPD2     N11901   4.006   0.529  17.106  0.5378 -0.3445  0.5369
  804MPD2    H511902   4.076   0.526  17.180  1.2713  1.9169 -0.0573
  804MPD2    N111903   3.964   0.049  17.147  0.2821  0.7995 -0.1230
  804MPD2    H711904   4.060   0.052  17.180  0.7018 -2.2695 -1.0068
  805MPD2     C11905   3.733   3.724  15.592  0.3947 -0.2033 -0.5553
  805MPD2    C111906   3.819   3.630  15.538 -0.1065  0.2374  0.1246
  805MPD2    C211907   3.931   3.592  15.613  0.4782  0.0884  0.2638
  805MPD2    C311908   3.959   3.654  15.732 -0.2083 -0.4666 -0.0872
  805MPD2    C411909   3.872   3.750  15.781 -0.0570  0.0048 -0.0299
  805MPD2    C511910   3.762   3.789  15.711  0.1725  0.7052  0.3980
  805MPD2     H11911   3.995   3.512  15.578 -3.2163 -2.2404 -1.2374
  805MPD2    H111912   3.903   3.803  15.871 -1.5765 -0.2079  0.6253
  805MPD2    H211913   3.639   3.756  15.551  1.2013  1.7697 -0.8413
  805MPD2    H311914   3.702   3.871  15.750  2.4091  2.0937  0.8891
  805MPD2     N11915   4.074   3.612  15.800 -0.4029 -0.2288 -0.4325
  805MPD2    H511916   4.143   3.557  15.750 -0.0029  0.1404 -0.2909
  805MPD2    N111917   3.804   3.584  15.405 -0.0023 -0.1239  0.1610
  805MPD2    H711918   3.883   3.526  15.378  0.6582  0.4921  0.7286
  806MPD2     C11919   3.472   2.684   0.571 -1.0509 -0.4303  0.5599
  806MPD2    C111920   3.525   2.805   0.594 -0.0930 -0.0895  0.1075
  806MPD2    C211921   3.574   2.876   0.487  0.2552  0.4360  0.2557
  806MPD2    C311922   3.571   2.829   0.354 -0.4847  0.2662  0.4358
  806MPD2    C411923   3.502   2.711   0.326 -0.3605 -0.3139 -0.6680
  806MPD2    C511924   3.460   2.640   0.437 -0.4700 -0.6509  0.3867
  806MPD2     H11925   3.634   2.964   0.507  0.2384  0.9862 -2.2000
  806MPD2    H111926   3.492   2.674   0.224  1.6314 -0.9385 -0.6399
  806MPD2    H211927   3.429   2.623   0.650 -1.4232 -1.0415 -0.1181
  806MPD2    H311928   3.423   2.541   0.414 -1.5950 -0.1633  0.0870
  806MPD2     N11929   3.622   2.926   0.264  0.0994 -0.1385 -0.0751
  806MPD2    H511930   3.653   3.016   0.298  1.8725 -1.0390  0.7255
  806MPD2    N111931   3.523   2.856   0.723  0.6678  0.5946  0.3176
  806MPD2    H711932   3.499   2.787   0.794  1.3389 -0.9487 -0.9498
  807MPD2     C11933   3.419   2.615   1.386 -0.2237 -0.2164 -0.1969
  807MPD2    C111934   3.459   2.616   1.253  0.4124 -0.0975 -0.3413
  807MPD2    C211935   3.457   2.485   1.194  0.3893 -0.3173  0.1335
  807MPD2    C311936   3.444   2.361   1.271  0.5204  0.5919 -0.2105
  807MPD2    C411937   3.403   2.378   1.400  0.2676  0.7782  0.4495
  807MPD2    C511938   3.395   2.502   1.455  0.1918  0.7342  0.4023
  807MPD2     H11939   3.475   2.465   1.089 -2.6837  1.6032 -0.7472
  807MPD2    H111940   3.388   2.293   1.465  2.0124  1.6391  1.9664
  807MPD2    H211941   3.405   2.709   1.439 -2.2961 -0.5002 -0.2336
  807MPD2    H311942   3.363   2.516   1.558 -1.8989 -1.9318  0.1353
  807MPD2     N11943   3.476   2.244   1.209  0.2374 -0.3775 -0.3266
  807MPD2    H511944   3.511   2.259   1.115 -1.7198 -3.0058 -1.4634
  807MPD2    N111945   3.477   2.730   1.175  0.2590  0.1853  0.3476
  807MPD2    H711946   3.498   2.703   1.080 -0.9400 -1.6383  0.6020
  808MPD2     C11947   0.467   4.228   9.985 -0.3524  0.1349 -0.4274
  808MPD2    C111948   0.379   4.268  10.084 -0.3167  0.5235 -0.5223
  808MPD2    C211949   0.375   4.397  10.125  0.1500  0.3521 -0.1780
  808MPD2    C311950   0.465   4.485  10.078  0.2072 -0.8495 -0.1655
  808MPD2    C411951   0.553   4.442   9.979  0.5025  0.2880  0.7203
  808MPD2    C511952   0.553   4.314   9.931 -0.1152  0.5639  0.3552
  808MPD2     H11953   0.291   4.421  10.190  3.0839  0.9227  3.4208
  808MPD2    H111954   0.630   4.510   9.943 -0.1753  2.3405  3.1125
  808MPD2    H211955   0.474   4.122   9.965  1.2395  0.2798 -0.6313
  808MPD2    H311956   0.621   4.285   9.852  0.9860  1.4228  0.9794
  808MPD2     N11957   0.477   4.617  10.137  0.5571  0.4546 -0.5157
  808MPD2    H511958   0.559   4.665  10.102  0.3407  1.2342  0.0535
  808MPD2    N111959   0.285   4.181  10.153 -0.5674  0.2159 -1.0298
  808MPD2    H711960   0.229   4.224  10.225  0.4826  2.2827 -1.4505
  809MPD2     C11961   0.897   0.774  10.086 -0.1325  0.2813 -0.4402
  809MPD2    C111962   0.907   0.653  10.021  0.4814 -0.2143  0.0702
  809MPD2    C211963   0.843   0.546  10.080  0.6829  0.1962 -0.3118
  809MPD2    C311964   0.756   0.563  10.191  0.6347  0.3584  1.0803
  809MPD2    C411965   0.763   0.681  10.259  0.6771 -0.0080  0.7676
  809MPD2    C511966   0.841   0.784  10.211 -0.3868 -0.0513 -0.2161
  809MPD2     H11967   0.856   0.448  10.036  0.9789  0.2218 -0.2797
  809MPD2    H111968   0.705   0.694  10.350  0.8243  0.5341  0.7842
  809MPD2    H211969   0.943   0.863  10.044  1.5160  0.5258  1.8747
  809MPD2    H311970   0.858   0.878  10.260  0.5111 -1.0563  1.3690
  809MPD2     N11971   0.674   0.458  10.246 -0.3268  0.3213 -0.2251
  809MPD2    H511972   0.612   0.470  10.325 -1.5882  0.3781 -1.2283
  809MPD2    N111973   0.972   0.626   9.904 -0.2034 -0.4216 -0.2963
  809MPD2    H711974   0.965   0.529   9.878 -1.9944  0.3928 -2.9028
  810MPD2     C11975   4.193   3.374  11.272  0.5378  0.3349 -0.5116
  810MPD2    C111976   4.279   3.372  11.171  0.2183 -0.0380 -0.3278
  810MPD2    C211977   4.325   3.496  11.118 -0.5430 -0.0617  0.1918
  810MPD2    C311978   4.267   3.610  11.164 -0.9430  0.6997  0.0505
  810MPD2    C411979   4.173   3.608  11.266  0.9094 -0.2496  0.5132
  810MPD2    C511980   4.139   3.489  11.319  0.0975  0.0114  0.2585
  810MPD2     H11981   4.396   3.499  11.037  0.0221  2.9698  0.7764
  810MPD2    H111982   4.123   3.696  11.303 -0.9228 -0.6949 -0.8427
  810MPD2    H211983   4.164   3.281  11.319  1.7200 -0.5028 -1.4471
  810MPD2    H311984   4.069   3.482  11.402 -0.5022 -1.2408 -0.3542
  810MPD2     N11985   4.291   3.737  11.106  0.2804  0.0505 -0.2049
  810MPD2    H511986   4.226   3.811  11.130 -3.4769 -3.1799 -0.4406
  810MPD2    N111987   4.313   3.239  11.116  0.8273 -0.3462  0.3989
  810MPD2    H711988   4.262   3.159  11.153 -1.2751  0.5622 -0.5222
  811MPD2     C11989   3.995   2.878  10.385  0.1052  0.3545 -0.2344
  811MPD2    C111990   4.077   2.968  10.440 -0.3749  0.2874 -0.2445
  811MPD2    C211991   4.087   3.093  10.381  0.2962 -0.2713 -0.0621
  811MPD2    C311992   4.019   3.127  10.267 -0.4980  0.0345  0.3184
  811MPD2    C411993   3.945   3.024  10.213 -0.7782 -0.3527  0.8241
  811MPD2    C511994   3.923   2.908  10.282 -1.0359  0.0178  0.6455
  811MPD2     H11995   4.138   3.172  10.435 -2.6361  0.7236  1.2561
  811MPD2    H111996   3.884   3.045  10.126  0.0686 -2.8177 -0.3571
  811MPD2    H211997   3.985   2.782  10.434 -2.1539  0.9346  0.4754
  811MPD2    H311998   3.852   2.834  10.248 -2.8689  0.6144  3.2384
  811MPD2     N11999   4.022   3.260  10.217 -0.0012 -0.6716 -0.0170
  811MPD2    H512000   4.099   3.320  10.244 -2.3518  1.9380  1.0138
  811MPD2    N112001   4.147   2.934  10.564  0.2084  0.2116  0.9443
  811MPD2    H712002   4.131   2.845  10.611 -0.2088 -1.1230 -1.7318
  812MPD2     C12003   2.850   3.388  12.587  0.2977  0.1979  0.0104
  812MPD2    C112004   2.839   3.454  12.709  0.7082  0.6680  0.1779
  812MPD2    C212005   2.806   3.380  12.818 -0.8093  0.2023  0.4602
  812MPD2    C312006   2.773   3.248  12.819  0.5339  0.4118 -0.1848
  812MPD2    C412007   2.772   3.183  12.698 -0.1882  0.4591 -0.1691
  812MPD2    C512008   2.817   3.254  12.586 -0.2281  0.0186  0.3560
  812MPD2     H12009   2.810   3.423  12.918 -1.2465  0.2907  0.4433
  812MPD2    H112010   2.753   3.076  12.698  0.0976  0.4044 -1.4552
  812MPD2    H212011   2.883   3.437  12.497  0.1501  0.0962 -0.0989
  812MPD2    H312012   2.831   3.202  12.492 -0.9591  0.9839 -0.2830
  812MPD2     N12013   2.749   3.188  12.943 -0.7190  0.1558 -0.3215
  812MPD2    H512014   2.783   3.242  13.022 -0.1243  0.0227 -0.4892
  812MPD2    N112015   2.855   3.593  12.719 -0.4380 -0.2380 -0.1562
  812MPD2    H712016   2.881   3.632  12.629  0.7844 -1.9067 -0.5203
  813MPD2     C12017   2.073   0.450  12.879 -0.1921 -0.0658  0.9769
  813MPD2    C112018   2.171   0.529  12.940  0.1456  0.6977  0.2676
  813MPD2    C212019   2.139   0.595  13.062  0.7823 -0.2815  0.5447
  813MPD2    C312020   2.019   0.581  13.125  0.1887 -0.4071  0.0321
  813MPD2    C412021   1.922   0.510  13.063 -0.5287  0.2276 -0.6614
  813MPD2    C512022   1.948   0.445  12.944  0.1635 -0.5500 -0.0835
  813MPD2     H12023   2.216   0.655  13.109  1.2264  0.2357 -0.8356
  813MPD2    H112024   1.822   0.495  13.103  0.1568  0.1463  1.0102
  813MPD2    H212025   2.086   0.399  12.785 -0.3328  1.0797  0.3274
  813MPD2    H312026   1.870   0.386  12.897 -1.5987  0.9405  0.9819
  813MPD2     N12027   2.005   0.645  13.246  0.3158 -0.4958  0.0905
  813MPD2    H512028   2.081   0.709  13.266  0.8535 -1.1523  0.1265
  813MPD2    N112029   2.303   0.552  12.889 -0.0424 -0.3414 -0.6836
  813MPD2    H712030   2.361   0.614  12.945  1.4566 -0.9335 -1.5764
  814MPD2     C12031   2.784   1.543  12.500  0.3392 -0.6238  0.1142
  814MPD2    C112032   2.766   1.665  12.444 -1.0649  1.1383 -0.0844
  814MPD2    C212033   2.821   1.770  12.499 -0.6739 -0.3510  0.3878
  814MPD2    C312034   2.913   1.756  12.607  0.4361  0.2048  0.5624
  814MPD2    C412035   2.923   1.637  12.673 -0.4001  0.2241 -0.0419
  814MPD2    C512036   2.862   1.530  12.612  0.1897 -0.0223  0.2878
  814MPD2     H12037   2.814   1.868  12.453 -0.4050  0.4364  2.0230
  814MPD2    H112038   2.981   1.606  12.759  1.4949 -0.3381 -1.5207
  814MPD2    H212039   2.726   1.454  12.478 -1.0720 -0.0688  1.5255
  814MPD2    H312040   2.886   1.436  12.661 -0.6845  0.0748  0.9065
  814MPD2     N12041   2.994   1.857  12.663 -0.2155  0.1757 -0.1981
  814MPD2    H512042   3.046   1.834  12.747 -0.1434  0.1724 -0.2431
  814MPD2    N112043   2.692   1.681  12.328 -0.0004 -0.3500 -0.8064
  814MPD2    H712044   2.678   1.778  12.301  2.9447  0.5132  0.8088
  815MPD2     C12045   3.433   0.099  12.033 -0.0300 -0.0666  0.0006
  815MPD2    C112046   3.412   4.703  12.043  0.1196 -0.0042  0.0204
  815MPD2    C212047   3.344   4.658  12.154  0.5408 -0.4816 -0.0776
  815MPD2    C312048   3.281   0.007  12.242  0.2542  0.5109  0.3427
  815MPD2    C412049   3.297   0.145  12.230 -0.1615  0.6760  0.5366
  815MPD2    C512050   3.374   0.185  12.126  0.4451 -0.0956 -0.5524
  815MPD2     H12051   3.330   4.552  12.175 -0.3529 -0.5280 -0.8835
  815MPD2    H112052   3.249   0.225  12.286 -1.4396 -0.3446  0.8788
  815MPD2    H212053   3.481   0.140  11.945 -1.1952 -1.4428 -1.2838
  815MPD2    H312054   3.380   0.293  12.124  4.7963 -0.3389 -0.6781
  815MPD2     N12055   3.188   4.690  12.339  0.0855  0.9544  0.6141
  815MPD2    H512056   3.171   4.592  12.320 -1.1502  1.7289 -2.2569
  815MPD2    N112057   3.453   4.622  11.939 -0.1429 -0.1801  0.0278
  815MPD2    H712058   3.480   4.677  11.859 -0.1699  0.6306  0.5752
  816MPD2     C12059   2.106   4.230  17.041 -0.5658 -0.3535  0.0398
  816MPD2    C112060   2.201   4.327  17.059  0.2045 -0.3406  0.5069
  816MPD2    C212061   2.325   4.313  16.998 -0.4096  0.0424  0.4543
  816MPD2    C312062   2.352   4.204  16.920  0.3874 -0.0452  0.2514
  816MPD2    C412063   2.250   4.111  16.899  0.2088 -0.0319  0.4519
  816MPD2    C512064   2.127   4.127  16.960 -0.5282  0.2917  0.4893
  816MPD2     H12065   2.400   4.391  17.001 -1.1834  0.8131 -0.4744
  816MPD2    H112066   2.262   4.029  16.829 -0.6248 -0.0528  0.3430
  816MPD2    H212067   2.008   4.251  17.082 -0.1172 -1.9375  1.9166
  816MPD2    H312068   2.043   4.060  16.940  0.6656 -1.0408 -0.0778
  816MPD2     N12069   2.478   4.185  16.864 -0.2843  0.5764  0.1435
  816MPD2    H512070   2.535   4.267  16.879  1.9757 -1.0136  0.2839
  816MPD2    N112071   2.169   4.436  17.148  0.4358 -0.1846  0.4857
  816MPD2    H712072   2.077   4.432  17.190 -0.2819 -4.6738 -1.5186
  817MPD2     C12073   2.666   1.356  10.583 -0.0983  0.6960 -0.3349
  817MPD2    C112074   2.732   1.382  10.469  0.3022  0.1340 -0.0355
  817MPD2    C212075   2.689   1.487  10.394  0.1130 -0.7447 -0.2597
  817MPD2    C312076   2.578   1.558  10.429  0.1506  0.8959 -0.4575
  817MPD2    C412077   2.508   1.534  10.538 -0.1746  0.5665 -0.3850
  817MPD2    C512078   2.556   1.435  10.621 -0.2907  0.1408 -0.1469
  817MPD2     H12079   2.741   1.517  10.303 -0.2971  1.2553  0.1728
  817MPD2    H112080   2.426   1.596  10.574 -0.1138  0.3207  0.1908
  817MPD2    H212081   2.701   1.279  10.651 -2.1304 -0.4847 -0.6318
  817MPD2    H312082   2.504   1.432  10.715 -0.7260  3.1459 -0.2692
  817MPD2     N12083   2.543   1.669  10.354  0.5638  0.0805 -0.2536
  817MPD2    H512084   2.606   1.697  10.280  1.8371 -0.9151  0.4661
  817MPD2    N112085   2.828   1.287  10.411 -0.3917  0.0808 -0.1764
  817MPD2    H712086   2.863   1.309  10.318  1.3815  1.1746  0.7663
  818MPD2     C12087   1.721   0.976  10.415  0.4076 -0.1979 -0.2001
  818MPD2    C112088   1.624   0.891  10.446  0.1479  0.2061 -0.4512
  818MPD2    C212089   1.605   0.769  10.382 -0.4140 -0.2061  0.0000
  818MPD2    C312090   1.686   0.736  10.276  0.5551  0.0902  0.7943
  818MPD2    C412091   1.787   0.827  10.251  0.0817 -0.5549 -0.1674
  818MPD2    C512092   1.807   0.944  10.318 -0.5839 -0.4712 -1.1757
  818MPD2     H12093   1.517   0.712  10.406 -0.6326 -0.1030 -0.5509
  818MPD2    H112094   1.853   0.817  10.166  1.0184 -1.1149  0.6299
  818MPD2    H212095   1.734   1.071  10.467  0.4165  0.8020 -2.0118
  818MPD2    H312096   1.879   1.019  10.289  1.1821 -2.0177 -0.8347
  818MPD2     N12097   1.684   0.616  10.199  0.4911 -0.4173  0.6070
  818MPD2    H512098   1.762   0.597  10.137  0.3358  1.0521 -0.0441
  818MPD2    N112099   1.541   0.920  10.559 -0.1345  0.3723  0.1309
  818MPD2    H712100   1.483   0.848  10.600 -0.8044  1.2069  0.6386
  819MPD2     C12101   4.271   2.922  15.559  0.2443 -0.3569 -0.3329
  819MPD2    C112102   4.280   2.786  15.563  0.3593  0.1009  0.9317
  819MPD2    C212103   4.400   2.735  15.603  0.1933  0.1671  0.7573
  819MPD2    C312104   4.496   2.812  15.654 -0.0724  0.7126 -0.9228
  819MPD2    C412105   4.485   2.949  15.645  0.2420 -0.1472  0.2764
  819MPD2    C512106   4.370   2.997  15.594 -0.7401  0.0380  0.1241
  819MPD2     H12107   4.419   2.631  15.622  0.4279  0.1144  0.2363
  819MPD2    H112108   4.566   3.019  15.664 -0.1875  0.6229 -0.7520
  819MPD2    H212109   4.184   2.978  15.526  0.8784 -0.1978 -1.7169
  819MPD2    H312110   4.361   3.104  15.581  0.9765  0.0482 -0.9204
  819MPD2     N12111   4.620   2.756  15.688  0.4208  0.7136 -0.3167
  819MPD2    H512112   4.628   2.665  15.644 -0.1662  0.7811 -0.5603
  819MPD2    N112113   4.168   2.711  15.511  0.4666 -0.0705  0.0455
  819MPD2    H712114   4.102   2.770  15.460 -0.9663  0.3106  2.3680
  820MPD2     C12115   3.433   2.917  15.008 -0.3009  0.3758 -0.5366
  820MPD2    C112116   3.538   2.977  15.077  0.1479 -1.5654  0.3842
  820MPD2    C212117   3.612   2.897  15.166 -0.1846  0.3118  0.0178
  820MPD2    C312118   3.584   2.761  15.176  0.6239  0.4937 -0.3192
  820MPD2    C412119   3.479   2.706  15.111  0.1460 -0.0936 -0.1508
  820MPD2    C512120   3.401   2.782  15.029 -0.1307  0.2849 -0.1681
  820MPD2     H12121   3.684   2.941  15.233  0.3569 -0.0610 -0.3085
  820MPD2    H112122   3.453   2.601  15.111 -1.9901  0.4492 -2.4911
  820MPD2    H212123   3.371   2.978  14.943 -0.1209  0.7964 -0.3157
  820MPD2    H312124   3.311   2.750  14.978  1.0698 -1.3383 -1.2446
  820MPD2     N12125   3.662   2.671  15.246  0.2357 -0.0011 -0.8776
  820MPD2    H512126   3.639   2.572  15.248 -1.2081  0.2999 -2.3863
  820MPD2    N112127   3.563   3.119  15.058 -0.0601  0.4400  0.7428
  820MPD2    H712128   3.517   3.159  14.977  0.9674 -0.8431 -0.4678
  821MPD2     C12129   4.543   3.968  13.298 -0.2586  0.0385 -0.1615
  821MPD2    C112130   4.642   3.912  13.382  0.0215  0.1655 -0.2005
  821MPD2    C212131   0.031   3.898  13.334 -0.5873  0.3491 -0.3539
  821MPD2    C312132   0.066   3.932  13.205  0.6866  0.3839  0.0608
  821MPD2    C412133   4.707   3.978  13.126 -0.2485 -0.8163  0.1111
  821MPD2    C512134   4.576   3.997  13.171  0.0606  0.3877 -0.8774
  821MPD2     H12135   0.109   3.856  13.397 -1.0968 -1.9278 -1.2157
  821MPD2    H112136   4.724   3.995  13.020  1.0953  0.8584  0.6154
  821MPD2    H212137   4.439   3.971  13.328 -0.7064 -0.2579 -1.6841
  821MPD2    H312138   4.501   4.039  13.105  0.2626  1.2221 -0.5658
  821MPD2     N12139   0.198   3.939  13.156  0.1047  0.2507 -0.3936
  821MPD2    H512140   0.214   3.992  13.071 -0.0317  1.1013  0.1126
  821MPD2    N112141   4.617   3.876  13.512  0.2750  0.2947 -0.1581
  821MPD2    H712142   4.689   3.821  13.560  0.5868  2.1684  1.4937
  822MPD2     C12143   0.414   4.369  15.875 -1.0177 -0.3353  0.5864
  822MPD2    C112144   0.387   4.341  16.008  0.5567  0.3791 -0.0064
  822MPD2    C212145   0.294   4.419  16.080 -0.1034 -0.5482 -0.1411
  822MPD2    C312146   0.251   4.537  16.022 -0.4826  0.2139  0.8866
  822MPD2    C412147   0.271   4.559  15.887  0.1329  0.1901 -0.3403
  822MPD2    C512148   0.358   4.478  15.814  0.1889 -0.8877 -0.6000
  822MPD2     H12149   0.257   4.395  16.179 -1.9060  3.2894  0.0949
  822MPD2    H112150   0.225   4.642  15.834  0.9901 -0.3508 -1.9271
  822MPD2    H212151   0.491   4.319  15.818 -1.1378  0.3633 -0.1751
  822MPD2    H312152   0.372   4.490  15.707 -0.7889 -0.1615 -0.6479
  822MPD2     N12153   0.175   4.622  16.100 -0.0945  0.0238 -0.7467
  822MPD2    H512154   0.161   4.587  16.194  0.6969 -0.6396 -0.8749
  822MPD2    N112155   0.446   4.217  16.068 -0.4990  0.4501  0.6271
  822MPD2    H712156   0.430   4.206  16.168  1.7402 -1.9694  0.7167
  823MPD2     C12157   4.320   0.103  16.673 -0.4162  0.5469 -0.5194
  823MPD2    C112158   4.408   0.029  16.603  0.3019  0.0186  0.5485
  823MPD2    C212159   4.452   4.648  16.657 -0.4103  0.8052  0.8675
  823MPD2    C312160   4.412   4.610  16.783 -0.5754  0.2944  0.3076
  823MPD2    C412161   4.311   4.681  16.849 -0.5840 -0.2237  0.4172
  823MPD2    C512162   4.275   0.062  16.795 -0.4782 -0.2877 -0.1874
  823MPD2     H12163   4.517   4.583  16.601  2.0670  2.5891  1.6627
  823MPD2    H112164   4.272   4.635  16.939 -2.2294  0.9831  0.3028
  823MPD2    H212165   4.273   0.193  16.635  0.2614  1.2380  0.2590
  823MPD2    H312166   4.194   0.111  16.848  1.0796  1.9858  0.0649
  823MPD2     N12167   4.458   4.497  16.851  0.0811 -0.0939  0.2678
  823MPD2    H512168   4.420   4.482  16.943  0.9024 -0.4022  0.5597
  823MPD2    N112169   4.463   0.078  16.484  0.1369  0.2936 -0.2627
  823MPD2    H712170   4.439   0.173  16.458 -0.1178  0.6316  1.2338
  824MPD2     C12171   0.996   3.481  16.230  0.0201 -0.0949 -0.9032
  824MPD2    C112172   0.934   3.541  16.119 -0.0158 -0.1063 -0.1133
  824MPD2    C212173   0.947   3.485  15.999  0.3501  0.6451  0.7264
  824MPD2    C312174   1.015   3.366  15.981 -0.7898  0.0533  0.4860
  824MPD2    C412175   1.058   3.293  16.093  0.4679 -0.5593  0.1223
  824MPD2    C512176   1.054   3.358  16.213  0.0463  0.2965  0.1115
  824MPD2     H12177   0.914   3.549  15.917  1.6906  1.8135  1.0929
  824MPD2    H112178   1.107   3.196  16.088 -0.1922 -0.7769 -2.0224
  824MPD2    H212179   0.996   3.525  16.329 -1.9767  0.8431 -1.3212
  824MPD2    H312180   1.098   3.314  16.301  0.4743 -1.5957 -1.0572
  824MPD2     N12181   1.023   3.315  15.848 -0.0902  0.0381 -0.1427
  824MPD2    H512182   0.997   3.377  15.771  2.4776  0.2639 -0.8232
  824MPD2    N112183   0.879   3.668  16.138  0.4334 -0.3798 -0.1731
  824MPD2    H712184   0.916   3.724  16.214  0.3600  0.5564 -0.8394
  825MPD2     C12185   1.525   3.433  15.156 -0.1336 -0.2494 -0.2544
  825MPD2    C112186   1.448   3.477  15.261 -0.4546  0.6137 -0.2252
  825MPD2    C212187   1.471   3.601  15.315  0.2996  0.0571  0.3756
  825MPD2    C312188   1.578   3.674  15.273  0.0352 -0.0376  0.7210
  825MPD2    C412189   1.666   3.623  15.181 -0.4421  0.7636 -0.3111
  825MPD2    C512190   1.631   3.504  15.122  0.3920  0.6224 -0.3887
  825MPD2     H12191   1.393   3.653  15.370  0.7532  1.2273 -0.0811
  825MPD2    H112192   1.761   3.664  15.149 -0.3086 -0.6641 -1.7322
  825MPD2    H212193   1.504   3.340  15.103  0.5820 -1.6561  1.8927
  825MPD2    H312194   1.696   3.456  15.050 -0.0744  0.0605 -0.4459
  825MPD2     N12195   1.600   3.811  15.315  0.0174 -0.6306  0.0288
  825MPD2    H512196   1.682   3.854  15.274  0.0975 -0.5988  0.2256
  825MPD2    N112197   1.344   3.389  15.307  1.0316 -0.3540 -0.1131
  825MPD2    H712198   1.351   3.305  15.252 -0.8607 -1.5276  1.4252
  826MPD2     C12199   0.693   2.865  13.380  0.5363  0.8031  0.4648
  826MPD2    C112200   0.773   2.973  13.412 -0.7496  0.0818 -0.2253
  826MPD2    C212201   0.702   3.077  13.467  0.0495 -0.3956 -0.4499
  826MPD2    C312202   0.577   3.055  13.518 -0.0498 -0.3169 -0.1997
  826MPD2    C412203   0.506   2.937  13.497  0.5166 -1.2873 -0.5332
  826MPD2    C512204   0.562   2.845  13.425 -0.2134 -0.0555 -0.3434
  826MPD2     H12205   0.761   3.167  13.484 -0.3143 -0.6796  2.3130
  826MPD2    H112206   0.414   2.908  13.546  1.6720 -1.1957  1.6908
  826MPD2    H212207   0.735   2.785  13.320 -1.5315  1.1256 -1.4151
  826MPD2    H312208   0.506   2.757  13.398 -0.1330  0.0308 -0.7917
  826MPD2     N12209   0.520   3.153  13.607  0.3100  0.5633  0.7403
  826MPD2    H512210   0.573   3.238  13.622 -0.2455  1.1226 -0.3694
  826MPD2    N112211   0.915   2.969  13.390  0.4294 -0.8656 -0.1913
  826MPD2    H712212   0.951   2.886  13.344  1.1667 -0.3825 -0.4914
  827MPD2     C12213   2.196   0.090  10.393 -0.2335 -0.4823  0.5798
  827MPD2    C112214   2.161   4.703  10.438  0.3840 -0.9701  0.2825
  827MPD2    C212215   2.084   4.623  10.353  0.4014 -0.3089 -0.7148
  827MPD2    C312216   2.028   4.668  10.234 -0.3996 -0.5773 -0.5066
  827MPD2    C412217   2.069   0.052  10.192  0.5481  0.3513  0.3184
  827MPD2    C512218   2.151   0.133  10.269  0.0817 -0.0831 -0.6195
  827MPD2     H12219   2.078   4.519  10.384 -1.6654 -0.0620 -0.2752
  827MPD2    H112220   2.038   0.098  10.098 -1.3829 -1.0601  0.2512
  827MPD2    H212221   2.254   0.165  10.446 -0.2304 -0.2025  0.1871
  827MPD2    H312222   2.172   0.234  10.236 -1.7337  0.5240  0.1046
  827MPD2     N12223   1.948   4.577  10.159 -0.0524 -0.8817  0.3180
  827MPD2    H512224   1.923   4.491  10.208 -0.6856 -1.4304 -0.9740
  827MPD2    N112225   2.207   4.661  10.568  0.3646 -0.1744 -0.4949
  827MPD2    H712226   2.283   4.714  10.609  0.8436 -0.9855 -0.3379
  828MPD2     C12227   0.559   4.033  12.275 -0.1681  0.5296  1.1907
  828MPD2    C112228   0.478   4.136  12.234  0.6572  0.2413 -0.0628
  828MPD2    C212229   0.497   4.189  12.106  0.0173 -0.2826  0.2976
  828MPD2    C312230   0.591   4.125  12.019 -0.3020 -0.1129 -0.1089
  828MPD2    C412231   0.681   4.037  12.073  0.6488  0.2193  0.1030
  828MPD2    C512232   0.665   3.986  12.194  0.3859 -0.7006  0.6261
  828MPD2     H12233   0.431   4.263  12.063 -0.0918 -1.0502 -0.8509
  828MPD2    H112234   0.754   3.990  12.008 -0.8215 -1.7778 -0.1334
  828MPD2    H212235   0.561   3.996  12.377 -0.2241 -0.1856  0.9321
  828MPD2    H312236   0.732   3.909  12.231 -0.2917 -1.6381 -0.0762
  828MPD2     N12237   0.597   4.165  11.881  0.5529 -0.2567  0.2647
  828MPD2    H512238   0.668   4.127  11.820  1.1795 -2.1059  2.1581
  828MPD2    N112239   0.369   4.192  12.308 -0.4692  0.0240 -0.0253
  828MPD2    H712240   0.311   4.261  12.262 -1.5738 -1.0908 -0.2987
  829MPD2     C12241   4.383   4.473  12.002 -0.1857  0.1339  0.0460
  829MPD2    C112242   4.367   4.528  12.126  0.3180  0.0817  0.1205
  829MPD2    C212243   4.457   4.505  12.220 -0.5096 -0.1935  0.6392
  829MPD2    C312244   4.575   4.441  12.188  0.2459  0.1777  0.0758
  829MPD2    C412245   4.599   4.388  12.057 -0.8529 -0.6730  0.9050
  829MPD2    C512246   4.501   4.405  11.962  0.4505 -0.1918 -0.4173
  829MPD2     H12247   4.435   4.551  12.316  1.1349  0.1523  0.8589
  829MPD2    H112248   4.696   4.349  12.027 -0.4333 -0.2203  1.6719
  829MPD2    H212249   4.308   4.492  11.926 -0.0898  0.9471  0.1467
  829MPD2    H312250   4.518   4.364  11.863 -1.3818 -0.1668 -0.7313
  829MPD2     N12251   4.689   4.420  12.275 -1.0305 -0.1558 -0.6147
  829MPD2    H512252   0.031   4.384  12.225 -1.1597 -1.2469 -0.0415
  829MPD2    N112253   4.239   4.594  12.138  0.5112  0.2387 -0.1346
  829MPD2    H712254   4.195   4.624  12.052  1.3360 -3.0861 -1.7296
  830MPD2     C12255   0.335   2.560  15.237  0.3930  0.0516  0.6132
  830MPD2    C112256   0.393   2.641  15.330  0.0434  0.4969  0.3728
  830MPD2    C212257   0.509   2.713  15.303  0.3176 -0.3952  0.2189
  830MPD2    C312258   0.556   2.715  15.171 -0.4062  0.5125  0.0187
  830MPD2    C412259   0.499   2.637  15.078  0.4341 -0.1628 -0.7173
  830MPD2    C512260   0.390   2.558  15.112  0.4827 -0.2280 -0.6187
  830MPD2     H12261   0.549   2.773  15.384 -1.0994  2.8827 -1.4924
  830MPD2    H112262   0.525   2.635  14.972  1.1386  1.4124 -0.5797
  830MPD2    H212263   0.240   2.516  15.263  0.3903  0.7082  1.7139
  830MPD2    H312264   0.339   2.512  15.028  0.4217 -0.9324 -0.2038
  830MPD2     N12265   0.657   2.803  15.127  0.0173 -0.3093 -0.1945
  830MPD2    H512266   0.661   2.807  15.025 -2.3600 -0.8296 -0.3227
  830MPD2    N112267   0.326   2.665  15.450 -0.2218  0.0427  0.2613
  830MPD2    H712268   0.228   2.640  15.461 -0.5977  1.6836  0.5891
  831MPD2     C12269   0.275   4.696  16.452  0.3721 -0.2964 -0.6450
  831MPD2    C112270   0.337   4.580  16.415 -0.7247  0.3384 -0.1777
  831MPD2    C212271   0.263   4.464  16.429  0.1783 -0.0505  0.1908
  831MPD2    C312272   0.141   4.458  16.495 -0.6232  0.3534  0.5142
  831MPD2    C412273   0.090   4.574  16.547 -0.4231  0.7513 -0.4138
  831MPD2    C512274   0.156   4.694  16.521 -0.5491  0.2845  0.5967
  831MPD2     H12275   0.308   4.369  16.404 -1.7252 -0.0845 -3.0615
  831MPD2    H112276   4.736   4.569  16.603 -1.5937 -1.9417 -2.5875
  831MPD2    H212277   0.320   0.050  16.418 -2.2903  1.0170 -0.5716
  831MPD2    H312278   0.114   0.046  16.561 -0.2164  1.0608 -0.7992
  831MPD2     N12279   0.070   4.339  16.502 -0.4536 -0.1120 -0.0780
  831MPD2    H512280   4.721   4.333  16.554 -0.5192 -0.7470 -0.2548
  831MPD2    N112281   0.467   4.578  16.347 -0.2484  0.2547  0.2296
  831MPD2    H712282   0.493   4.672  16.318 -0.3169 -0.2667 -1.4935
  832MPD2     C12283   3.183   0.702  17.467 -0.2564  0.1345 -0.6633
  832MPD2    C112284   3.179   0.802  17.374 -0.6019  0.5294 -0.5067
  832MPD2    C212285   3.062   0.828  17.313  0.1658  0.0114  0.2923
  832MPD2    C312286   2.943   0.754  17.330  0.6688 -0.3701 -0.0202
  832MPD2    C412287   2.953   0.657  17.428  0.1649 -0.3891  0.3168
  832MPD2    C512288   3.069   0.631  17.495  0.7675 -0.9370 -0.1393
  832MPD2     H12289   3.066   0.892  17.225  1.1899  0.6794  0.8362
  832MPD2    H112290   2.859   0.608  17.451  0.5096 -1.2053 -0.0032
  832MPD2    H212291   3.275   0.673  17.516 -1.4509 -1.6244  0.5531
  832MPD2    H312292   3.056   0.544  17.559 -0.1771  0.5465  1.7168
  832MPD2     N12293   2.822   0.753  17.250  0.4767  0.3892 -0.4414
  832MPD2    H512294   2.744   0.698  17.283 -0.2754  1.0837 -1.0757
  832MPD2    N112295   3.295   0.882  17.355 -0.2033  0.5895  0.5411
  832MPD2    H712296   3.381   0.856  17.401  1.1418  0.7600 -1.8812
  833MPD2     C12297   1.431   2.022  12.779  0.4799  0.8046 -0.2226
  833MPD2    C112298   1.488   2.108  12.686  0.5806  0.7648 -0.6131
  833MPD2    C212299   1.613   2.088  12.643 -0.3808 -0.4845 -0.9288
  833MPD2    C312300   1.687   1.976  12.683 -0.5247 -0.1447 -0.7305
  833MPD2    C412301   1.638   1.899  12.785  0.3983  0.0811 -0.6019
  833MPD2    C512302   1.509   1.921  12.832  0.3496 -0.7269  0.2722
  833MPD2     H12303   1.669   2.144  12.570 -1.2703 -0.1640 -1.3588
  833MPD2    H112304   1.691   1.807  12.806 -1.8334 -1.1937 -0.5927
  833MPD2    H212305   1.329   2.030  12.816  1.0762 -0.3474  1.7401
  833MPD2    H312306   1.465   1.857  12.909  0.5781 -1.8061 -0.4890
  833MPD2     N12307   1.809   1.948  12.608 -0.7797 -0.4980 -0.2813
  833MPD2    H512308   1.822   2.013  12.531 -0.4468 -1.3878 -0.9661
  833MPD2    N112309   1.405   2.215  12.638  0.2195 -0.7086 -0.2485
  833MPD2    H712310   1.307   2.196  12.655 -0.1704  0.4475 -1.2465
  834MPD2     C12311   1.468   1.296  11.976  0.0346  0.1634  0.0398
  834MPD2    C112312   1.440   1.428  11.956 -0.7231 -0.5586  0.4804
  834MPD2    C212313   1.526   1.515  12.022  0.3068 -0.5184 -0.4498
  834MPD2    C312314   1.631   1.478  12.107  0.1320 -0.3092 -0.7089
  834MPD2    C412315   1.653   1.343  12.126 -0.3240 -0.3757  0.5175
  834MPD2    C512316   1.572   1.260  12.056  0.1369 -0.1151  0.5967
  834MPD2     H12317   1.500   1.619  12.011  1.5104 -0.2941 -1.2177
  834MPD2    H112318   1.727   1.296  12.190  2.1760  0.3368 -1.8251
  834MPD2    H212319   1.416   1.205  11.952 -0.1565 -0.2309  1.9406
  834MPD2    H312320   1.585   1.153  12.069 -1.2334 -0.5717 -1.7622
  834MPD2     N12321   1.705   1.586  12.160  0.0007 -0.3344 -0.9515
  834MPD2    H512322   1.690   1.681  12.129  0.9014  0.2136  0.3004
  834MPD2    N112323   1.317   1.457  11.891  0.2526 -0.1889 -0.0466
  834MPD2    H712324   1.274   1.377  11.846  2.2844 -1.6977  0.6347
  835MPD2     C12325   1.603   4.222  11.115 -0.7377  0.4233 -0.0006
  835MPD2    C112326   1.471   4.238  11.153 -0.7445  0.2477 -0.4266
  835MPD2    C212327   1.423   4.172  11.261 -0.4678 -0.5165  0.1785
  835MPD2    C312328   1.504   4.090  11.334  0.1072 -0.2011 -0.1879
  835MPD2    C412329   1.637   4.075  11.300  0.6035  0.1981  0.5322
  835MPD2    C512330   1.679   4.133  11.187 -0.5882 -0.7497 -0.2865
  835MPD2     H12331   1.317   4.180  11.283  0.0115  0.2091  2.3079
  835MPD2    H112332   1.702   4.010  11.356  0.2924  1.9845  2.9570
  835MPD2    H212333   1.651   4.274  11.033 -1.5238 -0.4409 -0.9898
  835MPD2    H312334   1.783   4.118  11.160 -0.5591  0.7964 -1.0457
  835MPD2     N12335   1.455   4.032  11.454  0.1540  0.2153  0.0210
  835MPD2    H512336   1.504   3.957  11.503 -1.8652 -0.6768  0.6577
  835MPD2    N112337   1.381   4.328  11.092 -0.9500  0.6631 -0.0357
  835MPD2    H712338   1.287   4.324  11.129 -1.2912  2.0256 -0.7483
  836MPD2     C12339   1.034   4.403  11.590  1.2576 -0.0934  0.4672
  836MPD2    C112340   0.999   4.320  11.692  0.1310  0.1079  0.2184
  836MPD2    C212341   0.911   4.355  11.795  0.1364 -0.0461  0.0057
  836MPD2    C312342   0.853   4.472  11.787 -0.2581 -0.0245  0.2944
  836MPD2    C412343   0.887   4.564  11.692  0.1233  0.3264  0.3808
  836MPD2    C512344   0.983   4.534  11.597 -0.3880  0.3719 -0.5057
  836MPD2     H12345   0.884   4.291  11.878 -1.9800  0.1256 -0.5357
  836MPD2    H112346   0.832   4.657  11.690 -1.4263 -0.6279 -0.8457
  836MPD2    H212347   1.106   4.373  11.515 -1.2506 -1.7877 -1.2663
  836MPD2    H312348   1.019   4.601  11.520  0.9676 -0.9802 -1.0671
  836MPD2     N12349   0.758   4.525  11.880  0.4310 -0.1464  0.2524
  836MPD2    H512350   0.716   4.616  11.868 -0.4329 -0.5098  0.4784
  836MPD2    N112351   1.047   4.189  11.682 -0.4730 -0.4013  1.0509
  836MPD2    H712352   1.115   4.166  11.611  0.0218 -1.6609  1.9393
  837MPD2     C12353   4.493   3.875  10.068  0.6541  0.3609 -0.1292
  837MPD2    C112354   4.382   3.867  10.144 -0.0956 -1.0249  0.1021
  837MPD2    C212355   4.350   3.971  10.226 -0.3683 -0.6441  0.1620
  837MPD2    C312356   4.417   4.090  10.217  0.0796  0.0985 -0.3631
  837MPD2    C412357   4.527   4.097  10.135  0.3660 -0.2542 -0.6759
  837MPD2    C512358   4.575   3.983  10.075 -0.5099  0.1630  0.1516
  837MPD2     H12359   4.266   3.961  10.295  1.3191 -1.6355  2.0789
  837MPD2    H112360   4.591   4.185  10.133 -0.7103  0.5301 -0.3648
  837MPD2    H212361   4.525   3.789  10.010 -0.7899 -0.8284  0.8231
  837MPD2    H312362   4.668   3.979  10.020 -0.4473  0.7631  0.2131
  837MPD2     N12363   4.377   4.206  10.288 -0.1423  0.4348  0.9524
  837MPD2    H512364   4.290   4.191  10.337 -0.6835 -4.1149 -1.4274
  837MPD2    N112365   4.288   3.759  10.138 -0.3897  0.1558  0.1783
  837MPD2    H712366   4.199   3.773  10.185 -0.8283  1.0443 -0.8961
  838MPD2     C12367   2.962   2.829  12.213  0.2407  1.1702 -0.3888
  838MPD2    C112368   2.911   2.707  12.177  0.1530 -0.5351  0.7207
  838MPD2    C212369   2.809   2.654  12.250 -0.1142 -0.2566  0.4082
  838MPD2    C312370   2.744   2.719  12.352  0.1713 -0.4059  0.0173
  838MPD2    C412371   2.793   2.845  12.382  0.2904 -0.2558  0.4473
  838MPD2    C512372   2.903   2.888  12.319 -0.5061 -0.2057  0.0958
  838MPD2     H12373   2.765   2.564  12.207 -1.0347  0.3504  0.0728
  838MPD2    H112374   2.759   2.904  12.467 -1.6241 -1.0303  0.2238
  838MPD2    H212375   3.044   2.880  12.163  1.5034 -0.5507 -0.1050
  838MPD2    H312376   2.947   2.981  12.353  2.0586 -1.5737  0.5039
  838MPD2     N12377   2.620   2.671  12.411 -0.3812  0.1336  0.0629
  838MPD2    H512378   2.581   2.585  12.374  0.2425  0.2738 -0.9318
  838MPD2    N112379   2.947   2.643  12.056 -0.2298 -0.1045  0.1494
  838MPD2    H712380   2.909   2.551  12.036 -0.0055 -0.1473 -0.0657
  839MPD2     C12381   2.362   2.106  11.924  0.6357 -0.1642 -0.8763
  839MPD2    C112382   2.398   2.122  11.791  0.3611 -0.3149 -0.3192
  839MPD2    C212383   2.525   2.169  11.764 -0.3229 -0.0175 -0.3183
  839MPD2    C312384   2.602   2.219  11.864  0.0992  0.3643  0.0022
  839MPD2    C412385   2.572   2.195  11.993 -0.5407 -0.1733 -0.9440
  839MPD2    C512386   2.451   2.138  12.022  0.8419  0.7654  0.3933
  839MPD2     H12387   2.547   2.191  11.660 -1.6769 -0.7895 -0.7651
  839MPD2    H112388   2.634   2.242  12.069  0.3110 -0.5466 -1.3998
  839MPD2    H212389   2.266   2.069  11.960  1.0150 -0.8133 -0.5297
  839MPD2    H312390   2.425   2.123  12.127  1.1656  0.9841  0.5051
  839MPD2     N12391   2.721   2.300  11.837  0.4253 -0.5023  0.6262
  839MPD2    H512392   2.774   2.327  11.920 -0.9046 -0.0412  1.3244
  839MPD2    N112393   2.306   2.091  11.687  0.8825 -0.7278 -0.0385
  839MPD2    H712394   2.341   2.077  11.593  0.4357 -2.3119  0.0217
  840MPD2     C12395   2.663   0.155  10.821 -0.2942  0.0133 -0.4327
  840MPD2    C112396   2.640   0.072  10.926  0.4143 -0.5894  0.3668
  840MPD2    C212397   2.715   0.084  11.043 -0.2540 -0.0906  0.0513
  840MPD2    C312398   2.813   0.180  11.044 -0.5872 -0.1550  0.4086
  840MPD2    C412399   2.827   0.271  10.938  0.3371 -0.2006  0.5600
  840MPD2    C512400   2.750   0.253  10.829  0.0289 -0.2986  0.7171
  840MPD2     H12401   2.695   0.022  11.130  1.4468 -0.2720  0.3047
  840MPD2    H112402   2.906   0.345  10.938 -1.6643  1.9377 -0.9250
  840MPD2    H212403   2.594   0.136  10.739  0.6477  0.4672 -1.3309
  840MPD2    H312404   2.746   0.324  10.748 -1.4405 -2.0059 -0.7156
  840MPD2     N12405   2.918   0.188  11.140 -0.1830 -1.2664  0.0531
  840MPD2    H512406   2.987   0.260  11.120 -0.1086 -1.1774  0.6176
  840MPD2    N112407   2.534   4.723  10.902  0.2617 -0.2126 -0.5328
  840MPD2    H712408   2.476   4.735  10.820  1.5279  2.2331 -1.0955
  841MPD2     C12409   2.024   4.716  15.545  0.9424  0.1062  0.0201
  841MPD2    C112410   2.137   4.646  15.492 -1.1461  0.5326 -0.5412
  841MPD2    C212411   2.196   4.693  15.380 -0.2495 -0.3785  0.4306
  841MPD2    C312412   2.155   0.078  15.324 -0.3417 -0.3097 -0.1633
  841MPD2    C412413   2.045   0.145  15.380 -0.6367  0.1588  0.3952
  841MPD2    C512414   1.977   0.087  15.483 -0.7422  0.5785 -0.5734
  841MPD2     H12415   2.278   4.639  15.333 -0.2608  0.5525 -0.6530
  841MPD2    H112416   2.014   0.243  15.346  0.3388  1.1861  2.3845
  841MPD2    H212417   1.968   4.674  15.627 -2.4994  3.7606 -0.4383
  841MPD2    H312418   1.892   0.137  15.528  0.4473  0.1164  2.1835
  841MPD2     N12419   2.223   0.127  15.210  0.5915  0.6005 -0.4276
  841MPD2    H512420   2.294   0.060  15.181  0.3179  0.1124  0.0363
  841MPD2    N112421   2.174   4.517  15.540 -0.8249 -0.3810  0.2627
  841MPD2    H712422   2.238   4.470  15.478 -0.2105  0.8248 -0.0110
  842MPD2     C12423   2.392   1.274  16.944 -0.4313  0.5220 -0.3553
  842MPD2    C112424   2.333   1.148  16.951 -0.2551  0.3712  0.2027
  842MPD2    C212425   2.291   1.103  17.078  0.2056  0.0034 -0.4425
  842MPD2    C312426   2.282   1.193  17.184  0.0353  0.0334 -0.8602
  842MPD2    C412427   2.340   1.322  17.175 -0.4998  0.0424 -0.5042
  842MPD2    C512428   2.403   1.356  17.055 -0.7094  0.8280  0.2591
  842MPD2     H12429   2.252   1.003  17.092 -1.3914  0.9415  1.7343
  842MPD2    H112430   2.343   1.388  17.262  4.2165 -1.5513  0.5346
  842MPD2    H212431   2.428   1.317  16.851  1.5085  0.3171  0.3008
  842MPD2    H312432   2.457   1.447  17.034 -2.4959  1.8283 -0.0126
  842MPD2     N12433   2.216   1.165  17.299 -0.3656  0.5086 -0.7193
  842MPD2    H512434   2.254   1.207  17.383 -1.5229 -1.0929  0.6165
  842MPD2    N112435   2.314   1.068  16.838  0.4084 -0.4981  0.2718
  842MPD2    H712436   2.344   1.102  16.747 -1.4254 -0.4689 -0.3202
  843MPD2     C12437   4.183   1.985  17.296  0.2771  0.2052  0.5761
  843MPD2    C112438   4.132   1.936  17.415 -0.0958  0.7208 -0.9686
  843MPD2    C212439   4.191   1.967  17.538 -0.2596 -0.4596 -0.3283
  843MPD2    C312440   4.298   2.058  17.541  0.0239  0.3314 -0.1800
  843MPD2    C412441   4.342   2.106  17.424 -0.0035 -0.6670  0.0354
  843MPD2    C512442   4.291   2.071  17.300  0.5243 -0.3045  0.3286
  843MPD2     H12443   4.152   1.923  17.630 -0.5741  1.0311  0.2563
  843MPD2    H112444   4.426   2.174  17.426 -0.6524  0.2319 -2.4699
  843MPD2    H212445   4.151   1.957  17.197  0.4664  2.0189 -0.0027
  843MPD2    H312446   4.331   2.117  17.210 -0.3459  0.6128  0.4069
  843MPD2     N12447   4.368   2.101  17.654 -0.2052  0.0035 -0.9120
  843MPD2    H512448   4.434   2.177  17.645 -4.0084  3.3994 -0.1381
  843MPD2    N112449   4.019   1.862  17.411  0.4269 -0.0462 -0.2306
  843MPD2    H712450   3.981   1.859  17.317  0.5385  0.4851 -0.2951
  844MPD2     C12451   2.534   0.380  16.807 -0.0351  0.2275  0.0138
  844MPD2    C112452   2.663   0.368  16.766  1.1564  0.3665  0.1948
  844MPD2    C212453   2.765   0.352  16.855 -0.3474  0.5736  0.2006
  844MPD2    C312454   2.735   0.353  16.989  0.7197  1.1659  0.0473
  844MPD2    C412455   2.605   0.375  17.028  0.2671  0.3725 -0.0062
  844MPD2    C512456   2.500   0.380  16.937  0.3557 -0.2423  0.4083
  844MPD2     H12457   2.871   0.347  16.835 -0.0041  2.1531  1.7624
  844MPD2    H112458   2.592   0.392  17.134 -0.9141  0.7920 -0.2127
  844MPD2    H212459   2.448   0.398  16.744  0.1485  2.0886  0.3033
  844MPD2    H312460   2.400   0.397  16.977  0.0022  0.1997 -0.6670
  844MPD2     N12461   2.847   0.333  17.070  0.3805 -0.1935  0.3362
  844MPD2    H512462   2.939   0.320  17.031 -0.3929 -0.9309 -1.2249
  844MPD2    N112463   2.706   0.369  16.631  0.2373 -0.1508  0.2714
  844MPD2    H712464   2.801   0.336  16.617  0.7151  0.7212  1.4176
  845MPD2     C12465   3.522   0.843  16.993 -0.3303 -0.5472 -0.2529
  845MPD2    C112466   3.389   0.855  16.970 -0.2055  0.0019  0.3968
  845MPD2    C212467   3.304   0.757  17.010 -0.4788  0.4708  0.0380
  845MPD2    C312468   3.356   0.643  17.077 -0.3081  0.1320 -0.0883
  845MPD2    C412469   3.494   0.626  17.093  0.4836  0.4291  0.0487
  845MPD2    C512470   3.576   0.731  17.056 -0.0644  0.2975 -0.1073
  845MPD2     H12471   3.197   0.773  17.015 -0.6995 -1.6318  2.1934
  845MPD2    H112472   3.530   0.539  17.148 -3.5606  0.6498  3.0642
  845MPD2    H212473   3.596   0.920  16.976 -0.3668 -0.7153 -1.1863
  845MPD2    H312474   3.683   0.723  17.070 -0.2053 -0.0722  0.7496
  845MPD2     N12475   3.258   0.562  17.145  0.2829 -0.0282 -0.3895
  845MPD2    H512476   3.160   0.577  17.121 -0.5579 -0.1355  2.9560
  845MPD2    N112477   3.331   0.964  16.911  0.2635  0.6857  0.4837
  845MPD2    H712478   3.229   0.964  16.914  0.3120  0.3390  2.0970
  846MPD2     C12479   0.320   1.799  13.673 -0.2558  0.3190  0.0928
  846MPD2    C112480   0.208   1.872  13.671  0.8772  0.2267  0.2223
  846MPD2    C212481   0.131   1.892  13.782  0.7690  0.5243  0.1313
  846MPD2    C312482   0.181   1.843  13.904  0.8468 -0.4012 -0.3856
  846MPD2    C412483   0.301   1.781  13.910  0.5438 -0.2679  0.4720
  846MPD2    C512484   0.373   1.763  13.796 -0.0534  0.4399 -0.2724
  846MPD2     H12485   0.036   1.945  13.785  1.3666  1.5074  1.1557
  846MPD2    H112486   0.350   1.742  13.999  0.4493 -1.5681 -0.0424
  846MPD2    H212487   0.394   1.796  13.593  1.2897  0.8479  1.4946
  846MPD2    H312488   0.468   1.712  13.812  0.6930  1.4478 -1.4834
  846MPD2     N12489   0.101   1.847  14.025 -0.3552 -0.1570  0.6144
  846MPD2    H512490   0.011   1.891  14.008 -0.5316 -1.2713 -1.3339
  846MPD2    N112491   0.170   1.920  13.546 -0.6924  0.3637 -0.0974
  846MPD2    H712492   0.118   2.006  13.537 -0.7348  0.1653 -1.7054
  847MPD2     C12493   4.538   2.421  14.352  0.4719 -0.2954 -0.5291
  847MPD2    C112494   4.675   2.399  14.323  0.0953 -1.0944  0.7040
  847MPD2    C212495   4.734   2.290  14.380 -0.0669 -0.5017  0.1604
  847MPD2    C312496   4.666   2.197  14.457 -0.0439 -0.3288 -0.5241
  847MPD2    C412497   4.533   2.215  14.475  0.3794  0.0992 -0.4917
  847MPD2    C512498   4.475   2.333  14.430  0.0344  0.5636  0.2904
  847MPD2     H12499   0.101   2.278  14.359  0.7330  1.3367  3.0823
  847MPD2    H112500   4.475   2.148  14.537  1.5763 -1.6883 -1.2786
  847MPD2    H212501   4.476   2.502  14.316  0.2305 -1.1160 -1.9538
  847MPD2    H312502   4.373   2.356  14.456  0.4884  2.6799  0.1863
  847MPD2     N12503   0.003   2.079  14.499  0.0480  0.8205 -0.2986
  847MPD2    H512504   0.097   2.073  14.461 -0.2842  1.3000 -1.1947
  847MPD2    N112505   0.017   2.498  14.256  0.6893  0.0065  0.5142
  847MPD2    H712506   0.117   2.492  14.274  0.6964  0.2155  0.5423
  848MPD2     C12507   2.560   0.753  16.428  0.0118  0.5485  0.7391
  848MPD2    C112508   2.657   0.826  16.501  0.4094 -0.4609  0.6287
  848MPD2    C212509   2.746   0.901  16.423  0.4023 -0.0238  0.1765
  848MPD2    C312510   2.736   0.911  16.282  0.1616 -0.0115  1.2491
  848MPD2    C412511   2.632   0.850  16.220 -0.0439  0.2175  0.3694
  848MPD2    C512512   2.551   0.762  16.292 -0.0408  0.1603 -0.2971
  848MPD2     H12513   2.825   0.962  16.465 -0.1115  0.3744  0.5782
  848MPD2    H112514   2.608   0.864  16.116  0.5999  0.0796  0.1987
  848MPD2    H212515   2.485   0.682  16.460  0.6060 -0.3521  0.1504
  848MPD2    H312516   2.475   0.712  16.234  0.6172 -0.6081 -0.5037
  848MPD2     N12517   2.820   0.983  16.193  0.4748 -0.3536 -0.0028
  848MPD2    H512518   2.803   0.961  16.095  0.4370 -4.1886  0.8682
  848MPD2    N112519   2.668   0.809  16.639  0.4315 -0.5847 -0.3135
  848MPD2    H712520   2.755   0.838  16.683  0.6064  0.6096 -1.4342
  849MPD2     C12521   2.220   0.722  13.726 -0.7452  0.1117 -0.3928
  849MPD2    C112522   2.215   0.613  13.811 -0.2803  0.2611  0.2095
  849MPD2    C212523   2.231   0.625  13.947 -0.1033 -0.0031  0.0991
  849MPD2    C312524   2.243   0.752  13.999  0.0714  0.0003  0.5888
  849MPD2    C412525   2.249   0.862  13.912  0.0443 -0.2145  0.3394
  849MPD2    C512526   2.246   0.846  13.777  0.2557 -0.0849  0.9189
  849MPD2     H12527   2.246   0.534  14.005 -2.2799 -0.6381 -0.3528
  849MPD2    H112528   2.252   0.964  13.949 -1.2367  1.2998 -3.7518
  849MPD2    H212529   2.209   0.709  13.619 -0.1538 -0.3384 -0.4016
  849MPD2    H312530   2.263   0.932  13.712 -0.9116 -0.1026  0.5748
  849MPD2     N12531   2.247   0.770  14.143 -0.7331  0.3478  0.1918
  849MPD2    H512532   2.265   0.865  14.172 -2.3812 -0.2882  3.2692
  849MPD2    N112533   2.212   0.481  13.770 -0.2437  0.4931  0.2040
  849MPD2    H712534   2.198   0.407  13.838  1.9165 -0.1046 -0.0025
  850MPD2     C12535   0.144   3.591  14.868  0.2845 -0.0568 -0.4437
  850MPD2    C112536   0.128   3.665  14.976  0.1994  0.5197 -0.3295
  850MPD2    C212537   0.239   3.706  15.051  0.3764  0.6099  0.9443
  850MPD2    C312538   0.364   3.660  15.016  0.8750 -1.0155  0.0227
  850MPD2    C412539   0.375   3.584  14.904  0.0823 -0.6855  0.6644
  850MPD2    C512540   0.269   3.550  14.825 -0.0697  0.2487  0.2011
  850MPD2     H12541   0.226   3.772  15.135  1.4088  0.1090  1.4994
  850MPD2    H112542   0.476   3.548  14.888  0.4748 -0.0264  1.7036
  850MPD2    H212543   0.057   3.555  14.815  0.5385 -0.1572 -0.7986
  850MPD2    H312544   0.291   3.491  14.736 -0.3847  0.4460 -0.0077
  850MPD2     N12545   0.477   3.674  15.098  0.2509 -0.1339  0.8330
  850MPD2    H512546   0.555   3.617  15.066 -0.1495 -0.4276  0.3753
  850MPD2    N112547   4.734   3.698  15.004 -0.3684 -0.2271 -0.4697
  850MPD2    H712548   4.683   3.681  14.918 -1.0198  0.0948 -0.1484
  851MPD2     C12549   0.537   3.560  15.625  0.5511  0.7027 -0.2214
  851MPD2    C112550   0.451   3.515  15.525  0.6932  0.3151  0.6856
  851MPD2    C212551   0.500   3.435  15.422 -0.1709 -0.9628  0.5998
  851MPD2    C312552   0.633   3.392  15.417  0.3196 -0.3702  0.2992
  851MPD2    C412553   0.723   3.448  15.509  0.1742 -0.1821 -1.0631
  851MPD2    C512554   0.669   3.524  15.613 -1.1734  0.1370 -0.0473
  851MPD2     H12555   0.439   3.413  15.336  1.4981  2.0374 -1.3473
  851MPD2    H112556   0.829   3.433  15.499  0.1848 -1.5504  1.2608
  851MPD2    H212557   0.503   3.628  15.702  2.0760  0.8571  0.3132
  851MPD2    H312558   0.732   3.572  15.686 -2.8769  0.0085  1.5053
  851MPD2     N12559   0.691   3.338  15.295 -0.3078  0.0918  0.2497
  851MPD2    H512560   0.617   3.331  15.226  0.2411 -0.1897 -0.3101
  851MPD2    N112561   0.326   3.568  15.520  0.4084  0.0515  0.1347
  851MPD2    H712562   0.318   3.657  15.569 -3.2016 -1.1244  1.6792
  852MPD2     C12563   0.250   1.077  10.014  1.1974  0.2066 -0.6402
  852MPD2    C112564   0.296   1.080  10.143  0.0859 -1.2153 -0.4828
  852MPD2    C212565   0.366   1.192  10.193  0.2666 -0.0417 -0.2514
  852MPD2    C312566   0.391   1.292  10.100 -0.3695  0.0055 -0.2565
  852MPD2    C412567   0.352   1.283   9.966  0.2464  0.5614 -0.2309
  852MPD2    C512568   0.279   1.175   9.922  0.5390 -0.3045 -0.4821
  852MPD2     H12569   0.406   1.195  10.294  2.1411 -1.7884 -0.9524
  852MPD2    H112570   0.363   1.365   9.896  2.0217  0.9211  0.4503
  852MPD2    H212571   0.187   0.995   9.979  1.4420 -0.1861 -0.1676
  852MPD2    H312572   0.248   1.160   9.819  1.8170 -0.9221 -0.7798
  852MPD2     N12573   0.480   1.390  10.146 -0.3328  0.5562 -0.3664
  852MPD2    H512574   0.515   1.368  10.238 -0.2028 -1.4529 -0.8962
  852MPD2    N112575   0.267   0.973  10.236 -0.0119 -0.0789  0.2880
  852MPD2    H712576   0.287   0.997  10.333 -3.1418  1.8503  0.4422
  853MPD2     C12577   2.024   0.756  12.562 -0.2128 -0.3809  0.3430
  853MPD2    C112578   1.961   0.853  12.490  0.1064  0.1814 -0.5802
  853MPD2    C212579   1.931   0.832  12.350  1.1803 -0.2323 -0.0927
  853MPD2    C312580   1.972   0.714  12.298 -0.9148  0.3246  0.4655
  853MPD2    C412581   2.035   0.621  12.372 -0.4390  0.1076  0.1968
  853MPD2    C512582   2.070   0.643  12.501  0.4537 -0.2589  0.2938
  853MPD2     H12583   1.888   0.904  12.281 -0.1602 -1.4503 -0.5135
  853MPD2    H112584   2.069   0.528  12.327  0.5951  0.3635  0.4736
  853MPD2    H212585   2.040   0.766  12.669  0.5444 -0.0187  0.1977
  853MPD2    H312586   2.122   0.565  12.555  0.4773  0.8321  1.8329
  853MPD2     N12587   1.978   0.696  12.156 -0.0211 -0.1633  0.0988
  853MPD2    H512588   2.031   0.618  12.118 -0.2572 -0.1704 -0.2130
  853MPD2    N112589   1.925   0.973  12.558  0.8403 -0.5359  0.1265
  853MPD2    H712590   1.963   0.992  12.650  1.1177  0.8471 -0.2684
  854MPD2     C12591   3.568   1.131  12.702  0.1201 -0.8468 -0.6993
  854MPD2    C112592   3.639   1.247  12.722  0.4155  0.1285 -0.0249
  854MPD2    C212593   3.753   1.250  12.804  0.3379  0.3189  0.4287
  854MPD2    C312594   3.801   1.128  12.859 -0.2113  0.0489 -0.3430
  854MPD2    C412595   3.739   1.015  12.826 -0.2351  0.0767 -0.9724
  854MPD2    C512596   3.622   1.018  12.758  0.0883 -0.0518 -0.4045
  854MPD2     H12597   3.807   1.342  12.825 -2.6631  2.7168 -2.3525
  854MPD2    H112598   3.769   0.915  12.854  2.6005  1.7345  1.8845
  854MPD2    H212599   3.476   1.122  12.646 -0.4205  0.1833  0.0185
  854MPD2    H312600   3.592   0.915  12.739 -0.9425  0.2634 -0.4673
  854MPD2     N12601   3.926   1.118  12.932  0.3272  0.5614  0.4844
  854MPD2    H512602   3.949   1.032  12.979  1.1349 -0.9518 -2.6403
  854MPD2    N112603   3.599   1.357  12.649  0.0647 -0.7855  0.4788
  854MPD2    H712604   3.533   1.344  12.573 -0.3405 -0.4593  0.7753
  855MPD2     C12605   4.422   1.303  13.826  0.1256 -0.0789 -0.1422
  855MPD2    C112606   4.362   1.183  13.793  0.9381  0.3429  0.0120
  855MPD2    C212607   4.329   1.161  13.667  0.0297 -0.7954  0.1512
  855MPD2    C312608   4.347   1.250  13.565  0.0063  0.2233 -0.0770
  855MPD2    C412609   4.399   1.368  13.602 -0.8179 -0.4946  0.5539
  855MPD2    C512610   4.446   1.393  13.723  0.3764 -0.4333 -0.3294
  855MPD2     H12611   4.297   1.061  13.640 -3.5075  1.0163 -2.2292
  855MPD2    H112612   4.432   1.439  13.527  0.2075 -2.3776 -0.7792
  855MPD2    H212613   4.444   1.323  13.930  2.9325  0.7920 -0.9168
  855MPD2    H312614   4.487   1.486  13.761 -0.2675 -0.3663  0.2050
  855MPD2     N12615   4.330   1.208  13.434  0.6266  0.0522 -0.0037
  855MPD2    H512616   4.302   1.112  13.420 -0.0663  0.1371  0.8192
  855MPD2    N112617   4.351   1.085  13.896  0.1638  0.1358 -0.1256
  855MPD2    H712618   4.293   1.009  13.862 -0.2827  0.0543  0.8143
  856MPD2     C12619   2.069   2.090  13.798  0.7466 -0.2907 -0.5975
  856MPD2    C112620   2.012   2.178  13.886  0.4296  0.2942  0.0738
  856MPD2    C212621   1.873   2.201  13.882 -0.6079  0.6597  0.0861
  856MPD2    C312622   1.797   2.133  13.792  0.3597 -0.3326 -0.2008
  856MPD2    C412623   1.858   2.031  13.715  0.0927 -0.6341 -0.3312
  856MPD2    C512624   1.991   2.017  13.718 -0.6540  0.2561 -0.1519
  856MPD2     H12625   1.837   2.270  13.957  0.5992 -1.2473  2.4206
  856MPD2    H112626   1.807   1.965  13.646 -0.4125  0.8133 -1.3339
  856MPD2    H212627   2.176   2.077  13.794  0.8334  1.0244 -2.6076
  856MPD2    H312628   2.038   1.953  13.644 -1.2671  0.3905 -0.6606
  856MPD2     N12629   1.653   2.145  13.780  0.0093  0.2430 -0.3829
  856MPD2    H512630   1.604   2.090  13.710  0.6944 -0.0704 -0.6151
  856MPD2    N112631   2.088   2.262  13.977 -0.4838  0.6296  0.1920
  856MPD2    H712632   2.033   2.327  14.033  1.5024  1.4839  1.1395
  857MPD2     C12633   2.802   4.013  13.319  0.2332  0.4285  0.2164
  857MPD2    C112634   2.912   4.006  13.237 -0.0647 -0.1162 -0.2121
  857MPD2    C212635   3.001   4.108  13.228 -0.2204 -0.5673  0.3552
  857MPD2    C312636   2.966   4.231  13.293 -0.1749  0.2254  0.0643
  857MPD2    C412637   2.853   4.236  13.380  0.3035  0.0283 -0.3600
  857MPD2    C512638   2.773   4.126  13.397 -0.2978  0.3622  0.1547
  857MPD2     H12639   3.097   4.105  13.178 -0.0302  0.0979  0.6871
  857MPD2    H112640   2.824   4.315  13.449  1.4429 -0.8156  1.0987
  857MPD2    H212641   2.731   3.931  13.323 -0.5955  1.0488 -1.9788
  857MPD2    H312642   2.689   4.125  13.466 -0.8983  0.3948 -0.5663
  857MPD2     N12643   3.063   4.336  13.289 -0.0535 -0.1423  0.0449
  857MPD2    H512644   3.146   4.315  13.234  0.5941  1.1479  0.5220
  857MPD2    N112645   2.932   3.882  13.177  0.0389  0.0053  0.5441
  857MPD2    H712646   2.853   3.820  13.192  0.9836 -1.6989 -1.6354
  858MPD2     C12647   3.205   3.258  16.525 -0.7557  0.4825  0.0079
  858MPD2    C112648   3.332   3.308  16.554  0.0178  0.1682  0.5215
  858MPD2    C212649   3.346   3.360  16.676 -0.9460  0.5274 -0.2437
  858MPD2    C312650   3.236   3.363  16.768 -0.0562 -0.5381  0.4914
  858MPD2    C412651   3.106   3.332  16.730  0.4145 -0.5410 -0.4121
  858MPD2    C512652   3.096   3.276  16.606  0.5729 -0.6301 -0.2826
  858MPD2     H12653   3.435   3.411  16.710 -0.5788 -0.2717 -0.0032
  858MPD2    H112654   3.020   3.337  16.796  1.8573  2.7392  1.1923
  858MPD2    H212655   3.189   3.206  16.430  0.9260  2.0930 -1.1525
  858MPD2    H312656   3.006   3.224  16.573  0.7982 -1.2030  0.0149
  858MPD2     N12657   3.251   3.421  16.895  0.5307  0.0768 -0.1118
  858MPD2    H512658   3.164   3.445  16.941 -0.5441 -3.5142 -0.2664
  858MPD2    N112659   3.439   3.294  16.463 -0.4433 -0.2168  0.5012
  858MPD2    H712660   3.409   3.256  16.374 -0.9781 -1.8850  1.3905
  859MPD2     C12661   1.981   0.561  15.655 -0.0737 -0.5934 -0.7745
  859MPD2    C112662   2.106   0.561  15.601 -0.5159 -0.4699 -0.6391
  859MPD2    C212663   2.193   0.453  15.634  0.7899 -0.2700 -0.3959
  859MPD2    C312664   2.146   0.354  15.720  0.4078  0.1150 -0.6068
  859MPD2    C412665   2.018   0.362  15.779  0.2372 -0.2212 -0.0785
  859MPD2    C512666   1.943   0.466  15.748 -0.1032 -0.0250 -0.6752
  859MPD2     H12667   2.290   0.451  15.586  1.8561 -0.7144  1.7295
  859MPD2    H112668   1.987   0.276  15.838  0.4553  0.6220  1.2719
  859MPD2    H212669   1.916   0.640  15.621  1.1667  1.0150  0.5727
  859MPD2    H312670   1.836   0.467  15.769 -0.3094 -0.6447 -1.7248
  859MPD2     N12671   2.224   0.241  15.744 -0.2905  0.2985 -0.7089
  859MPD2    H512672   2.187   0.176  15.812  1.0848 -0.4300 -0.6580
  859MPD2    N112673   2.138   0.655  15.501 -0.1278 -0.1657 -0.7576
  859MPD2    H712674   2.072   0.715  15.452  1.5597 -0.7396 -3.7215
  860MPD2     C12675   0.327   0.721  11.791 -1.0539  0.0312  0.1019
  860MPD2    C112676   0.329   0.736  11.928  0.6962 -0.7146 -0.5087
  860MPD2    C212677   0.211   0.707  11.995  0.4631  0.4845  0.6044
  860MPD2    C312678   0.095   0.675  11.928 -0.8389  0.0886 -0.1912
  860MPD2    C412679   0.095   0.676  11.790 -0.4112  0.3314 -0.3392
  860MPD2    C512680   0.206   0.708  11.722 -0.2727  0.1733 -0.0636
  860MPD2     H12681   0.211   0.705  12.103  0.3214  0.2542  0.5994
  860MPD2    H112682   0.004   0.645  11.740 -0.5567 -0.6763  0.5290
  860MPD2    H212683   0.417   0.745  11.736 -0.0026 -2.5915  0.7045
  860MPD2    H312684   0.201   0.721  11.615 -2.1446 -1.5222 -0.1914
  860MPD2     N12685   4.718   0.660  12.006  0.6531 -0.6277  0.1839
  860MPD2    H512686   0.000   0.651  12.105  0.3446 -3.0898  0.0418
  860MPD2    N112687   0.448   0.755  11.999  0.6351 -0.2418 -0.4896
  860MPD2    H712688   0.440   0.748  12.100  1.4139  1.9803 -0.2776
  861MPD2     C12689   3.710   3.745  10.965 -0.4167  0.1027  0.1359
  861MPD2    C112690   3.581   3.700  11.006  0.5026 -0.3491  0.1077
  861MPD2    C212691   3.469   3.763  10.951 -0.1218  0.8989  0.1539
  861MPD2    C312692   3.478   3.878  10.879 -0.9887  0.0114 -0.1094
  861MPD2    C412693   3.597   3.930  10.850  0.4398  0.3870 -0.5680
  861MPD2    C512694   3.718   3.860  10.884 -0.0655 -0.3769 -0.2387
  861MPD2     H12695   3.373   3.725  10.984 -0.8012  0.8573 -1.8828
  861MPD2    H112696   3.607   4.021  10.791 -1.2569 -0.1005 -1.5912
  861MPD2    H212697   3.801   3.692  10.991 -0.2463  0.8797  1.1020
  861MPD2    H312698   3.812   3.888  10.838 -1.6331  3.5587 -1.0682
  861MPD2     N12699   3.368   3.949  10.825  0.6030  0.1037 -0.9844
  861MPD2    H512700   3.399   4.039  10.792 -0.0060 -0.5972 -3.5177
  861MPD2    N112701   3.561   3.602  11.106 -0.3821  0.1921  0.6009
  861MPD2    H712702   3.464   3.593  11.136 -0.6621 -2.5686 -1.1582
  862MPD2     C12703   2.576   3.749  10.813 -0.3125  0.6255  0.3946
  862MPD2    C112704   2.703   3.753  10.874  0.1173 -0.4474 -0.0932
  862MPD2    C212705   2.749   3.648  10.952  0.3716 -0.3783 -0.3551
  862MPD2    C312706   2.675   3.527  10.956 -0.0143 -0.1226  0.1935
  862MPD2    C412707   2.559   3.523  10.886  0.2810  0.3480 -0.2232
  862MPD2    C512708   2.511   3.626  10.806 -0.5066  0.1737  0.4567
  862MPD2     H12709   2.838   3.656  11.012  1.8880  1.3534 -2.8422
  862MPD2    H112710   2.494   3.436  10.893 -0.1653  0.6660 -0.4779
  862MPD2    H212711   2.527   3.833  10.765  1.0096  1.7339  0.9924
  862MPD2    H312712   2.414   3.612  10.759 -0.4202  0.8436  0.0775
  862MPD2     N12713   2.717   3.413  11.030  0.1445  0.0811 -0.0456
  862MPD2    H512714   2.665   3.326  11.015  0.2654 -0.4174  2.3156
  862MPD2    N112715   2.793   3.861  10.861  0.4615 -0.4303 -0.0419
  862MPD2    H712716   2.888   3.849  10.895  1.4041  1.2044 -2.1032
  863MPD2     C12717   1.597   1.901  16.972 -0.2705 -0.2770 -0.1296
  863MPD2    C112718   1.675   1.975  16.880  0.0093 -0.4771 -0.2244
  863MPD2    C212719   1.817   1.961  16.872  0.2667 -0.6222 -0.2229
  863MPD2    C312720   1.878   1.875  16.963 -0.2915 -0.1235  0.6498
  863MPD2    C412721   1.793   1.798  17.045  0.1007 -0.0885  0.4092
  863MPD2    C512722   1.656   1.811  17.056  1.0132  0.3011 -0.2156
  863MPD2     H12723   1.880   2.025  16.811  1.5637 -0.1305  1.6333
  863MPD2    H112724   1.836   1.737  17.124  3.8330  0.7243 -1.0370
  863MPD2    H212725   1.492   1.928  16.984 -0.0513  0.3669  0.3465
  863MPD2    H312726   1.599   1.759  17.132  0.5072  1.5717  0.2798
  863MPD2     N12727   2.017   1.848  16.978 -0.1698  0.3456  0.1399
  863MPD2    H512728   2.038   1.779  17.050 -0.4857 -1.0230 -1.0704
  863MPD2    N112729   1.604   2.058  16.791 -0.5368  0.4144  0.3067
  863MPD2    H712730   1.504   2.057  16.803 -0.6907 -0.0996 -0.9213
  864MPD2     C12731   2.312   3.107  16.910  0.3042  0.4278  0.5792
  864MPD2    C112732   2.437   3.070  16.867 -0.9747 -0.6293  0.3698
  864MPD2    C212733   2.523   3.172  16.829  0.4947 -0.0908  0.1235
  864MPD2    C312734   2.496   3.298  16.856  0.3839 -0.5282 -0.1008
  864MPD2    C412735   2.376   3.336  16.904 -0.3897 -0.4756 -0.0515
  864MPD2    C512736   2.283   3.238  16.937 -0.4157  0.0969  0.0987
  864MPD2     H12737   2.626   3.146  16.809  0.1697 -0.7911 -0.6862
  864MPD2    H112738   2.351   3.438  16.930 -0.8706 -1.3812  2.9840
  864MPD2    H212739   2.239   3.034  16.941  0.3844  1.2490  2.7224
  864MPD2    H312740   2.181   3.263  16.964 -0.1043 -0.6088  1.8581
  864MPD2     N12741   2.573   3.410  16.814 -0.3165 -0.5356  0.5808
  864MPD2    H512742   2.541   3.501  16.845 -0.9931 -0.0501 -1.5345
  864MPD2    N112743   2.461   2.932  16.850 -0.6798 -0.1225  0.2064
  864MPD2    H712744   2.376   2.877  16.861 -0.3379 -0.2938  2.0712
  865MPD2     C12745   2.349   3.388  16.359 -0.2112  0.1683 -1.2766
  865MPD2    C112746   2.451   3.473  16.315 -0.0303 -0.1044  0.3219
  865MPD2    C212747   2.476   3.590  16.380  0.6832  0.5316 -1.1058
  865MPD2    C312748   2.407   3.623  16.497  0.6340  0.1599 -0.2339
  865MPD2    C412749   2.314   3.532  16.544  1.2226 -1.0439  0.5883
  865MPD2    C512750   2.282   3.421  16.475 -0.0925  0.5054  0.4131
  865MPD2     H12751   2.558   3.649  16.341  1.3322  0.1760 -0.2804
  865MPD2    H112752   2.244   3.558  16.623  0.1875 -2.4709  0.1389
  865MPD2    H212753   2.328   3.289  16.321  0.7738 -0.4043 -0.3409
  865MPD2    H312754   2.196   3.363  16.508 -0.0575 -0.3335 -0.9800
  865MPD2     N12755   2.439   3.744  16.577  0.0145  0.3958 -0.3627
  865MPD2    H512756   2.400   3.755  16.670  1.3599  0.4457  0.1903
  865MPD2    N112757   2.531   3.422  16.213  0.4991  0.7411  0.1067
  865MPD2    H712758   2.518   3.330  16.172 -0.0339  1.1459 -0.6202
  866MPD2     C12759   4.065   3.806  11.700 -0.1436 -0.7409 -0.3503
  866MPD2    C112760   4.113   3.847  11.577  0.0776  0.1412 -0.8496
  866MPD2    C212761   4.036   3.921  11.489 -0.3508 -0.9483  0.5418
  866MPD2    C312762   3.903   3.945  11.518  0.4263 -0.0438 -1.0709
  866MPD2    C412763   3.853   3.900  11.639 -0.1577  0.0514  0.4203
  866MPD2    C512764   3.935   3.843  11.731  0.3945  0.4672 -0.3798
  866MPD2     H12765   4.076   3.946  11.391 -1.0195 -2.5009 -0.1226
  866MPD2    H112766   3.752   3.920  11.673  0.0385 -0.8492  1.5514
  866MPD2    H212767   4.123   3.764  11.782 -2.9178 -1.4793  1.2167
  866MPD2    H312768   3.886   3.816  11.824  0.8041 -1.0434 -0.6011
  866MPD2     N12769   3.808   3.989  11.426  0.0388  0.2202  0.8200
  866MPD2    H512770   3.714   3.972  11.458 -0.8923 -1.5745 -2.9036
  866MPD2    N112771   4.249   3.813  11.556 -0.0783 -0.6145  0.3695
  866MPD2    H712772   4.293   3.759  11.630  0.8637 -1.4826 -0.8210
  867MPD2     C12773   0.848   2.796  16.450  0.7215 -0.3531 -0.2032
  867MPD2    C112774   0.959   2.840  16.523  0.0103 -0.4730  0.2299
  867MPD2    C212775   0.949   2.946  16.617 -0.0927 -0.2101  0.0473
  867MPD2    C312776   0.823   2.973  16.662 -0.4765  0.0173 -0.0807
  867MPD2    C412777   0.710   2.932  16.589  0.0106  0.1561  0.0945
  867MPD2    C512778   0.723   2.842  16.488 -0.6974 -0.4815 -0.5088
  867MPD2     H12779   1.033   3.005  16.651  0.2905 -0.6840 -0.0629
  867MPD2    H112780   0.606   2.952  16.615 -0.3477 -1.5618 -0.0265
  867MPD2    H212781   0.854   2.729  16.365 -0.0626 -1.9615  1.0076
  867MPD2    H312782   0.637   2.813  16.428 -1.6145 -1.0033  1.0501
  867MPD2     N12783   0.793   3.061  16.769 -0.4695  0.1906 -0.1786
  867MPD2    H512784   0.700   3.099  16.781 -1.2399 -2.2933  1.7151
  867MPD2    N112785   1.078   2.780  16.488  0.2295 -0.0514 -0.7125
  867MPD2    H712786   1.074   2.715  16.410 -1.3503  0.3067 -0.9356
  868MPD2     C12787   3.109   3.053  13.471  1.3615 -0.2761 -0.4378
  868MPD2    C112788   3.064   2.924  13.476 -0.0902  0.1511  0.3344
  868MPD2    C212789   2.928   2.905  13.507 -0.5342 -0.4939  0.4609
  868MPD2    C312790   2.853   3.010  13.538  0.2074  1.3154 -0.9408
  868MPD2    C412791   2.897   3.138  13.530 -0.1112  0.3868 -0.1007
  868MPD2    C512792   3.026   3.160  13.500  0.6022 -0.8269 -0.1619
  868MPD2     H12793   2.879   2.809  13.507 -1.1930 -0.1660 -1.0606
  868MPD2    H112794   2.833   3.223  13.549  0.9484  1.3241 -0.8034
  868MPD2    H212795   3.213   3.075  13.447  1.8779  0.6193  2.5443
  868MPD2    H312796   3.064   3.260  13.484 -2.2191  0.6453  2.2564
  868MPD2     N12797   2.724   2.977  13.583  0.5963 -0.8385 -0.2936
  868MPD2    H512798   2.711   2.877  13.594  0.5475 -0.5143  2.4377
  868MPD2    N112799   3.152   2.815  13.449 -0.0437 -0.3913 -0.4441
  868MPD2    H712800   3.244   2.840  13.414  0.2022 -0.2649  0.2879
  869MPD2     C12801   3.603   0.138   0.513 -0.4652  0.2416  0.1879
  869MPD2    C112802   3.570   0.176   0.383 -0.6348 -0.5125 -0.0323
  869MPD2    C212803   3.575   0.312   0.351 -0.2120 -1.1849  0.0602
  869MPD2    C312804   3.575   0.409   0.450  0.6172 -0.1551  0.3928
  869MPD2    C412805   3.582   0.370   0.582 -0.4909  0.1777 -0.7783
  869MPD2    C512806   3.605   0.240   0.607  0.3457  0.3200 -0.8810
  869MPD2     H12807   3.559   0.352   0.251  1.4467 -1.5628 -0.3588
  869MPD2    H112808   3.581   0.445   0.661 -1.0653 -0.2573 -0.3727
  869MPD2    H212809   3.618   0.037   0.551  2.1062  0.4508 -0.2697
  869MPD2    H312810   3.622   0.212   0.710  0.7275  0.3329 -0.9374
  869MPD2     N12811   3.553   0.550   0.425 -0.1295 -0.7719  0.4559
  869MPD2    H512812   3.553   0.613   0.504  1.1104  0.1226 -0.2690
  869MPD2    N112813   3.561   0.068   0.292  0.4653  0.3328  0.4329
  869MPD2    H712814   3.565   4.710   0.323  1.5930 -0.0166 -0.7898
  870MPD2     C12815   4.454   3.774   1.415 -0.5343  0.3057  0.4644
  870MPD2    C112816   4.330   3.763   1.461  0.2713 -0.5797 -0.1016
  870MPD2    C212817   4.238   3.866   1.449  0.0459 -0.0395  0.0244
  870MPD2    C312818   4.278   3.978   1.372  0.2655  0.1538  0.5104
  870MPD2    C412819   4.400   3.988   1.322 -0.3346 -0.1627 -0.2301
  870MPD2    C512820   4.496   3.886   1.342 -0.2844 -0.4594  0.2702
  870MPD2     H12821   4.131   3.858   1.469 -0.4918  1.5281 -2.2095
  870MPD2    H112822   4.425   4.068   1.253  0.3394 -0.5534 -0.4468
  870MPD2    H212823   4.532   3.704   1.440 -1.9378 -1.7421 -0.8915
  870MPD2    H312824   4.594   3.896   1.296 -1.3103  4.3654 -0.8713
  870MPD2     N12825   4.185   4.084   1.365 -0.0949  0.0619 -0.2730
  870MPD2    H512826   4.095   4.067   1.408 -0.9521 -0.5175 -2.2906
  870MPD2    N112827   4.303   3.642   1.538  0.2552 -0.4979 -0.5766
  870MPD2    H712828   4.381   3.582   1.560 -0.0763  0.1192  2.2545
  871MPD2     C12829   0.286   4.038  16.628  0.4070 -0.5857  0.4703
  871MPD2    C112830   0.209   3.975  16.727  0.6968 -0.0993  0.7128
  871MPD2    C212831   0.212   3.839  16.736 -0.4370 -0.4442 -0.2448
  871MPD2    C312832   0.277   3.752  16.650  0.5190  0.2636 -0.2686
  871MPD2    C412833   0.347   3.815  16.550  0.9737 -0.8090  0.3143
  871MPD2    C512834   0.344   3.956  16.542 -0.1968  0.5056  0.3611
  871MPD2     H12835   0.169   3.789  16.823 -0.4737 -1.5998 -0.9251
  871MPD2    H112836   0.396   3.750  16.478  2.9181  1.9110 -0.8125
  871MPD2    H212837   0.287   4.143  16.604  2.2534 -0.1635  2.3967
  871MPD2    H312838   0.397   3.989  16.453 -0.1290  0.7133  0.4804
  871MPD2     N12839   0.266   3.615  16.671 -0.1126  0.3577  0.1849
  871MPD2    H512840   0.193   3.592  16.736  0.0217  2.6586  1.1652
  871MPD2    N112841   0.134   4.060  16.815  0.0743 -0.0365 -0.9628
  871MPD2    H712842   0.149   4.160  16.803 -2.7383  0.4796 -0.2755
  872MPD2     C12843   0.707   1.500  13.473  0.0043 -0.6783 -0.6029
  872MPD2    C112844   0.760   1.476  13.595  0.0040 -0.4816  0.5021
  872MPD2    C212845   0.679   1.468  13.705  0.3919 -0.0052 -0.5545
  872MPD2    C312846   0.549   1.469  13.703  0.1921  0.9149 -0.2948
  872MPD2    C412847   0.482   1.479  13.578  0.3610 -0.7068 -0.1204
  872MPD2    C512848   0.572   1.498  13.472  0.0698 -0.7870  0.0650
  872MPD2     H12849   0.740   1.454  13.793 -0.6970  0.2038  0.2390
  872MPD2    H112850   0.376   1.487  13.562  0.2180 -1.1875  0.5620
  872MPD2    H212851   0.769   1.515  13.385  0.2305 -0.1190 -0.3444
  872MPD2    H312852   0.519   1.521  13.380 -0.1497 -0.1311  0.3539
  872MPD2     N12853   0.480   1.444  13.824  0.0081  0.4880  0.3519
  872MPD2    H512854   0.381   1.425  13.809 -0.5863  1.6365  2.8483
  872MPD2    N112855   0.904   1.490  13.620  0.5717 -0.6445 -0.5904
  872MPD2    H712856   0.923   1.506  13.718  0.3946 -1.1627 -0.4761
  873MPD2     C12857   2.634   1.039   0.735 -0.0229  0.3660 -0.4536
  873MPD2    C112858   2.516   1.032   0.665 -0.6098  0.0932 -0.3177
  873MPD2    C212859   2.470   0.905   0.621  0.3226 -0.0659 -0.2942
  873MPD2    C312860   2.550   0.798   0.654 -0.0552 -0.0845  0.0561
  873MPD2    C412861   2.667   0.817   0.722 -0.4040 -0.1995 -0.4107
  873MPD2    C512862   2.709   0.938   0.758 -0.0451 -0.0152  0.7361
  873MPD2     H12863   2.385   0.889   0.556  0.9111  2.5419 -1.7297
  873MPD2    H112864   2.736   0.734   0.726  0.3104  0.4537  0.7896
  873MPD2    H212865   2.671   1.135   0.768  0.1903  0.3781 -0.7325
  873MPD2    H312866   2.808   0.946   0.802  0.0199 -1.0342  0.7667
  873MPD2     N12867   2.512   0.659   0.629 -0.2552  0.1100 -0.4713
  873MPD2    H512868   2.570   0.586   0.670 -2.1461  0.4176  2.7947
  873MPD2    N112869   2.439   1.150   0.651 -0.0854 -0.0981  0.1151
  873MPD2    H712870   2.474   1.242   0.675 -1.6953 -0.2777  3.1239
  874MPD2     C12871   2.171   1.130  16.041  0.0308 -1.3397  0.1804
  874MPD2    C112872   2.265   1.089  16.131 -0.3755  0.1231  0.1920
  874MPD2    C212873   2.397   1.133  16.111  0.4743 -0.3738 -0.4968
  874MPD2    C312874   2.435   1.217  16.015  1.0497  0.5792  0.0136
  874MPD2    C412875   2.340   1.260  15.925 -0.9730 -0.5517 -0.0066
  874MPD2    C512876   2.212   1.207  15.940  0.4694 -0.3448  0.3161
  874MPD2     H12877   2.469   1.110  16.189 -1.1758  1.0451  1.4566
  874MPD2    H112878   2.369   1.324  15.843 -1.5954 -1.8158 -1.2305
  874MPD2    H212879   2.069   1.096  16.050 -0.6391  0.2468 -1.5094
  874MPD2    H312880   2.143   1.243  15.864  0.8384  1.4366  0.8064
  874MPD2     N12881   2.575   1.246  16.012  0.0639  0.1557  0.0929
  874MPD2    H512882   2.631   1.216  16.091 -1.6496 -2.5738  0.2430
  874MPD2    N112883   2.223   1.019  16.242  0.0530  0.0973 -0.2929
  874MPD2    H712884   2.142   0.960  16.226 -0.0534 -0.0774  0.8324
  875MPD2     C12885   3.915   4.726  14.806  0.1226 -0.3834 -0.1953
  875MPD2    C112886   3.797   0.063  14.820 -0.0581 -0.5057 -1.1022
  875MPD2    C212887   3.784   0.128  14.942  0.1540 -0.3691  0.3711
  875MPD2    C312888   3.875   0.111  15.045 -0.0667 -1.2149  0.5698
  875MPD2    C412889   3.992   0.044  15.021  1.1846  0.4583  0.2486
  875MPD2    C512890   4.007   4.708  14.906  0.2973 -0.4744 -0.5093
  875MPD2     H12891   3.696   0.188  14.964 -0.4629 -1.7474  1.7180
  875MPD2    H112892   4.062   0.029  15.102 -0.1387 -0.1968  1.2784
  875MPD2    H212893   3.939   4.686  14.708  0.9952  0.7103 -0.4271
  875MPD2    H312894   4.107   4.679  14.877 -0.9826 -0.7342 -4.7275
  875MPD2     N12895   3.859   0.166  15.171  0.4235 -0.5407 -0.3129
  875MPD2    H512896   3.942   0.159  15.230 -0.8184  0.4781  1.5528
  875MPD2    N112897   3.702   0.079  14.724 -0.3224 -0.3637  0.0268
  875MPD2    H712898   3.622   0.137  14.749 -0.7652  0.2150 -2.6932
  876MPD2     C12899   2.205   0.941  15.703 -0.0800 -0.3483 -0.4522
  876MPD2    C112900   2.342   0.938  15.730 -0.2460 -0.1696 -0.1435
  876MPD2    C212901   2.397   0.841  15.815  0.0256  0.3917 -0.2804
  876MPD2    C312902   2.309   0.767  15.891 -0.2682  0.4167 -0.1088
  876MPD2    C412903   2.174   0.778  15.874  0.4091 -0.1124 -0.1238
  876MPD2    C512904   2.123   0.861  15.777  0.6026  0.3330 -0.7190
  876MPD2     H12905   2.503   0.831  15.830 -0.2693  0.2207  1.7771
  876MPD2    H112906   2.096   0.726  15.928  0.0548  2.0850  1.4602
  876MPD2    H212907   2.163   1.015  15.636  0.2355 -0.1099 -0.3893
  876MPD2    H312908   2.015   0.871  15.778  0.6108  0.2926  1.7077
  876MPD2     N12909   2.363   0.663  15.965  0.9291 -0.6146  0.1877
  876MPD2    H512910   2.460   0.639  15.953  1.3746  1.7748 -0.9074
  876MPD2    N112911   2.418   1.044  15.674 -0.2219 -0.1568 -0.3199
  876MPD2    H712912   2.376   1.118  15.619 -0.0845 -0.2219 -0.5082
  877MPD2     C12913   2.383   1.613  15.170  0.2902 -0.8810 -0.7773
  877MPD2    C112914   2.519   1.590  15.193  0.1283 -0.3645  0.6677
  877MPD2    C212915   2.608   1.617  15.090  0.4062 -0.5829  0.0958
  877MPD2    C312916   2.570   1.678  14.973 -0.1785 -0.3271 -0.8859
  877MPD2    C412917   2.439   1.717  14.971 -0.1048  0.5457  0.8573
  877MPD2    C512918   2.341   1.674  15.060 -0.5403  0.3512 -0.0563
  877MPD2     H12919   2.713   1.596  15.106  0.0504 -3.5891 -1.5694
  877MPD2    H112920   2.404   1.774  14.886  0.5372 -0.5566 -0.1330
  877MPD2    H212921   2.313   1.578  15.244  1.0609  1.2141  0.9379
  877MPD2    H312922   2.238   1.703  15.043 -0.4481 -0.8549 -2.5420
  877MPD2     N12923   2.651   1.694  14.854 -0.2742 -0.3274  0.5575
  877MPD2    H512924   2.599   1.727  14.773  0.8968 -1.6128 -0.7211
  877MPD2    N112925   2.580   1.513  15.298 -0.3103 -0.6191  0.3602
  877MPD2    H712926   2.678   1.492  15.283 -0.5834 -0.3851 -1.6758
  878MPD2     C12927   2.816   0.172  13.127  0.7512 -0.3721 -0.3534
  878MPD2    C112928   2.740   0.289  13.135 -0.3176  0.5834 -0.2700
  878MPD2    C212929   2.674   0.321  13.250 -0.6630  0.5686  0.9667
  878MPD2    C312930   2.675   0.229  13.355  0.0130  0.2652  0.2545
  878MPD2    C412931   2.753   0.116  13.346  0.3868 -0.2498 -1.0454
  878MPD2    C512932   2.828   0.094  13.237 -0.5572  0.2312 -0.2294
  878MPD2     H12933   2.625   0.417  13.260 -1.3945  0.2325  0.5809
  878MPD2    H112934   2.769   0.049  13.430 -2.1772 -2.5186 -2.3900
  878MPD2    H212935   2.864   0.134  13.037  3.0653  0.7080  0.4381
  878MPD2    H312936   2.879   4.737  13.226 -2.6545 -0.8443 -0.5615
  878MPD2     N12937   2.586   0.246  13.462  0.1578  0.2443  0.5485
  878MPD2    H512938   2.521   0.324  13.462  0.7549  0.7454  0.9672
  878MPD2    N112939   2.730   0.365  13.015  0.2397 -0.6505  0.4966
  878MPD2    H712940   2.775   0.331  12.931  0.9741 -1.1706  1.0979
  879MPD2     C12941   2.795   1.312  16.795  0.3472  0.6172 -0.4975
  879MPD2    C112942   2.796   1.412  16.704  0.1199  0.2941  0.0914
  879MPD2    C212943   2.726   1.402  16.588 -0.0937 -0.2545  0.0799
  879MPD2    C312944   2.648   1.299  16.563 -0.8127  0.3779 -0.2574
  879MPD2    C412945   2.640   1.197  16.655  0.1368 -0.4375  0.2981
  879MPD2    C512946   2.714   1.200  16.774  0.4195 -0.0093  0.2337
  879MPD2     H12947   2.721   1.492  16.526 -1.0633 -0.1275  0.3465
  879MPD2    H112948   2.578   1.109  16.642 -0.3533 -0.0495  0.0347
  879MPD2    H212949   2.849   1.315  16.889 -1.4559 -0.7324  0.5836
  879MPD2    H312950   2.725   1.116  16.841  0.3224 -0.0878  0.1515
  879MPD2     N12951   2.557   1.301  16.447 -0.5539  0.2109  0.3268
  879MPD2    H512952   2.489   1.226  16.441  1.3536 -1.5372  0.8079
  879MPD2    N112953   2.860   1.526  16.751  0.1609 -0.3050  0.1901
  879MPD2    H712954   2.884   1.530  16.850 -3.2180  1.6150  0.9190
  880MPD2     C12955   3.536   3.603   0.161 -0.4051  0.0906  0.1770
  880MPD2    C112956   3.606   3.668   0.262 -0.6126 -0.0344 -0.3454
  880MPD2    C212957   3.680   3.589   0.357 -0.3096 -0.1389 -0.4876
  880MPD2    C312958   3.678   3.452   0.351  0.3156  0.2443 -0.0552
  880MPD2    C412959   3.618   3.391   0.242 -0.3445 -0.8524  0.6476
  880MPD2    C512960   3.540   3.465   0.153 -0.1881 -0.2387  0.4231
  880MPD2     H12961   3.732   3.629   0.443 -0.4931  0.0560 -0.4658
  880MPD2    H112962   3.615   3.285   0.220 -0.2715 -1.0693  1.6630
  880MPD2    H212963   3.486   3.666   0.088 -1.2199  1.2379  1.7141
  880MPD2    H312964   3.492   3.415   0.069  0.2849 -2.3708  1.4224
  880MPD2     N12965   3.729   3.384   0.462 -0.1002  0.1567 -0.4596
  880MPD2    H512966   3.780   3.440   0.530  1.2499  1.3076 -2.4213
  880MPD2    N112967   3.599   3.808   0.269  0.0660  0.3723  0.4345
  880MPD2    H712968   3.543   3.848   0.194 -0.5536 -0.4535  0.4533
  881MPD2     C12969   3.980   0.002   0.032 -0.1209  0.9112  0.1188
  881MPD2    C112970   3.985   4.609  17.736 -0.4477  0.4515  0.0422
  881MPD2    C212971   3.909   4.517   0.049  0.4835 -0.0744  0.0538
  881MPD2    C312972   3.860   4.537   0.178  0.7508  0.0283  0.4457
  881MPD2    C412973   3.882   4.663   0.240  0.5314 -0.0802  0.2640
  881MPD2    C512974   3.943   0.020   0.163 -0.1817  0.8403 -0.2871
  881MPD2     H12975   3.918   4.416   0.011  0.9958 -0.3090  0.7980
  881MPD2    H112976   3.856   4.688   0.342  1.2499 -0.5447  0.5571
  881MPD2    H212977   4.022   0.085  17.729  1.5274  0.8318  1.2210
  881MPD2    H312978   3.969   0.120   0.195  1.9285  0.6270 -1.3125
  881MPD2     N12979   3.791   4.437   0.253  0.4247  0.2116 -0.3866
  881MPD2    H512980   3.780   4.461   0.351 -1.8381 -1.4738 -0.2346
  881MPD2    N112981   4.037   4.583  17.605  0.4799  0.0035  0.0461
  881MPD2    H712982   4.070   4.665  17.554  0.3795  0.3031  0.4635
  882MPD2     C12983   2.644   1.433  14.082  0.2254 -0.4716 -0.7325
  882MPD2    C112984   2.604   1.506  14.191 -0.1025 -0.6576 -0.9400
  882MPD2    C212985   2.469   1.538  14.203  0.5024  0.6152  0.1713
  882MPD2    C312986   2.374   1.482  14.119 -0.5294  0.4555  0.2270
  882MPD2    C412987   2.424   1.396  14.024 -0.3269 -0.9484  0.5635
  882MPD2    C512988   2.552   1.379  13.994 -0.1459  0.0249 -0.5974
  882MPD2     H12989   2.428   1.602  14.281  5.0777  2.3990  1.1213
  882MPD2    H112990   2.357   1.348  13.954  1.2542 -0.9045 -0.9810
  882MPD2    H212991   2.747   1.418  14.053  0.1608  1.1113 -1.7540
  882MPD2    H312992   2.588   1.325  13.907  1.4495 -0.0303  0.0883
  882MPD2     N12993   2.238   1.478  14.161  0.7890  0.3179 -0.1627
  882MPD2    H512994   2.178   1.407  14.120  0.6918  1.4035 -1.9299
  882MPD2    N112995   2.704   1.546  14.286 -0.0069 -0.3462 -0.0124
  882MPD2    H712996   2.800   1.515  14.274 -0.0424 -0.8391  0.9187
  883MPD2     C12997   4.340   1.591  15.901 -0.4023  0.9815 -0.8972
  883MPD2    C112998   4.400   1.703  15.858 -0.1111 -0.1933 -0.3203
  883MPD2    C212999   4.507   1.759  15.930  0.3703 -0.8950  0.4566
  883MPD2    C313000   4.560   1.702  16.045  0.0839 -0.0105 -0.8185
  883MPD2    C413001   4.502   1.584  16.079  0.3083 -0.0802 -0.1084
  883MPD2    C513002   4.394   1.530  16.009  0.0117 -0.0626  0.3316
  883MPD2     H13003   4.548   1.849  15.886  0.4076 -1.1509 -0.0272
  883MPD2    H113004   4.534   1.523  16.164 -0.1803 -0.0898  0.0691
  883MPD2    H213005   4.249   1.548  15.859 -1.0856  0.7960  0.7679
  883MPD2    H313006   4.348   1.434  16.033  0.6173 -0.2327  0.8055
  883MPD2     N13007   4.661   1.759  16.124  0.0482  0.2401 -0.8227
  883MPD2    H513008   4.690   1.853  16.099 -1.4909  0.3227 -2.3091
  883MPD2    N113009   4.351   1.785  15.751 -0.7211 -0.8679 -0.4899
  883MPD2    H713010   4.408   1.867  15.732  0.5321 -1.2507  1.6356
  884MPD2     C13011   1.652   2.082  15.146 -0.5878  0.1622  0.0781
  884MPD2    C113012   1.625   2.190  15.064 -0.7093 -0.2280 -0.3574
  884MPD2    C213013   1.507   2.256  15.086 -0.7675  0.0924 -0.3745
  884MPD2    C313014   1.403   2.207  15.162 -0.5939  0.2695 -0.5116
  884MPD2    C413015   1.429   2.086  15.220 -0.6389 -0.2730  0.5736
  884MPD2    C513016   1.554   2.031  15.218  0.1846  0.0944 -0.1057
  884MPD2     H13017   1.492   2.350  15.034 -1.0131 -0.2646 -0.9501
  884MPD2    H113018   1.355   2.043  15.287 -2.4578  1.8889 -0.0507
  884MPD2    H213019   1.747   2.030  15.143 -0.1752  0.8156  1.6807
  884MPD2    H313020   1.581   1.946  15.279  0.7470 -1.1985 -2.1659
  884MPD2     N13021   1.273   2.264  15.164 -0.2110 -0.1231 -0.8530
  884MPD2    H513022   1.262   2.360  15.135 -0.1015  0.5403  1.2634
  884MPD2    N113023   1.712   2.232  14.962 -0.3580 -0.9018 -0.1111
  884MPD2    H713024   1.680   2.323  14.929 -0.1602 -1.1574 -0.9890
  885MPD2     C13025   4.007   2.663   0.090  0.3582 -0.0354 -0.3811
  885MPD2    C113026   4.142   2.651   0.069 -0.8504 -0.1886  0.3023
  885MPD2    C213027   4.182   2.665  17.690  0.4782  0.1478 -1.2486
  885MPD2    C313028   4.098   2.691  17.581  0.0466  0.2920  0.0842
  885MPD2    C413029   3.962   2.703  17.602  0.5876  0.4039 -0.0604
  885MPD2    C513030   3.919   2.696  17.740 -0.0177  0.1487  0.1372
  885MPD2     H13031   4.287   2.653  17.666  0.4336 -0.3234 -1.2050
  885MPD2    H113032   3.892   2.725  17.522  0.4072  0.1785  0.0356
  885MPD2    H213033   3.970   2.647   0.190  0.6788 -2.1542 -0.6040
  885MPD2    H313034   3.813   2.697   0.010 -0.1460 -0.8714 -0.4013
  885MPD2     N13035   4.149   2.710  17.452 -0.1164  0.3589  0.0946
  885MPD2    H513036   4.250   2.697  17.445 -0.1249 -0.1587  1.0969
  885MPD2    N113037   4.236   2.623   0.169 -0.4889 -0.3031 -0.9032
  885MPD2    H713038   4.328   2.589   0.144 -0.5706 -0.7857 -0.5448
  886MPD2     C13039   1.122   1.067  15.305  0.5462 -0.6396  0.2726
  886MPD2    C113040   1.257   1.095  15.322 -0.0178  0.6281  0.0799
  886MPD2    C213041   1.311   1.217  15.295 -0.1071  0.4880 -0.3003
  886MPD2    C313042   1.237   1.308  15.224 -0.0007 -0.2340 -0.9953
  886MPD2    C413043   1.109   1.277  15.186  0.4383  0.4520  0.2837
  886MPD2    C513044   1.053   1.163  15.234  0.4688 -0.3642  0.1445
  886MPD2     H13045   1.418   1.226  15.313  0.2025 -1.8439 -1.0244
  886MPD2    H113046   1.046   1.337  15.122  0.6400 -0.2300 -0.5492
  886MPD2    H213047   1.078   0.969  15.317  1.4335 -0.8857  1.5017
  886MPD2    H313048   0.948   1.143  15.214  0.3419  0.5219 -0.0796
  886MPD2     N13049   1.297   1.420  15.163  0.1129  0.4973 -0.2834
  886MPD2    H513050   1.243   1.470  15.093  0.4076  0.0742 -0.8211
  886MPD2    N113051   1.353   1.003  15.378  0.2304  0.0097 -0.0483
  886MPD2    H713052   1.450   1.023  15.356  0.5552  0.7209  2.0419
  887MPD2     C13053   1.994   1.098  15.434 -0.6057 -0.0096  0.3870
  887MPD2    C113054   1.909   1.076  15.540 -1.1152  0.2827  0.5678
  887MPD2    C213055   1.911   1.172  15.641  0.3382 -0.1018  0.1594
  887MPD2    C313056   2.007   1.273  15.644  0.5804 -0.8287  0.2360
  887MPD2    C413057   2.096   1.283  15.541 -0.0230 -0.0088  0.5555
  887MPD2    C513058   2.088   1.198  15.439 -0.0918 -0.0996  0.6152
  887MPD2     H13059   1.843   1.173  15.726 -0.1362 -1.2169 -0.2072
  887MPD2    H113060   2.173   1.358  15.531  1.2155 -1.4466 -0.5431
  887MPD2    H213061   1.989   1.044  15.340  1.9308  0.0091  0.2301
  887MPD2    H313062   2.160   1.207  15.359 -1.5944 -0.1065 -0.7414
  887MPD2     N13063   1.975   1.375  15.742  0.0801 -0.1200  0.9544
  887MPD2    H513064   1.895   1.349  15.798 -1.7355 -0.3162 -1.7343
  887MPD2    N113065   1.807   0.978  15.545 -0.3934 -0.2335  0.0384
  887MPD2    H713066   1.750   0.981  15.629  0.2046  0.7171  0.4046
  888MPD2     C13067   3.405   0.941  14.765  0.5706 -0.2604  0.1723
  888MPD2    C113068   3.446   0.963  14.894 -0.0900  0.2806  0.1189
  888MPD2    C213069   3.503   1.082  14.937  0.0175 -0.2899  0.0333
  888MPD2    C313070   3.511   1.183  14.840  0.6358  0.6186  0.1866
  888MPD2    C413071   3.460   1.164  14.718  0.4427 -0.3642 -0.2234
  888MPD2    C513072   3.407   1.044  14.676 -0.3162 -0.0640  0.2551
  888MPD2     H13073   3.523   1.108  15.040  0.3122 -2.3497  0.5128
  888MPD2    H113074   3.455   1.240  14.641 -0.5780  0.2497  0.4518
  888MPD2    H213075   3.351   0.852  14.736  1.9588 -0.9053 -0.4198
  888MPD2    H313076   3.344   1.030  14.588  2.0725  1.4175 -1.6888
  888MPD2     N13077   3.587   1.294  14.875 -0.7512  0.0013 -0.1233
  888MPD2    H513078   3.598   1.324  14.971  1.8524  1.6489 -0.9497
  888MPD2    N113079   3.450   0.857  14.986 -0.0139 -0.4717 -0.1484
  888MPD2    H713080   3.503   0.874  15.071 -2.0845 -1.2649  1.2950
  889MPD2     C13081   3.217   0.333  13.053  0.7131 -0.2397 -0.4675
  889MPD2    C113082   3.184   0.313  13.181  0.7103 -0.5836 -0.1174
  889MPD2    C213083   3.093   0.393  13.244  0.2054 -0.0568 -0.3612
  889MPD2    C313084   3.043   0.506  13.187  0.4904 -0.5488 -0.1657
  889MPD2    C413085   3.071   0.533  13.059  0.9936  0.1081  0.3597
  889MPD2    C513086   3.158   0.441  12.994  0.2147 -0.2489  0.0947
  889MPD2     H13087   3.066   0.376  13.348 -0.2781  2.8845  0.0059
  889MPD2    H113088   3.028   0.614  13.000 -0.2483 -1.8907 -1.4451
  889MPD2    H213089   3.258   0.257  12.988 -0.1999  1.2040 -2.7442
  889MPD2    H313090   3.155   0.451  12.886  0.7462  0.1531  0.1152
  889MPD2     N13091   2.958   0.588  13.266 -0.4428  0.4114  0.3061
  889MPD2    H513092   2.941   0.555  13.361 -2.2924 -0.6579 -0.4025
  889MPD2    N113093   3.205   0.184  13.243  1.0437 -0.5805 -0.8614
  889MPD2    H713094   3.161   0.165  13.333 -0.8890  3.1709 -1.0214
  890MPD2     C13095   2.834   2.565  14.609  0.3189  0.0153 -0.6092
  890MPD2    C113096   2.799   2.590  14.740  0.2077 -0.0600 -0.3216
  890MPD2    C213097   2.760   2.477  14.815  0.0960 -0.0820 -0.1554
  890MPD2    C313098   2.740   2.352  14.753 -0.4232 -0.7298 -0.0441
  890MPD2    C413099   2.759   2.344  14.616 -0.1412  0.6564  0.4773
  890MPD2    C513100   2.819   2.446  14.549 -0.9084  0.1107  0.4185
  890MPD2     H13101   2.736   2.494  14.920  1.1358 -2.9720  0.5505
  890MPD2    H113102   2.733   2.250  14.569  1.4925  0.4049  0.0906
  890MPD2    H213103   2.858   2.647  14.542  0.0430 -0.3016 -1.0975
  890MPD2    H313104   2.856   2.441  14.447 -0.0203  0.9270  0.7018
  890MPD2     N13105   2.695   2.239  14.822  0.3749 -0.0675  0.4489
  890MPD2    H513106   2.656   2.165  14.765 -0.6878  1.5143 -0.8539
  890MPD2    N113107   2.798   2.725  14.776  0.9703 -0.5054  1.0766
  890MPD2    H713108   2.833   2.796  14.713  0.6198 -0.1239  1.3137
  891MPD2     C13109   0.679   1.009  16.269  0.9584  0.5725  0.3208
  891MPD2    C113110   0.595   1.035  16.367  0.5553  0.0376  0.3323
  891MPD2    C213111   0.536   0.931  16.442  0.4275  0.2420 -0.0884
  891MPD2    C313112   0.560   0.799  16.403 -0.2246 -0.1488  0.0214
  891MPD2    C413113   0.637   0.775  16.291  0.7685  0.4380  0.4679
  891MPD2    C513114   0.695   0.880  16.225  0.4223  0.3827  0.0995
  891MPD2     H13115   0.458   0.941  16.516  2.3284  1.6891  1.7120
  891MPD2    H113116   0.651   0.674  16.252 -1.2599  0.7541 -1.0278
  891MPD2    H213117   0.726   1.089  16.213  0.7656 -1.0390 -2.1171
  891MPD2    H313118   0.754   0.867  16.135  0.5676  2.0953 -0.0385
  891MPD2     N13119   0.492   0.698  16.484 -0.2621 -0.0457  0.6887
  891MPD2    H513120   0.440   0.723  16.567 -1.0137  3.4429 -0.8728
  891MPD2    N113121   0.558   1.172  16.380  0.4280 -0.8306  0.7476
  891MPD2    H713122   0.584   1.236  16.306 -2.2683 -1.6273 -0.8871
  892MPD2     C13123   1.716   1.752  15.065 -0.1858  0.2342 -0.4565
  892MPD2    C113124   1.663   1.779  14.936  0.2719 -0.0929  0.5857
  892MPD2    C213125   1.723   1.731  14.826 -0.2701 -0.2535  0.0327
  892MPD2    C313126   1.836   1.661  14.838  0.2397 -0.8354 -0.3561
  892MPD2    C413127   1.887   1.626  14.967 -0.5989 -0.2404 -0.1369
  892MPD2    C513128   1.835   1.679  15.081  0.1578 -0.2267 -0.2738
  892MPD2     H13129   1.660   1.740  14.738 -0.5960  2.6980  0.5852
  892MPD2    H113130   1.963   1.549  14.978 -0.4660 -0.1812 -0.6350
  892MPD2    H213131   1.665   1.802  15.147  2.6401 -1.0714  2.1074
  892MPD2    H313132   1.879   1.655  15.178 -0.8778 -0.4128  0.1498
  892MPD2     N13133   1.891   1.603  14.717 -0.2122 -0.3356 -0.3357
  892MPD2    H513134   1.970   1.541  14.729 -0.4962 -0.3467  1.4783
  892MPD2    N113135   1.536   1.850  14.932  0.2880 -0.6861 -0.6885
  892MPD2    H713136   1.485   1.857  15.019 -0.4158  0.4529 -1.1918
  893MPD2     C13137   2.734   3.850   0.873  0.1263 -0.1233  0.1961
  893MPD2    C113138   2.742   3.944   0.973  0.4885  0.8862  0.0154
  893MPD2    C213139   2.636   3.958   1.066  0.4518 -0.2756  0.7010
  893MPD2    C313140   2.524   3.874   1.058  0.0064  0.0083 -0.2822
  893MPD2    C413141   2.525   3.773   0.963 -1.0649 -0.4689  0.1701
  893MPD2    C513142   2.626   3.763   0.875 -0.0397  0.0708 -0.4034
  893MPD2     H13143   2.636   4.038   1.139 -1.9529 -0.2735  0.6873
  893MPD2    H113144   2.433   3.716   0.955 -1.2313 -0.4099  1.6936
  893MPD2    H213145   2.809   3.838   0.796 -1.2674 -2.7635 -0.7074
  893MPD2    H313146   2.604   3.698   0.791  0.8144 -0.3045 -0.3282
  893MPD2     N13147   2.408   3.888   1.136  0.2954 -0.9431 -0.0371
  893MPD2    H513148   2.340   3.815   1.118  0.8043 -0.8615 -2.2735
  893MPD2    N113149   2.861   4.018   0.974 -0.0437 -0.3774 -0.4038
  893MPD2    H713150   2.924   4.011   0.894  0.7172  1.1112  0.0597
  894MPD2     C13151   0.821   2.102   0.983 -0.1238 -0.2978  0.6824
  894MPD2    C113152   0.788   2.181   1.088  0.4568  0.4892 -0.4094
  894MPD2    C213153   0.847   2.304   1.096  0.3500  0.3762  0.8193
  894MPD2    C313154   0.942   2.350   1.007 -1.2782 -0.0392 -0.2956
  894MPD2    C413155   0.974   2.269   0.901 -0.1515  0.8124  0.4889
  894MPD2    C513156   0.917   2.147   0.897  0.2638  0.1859 -0.1006
  894MPD2     H13157   0.822   2.365   1.181  0.1846  1.9677 -0.3634
  894MPD2    H113158   1.051   2.292   0.828  1.1226 -0.8632  1.2752
  894MPD2    H213159   0.793   1.997   0.978 -0.1078 -0.2567 -0.4648
  894MPD2    H313160   0.936   2.084   0.811  2.3571  0.2625  0.3179
  894MPD2     N13161   1.013   2.471   1.024  0.6150  0.4389  0.0641
  894MPD2    H513162   0.973   2.526   1.099  1.0247  0.0207  0.5901
  894MPD2    N113163   0.706   2.140   1.187 -0.1185  0.3286 -0.4623
  894MPD2    H713164   0.665   2.211   1.247 -0.2176 -2.1808  2.4146
  895MPD2     C13165   0.751   1.073  13.702  0.3620  0.6945 -0.5050
  895MPD2    C113166   0.693   0.953  13.678  0.5417  1.5327  0.1080
  895MPD2    C213167   0.773   0.845  13.699  0.0185  0.1099 -0.9908
  895MPD2    C313168   0.903   0.853  13.724  0.2983  0.0178 -0.8325
  895MPD2    C413169   0.964   0.976  13.741 -0.4001 -0.1942 -0.4898
  895MPD2    C513170   0.889   1.089  13.711  0.2221  0.4707 -0.1068
  895MPD2     H13171   0.727   0.751  13.669 -0.6109  0.9929 -2.7823
  895MPD2    H113172   1.071   0.986  13.748 -0.8238  2.5738  1.9562
  895MPD2    H213173   0.693   1.163  13.684  2.3329  2.1890  0.7026
  895MPD2    H313174   0.939   1.185  13.711 -1.5966  1.4239  0.0645
  895MPD2     N13175   0.975   0.736  13.713 -0.3894 -0.0424 -0.0721
  895MPD2    H513176   0.927   0.650  13.685 -1.5589 -0.0362  1.8758
  895MPD2    N113177   0.564   0.933  13.624  0.0441  0.5254  0.9672
  895MPD2    H713178   0.527   0.838  13.615  0.8491  0.5656 -2.4467
  896MPD2     C13179   2.796   3.399   1.640 -0.1788 -1.0763 -0.7045
  896MPD2    C113180   2.799   3.319   1.529  0.2930  0.5243 -0.2963
  896MPD2    C213181   2.681   3.250   1.490  0.3549  0.5482 -0.1161
  896MPD2    C313182   2.563   3.277   1.552  0.4454 -0.4747 -0.6034
  896MPD2    C413183   2.553   3.366   1.655 -0.8828 -0.3820  0.2739
  896MPD2    C513184   2.673   3.427   1.699  0.4746 -0.8050  0.2259
  896MPD2     H13185   2.676   3.183   1.405  0.5685 -0.8259  0.9572
  896MPD2    H113186   2.458   3.397   1.697 -0.8740  2.3722 -1.7453
  896MPD2    H213187   2.888   3.440   1.681 -2.0242  1.7825  0.6100
  896MPD2    H313188   2.664   3.505   1.774  1.0253 -0.7864  0.2662
  896MPD2     N13189   2.444   3.212   1.506  0.0459 -0.4311  0.3535
  896MPD2    H513190   2.458   3.150   1.427 -3.6121  0.6723 -1.1622
  896MPD2    N113191   2.924   3.313   1.459  0.2992  0.8493 -0.8803
  896MPD2    H713192   3.002   3.361   1.503  0.2765 -1.3571  1.5577
  897MPD2     C13193   4.541   4.577  10.575 -0.3147 -0.5746  0.8429
  897MPD2    C113194   4.470   4.696  10.586  0.5409 -0.0848 -0.2285
  897MPD2    C213195   4.367   4.707  10.680 -0.6359  0.4380 -0.3177
  897MPD2    C313196   4.342   4.606  10.770  0.0563  0.5517  0.6267
  897MPD2    C413197   4.407   4.485  10.756  0.2579 -0.4311 -0.2159
  897MPD2    C513198   4.505   4.473  10.663 -0.4352  0.4937  1.0606
  897MPD2     H13199   4.331   0.069  10.700 -1.6393 -0.0310  0.2488
  897MPD2    H113200   4.390   4.404  10.827  2.2306  1.4431  2.3609
  897MPD2    H213201   4.620   4.570  10.502 -1.5242 -1.8047 -0.3498
  897MPD2    H313202   4.566   4.384  10.659 -1.9850 -0.6474  2.3979
  897MPD2     N13203   4.246   4.620  10.881 -0.2178 -0.4468 -0.2226
  897MPD2    H513204   4.236   4.549  10.952 -1.2222 -0.6188 -0.5354
  897MPD2    N113205   4.512   0.057  10.491 -0.3708  0.0576  0.1143
  897MPD2    H713206   4.605   0.053  10.449 -0.8549  2.6805 -1.2085
  898MPD2     C13207   1.037   0.995  17.578  0.5156  0.5616 -0.1252
  898MPD2    C113208   1.013   0.998  17.716 -0.4248 -0.0000  0.4103
  898MPD2    C213209   1.008   1.114   0.033 -0.6387  0.2842  0.4441
  898MPD2    C313210   1.021   1.232  17.717  0.5917 -0.4218 -0.2523
  898MPD2    C413211   1.057   1.234  17.584 -0.1676 -0.2185 -0.2774
  898MPD2    C513212   1.064   1.118  17.514 -0.4459  0.3902 -0.2368
  898MPD2     H13213   0.971   1.120   0.135  0.0288  2.7676  0.5380
  898MPD2    H113214   1.067   1.327  17.530 -0.4642 -0.2819 -0.4428
  898MPD2    H213215   1.045   0.906  17.517 -1.5618  0.0509  0.3282
  898MPD2    H313216   1.096   1.119  17.411 -0.8790  0.0215 -0.3783
  898MPD2     N13217   1.007   1.350   0.039 -0.5202  0.3211  0.2521
  898MPD2    H513218   0.999   1.342   0.140 -0.3364  1.2639  0.3428
  898MPD2    N113219   0.981   0.878   0.033  0.2602 -0.0413 -0.3053
  898MPD2    H713220   0.990   0.879   0.135  1.1056 -0.5860 -0.3749
  899MPD2     C13221   2.511   1.605  17.593 -0.1071 -0.1091  0.2513
  899MPD2    C113222   2.397   1.658  17.537 -0.2467  0.6273 -0.5365
  899MPD2    C213223   2.277   1.642  17.609 -0.2488 -0.3443 -0.5510
  899MPD2    C313224   2.272   1.587  17.734 -0.7426 -0.2692 -0.4731
  899MPD2    C413225   2.390   1.550   0.038 -0.1143 -0.8080  0.0736
  899MPD2    C513226   2.508   1.549  17.720  0.1059  0.6242  0.2213
  899MPD2     H13227   2.190   1.681  17.558 -0.9079  1.2911  1.8708
  899MPD2    H113228   2.390   1.508   0.138 -1.4144  0.7829  0.7457
  899MPD2    H213229   2.604   1.615  17.538  0.8241 -2.2253  1.4570
  899MPD2    H313230   2.602   1.527   0.016 -1.0928  0.2248  2.3288
  899MPD2     N13231   2.149   1.562   0.048 -0.3323 -0.4558 -0.0157
  899MPD2    H513232   2.159   1.524   0.141 -1.3807 -1.6742 -0.3940
  899MPD2    N113233   2.411   1.717  17.410 -0.0306 -0.1061 -0.1997
  899MPD2    H713234   2.502   1.721  17.364  0.2102 -0.7261  0.2175
  900MPD2     C13235   2.441   3.263  12.722  0.3750 -0.3378  0.1505
  900MPD2    C113236   2.342   3.168  12.696 -0.5915 -0.2389 -0.9544
  900MPD2    C213237   2.241   3.191  12.599  0.4320 -0.7838  0.2357
  900MPD2    C313238   2.239   3.307  12.529  0.0979 -0.1575  0.8982
  900MPD2    C413239   2.330   3.401  12.561  0.1816  0.0248  0.5911
  900MPD2    C513240   2.428   3.384  12.660 -0.1549 -0.1200 -0.3770
  900MPD2     H13241   2.163   3.116  12.592  1.5129 -2.1679  3.0190
  900MPD2    H113242   2.322   3.498  12.514 -0.4263 -0.0186  0.6047
  900MPD2    H213243   2.502   3.259  12.812  0.8398 -0.2957 -0.1620
  900MPD2    H313244   2.499   3.463  12.685 -0.2615 -0.4361  0.9300
  900MPD2     N13245   2.146   3.321  12.424  0.5763  0.2997 -0.8138
  900MPD2    H513246   2.071   3.252  12.426  1.7226 -1.0328 -2.9066
  900MPD2    N113247   2.357   3.049  12.770  0.1074  0.6319 -0.3196
  900MPD2    H713248   2.443   3.037  12.823  0.3379  0.7943 -0.6523
  901MPD2     C13249   1.942   2.050  12.893  0.2644 -0.0725  0.3149
  901MPD2    C113250   2.076   2.038  12.933  0.4296 -0.0650 -0.2890
  901MPD2    C213251   2.156   2.152  12.952 -0.1983 -0.2202  0.2720
  901MPD2    C313252   2.091   2.278  12.948 -0.2272  0.3825  0.1692
  901MPD2    C413253   1.953   2.285  12.927 -0.5393  0.1513 -0.1328
  901MPD2    C513254   1.884   2.173  12.896  0.1779  0.2841 -0.3994
  901MPD2     H13255   2.265   2.156  12.950 -0.1657 -2.0629 -1.4701
  901MPD2    H113256   1.904   2.381  12.918  1.1572  0.6935 -3.2566
  901MPD2    H213257   1.878   1.971  12.856 -0.1864  0.4785 -0.0760
  901MPD2    H313258   1.780   2.184  12.868  0.5900  1.4828 -1.4839
  901MPD2     N13259   2.173   2.395  12.954  0.0357 -0.6975 -0.0559
  901MPD2    H513260   2.273   2.384  12.971 -0.4736 -1.9126  2.2751
  901MPD2    N113261   2.141   1.909  12.922 -0.2255 -0.1822  0.3980
  901MPD2    H713262   2.087   1.830  12.889 -2.3720 -0.0236  3.5466
  902MPD2     C13263   1.021   0.903  12.590 -0.5072 -0.8804 -0.0962
  902MPD2    C113264   1.105   0.996  12.642  0.4749  0.4687  0.3993
  902MPD2    C213265   1.225   0.962  12.698 -0.6437  0.0401  0.4785
  902MPD2    C313266   1.259   0.821  12.697  1.1465 -0.5724  0.2294
  902MPD2    C413267   1.169   0.733  12.649 -0.2059  0.2330 -0.3790
  902MPD2    C513268   1.051   0.766  12.600  0.6923  0.3381  0.1146
  902MPD2     H13269   1.286   1.027  12.761 -1.3140 -1.3383  2.5486
  902MPD2    H113270   1.196   0.628  12.657  0.5596  0.6167  1.9721
  902MPD2    H213271   0.925   0.932  12.550 -0.0612  1.4923  0.5544
  902MPD2    H313272   0.972   0.699  12.568 -0.0808  1.2702  0.0759
  902MPD2     N13273   1.385   0.767  12.724 -0.6364 -0.6331 -0.2272
  902MPD2    H513274   1.405   0.671  12.699 -3.0484 -0.6680 -2.0082
  902MPD2    N113275   1.055   1.133  12.654 -0.2467  0.3023  0.2217
  902MPD2    H713276   0.956   1.138  12.631  0.2372  0.4929 -1.8627
  903MPD2     C13277   1.420   1.114  12.329 -1.3988 -0.1774  0.4603
  903MPD2    C113278   1.426   0.971  12.325 -0.8636  0.0882  0.2853
  903MPD2    C213279   1.302   0.903  12.287 -0.2136  0.1972 -0.4738
  903MPD2    C313280   1.184   0.976  12.264 -0.0656  0.4257  0.3722
  903MPD2    C413281   1.183   1.117  12.278 -0.5331 -0.4051 -0.6882
  903MPD2    C513282   1.305   1.181  12.306 -0.1503 -0.0670 -0.1395
  903MPD2     H13283   1.296   0.795  12.275 -0.0965  0.3700 -2.0850
  903MPD2    H113284   1.090   1.173  12.273 -0.1253  0.5379  2.4041
  903MPD2    H213285   1.508   1.164  12.366 -0.9040 -0.0924 -0.8375
  903MPD2    H313286   1.317   1.287  12.323 -2.1788 -0.3825  3.2172
  903MPD2     N13287   1.069   0.898  12.227  0.8859  0.2017 -0.5203
  903MPD2    H513288   1.077   0.797  12.223 -2.7973 -0.2136  2.3914
  903MPD2    N113289   1.544   0.912  12.370 -0.8017  0.0000  0.3486
  903MPD2    H713290   1.619   0.975  12.394 -0.7115  0.0453 -0.0492
  904MPD2     C13291   0.677   0.467  14.017  0.5827 -0.0183 -0.2945
  904MPD2    C113292   0.658   0.419  14.143 -0.6792 -0.5886  0.0430
  904MPD2    C213293   0.778   0.407  14.215 -1.0078  0.2087 -0.2189
  904MPD2    C313294   0.909   0.442  14.172 -0.2416 -0.0961 -0.3393
  904MPD2    C413295   0.913   0.486  14.038 -0.6151 -0.6633 -0.3525
  904MPD2    C513296   0.800   0.515  13.972  0.7506  0.1476 -0.4688
  904MPD2     H13297   0.775   0.387  14.321  1.4081  1.7715  0.1483
  904MPD2    H113298   1.005   0.511  13.988 -1.5691  0.3821 -1.5900
  904MPD2    H213299   0.589   0.483  13.957  1.4194 -0.1765 -1.5603
  904MPD2    H313300   0.811   0.556  13.872 -1.7914  0.4549 -0.6126
  904MPD2     N13301   1.023   0.427  14.257  0.3057 -0.5732  0.3686
  904MPD2    H513302   1.012   0.385  14.349  1.7771 -0.1514  0.7358
  904MPD2    N113303   0.530   0.372  14.201 -0.6297 -0.1844 -0.6298
  904MPD2    H713304   0.540   0.290  14.260  0.8375  0.1036 -0.4899
  905MPD2     C13305   0.387   0.233  13.696 -0.4713 -0.0893  0.7572
  905MPD2    C113306   0.428   0.366  13.692 -0.0681 -1.4667 -0.2354
  905MPD2    C213307   0.556   0.392  13.649  0.1360  0.6207  0.1152
  905MPD2    C313308   0.641   0.291  13.605 -0.3939 -0.0313  0.5975
  905MPD2    C413309   0.589   0.169  13.597 -0.2016  0.8285 -0.0002
  905MPD2    C513310   0.472   0.137  13.652  0.6778 -0.5570 -0.8268
  905MPD2     H13311   0.593   0.494  13.648 -0.9427  1.0277  1.0959
  905MPD2    H113312   0.644   0.085  13.556 -0.5900  2.4566 -3.8999
  905MPD2    H213313   0.292   0.206  13.739  0.2130 -2.1825  0.9475
  905MPD2    H313314   0.442   0.035  13.672  0.5208  0.2160  2.9841
  905MPD2     N13315   0.778   0.309  13.561  0.3477  0.5005  0.6050
  905MPD2    H513316   0.830   0.228  13.531 -2.8572 -1.4500  0.2747
  905MPD2    N113317   0.345   0.467  13.745 -0.0211 -0.0935  0.1643
  905MPD2    H713318   0.249   0.439  13.763  0.6939 -0.6261  3.1272
  906MPD2     C13319   3.114   4.588  11.893  0.2282 -0.2586  0.4418
  906MPD2    C113320   3.034   4.577  11.779 -0.0102 -0.3663  0.8058
  906MPD2    C213321   2.921   4.503  11.788  0.4734 -0.4561  0.1611
  906MPD2    C313322   2.880   4.444  11.903 -0.4026 -0.0385 -0.3962
  906MPD2    C413323   2.963   4.454  12.013  0.0740  0.6890  0.3473
  906MPD2    C513324   3.081   4.516  12.009 -0.2406 -0.9320 -0.5647
  906MPD2     H13325   2.852   4.505  11.704 -0.1775  0.7589  0.7258
  906MPD2    H113326   2.943   4.411  12.111 -1.7834  1.9192  0.4972
  906MPD2    H213327   3.213   4.633  11.897  1.0145 -1.8682 -0.4346
  906MPD2    H313328   3.145   4.529  12.096 -1.9588  2.1897  0.2106
  906MPD2     N13329   2.766   4.365  11.924 -0.2083 -0.1094  0.1698
  906MPD2    H513330   2.760   4.328  12.018  3.2541  0.4090  0.6226
  906MPD2    N113331   3.065   4.638  11.658  1.0312  0.1150 -0.5731
  906MPD2    H713332   2.995   4.627  11.585  1.4157  3.1453 -1.4070
  907MPD2     C13333   1.804   4.272  15.948  0.7747 -0.4383  0.9937
  907MPD2    C113334   1.782   4.147  15.902  0.7220 -0.0198 -0.2098
  907MPD2    C213335   1.798   4.043  15.989 -0.0463 -0.3179  0.2120
  907MPD2    C313336   1.831   4.060  16.120 -0.0887  0.2915  0.6254
  907MPD2    C413337   1.841   4.189  16.168  0.6171 -0.4970  0.1405
  907MPD2    C513338   1.823   4.295  16.085  0.0294 -0.4980 -0.4664
  907MPD2     H13339   1.783   3.945  15.947  0.0002 -1.2967  2.4760
  907MPD2    H113340   1.868   4.209  16.271  2.3337 -0.1917 -0.3685
  907MPD2    H213341   1.800   4.362  15.889  0.9351 -1.1283 -0.0602
  907MPD2    H313342   1.827   4.394  16.129 -3.3314 -0.9534  0.8277
  907MPD2     N13343   1.852   3.937  16.199  0.4213  0.2999 -0.1788
  907MPD2    H513344   1.839   3.845  16.158  0.0738  0.4197 -0.3408
  907MPD2    N113345   1.750   4.125  15.763 -0.3945  0.0065 -0.2800
  907MPD2    H713346   1.716   4.032  15.740 -1.7790  0.3903  0.1738
  908MPD2     C13347   0.315   0.029   9.836 -0.3768 -1.1329  0.5810
  908MPD2    C113348   0.213   4.695   9.897 -0.2046 -0.4001 -0.2963
  908MPD2    C213349   0.131   0.018   9.991 -0.3523  0.4873 -0.8802
  908MPD2    C313350   0.159   0.144  10.039 -0.2076  0.8572 -0.3395
  908MPD2    C413351   0.255   0.212   9.970 -0.0152  0.1866 -0.4418
  908MPD2    C513352   0.330   0.156   9.872 -0.6434  1.3006 -0.2662
  908MPD2     H13353   0.041   4.706  10.024  0.4083 -0.2760  0.0252
  908MPD2    H113354   0.269   0.318   9.982  0.0612  0.3887 -2.3373
  908MPD2    H213355   0.373   4.719   9.758  0.2378  0.8943 -0.2073
  908MPD2    H313356   0.398   0.212   9.808  1.4680  0.3929  1.2051
  908MPD2     N13357   0.069   0.189  10.136  0.1085 -0.7355  0.0577
  908MPD2    H513358   0.007   0.119  10.177 -1.9524  0.4365 -1.0082
  908MPD2    N113359   0.204   4.569   9.853 -0.5033 -0.9931 -0.0021
  908MPD2    H713360   0.262   4.544   9.773  0.7923  0.4931  0.4630
  909MPD2     C13361   0.013   2.641  12.094  0.1904 -0.5643  0.2345
  909MPD2    C113362   4.682   2.711  12.003  0.5549  0.6125 -0.4958
  909MPD2    C213363   4.564   2.784  12.035 -0.0013 -0.0262  0.7243
  909MPD2    C313364   4.506   2.768  12.158 -0.6500  0.9488 -0.0098
  909MPD2    C413365   4.572   2.686  12.250  1.1059  0.1912 -0.8488
  909MPD2    C513366   4.695   2.627  12.225 -0.4788  0.9528  0.5633
  909MPD2     H13367   4.525   2.856  11.964  1.5050  1.0592  0.9990
  909MPD2    H113368   4.536   2.655  12.347  0.2540  0.7412 -0.9945
  909MPD2    H213369   0.109   2.593  12.080  0.6964  0.1572  1.2686
  909MPD2    H313370   4.727   2.553  12.296 -2.3316 -0.3465  0.0506
  909MPD2     N13371   4.377   2.828  12.171 -0.4169 -1.0592  0.2285
  909MPD2    H513372   4.347   2.867  12.082 -1.0761  1.4938  1.5730
  909MPD2    N113373   4.733   2.743  11.876  0.4448  0.9328  0.2298
  909MPD2    H713374   4.681   2.800  11.810  0.6984  0.9502  0.0460
  910MPD2     C13375   1.075   4.534  16.189  0.7573  0.0898  0.0004
  910MPD2    C113376   1.184   4.523  16.106  0.2727 -0.1706 -0.2202
  910MPD2    C213377   1.208   4.613  16.007  0.9438 -0.6497  1.0770
  910MPD2    C313378   1.105   4.698  15.972  0.0690 -0.3105  0.7844
  910MPD2    C413379   0.996   4.716  16.053 -0.1397 -0.1489 -1.3902
  910MPD2    C513380   0.991   4.638  16.170 -0.1386 -0.3289  0.5242
  910MPD2     H13381   1.303   4.612  15.954 -0.4552 -1.3540 -1.4042
  910MPD2    H113382   0.920   0.052  16.032 -0.7420 -0.3250  0.1457
  910MPD2    H213383   1.051   4.459  16.262 -1.2972  1.1827  0.4594
  910MPD2    H313384   0.909   4.650  16.240  1.1197 -0.2994  2.0013
  910MPD2     N13385   1.106   0.048  15.865 -0.2892  0.6700  0.2878
  910MPD2    H513386   1.040   0.125  15.870  0.7894  1.6463 -0.4062
  910MPD2    N113387   1.279   4.417  16.122  0.2041  0.6799  0.1001
  910MPD2    H713388   1.349   4.408  16.049 -1.0072 -0.6022 -0.8848
  911MPD2     C13389   3.653   0.727  16.711 -0.6223 -0.2195  0.3091
  911MPD2    C113390   3.728   0.827  16.663  0.3843 -0.2054 -0.2337
  911MPD2    C213391   3.665   0.928  16.585  0.1710 -0.4724  0.8771
  911MPD2    C313392   3.529   0.921  16.550 -0.3994  0.5601 -0.4332
  911MPD2    C413393   3.460   0.811  16.591 -0.5116 -0.5737 -0.4877
  911MPD2    C513394   3.525   0.722  16.667  0.1143  0.6182 -0.5367
  911MPD2     H13395   3.729   1.006  16.547 -0.7814  1.0226  2.3002
  911MPD2    H113396   3.356   0.797  16.561 -0.6438  0.7966 -0.6689
  911MPD2    H213397   3.692   0.651  16.778 -1.1123 -1.3257 -0.6654
  911MPD2    H313398   3.457   0.659  16.723 -0.1729  0.5322 -0.9902
  911MPD2     N13399   3.464   1.023  16.476  0.7967 -0.2355  0.7547
  911MPD2    H513400   3.371   0.999  16.446  1.3737  1.4468 -2.3656
  911MPD2    N113401   3.867   0.823  16.686 -0.0253  0.4272  0.1219
  911MPD2    H713402   3.906   0.738  16.725 -1.3130  0.5146  1.6208
  912MPD2     C13403   2.997   0.925  15.832  0.0166 -0.2681 -0.3020
  912MPD2    C113404   3.071   0.904  15.947  0.4621  0.4785 -0.4189
  912MPD2    C213405   3.029   0.795  16.027 -0.9649  0.6620  0.2455
  912MPD2    C313406   2.912   0.725  16.000  0.4632  0.7207  0.7096
  912MPD2    C413407   2.836   0.765  15.899  1.0761 -0.2398 -0.4432
  912MPD2    C513408   2.881   0.858  15.815  0.3532 -0.3854 -0.0477
  912MPD2     H13409   3.086   0.764  16.114 -1.0666 -0.8196 -0.2198
  912MPD2    H113410   2.736   0.726  15.880  0.7251  0.0985  0.7201
  912MPD2    H213411   3.023   1.004  15.763 -1.8002 -1.5816 -2.5323
  912MPD2    H313412   2.828   0.883  15.724  0.3259  3.1195  0.9352
  912MPD2     N13413   2.879   0.619  16.088 -0.1030  0.4988 -0.5490
  912MPD2    H513414   2.947   0.595  16.160 -0.6503  0.7239  0.0444
  912MPD2    N113415   3.176   0.992  15.977 -1.2943 -0.3728  0.2332
  912MPD2    H713416   3.174   1.074  15.918 -1.9152 -0.1765  0.5290
  913MPD2     C13417   4.400   1.464  10.813  0.0656  0.3250 -0.1875
  913MPD2    C113418   4.478   1.565  10.856  0.3043  0.7028 -0.1041
  913MPD2    C213419   4.492   1.676  10.779  0.0226  0.1726  0.2818
  913MPD2    C313420   4.419   1.687  10.660 -0.2830  0.1448 -0.5855
  913MPD2    C413421   4.348   1.580  10.624 -0.0228 -0.1774 -0.1957
  913MPD2    C513422   4.337   1.467  10.699 -0.3580  0.4963 -0.0591
  913MPD2     H13423   4.533   1.771  10.814  0.1248 -0.5105  2.0292
  913MPD2    H113424   4.307   1.577  10.524  2.4613 -2.3138 -1.1546
  913MPD2    H213425   4.397   1.370  10.867 -0.2641  1.2475  1.3782
  913MPD2    H313426   4.273   1.394  10.650 -0.1224  0.1945  0.0886
  913MPD2     N13427   4.416   1.801  10.580  0.2986 -0.1097 -0.4229
  913MPD2    H513428   4.357   1.803  10.497  2.8394  1.3346 -2.2070
  913MPD2    N113429   4.538   1.564  10.984 -0.0756 -0.2954 -0.1051
  913MPD2    H713430   4.511   1.495  11.052 -2.8477  0.2768 -0.6470
  914MPD2     C13431   2.173   2.110  12.241 -0.1514  0.8093 -0.1208
  914MPD2    C113432   2.225   2.152  12.360 -0.2687  0.4068  0.6526
  914MPD2    C213433   2.281   2.064  12.448 -0.6028  0.0320  0.2615
  914MPD2    C313434   2.301   1.931  12.414  0.5432 -0.4867  0.1417
  914MPD2    C413435   2.261   1.889  12.288 -0.4746 -0.4232  0.7154
  914MPD2    C513436   2.202   1.980  12.203 -0.2983  0.6535 -0.6579
  914MPD2     H13437   2.322   2.097  12.543  0.0637  0.7503 -0.2764
  914MPD2    H113438   2.267   1.784  12.262 -0.3048 -0.5983  1.4431
  914MPD2    H213439   2.119   2.173  12.172 -1.1989 -0.8024 -0.7934
  914MPD2    H313440   2.161   1.956  12.106  0.8281  1.9558 -1.4653
  914MPD2     N13441   2.334   1.844  12.522 -0.0761 -0.7278 -0.5735
  914MPD2    H513442   2.349   1.885  12.613 -0.0531  0.3748 -1.0777
  914MPD2    N113443   2.205   2.291  12.391  0.4793 -0.5508 -0.0814
  914MPD2    H713444   2.180   2.354  12.316  0.6280 -1.5624 -0.9733
  915MPD2     C13445   0.270   2.256  15.676 -0.0279 -0.4370 -0.0040
  915MPD2    C113446   0.146   2.318  15.664  0.4694  0.2399  0.1939
  915MPD2    C213447   0.078   2.370  15.779 -0.4769 -0.2242 -0.2698
  915MPD2    C313448   0.126   2.353  15.909  0.1372 -0.5455 -0.0378
  915MPD2    C413449   0.250   2.294  15.919 -0.3952  0.1099 -0.6510
  915MPD2    C513450   0.319   2.252  15.807 -0.1420  0.2962 -0.8532
  915MPD2     H13451   4.722   2.422  15.770  1.1496  3.0036  1.2149
  915MPD2    H113452   0.294   2.287  16.018  1.9376  0.7183 -1.6625
  915MPD2    H213453   0.335   2.217  15.599 -0.3375  0.8111 -0.8941
  915MPD2    H313454   0.399   2.182  15.823 -0.3421  0.4886  0.9574
  915MPD2     N13455   0.050   2.405  16.011 -0.3395  0.3729 -0.1896
  915MPD2    H513456   4.713   2.470  15.992 -1.2203 -0.5258  0.1896
  915MPD2    N113457   0.093   2.329  15.534  0.3421  0.0993 -0.5317
  915MPD2    H713458   0.138   2.271  15.464  1.0296  1.1091 -0.9155
  916MPD2     C13459   2.841   0.370  15.775  0.2868 -0.3296  0.7327
  916MPD2    C113460   2.785   0.265  15.835  1.3151 -0.0349 -0.3134
  916MPD2    C213461   2.845   0.138  15.824 -0.6372 -0.1318 -1.0277
  916MPD2    C313462   2.960   0.108  15.746  0.3324  0.5418  0.5153
  916MPD2    C413463   3.014   0.221  15.692  0.2095 -0.0956  0.6240
  916MPD2    C513464   2.956   0.347  15.712  0.0696  0.3489 -0.6542
  916MPD2     H13465   2.791   0.057  15.871 -0.4625  1.0847  1.2442
  916MPD2    H113466   3.103   0.214  15.630 -0.5367  0.0581 -0.4811
  916MPD2    H213467   2.810   0.472  15.796 -0.0207 -0.3461  0.3585
  916MPD2    H313468   3.014   0.429  15.671  0.7044  0.2542  0.0508
  916MPD2     N13469   3.024   4.723  15.749 -0.0734  0.1766 -0.1919
  916MPD2    H513470   2.971   4.644  15.785  2.6539 -1.7964 -0.4751
  916MPD2    N113471   2.668   0.301  15.915  0.2859 -0.4909  0.2320
  916MPD2    H713472   2.645   0.399  15.922  3.2844  0.0958  1.9831
  917MPD2     C13473   3.474   2.230  11.195 -0.5598 -0.2760  0.1376
  917MPD2    C113474   3.506   2.317  11.294  0.9448 -0.3994 -0.2056
  917MPD2    C213475   3.595   2.413  11.259 -0.2724 -0.0983  0.0754
  917MPD2    C313476   3.655   2.429  11.139  0.0585  0.1871 -0.0699
  917MPD2    C413477   3.606   2.341  11.044 -0.1444  0.8213 -0.2481
  917MPD2    C513478   3.526   2.235  11.070 -0.0013 -0.2407 -0.9386
  917MPD2     H13479   3.609   2.500  11.323 -0.5921  0.4485 -0.6029
  917MPD2    H113480   3.637   2.355  10.941  1.4992 -0.7594  0.0384
  917MPD2    H213481   3.407   2.147  11.213 -4.1594  2.3755 -0.9266
  917MPD2    H313482   3.494   2.173  10.987  0.8646  0.4942 -1.8127
  917MPD2     N13483   3.740   2.530  11.101 -0.6153 -0.5453  0.1240
  917MPD2    H513484   3.748   2.542  11.001 -2.9957 -2.1010 -0.2217
  917MPD2    N113485   3.454   2.291  11.425  0.3229 -0.0565 -0.4344
  917MPD2    H713486   3.374   2.229  11.422  0.7606 -0.6371  0.1536
  918MPD2     C13487   3.386   2.714  12.373 -0.0397  0.3733  0.3928
  918MPD2    C113488   3.503   2.644  12.337  0.5776  0.3410 -0.2986
  918MPD2    C213489   3.497   2.540  12.239  0.2902 -0.0186 -0.3037
  918MPD2    C313490   3.366   2.510  12.189  0.0316 -0.5788 -0.2555
  918MPD2    C413491   3.255   2.578  12.235 -0.2750 -0.1821 -0.0208
  918MPD2    C513492   3.260   2.671  12.334 -0.3188 -0.5928 -0.0644
  918MPD2     H13493   3.592   2.494  12.215  0.1585 -1.4366  1.9855
  918MPD2    H113494   3.155   2.542  12.213  0.0074 -2.0139  1.6677
  918MPD2    H213495   3.386   2.800  12.440 -1.0867  0.6483  0.0375
  918MPD2    H313496   3.170   2.720  12.371  0.2112  0.1937  0.1770
  918MPD2     N13497   3.346   2.415  12.083 -0.5203  0.1160  0.1928
  918MPD2    H513498   3.248   2.398  12.062 -0.5023 -0.3991  0.5214
  918MPD2    N113499   3.634   2.687  12.383  0.4623  0.1852  0.3057
  918MPD2    H713500   3.716   2.652  12.335 -0.0473  0.1898 -0.5506
  919MPD2     C13501   4.107   1.364  11.888 -0.4111  0.1242 -0.2518
  919MPD2    C113502   4.074   1.250  11.820  0.7487 -0.3246  0.0217
  919MPD2    C213503   4.083   1.253  11.683 -0.0455  0.3603  0.0377
  919MPD2    C313504   4.111   1.365  11.612  0.2297  0.0117 -0.2258
  919MPD2    C413505   4.151   1.477  11.684 -0.4352  0.3209  0.0128
  919MPD2    C513506   4.153   1.474  11.816  0.5161  0.1543 -0.7896
  919MPD2     H13507   4.070   1.155  11.638  0.5719  1.2712 -2.1290
  919MPD2    H113508   4.183   1.572  11.641  0.4359  0.1028  0.1729
  919MPD2    H213509   4.107   1.367  11.997 -1.2371  2.2647 -0.3195
  919MPD2    H313510   4.192   1.561  11.867 -1.1984 -1.2252  2.8610
  919MPD2     N13511   4.127   1.370  11.471  0.6653 -0.0547  0.2021
  919MPD2    H513512   4.169   1.457  11.438  1.9265  0.2191  2.5002
  919MPD2    N113513   4.050   1.127  11.884  0.5122  0.0844  0.3331
  919MPD2    H713514   4.026   1.051  11.820  2.4698 -0.2213 -0.0399
  920MPD2     C13515   4.057   1.951  10.678  0.1771  0.3854  0.5245
  920MPD2    C113516   3.982   1.837  10.653 -0.3943 -0.0926  0.6264
  920MPD2    C213517   3.989   1.729  10.736  1.0153 -0.5173 -0.1948
  920MPD2    C313518   4.083   1.726  10.834 -0.2813  1.1423 -0.0259
  920MPD2    C413519   4.168   1.833  10.855  0.1565 -0.3050 -0.3796
  920MPD2    C513520   4.144   1.951  10.787  0.1582 -0.0662 -0.5824
  920MPD2     H13521   3.927   1.642  10.714  0.9767 -0.1605 -1.5293
  920MPD2    H113522   4.238   1.836  10.939  0.5747 -1.7866 -0.6891
  920MPD2    H213523   4.052   2.040  10.617  1.9886  0.7933  0.9804
  920MPD2    H313524   4.191   2.040  10.826  2.4100 -0.7656 -1.7016
  920MPD2     N13525   4.084   1.608  10.904 -0.2276  0.4092  0.2097
  920MPD2    H513526   4.018   1.535  10.880 -0.3802  1.2443 -1.8554
  920MPD2    N113527   3.897   1.818  10.543 -0.1248 -0.4410 -0.5023
  920MPD2    H713528   3.845   1.730  10.544  1.2098 -1.2141  1.0833
  921MPD2     C13529   4.678   1.465  16.839  0.0713  0.2243 -0.4333
  921MPD2    C113530   4.685   1.391  16.719  0.7214  0.2112  0.2573
  921MPD2    C213531   4.587   1.295  16.694  0.1036  0.6105 -0.3704
  921MPD2    C313532   4.492   1.267  16.792  0.2931 -0.6533  0.2608
  921MPD2    C413533   4.487   1.347  16.907  0.8051  0.3262 -0.6731
  921MPD2    C513534   4.575   1.446  16.929  0.5675  0.9553  0.5732
  921MPD2     H13535   4.588   1.232  16.605  0.6533  1.5875 -1.0655
  921MPD2    H113536   4.406   1.337  16.978  1.0671  1.3854 -0.2216
  921MPD2    H213537   0.017   1.537  16.862 -1.2485  1.3726  0.3708
  921MPD2    H313538   4.581   1.503  17.021  0.0266 -0.2044  1.3234
  921MPD2     N13539   4.401   1.155  16.790  0.4077  0.8030  1.0506
  921MPD2    H513540   4.326   1.154  16.859 -2.2820 -2.6743 -1.9316
  921MPD2    N113541   0.052   1.413  16.625 -0.5805 -0.2465  0.5226
  921MPD2    H713542   0.045   1.368  16.535  3.0180  1.7519 -0.7452
  922MPD2     C13543   4.626   3.923  17.499  1.2273 -0.3053  0.0796
  922MPD2    C113544   4.595   3.865  17.618 -0.2121  0.2099 -0.7882
  922MPD2    C213545   4.574   3.731  17.638 -0.5078 -0.1868  0.1265
  922MPD2    C313546   4.580   3.642  17.529  0.0626  0.2981 -0.1981
  922MPD2    C413547   4.617   3.702  17.409 -0.4196 -0.0788  0.2733
  922MPD2    C513548   4.638   3.834  17.390  0.2996  0.0391  0.3112
  922MPD2     H13549   4.536   3.684  17.727  0.2852 -3.0460 -1.0239
  922MPD2    H113550   4.622   3.641  17.320  1.0010  0.3524  0.0612
  922MPD2    H213551   4.651   4.028  17.491  3.6093 -0.8106  0.7797
  922MPD2    H313552   4.656   3.878  17.293  0.9273  1.7193  1.1770
  922MPD2     N13553   4.531   3.509  17.544  0.2453 -0.0338 -0.1924
  922MPD2    H513554   4.498   3.482  17.637 -0.8228 -0.0908 -0.5854
  922MPD2    N113555   4.593   3.943  17.741  0.5622  0.7148  0.1869
  922MPD2    H713556   4.577   3.883   0.069 -0.2312 -0.6642 -1.0033
  923MPD2     C13557   2.508   0.531   9.388  0.5192  0.2016 -0.5016
  923MPD2    C113558   2.524   0.612   9.508  0.0839 -0.3010 -0.3016
  923MPD2    C213559   2.573   0.548   9.617 -0.2303  1.0788  0.6235
  923MPD2    C313560   2.616   0.418   9.615  0.3639  0.1779  0.1295
  923MPD2    C413561   2.591   0.338   9.504 -0.7060 -0.4037 -0.0546
  923MPD2    C513562   2.546   0.400   9.387 -0.4518  0.2354  0.5520
  923MPD2     H13563   2.582   0.604   9.710 -0.8202  2.7330 -0.3216
  923MPD2    H113564   2.618   0.233   9.499 -1.5304 -0.6227  0.1663
  923MPD2    H213565   2.461   0.577   9.302 -1.6048  0.6163  0.8817
  923MPD2    H313566   2.539   0.354   9.289 -0.0417 -1.7365  1.4583
  923MPD2     N13567   2.669   0.353   9.728 -0.2910 -0.2419 -0.0727
  923MPD2    H513568   2.660   0.252   9.734 -2.3344 -0.1326 -1.6178
  923MPD2    N113569   2.455   0.739   9.513 -0.6884 -0.7902  0.9804
  923MPD2    H713570   2.400   0.755   9.429  3.3471  1.4471 -1.2087
  924MPD2     C13571   1.818   3.380  15.805 -0.1732  0.9844 -0.0608
  924MPD2    C113572   1.830   3.309  15.925 -0.0362 -0.2838  0.6155
  924MPD2    C213573   1.899   3.362  16.036 -0.0167  0.8945 -0.5084
  924MPD2    C313574   1.965   3.482  16.027 -0.6145 -0.1875  0.7640
  924MPD2    C413575   1.954   3.552  15.910  0.3209 -0.5849 -0.0402
  924MPD2    C513576   1.878   3.507  15.804 -0.1064  1.2250 -0.7340
  924MPD2     H13577   1.894   3.307  16.129 -0.3128  0.1973 -0.9349
  924MPD2    H113578   1.999   3.650  15.911  1.2713 -1.0209  0.2021
  924MPD2    H213579   1.763   3.344  15.719 -1.2719  3.4617 -0.4012
  924MPD2    H313580   1.873   3.572  15.717  0.6578  2.5258  0.1825
  924MPD2     N13581   2.027   3.542  16.131  0.2800 -0.2248  0.2799
  924MPD2    H513582   2.074   3.630  16.114 -0.4140  0.1570  0.3327
  924MPD2    N113583   1.753   3.195  15.932 -0.2865  0.1940  0.1685
  924MPD2    H713584   1.679   3.180  15.864 -0.5043  0.3547  0.3667
  925MPD2     C13585   0.724   1.134  14.521  0.1995 -0.3465  0.8260
  925MPD2    C113586   0.639   1.236  14.536 -0.8339 -0.4130  0.0565
  925MPD2    C213587   0.618   1.293  14.660 -0.4233 -0.8928  0.1640
  925MPD2    C313588   0.685   1.228  14.768  0.2969  0.0716  1.0701
  925MPD2    C413589   0.756   1.118  14.754  0.0149 -0.3640  0.0592
  925MPD2    C513590   0.780   1.067  14.626  0.4909 -0.0750  0.0327
  925MPD2     H13591   0.541   1.368  14.672  1.6070  0.9082  1.9638
  925MPD2    H113592   0.804   1.064  14.835 -0.7890  0.1159  0.8464
  925MPD2    H213593   0.738   1.097  14.421 -0.4236  3.3416 -0.6299
  925MPD2    H313594   0.847   0.983  14.620  2.4801  1.6975 -2.6031
  925MPD2     N13595   0.656   1.263  14.898 -0.1534  0.2347 -0.7691
  925MPD2    H513596   0.670   1.191  14.969 -4.5422  0.4689  0.3550
  925MPD2    N113597   0.577   1.294  14.419  0.2140  1.1845 -0.0096
  925MPD2    H713598   0.592   1.244  14.332  0.7538  0.2515  0.6058
  926MPD2     C13599   4.318   4.469  14.076  0.0921 -0.5276  0.3893
  926MPD2    C113600   4.284   4.565  13.979 -0.1327  0.2678  0.0654
  926MPD2    C213601   4.375   4.597  13.878 -0.0543  0.4468 -1.1443
  926MPD2    C313602   4.494   4.532  13.874  0.1802 -0.8904 -0.0365
  926MPD2    C413603   4.530   4.446  13.978 -0.4756  0.1213  0.3960
  926MPD2    C513604   4.442   4.414  14.079  0.0917  0.5383 -0.1734
  926MPD2     H13605   4.348   4.665  13.798 -1.2943 -0.0288 -1.1356
  926MPD2    H113606   4.628   4.401  13.980 -2.0152 -3.2170  0.0730
  926MPD2    H213607   4.259   4.441  14.163  1.1900 -0.7157  1.0692
  926MPD2    H313608   4.471   4.349  14.160  2.4506  1.3815 -0.3516
  926MPD2     N13609   4.591   4.542  13.770  0.8935  0.1049 -0.7012
  926MPD2    H513610   4.681   4.495  13.777 -0.6834 -2.1502  4.0986
  926MPD2    N113611   4.164   4.641  13.973  0.4543 -0.1658 -0.0746
  926MPD2    H713612   4.163   4.719  13.908  1.1425 -2.1301 -2.4421
  927MPD2     C13613   2.972   2.353  17.391  0.4806 -0.2749 -0.3759
  927MPD2    C113614   3.092   2.345  17.465  0.4069 -0.0940  0.2468
  927MPD2    C213615   3.205   2.325  17.392  0.0557  0.5027  0.1651
  927MPD2    C313616   3.202   2.290  17.257 -0.1927  0.0754 -0.0936
  927MPD2    C413617   3.080   2.285  17.187  0.8713  0.0164  0.3339
  927MPD2    C513618   2.971   2.322  17.255  0.1724  0.0780 -0.6446
  927MPD2     H13619   3.303   2.320  17.437  0.0708 -0.3765  0.0412
  927MPD2    H113620   3.068   2.267  17.081 -0.4026 -0.3612  0.5429
  927MPD2    H213621   2.884   2.368  17.452  1.9589 -1.2965  2.0510
  927MPD2    H313622   2.875   2.316  17.205 -0.0712  1.8600 -0.3980
  927MPD2     N13623   3.325   2.253  17.190 -0.4184  0.8610 -0.0993
  927MPD2    H513624   3.413   2.278  17.234  1.2140 -1.9735 -1.7854
  927MPD2    N113625   3.089   2.367  17.607 -0.1618 -0.3428 -0.1991
  927MPD2    H713626   3.002   2.385  17.658  0.0991  0.4810 -0.0450
  928MPD2     C13627   0.950   4.712   0.335  0.8040 -0.0018 -0.3482
  928MPD2    C113628   1.027   0.076   0.393 -0.9302 -0.2632  0.1816
  928MPD2    C213629   1.089   0.180   0.328  0.0273 -0.0640 -0.3625
  928MPD2    C313630   1.063   0.192   0.194 -0.3854 -0.2889 -0.8422
  928MPD2    C413631   0.985   0.093   0.137 -0.4437  0.0822  0.6918
  928MPD2    C513632   0.933   4.724   0.204 -0.3590  0.2558  0.2482
  928MPD2     H13633   1.147   0.253   0.383 -0.9827  0.4208  0.0551
  928MPD2    H113634   0.948   0.108   0.036  1.0483  1.3301  0.3237
  928MPD2    H213635   0.912   4.623   0.383  1.9594 -0.6065 -0.5517
  928MPD2    H313636   0.883   4.641   0.156 -1.4584  1.0509  0.0358
  928MPD2     N13637   1.106   0.299   0.112  0.6428 -0.5280  0.0662
  928MPD2    H513638   1.087   0.293   0.013 -1.0072  0.7669  0.3010
  928MPD2    N113639   1.050   0.058   0.534  0.2824 -0.0261  0.0967
  928MPD2    H713640   0.996   4.722   0.577 -0.5725  0.5052 -0.0592
  929MPD2     C13641   2.038   0.558  10.323  0.1438 -0.1575  0.2830
  929MPD2    C113642   1.966   0.440  10.307 -0.4156  0.2127 -0.4093
  929MPD2    C213643   1.938   0.383  10.181  0.4556  0.6254 -0.1239
  929MPD2    C313644   1.986   0.462  10.073 -0.4538 -0.7163  0.2098
  929MPD2    C413645   2.065   0.568  10.089 -0.0332 -0.1419 -0.4758
  929MPD2    C513646   2.093   0.615  10.213 -0.2989  0.1867  0.3638
  929MPD2     H13647   1.919   0.278  10.163  0.7801  0.5360  0.0702
  929MPD2    H113648   2.094   0.628  10.003  0.2469  0.4059 -0.0045
  929MPD2    H213649   2.062   0.599  10.421 -2.4278  1.5239  0.2166
  929MPD2    H313650   2.156   0.701  10.232 -1.0126  0.9985 -0.9165
  929MPD2     N13651   1.962   0.423   9.940  0.5385 -0.3535 -0.0861
  929MPD2    H513652   2.036   0.454   9.878  2.0402 -2.0234  0.8831
  929MPD2    N113653   1.920   0.380  10.427 -0.0642 -0.0975  0.0266
  929MPD2    H713654   1.939   0.428  10.514  1.4746 -1.2910  0.3404
  930MPD2     C13655   3.951   2.780  14.517 -0.1456  0.0912 -0.1686
  930MPD2    C113656   3.889   2.879  14.447 -0.3410 -0.1817  0.5192
  930MPD2    C213657   3.775   2.851  14.377  0.3891 -0.1598  0.7008
  930MPD2    C313658   3.714   2.727  14.381  0.7067 -0.0107 -0.0681
  930MPD2    C413659   3.776   2.634  14.453  0.4816  0.5319 -0.0023
  930MPD2    C513660   3.894   2.658  14.511 -1.0117  0.1629 -0.5970
  930MPD2     H13661   3.736   2.938  14.325  0.1209  0.7268  2.3499
  930MPD2    H113662   3.729   2.537  14.461 -2.0192  1.5213 -2.4825
  930MPD2    H213663   4.049   2.794  14.562 -0.9414  1.0516  1.2353
  930MPD2    H313664   3.948   2.580  14.563 -0.1947  1.5296  0.6244
  930MPD2     N13665   3.605   2.693  14.293 -0.4531 -0.2509  0.2776
  930MPD2    H513666   3.575   2.596  14.290 -1.4902  0.0911 -0.1621
  930MPD2    N113667   3.953   3.003  14.413 -0.3855  0.8381  0.3569
  930MPD2    H713668   3.911   3.055  14.337  1.9854  2.6504  0.2744
  931MPD2     C13669   3.641   2.109   0.348  0.2888  0.5392 -0.2286
  931MPD2    C113670   3.516   2.140   0.407 -0.3704 -0.4074  0.0594
  931MPD2    C213671   3.480   2.080   0.523 -0.5403  0.0910 -0.7436
  931MPD2    C313672   3.541   1.968   0.573  0.6196 -0.3949  0.2869
  931MPD2    C413673   3.651   1.922   0.503  0.7390 -0.1982 -0.5735
  931MPD2    C513674   3.706   1.997   0.402  0.2842  0.3185 -0.1662
  931MPD2     H13675   3.385   2.109   0.566 -0.0903 -3.5075  2.7219
  931MPD2    H113676   3.705   1.836   0.540 -2.4597 -1.3163  1.5449
  931MPD2    H213677   3.680   2.158   0.260 -0.6237 -1.2439 -1.6053
  931MPD2    H313678   3.799   1.971   0.353  0.7057  2.5370 -0.5156
  931MPD2     N13679   3.491   1.889   0.682  0.5523  0.1129  0.1741
  931MPD2    H513680   3.516   1.791   0.687 -1.6315 -0.4031  0.7989
  931MPD2    N113681   3.437   2.239   0.344  0.2738 -0.3047  0.8730
  931MPD2    H713682   3.462   2.266   0.249 -3.6886  3.8047  0.9789
  932MPD2     C13683   0.972   1.077  11.462 -0.5217  0.7715 -0.2040
  932MPD2    C113684   0.960   1.103  11.596  0.1753  0.9793  0.7949
  932MPD2    C213685   0.946   0.986  11.674 -0.1201 -0.7014  0.2496
  932MPD2    C313686   0.961   0.858  11.615 -0.8057  0.3516 -0.0553
  932MPD2    C413687   0.980   0.844  11.478 -0.0810 -0.0865  0.4019
  932MPD2    C513688   0.979   0.955  11.400 -0.4688 -0.5016 -0.2334
  932MPD2     H13689   0.940   0.993  11.782  0.3969 -2.1136  0.3619
  932MPD2    H113690   0.988   0.747  11.428 -2.7467 -0.4140  0.5929
  932MPD2    H213691   0.970   1.154  11.386  0.2280  1.7940  0.8044
  932MPD2    H313692   0.977   0.943  11.292 -5.5534  0.3257 -0.2553
  932MPD2     N13693   0.947   0.741  11.696 -0.1345  0.2141  0.3490
  932MPD2    H513694   0.941   0.651  11.649  1.2593  0.5473 -0.4870
  932MPD2    N113695   0.971   1.227  11.666  0.5997  0.2344  0.0509
  932MPD2    H713696   0.952   1.227  11.765 -2.2199 -1.9473 -0.4762
  933MPD2     C13697   0.671   4.468   1.192 -0.6181 -1.0468  0.2010
  933MPD2    C113698   0.696   4.585   1.131  0.2526 -0.3107 -0.1935
  933MPD2    C213699   0.640   4.708   1.175 -0.3105 -0.2780 -0.0796
  933MPD2    C313700   0.548   4.701   1.277 -0.0964  0.1548 -0.3687
  933MPD2    C413701   0.507   4.577   1.330  0.1981  0.0716 -0.4060
  933MPD2    C513702   0.576   4.464   1.288  0.8454  0.1815 -0.4701
  933MPD2     H13703   0.679   0.068   1.152 -1.4231  0.6492  2.0552
  933MPD2    H113704   0.440   4.562   1.414 -0.5458 -1.1270 -1.2051
  933MPD2    H213705   0.718   4.372   1.171 -0.0129 -0.6734 -0.1372
  933MPD2    H313706   0.554   4.369   1.335  0.2107  1.3918  1.7026
  933MPD2     N13707   0.505   0.089   1.324  0.2202  0.1019 -0.8215
  933MPD2    H513708   0.540   0.171   1.277  0.2965  0.5628  0.0412
  933MPD2    N113709   0.802   4.594   1.040 -0.3752  0.1961 -0.1901
  933MPD2    H713710   0.874   4.523   1.039 -0.8203 -0.2389 -1.5341
  934MPD2     C13711   2.322   3.137   2.073  0.2316 -0.4574 -0.4138
  934MPD2    C113712   2.422   3.117   1.976 -0.6008 -1.1688  0.3724
  934MPD2    C213713   2.394   3.040   1.864 -0.2184  0.3524 -0.4799
  934MPD2    C313714   2.272   2.975   1.859  0.2527 -0.1199 -0.0059
  934MPD2    C413715   2.166   3.013   1.937 -0.1793 -0.0329 -0.1983
  934MPD2    C513716   2.196   3.091   2.042 -0.0735  0.0199  1.0830
  934MPD2     H13717   2.477   3.019   1.797  0.3408 -2.0128  0.9736
  934MPD2    H113718   2.066   2.983   1.910 -0.3525 -0.5097  0.9766
  934MPD2    H213719   2.336   3.201   2.159  1.5148  0.2375 -1.1385
  934MPD2    H313720   2.123   3.132   2.111 -2.0232  1.6858 -2.0009
  934MPD2     N13721   2.236   2.883   1.754  0.2170  0.5637 -0.4882
  934MPD2    H513722   2.150   2.830   1.765  1.4201 -0.9108  1.9100
  934MPD2    N113723   2.556   3.159   2.004 -0.0321 -0.1919  0.2564
  934MPD2    H713724   2.624   3.129   1.935 -0.7389 -2.2048  0.4366
  935MPD2     C13725   2.814   2.381   1.114 -0.3587  0.3818  0.4293
  935MPD2    C113726   2.689   2.352   1.066 -0.3939  0.3993 -0.0021
  935MPD2    C213727   2.575   2.416   1.124 -0.4836 -0.1851  0.7867
  935MPD2    C313728   2.590   2.490   1.239 -1.2214  0.1664 -0.2615
  935MPD2    C413729   2.718   2.498   1.291 -0.3095 -0.7149 -0.1980
  935MPD2    C513730   2.826   2.451   1.222  0.0463  0.0213  0.0339
  935MPD2     H13731   2.477   2.398   1.083 -0.9495 -2.8690  3.1155
  935MPD2    H113732   2.742   2.560   1.377  1.0580  0.3744 -1.3695
  935MPD2    H213733   2.905   2.334   1.077 -0.6536  1.4322 -1.6124
  935MPD2    H313734   2.927   2.475   1.255 -0.4108  1.5465  0.3374
  935MPD2     N13735   2.486   2.549   1.311  1.0956  0.0835  0.0920
  935MPD2    H513736   2.520   2.584   1.400  4.4065 -2.1063 -0.3474
  935MPD2    N113737   2.677   2.271   0.945  0.6568 -0.4141  0.3967
  935MPD2    H713738   2.589   2.278   0.894 -0.2454 -1.4290  1.8102
  936MPD2     C13739   1.697   4.046  12.676 -0.1771  0.0113 -0.2158
  936MPD2    C113740   1.679   4.122  12.784  0.0092  0.2942  0.8675
  936MPD2    C213741   1.675   4.260  12.780 -0.6887 -0.2768  0.4520
  936MPD2    C313742   1.685   4.322  12.661  0.2983 -0.5466  0.0681
  936MPD2    C413743   1.706   4.252  12.545 -0.4066 -0.2325 -0.3356
  936MPD2    C513744   1.707   4.115  12.552  0.3219  0.4765  0.6840
  936MPD2     H13745   1.637   4.319  12.862  0.1665 -0.6276  1.0985
  936MPD2    H113746   1.720   4.298  12.447 -0.2038  2.5913  1.0126
  936MPD2    H213747   1.681   3.939  12.668  1.3527 -0.2126 -0.3345
  936MPD2    H313748   1.722   4.059  12.461 -0.7672  1.4596 -0.1015
  936MPD2     N13749   1.697   4.465  12.665  0.1701  0.1233  0.1453
  936MPD2    H513750   1.684   4.512  12.753  0.8492  1.5243 -0.5070
  936MPD2    N113751   1.659   4.066  12.909 -0.9692 -0.2171 -0.0487
  936MPD2    H713752   1.634   4.139  12.974 -0.0440 -2.5858  2.9299
  937MPD2     C13753   4.256   0.493  11.790 -0.0795  0.1175 -0.1132
  937MPD2    C113754   4.179   0.588  11.730 -1.2298  0.4932 -0.8334
  937MPD2    C213755   4.240   0.656  11.621 -0.4139  0.4406 -0.2714
  937MPD2    C313756   4.353   0.602  11.559 -0.1514 -0.0209 -0.3135
  937MPD2    C413757   4.409   0.487  11.606 -0.3383 -1.1371  0.2226
  937MPD2    C513758   4.361   0.435  11.727 -0.7603 -0.1210  0.6490
  937MPD2     H13759   4.188   0.737  11.571  2.8039  1.5053 -1.9060
  937MPD2    H113760   4.491   0.429  11.567 -1.9247 -2.6495 -0.8381
  937MPD2    H213761   4.228   0.461  11.890 -2.7369  0.0393 -0.8798
  937MPD2    H313762   4.402   0.347  11.775 -1.4434  0.7229  2.7831
  937MPD2     N13763   4.417   0.690  11.460  0.8613  0.1856  0.0352
  937MPD2    H513764   4.380   0.773  11.417 -0.1934 -0.1190  0.3535
  937MPD2    N113765   4.079   0.658  11.804  0.2116  0.1701 -0.6172
  937MPD2    H713766   4.048   0.747  11.767  0.2394  0.4981  0.1485
  938MPD2     C13767   1.528   2.082   0.636 -0.3254 -0.5386 -0.1411
  938MPD2    C113768   1.453   2.185   0.705 -0.3965  0.8646 -0.7878
  938MPD2    C213769   1.363   2.155   0.798 -0.1913  0.3244 -0.3713
  938MPD2    C313770   1.344   2.021   0.835 -0.5055 -0.1030  0.1437
  938MPD2    C413771   1.410   1.919   0.769  0.1130 -0.2381 -0.2125
  938MPD2    C513772   1.505   1.949   0.673  0.5656 -0.4537  0.5059
  938MPD2     H13773   1.318   2.237   0.852  1.3267  0.9418 -0.0240
  938MPD2    H113774   1.391   1.816   0.796 -2.5874 -0.3914 -2.6787
  938MPD2    H213775   1.598   2.110   0.557 -1.5156  1.6080 -0.4278
  938MPD2    H313776   1.551   1.867   0.619  0.4893  0.2685 -0.6612
  938MPD2     N13777   1.265   1.975   0.936  0.2869  0.3182  0.2697
  938MPD2    H513778   1.248   1.876   0.925  1.9247  0.0369  0.3342
  938MPD2    N113779   1.466   2.322   0.664  0.1554 -0.2668 -0.0222
  938MPD2    H713780   1.412   2.390   0.716 -0.3463 -0.0181 -0.8778
  939MPD2     C13781   2.950   3.084   0.922  0.0610 -0.5029  0.1221
  939MPD2    C113782   2.822   3.130   0.897  0.3760  0.7577  0.3743
  939MPD2    C213783   2.763   3.101   0.774  0.2106 -0.0822 -0.0762
  939MPD2    C313784   2.836   3.030   0.678  0.2375 -0.0295 -0.4140
  939MPD2    C413785   2.967   2.996   0.700 -0.5130  0.3563 -0.1117
  939MPD2    C513786   3.022   3.023   0.822  0.0395  0.9058 -0.4576
  939MPD2     H13787   2.663   3.138   0.756  0.2366 -0.6098 -1.3321
  939MPD2    H113788   3.028   2.952   0.622 -0.8248 -2.5731  1.3164
  939MPD2    H213789   2.997   3.095   1.019 -1.2463  0.0927  0.6803
  939MPD2    H313790   3.125   2.994   0.840 -0.2267  1.7916  2.4673
  939MPD2     N13791   2.767   2.999   0.558 -0.0068 -0.1748 -0.2687
  939MPD2    H513792   2.668   3.016   0.546 -0.3226 -1.3287  0.7303
  939MPD2    N113793   2.763   3.199   1.000 -0.6363  0.5028  0.1167
  939MPD2    H713794   2.794   3.185   1.095 -0.6457 -0.4644 -0.0259
  940MPD2     C13795   1.766   4.391  13.993 -0.2020  0.2453 -0.0167
  940MPD2    C113796   1.891   4.338  14.013  0.1504  0.0348  0.5358
  940MPD2    C213797   1.971   4.300  13.908  0.1948  0.3111 -0.9911
  940MPD2    C313798   1.925   4.298  13.781  0.0484 -0.1372  0.5687
  940MPD2    C413799   1.795   4.340  13.762  0.4747 -0.3019 -0.5801
  940MPD2    C513800   1.721   4.400  13.862  0.3358 -0.4081 -0.1058
  940MPD2     H13801   2.067   4.255  13.933 -0.3606 -0.5602 -0.4569
  940MPD2    H113802   1.752   4.329  13.663  0.3946  0.7698 -0.6653
  940MPD2    H213803   1.697   4.416  14.073  0.3769  2.4894 -0.2210
  940MPD2    H313804   1.622   4.443  13.855 -0.1172 -1.6100 -0.8227
  940MPD2     N13805   1.988   4.223  13.680  0.4658  0.2994  0.1618
  940MPD2    H513806   1.931   4.199  13.599  1.1483 -3.3266  0.7355
  940MPD2    N113807   1.949   4.302  14.140 -0.6320 -0.4054  0.4370
  940MPD2    H713808   2.047   4.276  14.145 -0.5602 -0.2557 -0.1788
  941MPD2     C13809   1.494   3.415   9.547 -0.0811 -0.0559 -0.1278
  941MPD2    C113810   1.547   3.393   9.675  1.4908  0.2590  0.0985
  941MPD2    C213811   1.481   3.313   9.767  0.4026 -0.1013  0.3974
  941MPD2    C313812   1.356   3.263   9.739 -0.2912 -0.0526 -0.0048
  941MPD2    C413813   1.302   3.289   9.614 -0.2550 -0.5098  0.1794
  941MPD2    C513814   1.366   3.370   9.518 -0.4991  0.0102  0.2854
  941MPD2     H13815   1.534   3.292   9.860  2.1169 -0.3655 -0.6356
  941MPD2    H113816   1.203   3.247   9.598 -0.2888 -0.8295  1.1817
  941MPD2    H213817   1.548   3.466   9.469  2.6685 -2.2457  0.3704
  941MPD2    H313818   1.334   3.380   9.415 -0.0446 -1.0220  0.0436
  941MPD2     N13819   1.279   3.178   9.821  0.4161  0.3681  0.1567
  941MPD2    H513820   1.207   3.134   9.766 -0.5421  0.5212  1.2824
  941MPD2    N113821   1.668   3.453   9.722 -0.0593 -0.5441  0.0478
  941MPD2    H713822   1.708   3.423   9.810  0.1343 -0.9822 -0.1907
  942MPD2     C13823   1.458   1.292   9.683  0.6007 -0.4334  0.8094
  942MPD2    C113824   1.560   1.358   9.609  0.2455 -0.0708 -0.0632
  942MPD2    C213825   1.658   1.270   9.555 -0.3601  0.5153 -0.2951
  942MPD2    C313826   1.667   1.137   9.596  0.4023 -0.5284  0.1294
  942MPD2    C413827   1.566   1.080   9.677  0.2849 -0.4040  0.6629
  942MPD2    C513828   1.462   1.157   9.718  0.6557 -0.5597  0.0769
  942MPD2     H13829   1.738   1.308   9.492  0.6162  0.2169  0.7469
  942MPD2    H113830   1.572   0.977   9.710 -2.9014 -0.4483  1.1214
  942MPD2    H213831   1.375   1.349   9.724 -0.3153 -0.9648 -0.3104
  942MPD2    H313832   1.387   1.112   9.781  0.2395  0.2712  0.1821
  942MPD2     N13833   1.774   1.051   9.563 -0.5134 -0.4645  0.1496
  942MPD2    H513834   1.772   0.951   9.580 -0.6239 -0.4328  0.3165
  942MPD2    N113835   1.571   1.502   9.583 -0.2655 -0.1439  0.5043
  942MPD2    H713836   1.667   1.529   9.562 -0.5953 -0.8129 -1.8363
  943MPD2     C13837   0.658   3.403   9.995 -0.4979 -0.5683 -0.1930
  943MPD2    C113838   0.610   3.336  10.105  0.1897  0.1035  0.4296
  943MPD2    C213839   0.652   3.375  10.232 -0.2272  0.1248  0.0825
  943MPD2    C313840   0.735   3.483  10.252 -0.4650  1.1179  1.0284
  943MPD2    C413841   0.778   3.556  10.142 -0.1473 -0.3485  0.1500
  943MPD2    C513842   0.753   3.509  10.019 -0.7617 -0.1446  0.6872
  943MPD2     H13843   0.604   3.329  10.318  0.7149  2.4334  1.8228
  943MPD2    H113844   0.837   3.647  10.154  0.0032 -0.3444 -0.6661
  943MPD2    H213845   0.646   3.373   9.892 -0.2702 -0.1902 -0.3310
  943MPD2    H313846   0.802   3.563   9.939 -0.4764 -0.2762  0.7718
  943MPD2     N13847   0.761   3.538  10.386  0.4465 -0.0467  0.0850
  943MPD2    H513848   0.795   3.634  10.383  3.2517 -1.0195  0.6998
  943MPD2    N113849   0.511   3.230  10.082 -0.2992 -0.1756 -0.0612
  943MPD2    H713850   0.475   3.212   9.989 -0.0754 -1.0759  0.0247
  944MPD2     C13851   0.518   2.125  11.609 -0.2201 -0.3188  0.4177
  944MPD2    C113852   0.438   2.151  11.501 -0.2510 -0.2566  0.6257
  944MPD2    C213853   0.321   2.220  11.516 -0.2503  0.5405  0.1915
  944MPD2    C313854   0.269   2.247  11.637 -0.4132  0.0952 -0.2248
  944MPD2    C413855   0.340   2.201  11.746  0.3910 -0.5011  0.0093
  944MPD2    C513856   0.466   2.145  11.735  0.0971  0.5688  0.5597
  944MPD2     H13857   0.265   2.260  11.432 -0.7773  0.7069  0.6246
  944MPD2    H113858   0.296   2.215  11.843  0.9032  1.3834 -0.0287
  944MPD2    H213859   0.610   2.069  11.593  0.1721  0.4857 -0.1118
  944MPD2    H313860   0.519   2.110  11.823 -0.1671 -1.2330  0.0121
  944MPD2     N13861   0.135   2.292  11.650 -0.5395 -0.1198  0.6735
  944MPD2    H513862   0.075   2.305  11.569  1.1127  0.7648 -0.4036
  944MPD2    N113863   0.484   2.108  11.370 -0.4818  0.7856 -0.0024
  944MPD2    H713864   0.579   2.073  11.364 -1.1221 -0.9839  0.1502
    1TMC1    C113865   2.987   3.264  14.137 -1.0691  0.8751 -0.6009
    1TMC1    C213866   3.006   3.179  14.035  0.2657  0.1023 -0.4387
    1TMC1    C313867   2.905   3.171  13.941  0.1076 -0.7630  0.0453
    1TMC1    C413868   2.876   3.347  14.158 -0.1547 -0.5576 -0.4207
    1TMC1    C513869   2.778   3.331  14.063  0.3678 -0.3400 -0.2193
    1TMC1    C613870   2.798   3.251  13.946 -0.2708  0.3946 -0.1918
    1TMC1     C13871   3.094   3.272  14.240 -0.3943 -0.4855  0.6520
    1TMC1     O13872   3.174   3.182  14.231  0.5005  0.2213 -0.6814
    1TMC1     H13873   3.095   3.117  14.028  1.9778  2.3362  1.3632
    1TMC1    H113874   2.864   3.405  14.249 -0.3967 -0.6809 -0.3746
    1TMC1    H213875   2.718   3.244  13.874 -1.0108 -3.6484  1.0089
    1TMC1    C713876   2.658   3.413  14.059 -0.2702  0.1191  0.8981
    1TMC1    C813877   2.903   3.037  13.880 -0.3559  0.7304 -0.3540
    1TMC1    O113878   2.625   3.458  13.952  0.6739  0.9084 -0.7033
    1TMC1    O213879   3.001   2.975  13.844 -0.0610  0.0758 -0.2216
    1TMC1    O313880   2.579   3.384  14.163  0.5448  0.3224  0.1046
    1TMC1    H313881   2.626   3.326  14.226  1.6896  2.1871  0.9696
    1TMC1    O513882   2.797   2.975  13.937  0.0669 -0.6309 -0.5044
    1TMC1    H513883   2.731   3.032  13.981  1.8277  0.5161  0.6643
    2MPD2     C13884   3.372   3.485  14.611  0.0431  0.0476  0.1414
    2MPD2    C113885   3.246   3.552  14.607  0.1149 -0.6460 -0.2412
    2MPD2    C213886   3.158   3.511  14.513  0.3925 -0.4024  0.7445
    2MPD2    C313887   3.195   3.410  14.420  0.2422 -0.8686  1.0119
    2MPD2    C413888   3.312   3.346  14.432  0.2226  0.8158 -0.0580
    2MPD2    C513889   3.409   3.385  14.527  0.1754 -0.0287 -0.4610
    2MPD2     H13890   3.061   3.558  14.507  0.7645  0.2472 -0.2185
    2MPD2    H113891   3.338   3.271  14.358  0.9499 -0.7604  1.7691
    2MPD2    H213892   3.445   3.505  14.689 -0.5814  1.6059  0.3276
    2MPD2    H313893   3.508   3.342  14.538  1.0379  1.7789 -1.0542
    2MPD2     N13894   3.090   3.371  14.333 -0.5231 -0.1735 -0.1460
    2MPD2    H513895   3.016   3.441  14.328 -1.9707 -1.8904 -3.1933
    2MPD2    N113896   3.212   3.648  14.714  0.0534  0.0779 -0.0852
    2MPD2    H713897   3.281   3.653  14.789  0.6974 -3.6897 -0.4213
    3TMC2    C113898   3.104   3.829  14.816  0.0644  0.3661 -0.4700
    3TMC2    C213899   3.169   3.811  14.939  0.2983 -0.6696 -0.1303
    3TMC2    C313900   3.138   3.899  15.037 -0.0355  0.7493  0.3166
    3TMC2    C413901   3.012   3.932  14.804 -0.5865 -0.4606 -0.4590
    3TMC2    C513902   2.999   4.026  14.904  1.0920 -0.0344 -0.0638
    3TMC2    C613903   3.045   4.003  15.024  0.0592  0.1327  0.2619
    3TMC2     C13904   3.108   3.741  14.702  0.3738  0.3345 -0.6224
    3TMC2     O13905   3.028   3.762  14.611  0.2646 -0.2119 -0.3785
    3TMC2     H13906   3.237   3.730  14.962  0.1025 -0.0682  2.5423
    3TMC2    H113907   2.970   3.952  14.706 -2.2833 -1.5538  0.0459
    3TMC2    H213908   3.030   4.071  15.107 -0.7070 -0.4884  0.6300
    3TMC2    C713909   2.908   4.131  14.890 -0.5366  1.1698 -0.5032
    3TMC2    C813910   3.207   3.885  15.160 -0.7448  0.1480  0.5683
    3TMC2    O113911   2.857   4.171  14.991 -0.7407 -0.0830  0.0490
    3TMC2    O213912   3.328   3.877  15.175 -0.2884 -0.4922  1.1754
    3TMC2    O513913   3.113   3.875  15.256  0.3536 -0.2902 -0.0079
    3TMC2    H513914   3.028   3.844  15.218  0.0399 -0.1976  0.6062
    4TMC2    C113915   2.481   4.396  14.011 -0.0544  0.3930  0.6396
    4TMC2    C213916   2.505   4.308  13.906 -0.6372  0.0209 -0.6965
    4TMC2    C313917   2.604   4.214  13.933  0.4960  0.5018 -0.9277
    4TMC2    C413918   2.548   4.389  14.132  0.8048  0.3805 -0.6362
    4TMC2    C513919   2.639   4.287  14.150 -0.4804 -0.5265 -0.6188
    4TMC2    C613920   2.677   4.206  14.051  0.4167  0.7361 -1.0793
    4TMC2     C13921   2.370   4.482  14.000 -0.3892 -0.0725 -0.3196
    4TMC2     O13922   2.346   4.532  13.889  0.3625  0.3732 -0.4985
    4TMC2     H13923   2.432   4.289  13.828 -1.4237 -1.6631  0.4460
    4TMC2    H113924   2.538   4.473  14.200  0.6968 -0.3756  0.2834
    4TMC2    H213925   2.744   4.125  14.075 -0.8563 -0.2646 -0.9316
    4TMC2    C713926   2.702   4.276  14.281 -0.2737  0.7101 -0.0787
    4TMC2    C813927   2.615   4.118  13.825  0.6492 -0.4921  1.3051
    4TMC2    O113928   2.813   4.225  14.288 -0.0813  0.5037 -0.3181
    4TMC2    O213929   2.528   4.074  13.756  0.3187 -0.9276 -0.0962
    4TMC2    O513930   2.739   4.069  13.827 -0.0103  0.1774  0.2146
    4TMC2    H513931   2.803   4.132  13.866 -2.4439  0.9484  2.9009
    5MPD2     C13932   1.970   0.001  14.196  0.5001  0.4219  0.2271
    5MPD2    C113933   2.009   4.714  14.068 -0.5196 -0.8037  0.5180
    5MPD2    C213934   2.114   4.638  14.034 -0.0996  0.1115  0.4817
    5MPD2    C313935   2.197   4.595  14.136  0.0632  0.2487 -0.1660
    5MPD2    C413936   2.173   4.623  14.263  0.2614 -0.0316 -0.3725
    5MPD2    C513937   2.054   4.692  14.294 -0.5206 -0.4734  0.3120
    5MPD2     H13938   2.140   4.597  13.937  1.4087  1.2292  0.4234
    5MPD2    H113939   2.225   4.587  14.351 -1.8920  0.5545  1.1412
    5MPD2    H213940   1.885   0.062  14.225 -0.4253 -0.6067 -0.3372
    5MPD2    H313941   2.027   4.701  14.399 -2.2633 -0.4905 -0.1324
    5MPD2     N13942   2.311   4.510  14.120  0.2856  0.0782 -0.1637
    5MPD2    H513943   2.354   4.467  14.200 -1.9644 -2.8363 -0.5302
    5MPD2    N113944   1.927   0.024  13.968  0.4844 -0.5349  0.2152
    5MPD2    H713945   1.850   0.075  14.009 -0.6238 -2.2549  0.2967
    6MPD1     C13946   0.923   1.292  12.995 -0.2466 -0.5908 -0.3839
    6MPD1    C113947   1.004   1.343  13.093 -0.0557 -0.0227  0.0922
    6MPD1    C213948   1.117   1.274  13.123 -0.1702 -0.0190 -0.3749
    6MPD1    C313949   1.148   1.143  13.072 -0.1520 -0.0538  0.9281
    6MPD1    C413950   1.061   1.086  12.983 -0.0283 -0.1555  0.0833
    6MPD1    C513951   0.953   1.172  12.943 -0.2198  0.8470  0.6057
    6MPD1     H13952   1.185   1.308  13.199 -0.7433 -0.2861  0.2550
    6MPD1    H113953   1.081   0.986  12.945  2.1603  1.1027 -2.1006
    6MPD1    H213954   0.842   1.351  12.952 -0.9445 -0.7146  0.7665
    6MPD1    H313955   0.892   1.133  12.863  1.3481  1.6372 -0.9685
    6MPD1     N13956   1.254   1.064  13.117 -0.2182 -0.5046  0.3391
    6MPD1    H513957   1.265   0.977  13.066  0.1295 -0.4526  0.3216
    6MPD1    N113958   0.974   1.470  13.139 -0.1733 -0.1271  0.3544
    6MPD1    H613959   0.992   1.473  13.239  0.6256  0.7681  0.1786
    6MPD1    H713960   0.873   1.486  13.136  0.1631  1.7411 -1.1972
    7MPD2     C13961   1.363   0.599  13.469 -0.1838 -0.4293  0.0833
    7MPD2    C113962   1.455   0.599  13.577  0.1337 -0.2644 -0.2451
    7MPD2    C213963   1.477   0.478  13.641  0.1952 -0.2608  0.2762
    7MPD2    C313964   1.416   0.359  13.596  0.1283 -0.0301 -0.9888
    7MPD2    C413965   1.350   0.361  13.477  0.1694 -0.3321  0.2692
    7MPD2    C513966   1.324   0.477  13.418  0.4315  0.3567  0.1667
    7MPD2     H13967   1.534   0.474  13.732  1.2851 -2.2202 -0.4943
    7MPD2    H113968   1.315   0.272  13.425 -0.0044 -0.4547  0.5919
    7MPD2    H213969   1.310   0.684  13.426  0.4095 -0.5755 -0.9234
    7MPD2    H313970   1.287   0.474  13.316 -0.3798 -2.8297  0.5501
    7MPD2     N13971   1.443   0.226  13.648 -0.4513 -0.0897  0.1296
    7MPD2    H513972   1.398   0.147  13.605 -1.3187 -1.2607  3.1896
    7MPD2    N113973   1.525   0.709  13.630  0.1090  0.3167 -0.9016
    7MPD2    H713974   1.584   0.690  13.711  0.9255 -0.1780 -1.6115
    8TMC3    C113975   1.579   0.055  13.755 -0.6663  0.0476 -0.4168
    8TMC3    C213976   1.691   0.053  13.837 -0.2823  0.2033 -0.1782
    8TMC3    C313977   1.812   0.047  13.778  0.2218  0.3596  0.1088
    8TMC3    C413978   1.577   0.012  13.627  0.2016  0.3125 -0.4214
    8TMC3    C513979   1.701   0.010  13.575  0.6879  0.5601  0.2062
    8TMC3    C613980   1.811   0.021  13.650 -0.3161 -0.0510  0.5097
    8TMC3     C13981   1.534   0.199  13.749  0.4451 -0.6305 -0.4363
    8TMC3     O13982   1.583   0.274  13.823  0.5804  0.0442 -0.1049
    8TMC3     H13983   1.663   0.083  13.938 -2.2055  3.6391 -1.7376
    8TMC3    H113984   1.483   0.002  13.574  0.4391 -0.1022 -0.7570
    8TMC3    H213985   1.904   0.020  13.593 -1.2039  0.5290 -0.9536
    8TMC3    C713986   1.710   0.084  13.453  0.4026 -0.1130  0.1127
    8TMC3    C813987   1.930   4.737  13.836 -0.0113 -0.2059  0.3338
    8TMC3    O113988   1.805   0.162  13.450 -0.0233 -0.0142  0.0125
    8TMC3    O213989   2.022   4.702  13.761 -0.0565 -0.2271 -0.6725
    9TMC3    C113990   1.432   0.971  13.254  0.6156 -1.2260  0.0601
    9TMC3    C213991   1.463   0.870  13.170  0.2157 -0.2033 -0.0398
    9TMC3    C313992   1.547   0.767  13.208  0.2884 -0.4280 -0.4824
    9TMC3    C413993   1.469   0.963  13.386  0.2461 -0.7031  0.7905
    9TMC3    C513994   1.532   0.853  13.431  0.4431 -0.0110  0.0131
    9TMC3    C613995   1.574   0.755  13.347 -0.0225 -0.6662 -0.3054
    9TMC3     C13996   1.330   1.080  13.232  0.1423 -0.2759  0.7774
    9TMC3     O13997   1.326   1.172  13.313 -0.5725  0.1921  0.2522
    9TMC3     H13998   1.430   0.879  13.067  0.4762  0.0109 -0.1055
    9TMC3    H113999   1.439   1.041  13.455 -1.3793 -0.0394 -0.6664
    9TMC3    H214000   1.612   0.665  13.394  0.8346  0.2598  0.7745
    9TMC3    C714001   1.536   0.832  13.572 -0.0675 -0.8106  0.3286
    9TMC3    C814002   1.526   0.633  13.146 -0.7828  0.1335 -0.0147
    9TMC3    O114003   1.575   0.929  13.631 -0.1544 -0.2415 -0.7930
    9TMC3    O214004   1.433   0.642  13.066 -0.2975  0.1773  0.7328
   10MPD2     C14005   1.482   0.121  13.163 -0.7326  0.5031 -0.1380
   10MPD2    C114006   1.565   0.164  13.264  0.0852 -0.2461  0.3773
   10MPD2    C214007   1.599   0.301  13.270 -0.1494  0.4398 -0.1856
   10MPD2    C314008   1.550   0.386  13.178 -0.6412 -1.3597 -0.4049
   10MPD2    C414009   1.465   0.345  13.073 -0.4204 -0.2686  0.9669
   10MPD2    C514010   1.439   0.211  13.074 -0.6701 -0.0533  0.3633
   10MPD2     H14011   1.664   0.332  13.351  1.0700 -0.5746 -0.7985
   10MPD2    H114012   1.434   0.414  12.996 -2.5135 -0.5148  1.5907
   10MPD2    H214013   1.431   0.025  13.158  0.2923 -0.2016  2.9987
   10MPD2    H314014   1.369   0.182  12.996  1.1038  1.2730 -1.7216
   10MPD2     N14015   1.581   0.522  13.208  0.1638 -0.6592 -0.1406
   10MPD2    H514016   1.658   0.541  13.271  0.2065  0.1003 -0.4197
   10MPD2    N114017   1.602   0.077  13.369  0.4873 -0.2028 -0.2227
   10MPD2    H714018   1.533   0.004  13.385  0.4052  0.3926  2.1098
   11MPD2     C14019   2.712   4.327  14.791  0.7167 -0.8051  0.2705
   11MPD2    C114020   2.805   4.268  14.707 -0.7354  0.2121  0.1266
   11MPD2    C214021   2.783   4.274  14.572  0.0762  0.0789  0.4450
   11MPD2    C314022   2.668   4.338  14.524 -0.0641 -0.1270  0.8979
   11MPD2    C414023   2.578   4.399  14.611 -0.0523 -0.3642  0.5460
   11MPD2    C514024   2.606   4.389  14.745  0.3428 -0.3685  0.4199
   11MPD2     H14025   2.854   4.226  14.505  0.2551 -0.7784  1.2386
   11MPD2    H114026   2.484   4.441  14.578 -0.9917 -2.7847  0.1886
   11MPD2    H214027   2.730   4.338  14.897 -1.0505  1.1147  0.3611
   11MPD2    H314028   2.544   4.449  14.811 -0.1383  2.6157 -2.7332
   11MPD2     N14029   2.638   4.338  14.383 -0.0145  0.7334  0.0537
   11MPD2    H514030   2.546   4.375  14.363 -0.4446  0.9216  2.3244
   11MPD2    N114031   2.907   4.187  14.758  0.6212 -0.4003 -0.3042
   11MPD2    H714032   2.972   4.139  14.697  2.6121  0.0731  1.4335
    1MPD1     C14033   1.374   1.569  16.749  0.2359  0.3660  0.6096
    1MPD1    C114034   1.259   1.534  16.680 -0.2343  0.0024 -0.1653
    1MPD1    C214035   1.141   1.598  16.717  0.5010  0.1413  0.5837
    1MPD1    C314036   1.137   1.701  16.812  0.2399 -0.6302  0.9430
    1MPD1    C414037   1.258   1.719  16.887  0.2792  0.2801  0.3092
    1MPD1    C514038   1.367   1.659  16.848 -0.4003  0.8473 -0.0140
    1MPD1     H14039   1.046   1.564  16.677  1.5852 -1.2928 -0.7870
    1MPD1    H114040   1.256   1.792  16.968  1.4584  1.5524 -0.7984
    1MPD1    H214041   1.470   1.522  16.732 -1.0170 -1.9517  0.0633
    1MPD1    H314042   1.465   1.677  16.890  0.0242  1.3405 -1.1959
    1MPD1     N14043   1.025   1.774  16.850  0.5667  0.0982  0.1933
    1MPD1    H514044   1.039   1.836  16.929 -0.0329 -1.0553  1.2109
    1MPD1    N114045   1.252   1.427  16.592 -0.4886  0.1188  0.6877
    1MPD1    H614046   1.180   1.444  16.522 -2.2486  0.4916  2.5814
    1MPD1    H714047   1.349   1.425  16.561 -0.7425 -2.9692  0.0517
    2MPD1     C14048   0.117   2.351  16.631  0.1476  0.5475  0.4036
    2MPD1    C114049   0.099   2.288  16.755 -0.4541 -0.5813 -0.2926
    2MPD1    C214050   0.210   2.216  16.807  0.0733  0.1144 -0.6712
    2MPD1    C314051   0.328   2.199  16.743 -0.5609 -0.0480  0.2168
    2MPD1    C414052   0.340   2.259  16.619  0.0790 -0.2240 -0.4267
    2MPD1    C514053   0.240   2.337  16.570  0.5349  0.3785  0.0608
    2MPD1     H14054   0.193   2.178  16.907 -0.0689  1.0620 -0.3378
    2MPD1    H114055   0.429   2.273  16.559 -0.5945  1.1198 -1.0937
    2MPD1    H214056   0.039   2.409  16.583 -1.3442  0.0040  2.1750
    2MPD1    H314057   0.257   2.400  16.483 -0.2966 -0.2939 -0.5910
    2MPD1     N14058   0.428   2.120  16.803  0.0943 -0.8243  0.5068
    2MPD1    H514059   0.397   2.061  16.879 -2.6668 -0.0782 -0.0141
    2MPD1    N114060   4.708   2.279  16.803  0.6558  0.1988  0.6040
    2MPD1    H614061   4.698   2.249  16.900  0.7154 -0.8802  0.2721
    2MPD1    H714062   4.648   2.357  16.776  1.8045  0.3504 -1.5421
    3TMC3    C114063   0.639   2.028  16.829 -0.1914 -0.1013  0.0178
    3TMC3    C214064   0.651   2.066  16.963  0.1633 -0.7664 -0.1770
    3TMC3    C314065   0.736   1.994  17.039 -0.5241 -0.3528 -0.2639
    3TMC3    C414066   0.731   1.942  16.773  0.2913  0.1127  0.5278
    3TMC3    C514067   0.820   1.879  16.858  0.0621  0.5497 -0.5197
    3TMC3    C614068   0.820   1.897  16.986 -0.5338  0.6564  0.0197
    3TMC3     C14069   0.553   2.107  16.749 -0.4440 -0.4499 -0.3932
    3TMC3     O14070   0.599   2.155  16.649  0.5957  0.1658  0.5164
    3TMC3     H14071   0.585   2.149  16.987  1.4128  0.4107 -0.7559
    3TMC3    H114072   0.736   1.924  16.666 -3.9626  0.1833  0.3398
    3TMC3    H214073   0.884   1.839  17.051  2.7043  2.5430 -1.4945
    3TMC3    C714074   0.907   1.783  16.788  0.2574  0.6299  0.2875
    3TMC3    C814075   0.759   2.026  17.174 -0.0265 -0.1130  0.1880
    3TMC3    O114076   0.867   1.749  16.677  0.1923  0.1546 -0.1588
    3TMC3    O214077   0.853   1.963  17.224  0.0419 -0.5084  0.2383
    4MPD1     C14078   0.736   2.370  17.531 -0.7321  0.1311  0.2284
    4MPD1    C114079   0.632   2.404  17.451 -0.8311  0.0003  0.6205
    4MPD1    C214080   0.612   2.313  17.345  0.2145  0.0819 -0.4928
    4MPD1    C314081   0.692   2.199  17.331 -0.4034 -0.5822 -0.1623
    4MPD1    C414082   0.793   2.173  17.422  0.3527 -0.4375  0.3360
    4MPD1    C514083   0.815   2.257  17.524 -0.3528  0.4068 -0.1945
    4MPD1     H14084   0.542   2.330  17.264 -0.3309  1.0136  0.1756
    4MPD1    H114085   0.844   2.077  17.420  1.4823  0.1734  0.2123
    4MPD1    H214086   0.759   2.440  17.610  0.0547 -0.9595  0.9612
    4MPD1    H314087   0.897   2.232  17.590  0.8798 -0.8024 -2.1842
    4MPD1     N14088   0.669   2.114  17.221 -0.0721  0.0798  0.3356
    4MPD1    H514089   0.598   2.138  17.153  0.2398  0.1868  0.0482
    4MPD1    N114090   0.579   2.536  17.462  0.7958 -0.2670 -0.4754
    4MPD1    H614091   0.482   2.544  17.432  1.3662 -0.1344 -2.3138
    4MPD1    H714092   0.587   2.582  17.552  1.0344  2.0919 -1.7191
    1TCq1    O114093   1.402   4.734  11.762 -0.8302 -0.1125 -0.1885
    1TCq1    C114094   1.311   4.639  11.803 -0.1981 -0.2997  0.4677
    1TCq1    O214095   1.340   4.527  11.834  0.2848 -0.1256 -0.2370
    1TCq1    C214096   1.198   4.718  11.853 -0.1877 -0.2181  0.5214
    1TCq1    C314097   1.147   0.065  11.757  0.2056  0.0551 -0.0056
    1TCq1    C414098   1.020   0.105  11.781  0.2968 -1.5541  0.8690
    1TCq1    C514099   0.971   0.103  11.906 -0.2864  0.0620  0.1201
    1TCq1    C614100   1.034   0.017  12.000 -0.5798 -0.0467  0.8237
    1TCq1    C714101   1.140   4.676  11.964 -0.2900  0.1026 -0.3981
    1TCq1    C814102   1.005   0.029  12.140  0.6325  0.5109  1.0712
    1TCq1    O414103   0.939   0.124  12.178  0.2692 -0.4753  0.0470
    1TCq1    C914104   0.966   0.209  11.702  0.2221  0.5463  0.3583
    1TCq1    O514105   1.042   0.243  11.609 -0.1148  0.2840 -0.0603
    1TCq1    O614106   0.840   0.237  11.715  0.2709  0.4743 -0.5335
    1TCq1    H114107   1.369   0.088  11.766  3.8574  1.5727 -0.5450
    1TCq1    H214108   1.194   0.082  11.661  0.1348  1.7945  0.2687
    1TCq1    H314109   0.880   0.156  11.934 -0.2695  0.8304 -1.3071
    1TCq1    H414110   1.192   4.598  12.019 -1.7727 -1.3880 -1.1114
    2MPD1     C14111   0.901   4.549  12.588  0.3235  0.2601  0.2342
    2MPD1    C114112   1.013   4.493  12.532  0.5575  0.1057 -0.5434
    2MPD1    C214113   1.058   4.535  12.410 -0.6572  0.2382 -0.6320
    2MPD1    C314114   0.997   4.631  12.342  0.3981  0.1343  0.0263
    2MPD1    C414115   0.887   4.693  12.393 -0.0969  0.1572 -0.8131
    2MPD1    C514116   0.845   4.654  12.518  1.0846  0.3361  0.7863
    2MPD1     H14117   1.141   4.479  12.368 -0.3216  1.3454 -1.4622
    2MPD1    H114118   0.819   0.024  12.344  0.5212  0.0609 -1.8189
    2MPD1    H214119   0.855   4.514  12.680 -0.4741  0.3030 -0.1531
    2MPD1    H314120   0.764   4.703  12.569  0.4332 -0.7739  0.8197
    2MPD1     N14121   1.046   4.660  12.211  0.1827 -0.3797  0.0031
    2MPD1    H514122   1.125   4.606  12.177 -1.1567 -1.8795 -0.6787
    2MPD1    N114123   1.076   4.387  12.597 -0.1599 -0.2607  0.3207
    2MPD1    H614124   1.010   4.309  12.601 -0.5274  0.0122 -0.6827
    2MPD1    H714125   1.164   4.359  12.556 -0.2126  0.1308 -0.0502
    1TMC1    C114126   3.879   2.012   0.004  0.5331 -0.3617  0.4115
    1TMC1    C214127   3.767   2.030  17.679  0.7802  0.2998  0.1441
    1TMC1    C314128   3.758   2.142  17.600 -0.5683 -0.1872  0.1761
    1TMC1    C414129   3.973   2.117   0.014  0.6335 -0.3555 -0.0277
    1TMC1    C514130   3.959   2.228  17.691 -0.0858 -0.4031 -0.6225
    1TMC1    C614131   3.865   2.231  17.593  0.0224 -0.4596  0.2190
    1TMC1     C14132   3.886   1.894   0.087  0.2044 -0.1641  0.3286
    1TMC1     O14133   3.783   1.826   0.092 -0.5921  0.0869 -0.1323
    1TMC1     H14134   3.693   1.951  17.672  1.8465 -0.7257  0.3751
    1TMC1    H114135   4.056   2.108   0.084  0.3471  0.4540  0.4245
    1TMC1    H214136   3.862   2.312  17.521  0.6869  0.6064  1.3784
    1TMC1    C714137   4.063   2.326  17.682  0.7309 -0.1228 -0.0017
    1TMC1    C814138   3.697   2.116  17.468 -0.1210 -0.5076  0.0310
    1TMC1    O114139   4.107   2.365  17.574  0.3863 -0.1609  0.2012
    1TMC1    O214140   3.754   2.133  17.359 -0.4882 -0.2433 -0.1631
    1TMC1    O314141   4.136   2.309   0.042  0.2085  0.1885  0.3181
    1TMC1    H314142   4.070   2.313   0.114 -0.9259  0.4443 -0.7333
    1TMC1    O514143   3.586   2.034  17.489  0.0856 -0.4846 -0.1395
    1TMC1    H514144   3.556   2.049  17.581  2.0882 -0.5680  0.5303
    2MPD1     C14145   4.071   1.583   0.458  0.5999 -0.2095 -0.5646
    2MPD1    C114146   4.173   1.659   0.408 -0.2386 -0.0351  0.5434
    2MPD1    C214147   4.147   1.756   0.310  0.1742 -0.0693  0.3338
    2MPD1    C314148   4.020   1.775   0.265 -0.4173 -0.4738 -0.1865
    2MPD1    C414149   3.919   1.695   0.319 -0.1020 -0.6473 -0.3305
    2MPD1    C514150   3.947   1.595   0.403 -0.1276 -0.1781  0.2176
    2MPD1     H14151   4.229   1.821   0.283  0.6419  0.0308  2.0219
    2MPD1    H114152   3.813   1.710   0.305  0.4169  2.0312 -1.4555
    2MPD1    H214153   4.091   1.512   0.537 -1.1979 -1.3439 -1.1280
    2MPD1    H314154   3.863   1.545   0.449 -1.1865 -0.9493 -2.5628
    2MPD1     N14155   3.998   1.871   0.164  0.2577  0.1961  0.3467
    2MPD1    H514156   4.083   1.921   0.136  0.5807 -1.5296 -1.7237
    2MPD1    N114157   4.292   1.653   0.483  0.0377  0.4299 -0.2142
    2MPD1    H614158   4.291   1.572   0.545 -0.3247  0.6569  0.0813
    2MPD1    H714159   4.372   1.636   0.424 -0.1752 -0.7736 -0.1527
    1MPD1     C14160   2.611   0.385  12.446  0.2328  0.8627  0.2629
    1MPD1    C114161   2.573   0.512  12.414 -0.6582  0.1587  0.1022
    1MPD1    C214162   2.656   0.598  12.349 -0.2185 -0.3656 -1.0739
    1MPD1    C314163   2.783   0.556  12.320 -0.0998  0.3964  0.6186
    1MPD1    C414164   2.826   0.429  12.361 -0.7890 -0.0756  0.1750
    1MPD1    C514165   2.741   0.341  12.426  0.2978 -0.0624  0.5142
    1MPD1     H14166   2.622   0.695  12.312  0.3761  0.5418  0.7573
    1MPD1    H114167   2.931   0.403  12.367 -1.0673 -1.2997 -0.0626
    1MPD1    H214168   2.534   0.319  12.486  0.8601 -0.0825 -0.1090
    1MPD1    H314169   2.768   0.243  12.463 -2.2724 -1.9428 -2.5768
    1MPD1     N14170   2.870   0.653  12.258  1.1687 -0.0705  0.4108
    1MPD1    H514171   2.832   0.748  12.253  2.3226  0.3609 -0.0078
    1MPD1    N114172   2.440   0.559  12.430 -0.2702  0.4726  0.6406
    1MPD1    H614173   2.452   0.659  12.443  2.8087  0.0480  0.8927
    1MPD1    H714174   2.391   0.512  12.506  1.2334 -2.1232  0.0013
    2MPD1     C14175   2.264   0.958  12.307 -0.6222  0.0772 -0.0081
    2MPD1    C114176   2.402   0.937  12.321 -0.5093  0.2578  0.3104
    2MPD1    C214177   2.476   0.946  12.200 -0.4131  0.0018  0.3053
    2MPD1    C314178   2.415   0.955  12.076 -0.4269 -0.4256  0.2945
    2MPD1    C414179   2.279   0.973  12.064 -0.6222 -0.1618  0.1479
    2MPD1    C514180   2.212   0.976  12.184 -0.2331  0.1108 -0.6531
    2MPD1     H14181   2.582   0.924  12.207 -0.5742 -0.9709 -0.4061
    2MPD1    H114182   2.234   0.996  11.968 -0.9493  0.4704  0.4527
    2MPD1    H214183   2.199   0.963  12.393  0.7753  4.5396  0.8133
    2MPD1    H314184   2.104   0.981  12.180 -0.3454 -0.7983  0.9486
    2MPD1     N14185   2.496   0.959  11.959  0.2690 -0.1392 -0.0755
    2MPD1    H514186   2.449   0.986  11.873 -0.6504 -0.7428  0.2394
    2MPD1    N114187   2.460   0.892  12.446  0.2743 -0.1918  0.2585
    2MPD1    H614188   2.553   0.929  12.465  0.9067 -1.0905 -1.1000
    2MPD1    H714189   2.398   0.927  12.519  0.6164  2.0365 -0.5249
    3MPD1     C14190   3.008   1.648  11.409  0.0681 -0.1200  0.2627
    3MPD1    C114191   3.018   1.546  11.321 -0.1203  0.7177  0.2519
    3MPD1    C214192   2.986   1.417  11.367  0.8626  0.0074  0.2518
    3MPD1    C314193   2.930   1.400  11.491  0.2845 -0.7297  0.3262
    3MPD1    C414194   2.922   1.509  11.576  0.1589  0.5091 -1.1653
    3MPD1    C514195   2.970   1.632  11.537  0.4844 -0.8211 -0.1056
    3MPD1     H14196   2.994   1.328  11.306  0.2606  0.4063 -0.4068
    3MPD1    H114197   2.887   1.502  11.679  1.1854 -0.5820 -0.8836
    3MPD1    H214198   3.027   1.750  11.377  0.5954 -1.1930 -2.9078
    3MPD1    H314199   2.956   1.711  11.611  0.3701 -0.3549 -0.6257
    3MPD1     N14200   2.883   1.272  11.530 -0.8297  0.4174 -0.3512
    3MPD1    H514201   2.891   1.200  11.459  0.7824 -0.4011  0.6561
    3MPD1    N114202   3.068   1.573  11.195  0.0439  0.4953  1.0269
    3MPD1    H614203   3.064   1.494  11.131 -1.3303  1.4198 -0.0220
    3MPD1    H714204   3.035   1.662  11.159  0.3401  0.0447 -0.3619
    4MPD2     C14205   3.173   1.112  11.691 -0.2752  0.2629 -0.0195
    4MPD2    C114206   3.265   1.036  11.765 -0.2465 -0.8076 -0.7873
    4MPD2    C214207   3.377   0.978  11.710  0.4045 -0.5644  0.0701
    4MPD2    C314208   3.392   0.989  11.570 -0.4372  0.1561 -0.0100
    4MPD2    C414209   3.311   1.079  11.496 -0.4106  0.1993  0.2648
    4MPD2    C514210   3.203   1.138  11.555 -0.4523  0.4355  0.5165
    4MPD2     H14211   3.434   0.904  11.765 -0.7844 -2.4524 -1.2370
    4MPD2    H114212   3.338   1.111  11.395  1.1425 -2.2820 -0.0980
    4MPD2    H214213   3.083   1.161  11.726  0.7539  2.0098  0.2031
    4MPD2    H314214   3.140   1.202  11.493  0.4653 -0.6859 -1.5977
    4MPD2     N14215   3.494   0.918  11.510  0.4056 -0.4408 -0.4181
    4MPD2    H514216   3.557   0.863  11.567 -0.0506 -0.0353  0.4698
    4MPD2    N114217   3.238   1.000  11.902  0.4745  0.6027  0.2100
    4MPD2    H714218   3.314   0.956  11.952 -0.7236 -2.0339 -0.2640
    5TMC3    C114219   3.125   0.933  12.097 -0.1256  0.0379  0.4532
    5TMC3    C214220   3.032   0.837  12.118  0.7275  0.2356  0.1795
    5TMC3    C314221   3.087   0.723  12.173 -0.2865 -1.1781  0.1079
    5TMC3    C414222   3.253   0.920  12.140  0.2285  0.2140 -0.0620
    5TMC3    C514223   3.306   0.795  12.177  0.3656 -0.1777  0.1395
    5TMC3    C614224   3.221   0.697  12.189 -0.4598  0.2591 -0.1367
    5TMC3     C14225   3.122   1.010  11.973 -0.7046  0.0984 -0.1383
    5TMC3     O14226   3.013   1.048  11.925  0.2322 -0.0192  0.5178
    5TMC3     H14227   2.925   0.852  12.108  1.3089  3.3445 -1.4587
    5TMC3    H114228   3.321   1.001  12.119  0.5384  0.7516  3.0294
    5TMC3    H214229   3.249   0.593  12.202  0.9494  0.5720 -0.6978
    5TMC3    C714230   3.414   0.762  12.083 -0.8635  1.1507  0.3109
    5TMC3    C814231   2.999   0.616  12.214 -0.2705 -0.2351 -0.0517
    5TMC3    O114232   3.460   0.851  12.006  0.6649  0.1023 -0.0206
    5TMC3    O214233   3.054   0.509  12.197 -0.2690 -0.2067 -0.2096
    6TMC3    C114234   2.672   0.934  11.808  0.6009  0.3829 -0.3348
    6TMC3    C214235   2.683   1.066  11.765  0.1947 -0.2428  0.3568
    6TMC3    C314236   2.777   1.100  11.670 -0.2260 -0.0185  0.4252
    6TMC3    C414237   2.765   0.838  11.772  0.7330  0.1327  0.3277
    6TMC3    C514238   2.870   0.881  11.695 -1.2103  0.3644  0.4516
    6TMC3    C614239   2.875   1.007  11.635  0.4709 -0.5593 -0.4788
    6TMC3     C14240   2.628   0.918  11.942  0.0784 -0.0927  0.0929
    6TMC3     O14241   2.704   0.855  12.015  0.3437  0.1130  0.6604
    6TMC3     H14242   2.610   1.137  11.801  1.4488  0.8771  0.6566
    6TMC3    H114243   2.749   0.734  11.801 -2.0005  0.6961  0.8216
    6TMC3    H214244   2.965   1.036  11.581 -0.3021 -1.9893 -2.5424
    6TMC3    C714245   2.972   0.791  11.658  0.7586 -0.1749  0.4695
    6TMC3    C814246   2.813   1.240  11.647  0.3583 -0.0815  0.2685
    6TMC3    O114247   3.012   0.814  11.547 -0.2190  0.0664  0.2747
    6TMC3    O214248   2.785   1.318  11.738 -0.1247  0.4110 -0.4189
    7MPD2     C14249   3.718   0.396  11.883  0.2349 -0.4264 -0.2154
    7MPD2    C114250   3.675   0.521  11.828 -0.2635  0.1430  0.5109
    7MPD2    C214251   3.598   0.606  11.908  0.3363 -0.2986  0.0801
    7MPD2    C314252   3.561   0.562  12.035  0.1329  0.0277 -0.5668
    7MPD2    C414253   3.619   0.448  12.089  0.0474  0.1942  0.0064
    7MPD2    C514254   3.691   0.367  12.011 -0.4198 -0.1099  0.2696
    7MPD2     H14255   3.570   0.700  11.862 -0.0926  0.0473  1.0491
    7MPD2    H114256   3.596   0.409  12.188  0.1985  0.2010  0.0450
    7MPD2    H214257   3.771   0.325  11.820  0.8667  1.8173 -2.2237
    7MPD2    H314258   3.719   0.270  12.051  2.4549  0.5891 -0.0960
    7MPD2     N14259   3.464   0.636  12.113  0.5078 -0.5285  0.1870
    7MPD2    H514260   3.424   0.597  12.198  0.0702  0.4646  0.4384
    7MPD2    N114261   3.712   0.548  11.694 -0.2747  0.1195 -0.0110
    7MPD2    H714262   3.752   0.473  11.638  1.2586 -0.4222  1.7630
    8TMC3    C114263   3.691   0.646  11.493  0.1991 -0.3210 -0.1006
    8TMC3    C214264   3.607   0.550  11.445 -0.9359 -0.0299 -0.2011
    8TMC3    C314265   3.512   0.589  11.354  0.5924  0.4195  0.8783
    8TMC3    C414266   3.690   0.773  11.440  0.3137 -0.1267 -0.2463
    8TMC3    C514267   3.600   0.801  11.341  0.4178 -0.5034 -0.1031
    8TMC3    C614268   3.518   0.708  11.294  0.6948  0.2973  0.0794
    8TMC3     C14269   3.684   0.666  11.633  0.1747 -0.0169 -1.2019
    8TMC3     O14270   3.673   0.779  11.681  0.3540  0.2470 -0.3667
    8TMC3     H14271   3.611   0.449  11.485 -1.3395 -0.5587 -1.4822
    8TMC3    H114272   3.745   0.857  11.480  0.1855 -0.5347  0.7883
    8TMC3    H214273   3.444   0.742  11.223  2.1705  0.6068 -1.2999
    8TMC3    C714274   3.516   0.914  11.374 -0.5636 -0.0216 -0.2385
    8TMC3    C814275   3.378   0.571  11.407  0.4206  0.0696  0.2823
    8TMC3    O114276   3.450   0.963  11.282  0.1086 -0.3851 -0.2331
    8TMC3    O214277   3.290   0.640  11.362  0.2164 -0.0507  0.3999
    9MPD2     C14278   3.321   0.432  11.736  0.3081  0.7133 -0.0332
    9MPD2    C114279   3.303   0.519  11.634 -0.5831 -0.4515  0.5374
    9MPD2    C214280   3.193   0.605  11.640  0.8440  0.6428  0.2630
    9MPD2    C314281   3.112   0.608  11.750  0.3062  0.4426  0.3368
    9MPD2    C414282   3.132   0.522  11.852  0.1357  0.0487 -0.6092
    9MPD2    C514283   3.229   0.431  11.835  0.1770 -0.0597  0.1788
    9MPD2     H14284   3.190   0.681  11.562 -0.3949 -0.3552 -0.6686
    9MPD2    H114285   3.089   0.545  11.949  0.5145  4.2223 -1.4356
    9MPD2    H214286   3.406   0.366  11.743  0.1875  0.6196  0.5767
    9MPD2    H314287   3.244   0.358  11.914 -0.9357  2.2338  2.4886
    9MPD2     N14288   3.008   0.708  11.759 -0.7288  0.0393  0.0111
    9MPD2    H514289   2.966   0.727  11.850  1.5411 -1.0228  1.2768
    9MPD2    N114290   3.388   0.494  11.520  0.2279  0.9432 -0.2932
    9MPD2    H714291   3.462   0.425  11.528 -0.1990  0.6299  0.9858
    1MPD1     C14292   2.368   3.726  15.330 -0.1215 -0.9399  0.5186
    1MPD1    C114293   2.336   3.717  15.457  0.2240 -0.3680  0.9901
    1MPD1    C214294   2.387   3.807  15.544 -0.8099  0.1305  0.2025
    1MPD1    C314295   2.453   3.919  15.501  0.5984 -0.3535 -0.8622
    1MPD1    C414296   2.471   3.935  15.367  0.2344 -0.1969 -0.9473
    1MPD1    C514297   2.433   3.833  15.281 -0.2099  0.3076  0.5655
    1MPD1     H14298   2.377   3.788  15.651 -1.9597 -0.5332 -0.0148
    1MPD1    H114299   2.514   4.020  15.315  0.2034 -0.1733 -0.9344
    1MPD1    H214300   2.345   3.650  15.257  0.6235 -1.4383  0.8023
    1MPD1    H314301   2.455   3.844  15.176  1.7001 -1.7929  0.7330
    1MPD1     N14302   2.504   4.015  15.589 -0.6082 -0.0482 -0.2298
    1MPD1    H514303   2.525   4.100  15.537 -0.8095 -0.1565 -0.4876
    1MPD1    N114304   2.273   3.602  15.504  0.5725  0.7404 -0.0477
    1MPD1    H614305   2.201   3.565  15.442  1.6987 -0.3273 -0.7330
    1MPD1    H714306   2.231   3.629  15.593  1.5706 -0.8884  0.9222
    2TMC2    C114307   2.724   4.321  15.768 -0.1125  0.2339 -0.0665
    2TMC2    C214308   2.722   4.334  15.906 -0.3546 -0.3263 -0.0333
    2TMC2    C314309   2.645   4.254  15.986 -0.7449 -0.5463  0.5094
    2TMC2    C414310   2.646   4.232  15.697  0.4679  0.0991  0.1846
    2TMC2    C514311   2.572   4.149  15.777  0.6644  0.4772  0.0453
    2TMC2    C614312   2.575   4.156  15.916 -0.9856  0.4840 -0.7046
    2TMC2     C14313   2.794   4.422  15.695 -0.4972  0.3106  0.2622
    2TMC2     O14314   2.809   4.532  15.752  0.2986 -0.2425  0.2488
    2TMC2     H14315   2.783   4.415  15.945  0.5370 -1.7634  1.5584
    2TMC2    H114316   2.644   4.216  15.590  3.1210 -1.7028  0.4083
    2TMC2    H214317   2.512   4.094  15.978  2.9850 -0.2484  2.6211
    2TMC2    C714318   2.503   4.028  15.727  0.2258  0.7874  0.1964
    2TMC2    C814319   2.646   4.264  16.130 -0.3254 -0.2244 -0.1969
    2TMC2    O114320   2.440   3.959  15.808  0.4598 -0.5442  0.4716
    2TMC2    O214321   2.606   4.171  16.200 -0.3396  0.2244 -0.3464
    2TMC2    O514322   2.740   4.357  16.164 -0.2309 -1.1744  0.0029
    2TMC2    H514323   2.738   4.439  16.111  1.5511 -0.8310  0.4868
    3MPD1     C14324   2.880   4.636  15.234 -0.0120  0.0016 -0.3176
    3MPD1    C114325   2.867   4.502  15.216  0.3334  0.0049 -0.4108
    3MPD1    C214326   2.855   4.420  15.328 -0.1504 -0.2777  1.1853
    3MPD1    C314327   2.850   4.467  15.455 -0.2499  1.0560  0.0196
    3MPD1    C414328   2.846   4.604  15.470 -0.1639 -0.2384 -0.4184
    3MPD1    C514329   2.853   4.683  15.360  0.2362  0.6079  0.0269
    3MPD1     H14330   2.859   4.312  15.320  2.8246 -0.1279  0.8192
    3MPD1    H114331   2.824   4.661  15.560  1.8912  0.7465 -0.5346
    3MPD1    H214332   2.885   4.716  15.161  0.0264  2.1244  2.0214
    3MPD1    H314333   2.860   0.052  15.371  0.0938  0.5220  0.9136
    3MPD1     N14334   2.815   4.381  15.566 -0.0873 -0.8449  0.7095
    3MPD1    H514335   2.805   4.284  15.539  0.2090 -1.0278  1.2553
    3MPD1    N114336   2.892   4.445  15.088  0.4309  0.1428 -0.5356
    3MPD1    H614337   2.854   4.508  15.017 -3.4778  0.5991  1.9654
    3MPD1    H714338   2.853   4.351  15.083  0.3294  0.1375  0.3355
    1TMC1    C114339   1.045   3.494  13.090 -0.1778  0.3958 -0.1035
    1TMC1    C214340   1.017   3.568  12.979  0.7544 -0.6479  0.1263
    1TMC1    C314341   0.886   3.599  12.962 -0.6599  0.5775  0.6113
    1TMC1    C414342   0.944   3.446  13.172 -0.7581 -0.0440 -0.0664
    1TMC1    C514343   0.813   3.477  13.137 -1.1468  0.2176 -0.6988
    1TMC1    C614344   0.785   3.558  13.035  0.4929 -0.1091 -0.0161
    1TMC1     C14345   1.179   3.504  13.138  0.3921 -0.4432 -0.2279
    1TMC1     O14346   1.273   3.513  13.057 -0.3096  0.4406  0.9095
    1TMC1     H14347   1.098   3.611  12.922 -0.2844  1.4519  0.2297
    1TMC1    H114348   0.960   3.379  13.256  0.4375  0.8555  0.4275
    1TMC1    H214349   0.684   3.585  13.007 -0.3272 -1.1198  2.0157
    1TMC1    C714350   0.699   3.411  13.204 -0.3607 -0.4013  0.3184
    1TMC1    C814351   0.851   3.693  12.859  0.3422  0.0257  0.2635
    1TMC1    O114352   0.592   3.393  13.151  0.2228 -0.0225 -0.3555
    1TMC1    O214353   0.756   3.772  12.856 -0.3774 -0.7355  0.3388
    1TMC1    O314354   0.734   3.420  13.334 -0.3247 -0.5919 -0.5530
    1TMC1    H314355   0.823   3.457  13.354  0.1464 -1.1319 -1.6861
    1TMC1    O514356   0.909   3.646  12.747 -0.5283 -0.4750  0.0390
    1TMC1    H514357   0.951   3.560  12.766 -1.9265 -1.0229  0.5962
    2MPD2     C14358   1.422   3.571  13.292  0.6247  0.3188  0.7318
    2MPD2    C114359   1.304   3.532  13.347 -0.1809 -0.2275  0.7179
    2MPD2    C214360   1.307   3.505  13.483  0.7688 -0.7199  0.3109
    2MPD2    C314361   1.415   3.539  13.561  0.4070 -0.2373 -1.0623
    2MPD2    C414362   1.530   3.586  13.504 -0.0984 -0.6598  0.2570
    2MPD2    C514363   1.529   3.612  13.370 -1.0352  0.3041  0.0117
    2MPD2     H14364   1.219   3.463  13.529  0.5171 -1.2169 -0.6273
    2MPD2    H114365   1.619   3.618  13.557 -1.1829 -0.7109  2.1154
    2MPD2    H214366   1.432   3.595  13.187 -1.0524  0.8801  0.7162
    2MPD2    H314367   1.624   3.646  13.328 -1.8289  0.5410 -1.5838
    2MPD2     N14368   1.412   3.507  13.700 -0.3728  0.0291  0.2408
    2MPD2    H514369   1.337   3.443  13.723  0.9500 -1.6719 -0.1537
    2MPD2    N114370   1.192   3.492  13.272  0.2493 -0.3717 -0.3418
    2MPD2    H714371   1.106   3.479  13.324  0.3664 -0.9054 -0.2843
    3TCq1    O114372   1.218   3.176  14.162  0.6133  0.4855  0.5848
    3TCq1    C114373   1.229   3.279  14.085  0.6534 -0.1149  0.2182
    3TCq1    O214374   1.144   3.355  14.047 -0.1654  0.5471 -0.0739
    3TCq1    C214375   1.360   3.296  14.030 -0.1509  0.6448 -0.4873
    3TCq1    C314376   1.464   3.282  14.121  0.4390 -0.8852  0.0837
    3TCq1    C414377   1.567   3.369  14.114  0.5121 -0.1606 -0.3233
    3TCq1    C514378   1.583   3.456  14.006  0.0248  0.5054 -0.0764
    3TCq1    C614379   1.478   3.457  13.914  1.0517  0.2243 -0.0529
    3TCq1    C714380   1.367   3.391  13.928  0.4673 -0.6417 -0.5983
    3TCq1    C814381   1.502   3.541  13.796  0.8086  0.7378 -0.3681
    3TCq1    O414382   1.607   3.606  13.789  0.3267 -0.2012  0.0109
    3TCq1    C914383   1.671   3.365  14.208  0.7299 -0.2878 -0.3312
    3TCq1    O514384   1.655   3.299  14.316 -0.7872  0.0965 -0.4102
    3TCq1    O614385   1.778   3.415  14.166 -0.1274  0.0134  0.1859
    3TCq1    H114386   1.301   3.126  14.178  0.9653  1.5658  2.1120
    3TCq1    H214387   1.446   3.221  14.208 -1.6889 -1.1514 -0.5494
    3TCq1    H314388   1.667   3.525  14.008  0.9199 -0.6404  1.9719
    3TCq1    H414389   1.282   3.410  13.863 -0.1278  1.6793  0.8799
    1MPD2     C14390   0.562   4.280  15.391  0.3466  0.1965  0.7833
    1MPD2    C114391   0.640   4.193  15.314  0.4546 -0.4774 -0.4515
    1MPD2    C214392   0.767   4.171  15.369  0.6113 -0.3622 -0.1916
    1MPD2    C314393   0.814   4.226  15.489 -0.7297 -0.0260 -0.1007
    1MPD2    C414394   0.728   4.302  15.566 -0.2849 -0.5523  0.3529
    1MPD2    C514395   0.606   4.335  15.511  0.2441  0.6747 -0.3208
    1MPD2     H14396   0.835   4.104  15.318 -0.7096 -1.5484 -0.3839
    1MPD2    H114397   0.756   4.346  15.661 -0.7156  1.8911 -0.6681
    1MPD2    H214398   0.458   4.301  15.371  1.2207  0.9697 -3.0300
    1MPD2    H314399   0.539   4.394  15.573 -0.7669  0.2100 -0.9553
    1MPD2     N14400   0.940   4.196  15.537  0.8685 -0.1801  0.4922
    1MPD2    H514401   0.994   4.123  15.492 -0.5309  0.6592 -2.5243
    1MPD2    N114402   0.576   4.126  15.209 -0.2648 -0.8463 -0.2495
    1MPD2    H714403   0.480   4.151  15.190 -0.4314 -0.2430  1.3951
    2TMC3    C114404   0.574   4.012  15.002 -0.4246 -0.2475 -0.0256
    2TMC3    C214405   0.681   4.007  14.910  0.4067  0.0264  0.4315
    2TMC3    C314406   0.702   4.113  14.822 -0.0323  0.5163  0.8485
    2TMC3    C414407   0.478   4.114  14.984  0.0174 -0.4181 -0.3517
    2TMC3    C514408   0.498   4.210  14.890 -0.2195  0.6745 -0.3072
    2TMC3    C614409   0.609   4.212  14.806  0.4344  0.1357  0.0434
    2TMC3     C14410   0.640   4.037  15.131 -0.0085 -0.0479 -1.0274
    2TMC3     O14411   0.757   4.004  15.142  0.6946  0.6584 -0.1819
    2TMC3     H14412   0.751   3.924  14.912 -1.2720 -1.4376 -0.7847
    2TMC3    H114413   0.383   4.103  15.036  0.1979  0.2504  0.1312
    2TMC3    H214414   0.629   4.293  14.737  0.7368 -0.9511 -1.1550
    2TMC3    C714415   0.399   4.315  14.876 -0.2019 -0.1946 -0.0108
    2TMC3    C814416   0.842   4.150  14.816 -0.2516  0.4182 -0.3720
    2TMC3    O114417   0.289   4.288  14.922 -0.3974  0.3961  0.2101
    2TMC3    O214418   0.886   4.217  14.725 -0.2306 -0.0807 -0.1062
    3TCq1    O114419   0.804   0.737  14.723  0.1068  0.4924 -0.2546
    3TCq1    C114420   0.688   0.671  14.738  0.5469  0.4605 -0.4455
    3TCq1    O214421   0.605   0.706  14.818 -0.1253  0.0521 -0.1486
    3TCq1    C214422   0.683   0.539  14.677 -0.3497 -0.0185  0.3074
    3TCq1    C314423   0.804   0.470  14.645  0.2698 -0.0224  0.4332
    3TCq1    C414424   0.789   0.346  14.604 -0.5515  0.3293 -0.1850
    3TCq1    C514425   0.670   0.282  14.605 -0.9208  0.5429 -0.0174
    3TCq1    C614426   0.558   0.352  14.644  0.1614  0.2994  0.3912
    3TCq1    C714427   0.558   0.484  14.679 -0.4088 -0.4254  0.9317
    3TCq1    C814428   0.446   0.275  14.702  0.2512 -1.0884 -0.2434
    3TCq1    O414429   0.342   0.330  14.728 -0.6706 -0.1499 -0.2809
    3TCq1    C914430   0.917   0.275  14.569  0.1174  0.6894  0.7080
    3TCq1    O514431   0.911   0.157  14.532  0.5094  0.2514  0.0762
    3TCq1    O614432   1.020   0.338  14.600 -0.6422  0.9056 -0.5798
    3TCq1    H114433   0.863   0.705  14.652  0.7780 -1.0825  0.9989
    3TCq1    H214434   0.901   0.519  14.654  0.4761 -0.2951 -0.2726
    3TCq1    H314435   0.664   0.183  14.561  2.7117 -0.2168  1.2036
    3TCq1    H414436   0.473   0.535  14.725 -1.3109 -1.0169 -0.0973
    4MPD2     C14437   0.281   0.059  14.844  0.3729  0.2037  0.2657
    4MPD2    C114438   0.401   0.043  14.781  0.2397  0.1037 -0.5490
    4MPD2    C214439   0.451   4.659  14.771 -0.2711 -0.2572  0.2796
    4MPD2    C314440   0.390   4.548  14.826 -0.1947 -0.0493  0.2683
    4MPD2    C414441   0.261   4.565  14.875  0.3582  0.3724  0.0898
    4MPD2    C514442   0.225   4.694  14.904 -0.2908  0.6847 -0.0616
    4MPD2     H14443   0.546   4.643  14.720 -1.4092 -1.3701 -1.4926
    4MPD2    H114444   0.190   4.492  14.913  1.1655 -1.3917 -1.8204
    4MPD2    H214445   0.237   0.158  14.845 -1.6324 -0.6971  1.0886
    4MPD2    H314446   0.126   4.712  14.944 -0.4866 -1.2329  0.3147
    4MPD2     N14447   0.457   4.427  14.825  0.2333 -0.1502  0.1999
    4MPD2    H514448   0.559   4.431  14.822  0.2904 -2.1383 -0.7372
    4MPD2    N114449   0.478   0.142  14.719  0.2391 -0.0855  0.1953
    4MPD2    H714450   0.570   0.121  14.682  0.4516  2.4157 -0.7285
    5TMC2    C114451   1.269   4.146  15.463 -0.0275 -0.2664 -0.6654
    5TMC2    C214452   1.339   4.265  15.463 -0.4455  1.0665  0.8110
    5TMC2    C314453   1.326   4.342  15.569 -0.2610 -0.3758 -0.1026
    5TMC2    C414454   1.165   4.127  15.560  0.1397 -0.5175  0.3563
    5TMC2    C514455   1.147   4.220  15.656  0.5954 -0.2072 -0.1130
    5TMC2    C614456   1.234   4.320  15.667 -0.0083 -0.1237  0.7991
    5TMC2     C14457   1.215   4.101  15.337 -0.4752  0.1523  0.0909
    5TMC2     O14458   1.118   4.026  15.346  0.6510 -0.2096 -0.3439
    5TMC2     H14459   1.421   4.272  15.391  0.4090  3.1068  1.9908
    5TMC2    H114460   1.117   4.030  15.565  1.2855 -1.1935 -1.8531
    5TMC2    H214461   1.216   4.406  15.730  0.8739  0.2264  0.5616
    5TMC2    C714462   1.007   4.260  15.639 -0.2937 -0.6856  0.3922
    5TMC2    C814463   1.418   4.453  15.584 -0.0974 -0.2444 -0.7285
    5TMC2    O114464   0.978   4.364  15.696 -0.1850 -0.2825  0.0212
    5TMC2    O214465   1.515   4.420  15.650  0.3006 -0.1688  0.3460
    5TMC2    O514466   1.420   4.499  15.455  0.1696 -0.3393 -0.1769
    5TMC2    H514467   1.326   4.525  15.444 -0.2359 -1.9261 -0.4419
    6MPD2     C14468   1.138   4.152  14.832  0.1937 -0.5424  0.5028
    6MPD2    C114469   1.053   4.124  14.938 -0.1365 -0.1024  0.4245
    6MPD2    C214470   1.101   4.104  15.066 -0.5405 -0.1694  0.3664
    6MPD2    C314471   1.238   4.127  15.097  0.1273 -0.7484  0.1879
    6MPD2    C414472   1.316   4.161  14.982  0.2683  0.1267 -0.1052
    6MPD2    C514473   1.270   4.162  14.854  0.3072  0.1337  0.5465
    6MPD2     H14474   1.040   4.066  15.146 -1.1599 -0.1933 -0.1184
    6MPD2    H114475   1.421   4.185  14.999  0.4273 -0.5840 -0.0553
    6MPD2    H214476   1.100   4.155  14.730  1.8341  1.0733 -0.0710
    6MPD2    H314477   1.331   4.179  14.766  2.7954  1.1171  2.4570
    6MPD2     N14478   1.282   4.145  15.227  0.2466 -0.5672  0.4712
    6MPD2    H514479   1.366   4.200  15.235 -0.5194  0.4218  1.5802
    6MPD2    N114480   0.906   4.103  14.929  0.9416  0.0911 -0.1293
    6MPD2    H714481   0.851   4.068  15.007 -1.3907  1.2791 -1.2238
  945NH4     N114482   1.464   2.323   1.561  0.2174 -0.1854 -0.6681
  945NH4     H214483   1.524   2.328   1.646  1.4403  0.4379 -1.5761
  945NH4     H314484   1.513   2.354   1.476  0.5613 -0.4277 -0.5588
  945NH4     H414485   1.378   2.382   1.568  0.9630  0.9605 -1.2681
  945NH4     H514486   1.442   2.221   1.554 -0.5673 -0.1984  1.8566
  946SOD     NA14487   3.290   0.505   5.191  0.1084  0.4124  0.3275
  947SOD     NA14488   3.177   1.681   2.202  0.5297 -0.2036 -0.0017
  948SOD     NA14489   2.727   2.283  13.821  0.0165 -0.0119  0.0199
  949SOD     NA14490   2.114   2.183  16.251  0.2563 -0.0874  0.0883
  950SOD     NA14491   4.512   0.149  11.226 -0.1109 -0.6926  0.0552
  951SOD     NA14492   3.379   1.627  11.578 -0.1488 -0.0175 -0.0239
  952SOD     NA14493   3.003   3.106  10.051 -0.2392 -0.1889  0.1659
  953SOL     OW14494   1.760   3.223   3.132  0.6365  0.0716 -0.5809
  953SOL    HW114495   1.758   3.263   3.045  0.3740  0.2029 -0.5160
  953SOL    HW214496   1.678   3.173   3.124  0.5396  0.0397  0.5376
  954SOL     OW14497   1.490   4.250   2.231 -0.4128 -0.1240  0.1698
  954SOL    HW114498   1.510   4.334   2.189 -0.8727  0.7567  1.6972
  954SOL    HW214499   1.419   4.221   2.174  0.0858  0.5318 -0.7689
  955SOL     OW14500   0.132   4.280  13.686  0.7312 -0.3672 -0.1077
  955SOL    HW114501   0.139   4.187  13.709  3.5827 -0.1285 -0.0892
  955SOL    HW214502   0.168   4.332  13.758 -0.7533 -0.9258  1.0519
  956SOL     OW14503   2.336   3.609   5.397  0.5524 -0.1501 -0.0733
  956SOL    HW114504   2.389   3.684   5.423 -0.2052  0.0042  1.0262
  956SOL    HW214505   2.349   3.547   5.469 -1.3562 -0.5367 -0.0568
  957SOL     OW14506   2.059   2.582  10.191  0.0819  0.1720  0.2590
  957SOL    HW114507   2.135   2.613  10.142 -0.3047  1.6357  0.5995
  957SOL    HW214508   2.071   2.487  10.179 -2.8807 -0.0930 -0.5336
  958SOL     OW14509   0.140   0.539   7.809  0.8153 -0.1953  0.0939
  958SOL    HW114510   0.092   0.540   7.892  0.3832  0.6840 -0.1597
  958SOL    HW214511   0.230   0.555   7.837  0.2529 -1.4513  2.6522
  959SOL     OW14512   0.687   1.857   6.094  0.2972  0.2257  0.0661
  959SOL    HW114513   0.740   1.835   6.017 -1.8547 -0.3964 -1.2514
  959SOL    HW214514   0.659   1.772   6.128 -3.6876  1.5728  0.0872
  960SOL     OW14515   2.747   2.153  13.632  0.1216  0.3000 -0.4412
  960SOL    HW114516   2.765   2.072  13.680 -1.4639 -0.5487 -1.2899
  960SOL    HW214517   2.786   2.137  13.545 -1.4104  0.5460 -1.1649
  961SOL     OW14518   0.320   1.494  17.399  0.3576 -0.6319  0.4240
  961SOL    HW114519   0.295   1.546  17.323 -0.6322  0.8763  1.7933
  961SOL    HW214520   0.252   1.538  17.451  2.0391  1.3502  0.9067
  962SOL     OW14521   3.861   3.421   5.655  0.1301 -0.8824  0.9101
  962SOL    HW114522   3.788   3.477   5.682  0.4551  0.4928 -1.0439
  962SOL    HW214523   3.873   3.356   5.724 -0.2987 -2.2838 -0.3367
  963SOL     OW14524   1.314   0.103   5.055  0.4271 -0.4442 -0.0028
  963SOL    HW114525   1.361   0.058   5.126 -0.3857 -0.5641  0.4600
  963SOL    HW214526   1.285   0.026   5.007 -1.1599  0.1256  0.0553
  964SOL     OW14527   1.429   2.060  16.105  0.3196  0.2005  0.0419
  964SOL    HW114528   1.388   2.062  16.018 -2.1142 -0.7251  1.1626
  964SOL    HW214529   1.493   2.131  16.106  1.3006 -0.6680 -0.5183
  965SOL     OW14530   1.348   2.048   9.051  0.2511  0.0536 -0.6006
  965SOL    HW114531   1.278   1.983   9.053  1.7476 -1.5641 -0.4166
  965SOL    HW214532   1.309   2.109   9.113 -1.8446 -0.7902 -1.0971
  966SOL     OW14533   0.587   2.908  16.026  0.1081  0.0070  0.2633
  966SOL    HW114534   0.558   2.898  16.117  2.1140 -1.9552  0.7014
  966SOL    HW214535   0.642   2.985  16.041 -3.0875  2.0863  1.2199
  967SOL     OW14536   0.528   3.659   2.857 -0.5357 -0.2241 -0.2653
  967SOL    HW114537   0.560   3.701   2.937 -2.2433  0.3021  0.1439
  967SOL    HW214538   0.502   3.575   2.895 -0.5480 -0.1342 -0.0779
  968SOL     OW14539   3.923   0.386   6.823 -0.0834 -0.1897  0.1331
  968SOL    HW114540   3.850   0.418   6.877 -1.1161 -0.8415 -0.8690
  968SOL    HW214541   3.993   0.451   6.825 -0.5803  0.3779 -0.9664
  969SOL     OW14542   4.480   2.126  15.894  0.1868  0.2204 -0.3068
  969SOL    HW114543   4.549   2.141  15.959  1.0711 -2.5680 -0.6232
  969SOL    HW214544   4.479   2.213  15.855  1.6031  0.6716  0.6460
  970SOL     OW14545   3.440   0.989   9.903  0.2431 -0.3318 -0.0034
  970SOL    HW114546   3.434   1.044   9.825 -0.1125 -1.1831 -0.5798
  970SOL    HW214547   3.404   1.056   9.962 -1.0689  0.6897 -1.9926
  971SOL     OW14548   3.279   1.440  12.233  0.2593 -0.3097  0.2414
  971SOL    HW114549   3.287   1.359  12.283  0.2279 -2.6809 -3.5943
  971SOL    HW214550   3.287   1.408  12.143  0.8707 -2.1648  0.9606
  972SOL     OW14551   4.439   0.077   6.795 -0.2821  0.0390  0.5386
  972SOL    HW114552   4.392   0.035   6.723  0.6966 -1.2721  0.6582
  972SOL    HW214553   4.472   0.002   6.845 -2.0959 -0.4383  1.0139
  973SOL     OW14554   3.112   0.037   7.419  0.5030 -0.0043 -0.2446
  973SOL    HW114555   3.182   0.086   7.460  0.4746 -1.7061  1.8384
  973SOL    HW214556   3.130   0.050   7.326 -1.1861 -2.0522 -0.8854
  974SOL     OW14557   3.599   0.562   2.730  0.5275 -0.6537  0.2811
  974SOL    HW114558   3.648   0.497   2.781  0.7789 -1.7345 -1.3229
  974SOL    HW214559   3.672   0.614   2.698  1.2796 -1.3654  0.8318
  975SOL     OW14560   2.050   0.608   5.128 -0.3137  0.4835  0.2655
  975SOL    HW114561   2.012   0.526   5.096 -3.7977  1.5851  1.4911
  975SOL    HW214562   2.030   0.620   5.221 -1.4819  1.3740 -0.0852
  976SOL     OW14563   2.489   0.396   1.136  0.1799  0.0771  0.0887
  976SOL    HW114564   2.536   0.316   1.158  0.7369  0.5080  0.4837
  976SOL    HW214565   2.404   0.382   1.177  0.8015  0.0142  1.3692
  977SOL     OW14566   4.657   1.815   8.580  0.6398  0.3776  0.3278
  977SOL    HW114567   4.692   1.728   8.597  0.1386  0.3016  0.9567
  977SOL    HW214568   4.591   1.819   8.649  1.6666  0.5406  1.3073
  978SOL     OW14569   4.730   3.115   6.146 -0.8250  0.3307  0.1013
  978SOL    HW114570   0.076   3.138   6.184  0.3133 -0.0286 -2.2158
  978SOL    HW214571   0.003   3.128   6.052  2.4773  1.5338  0.7002
  979SOL     OW14572   0.575   3.260   8.692 -0.8644  0.1738 -0.1006
  979SOL    HW114573   0.607   3.344   8.725  3.2899 -1.1090 -0.9034
  979SOL    HW214574   0.615   3.267   8.606 -0.4520  0.1772  0.0913
  980SOL     OW14575   1.682   0.054   2.713  0.6283  0.5556  0.1429
  980SOL    HW114576   1.733   4.717   2.684 -1.4057 -1.6235  2.2670
  980SOL    HW214577   1.591   0.026   2.708  0.7341  0.2235  0.1102
  981SOL     OW14578   0.349   1.515   6.657  0.2824 -0.3271  0.9523
  981SOL    HW114579   0.321   1.578   6.590  1.7062 -0.3152  0.3763
  981SOL    HW214580   0.341   1.569   6.736 -1.8280  2.2499 -0.9892
  982SOL     OW14581   4.381   3.610  10.419 -0.6496  0.1719  0.1488
  982SOL    HW114582   4.406   3.518  10.429 -0.3615  0.2400  0.0569
  982SOL    HW214583   4.466   3.638  10.386 -1.1700 -1.0844 -2.2518
  983SOL     OW14584   2.243   3.844   0.797  0.3089  0.1699  0.4619
  983SOL    HW114585   2.169   3.837   0.857 -1.5225  3.3845 -1.4630
  983SOL    HW214586   2.230   3.763   0.747  1.7786  0.6958 -0.7829
  984SOL     OW14587   2.537   0.982  14.110  0.5535 -0.0590 -0.5506
  984SOL    HW114588   2.563   1.025  14.192  0.1603 -1.2388  0.2002
  984SOL    HW214589   2.567   0.892  14.123  0.2791  0.1817  1.7491
  985SOL     OW14590   3.874   4.239  12.124  0.4471  0.2180  0.4357
  985SOL    HW114591   3.914   4.246  12.211  1.2769  0.7304  0.0183
  985SOL    HW214592   3.924   4.169  12.083 -0.4161 -0.7809  1.1050
  986SOL     OW14593   0.356   1.463   7.219  0.0704  0.3045 -0.2178
  986SOL    HW114594   0.302   1.542   7.222 -0.6779 -0.1374 -2.1644
  986SOL    HW214595   0.404   1.483   7.138 -3.6419 -1.8756 -2.9297
  987SOL     OW14596   2.629   1.874  13.212  0.3844  0.5452 -0.4131
  987SOL    HW114597   2.724   1.866  13.221  0.4305  0.8502 -0.6231
  987SOL    HW214598   2.585   1.835  13.288 -0.1552  1.1205 -0.4273
  988SOL     OW14599   2.906   0.066  14.488  0.1872 -0.5567  0.2849
  988SOL    HW114600   2.964   0.006  14.534 -0.5964 -0.2841  1.6172
  988SOL    HW214601   2.867   0.129  14.548 -1.9349 -1.2587 -0.3500
  989SOL     OW14602   1.138   2.830  13.693  0.3290 -0.3111 -0.3137
  989SOL    HW114603   1.205   2.766  13.718  2.7029  1.4396 -2.1092
  989SOL    HW214604   1.180   2.915  13.708  0.5102 -0.3043 -0.8542
  990SOL     OW14605   2.913   1.090  11.306  0.3388  0.5445  0.0515
  990SOL    HW114606   2.988   1.031  11.307 -0.9437 -1.0509  1.5934
  990SOL    HW214607   2.896   1.100  11.213 -0.8220 -0.0926  0.1907
  991SOL     OW14608   0.652   0.060  11.828 -0.1068 -0.1960 -0.1389
  991SOL    HW114609   0.716   0.128  11.807  0.8755 -1.4501 -1.2365
  991SOL    HW214610   0.586   0.059  11.759 -1.4892  0.5738  1.1648
  992SOL     OW14611   1.874   0.515   7.876  0.0337 -0.5095 -0.5870
  992SOL    HW114612   1.946   0.566   7.915 -0.9157 -1.0745  1.8790
  992SOL    HW214613   1.813   0.583   7.847  0.8885  0.8697  0.7984
  993SOL     OW14614   1.840   0.683   6.756  0.7406  0.0900 -0.3404
  993SOL    HW114615   1.823   0.653   6.667 -0.8985 -0.3851  0.1365
  993SOL    HW214616   1.767   0.743   6.774  0.3585 -1.0392  1.8258
  994SOL     OW14617   2.407   2.220   0.859  0.5044  0.1817  0.6538
  994SOL    HW114618   2.377   2.168   0.934  1.7626  1.6355  2.1472
  994SOL    HW214619   2.325   2.265   0.839  0.5519 -0.3290 -0.6807
  995SOL     OW14620   1.196   1.405   3.381 -0.5682 -0.4658 -0.3022
  995SOL    HW114621   1.202   1.497   3.354 -1.4423 -0.5978 -0.9375
  995SOL    HW214622   1.287   1.377   3.369 -0.0792  1.3184 -0.7215
  996SOL     OW14623   3.220   3.741   6.671 -0.2041 -0.6826  0.2846
  996SOL    HW114624   3.165   3.792   6.731 -0.2341 -0.1234 -0.2173
  996SOL    HW214625   3.157   3.732   6.599 -0.2064  2.3408 -0.1200
  997SOL     OW14626   3.200   3.729   8.469  0.3593  0.3214  0.1352
  997SOL    HW114627   3.179   3.808   8.419  0.0308  0.0563 -0.1432
  997SOL    HW214628   3.130   3.669   8.443 -0.4150  2.2643 -2.3084
  998SOL     OW14629   4.386   1.253  11.879 -0.6356  0.1458 -0.4131
  998SOL    HW114630   4.374   1.334  11.830 -0.3533  1.7010  2.1214
  998SOL    HW214631   4.374   1.186  11.811  3.7955 -1.4447  0.3876
  999SOL     OW14632   0.521   2.916   9.437  0.3674 -0.7617  0.2685
  999SOL    HW114633   0.433   2.923   9.474  0.4799  1.3325  0.1348
  999SOL    HW214634   0.569   2.907   9.520  1.9809 -0.7491 -0.6748
 1000SOL     OW14635   2.467   1.187  14.531  0.0418  0.5372 -0.1748
 1000SOL    HW114636   2.378   1.154  14.517 -0.3580  0.8065  1.7858
 1000SOL    HW214637   2.514   1.124  14.476 -1.2760 -0.1095 -0.5761
 1001SOL     OW14638   2.018   2.161   2.752 -0.2185  0.2319  0.2304
 1001SOL    HW114639   2.111   2.140   2.742 -0.6692  0.2165 -3.8856
 1001SOL    HW214640   2.025   2.256   2.759 -1.0020  0.4343 -1.7923
 1002SOL     OW14641   2.553   2.314   5.190  0.3905 -0.2767  0.4541
 1002SOL    HW114642   2.492   2.310   5.116 -1.1296 -1.8349  1.7747
 1002SOL    HW214643   2.602   2.395   5.179 -3.6868  2.3256  1.5206
 1003SOL     OW14644   3.883   2.920   7.150 -0.2972  0.1966 -0.6943
 1003SOL    HW114645   3.853   2.842   7.196  0.7319  0.4929  0.4654
 1003SOL    HW214646   3.850   2.913   7.060 -1.3086 -1.3327 -0.1998
 1004SOL     OW14647   2.074   1.903   7.286 -0.5305  0.2796  0.7085
 1004SOL    HW114648   2.139   1.970   7.267 -1.3652  0.2419 -2.4340
 1004SOL    HW214649   2.127   1.827   7.310  0.7975  1.2248  0.7435
 1005SOL     OW14650   0.476   1.517   6.977  0.0847 -0.8454  0.2273
 1005SOL    HW114651   0.546   1.564   7.022 -1.0993  0.2887  0.8727
 1005SOL    HW214652   0.517   1.496   6.893 -1.7731 -1.8362 -0.4301
 1006SOL     OW14653   0.519   2.967  11.368  0.3030 -0.8390 -0.0458
 1006SOL    HW114654   0.573   3.029  11.416  0.7009 -0.1144 -1.4131
 1006SOL    HW214655   0.568   2.887  11.386  0.8091 -0.1762  1.4500
 1007SOL     OW14656   3.348   1.472   8.230 -0.1994 -0.2413  0.2193
 1007SOL    HW114657   3.296   1.394   8.251  0.7398 -0.6069  1.1802
 1007SOL    HW214658   3.370   1.504   8.318 -1.3072 -0.5204  0.6025
 1008SOL     OW14659   3.555   2.995   5.597  0.6529 -0.4777  0.1515
 1008SOL    HW114660   3.538   2.901   5.600 -1.3262 -0.1952 -2.6957
 1008SOL    HW214661   3.473   3.038   5.572  0.0076 -0.6639  1.9353
 1009SOL     OW14662   4.118   0.132   1.932  0.0096  0.0265 -0.2218
 1009SOL    HW114663   4.189   0.142   1.869 -1.8882 -0.3685 -2.4196
 1009SOL    HW214664   4.061   0.078   1.877 -0.0340 -0.7955  0.6338
 1010SOL     OW14665   1.598   2.815   7.545  1.1871 -0.1038 -0.3038
 1010SOL    HW114666   1.685   2.803   7.507  0.7286  0.0747 -1.4135
 1010SOL    HW214667   1.568   2.727   7.565 -2.6577  1.4639  0.8443
 1011SOL     OW14668   3.993   2.355   3.273 -0.0926  0.3523  0.5690
 1011SOL    HW114669   4.068   2.347   3.332 -0.7639 -0.1868  1.3678
 1011SOL    HW214670   3.924   2.367   3.339 -1.0409 -1.8917 -0.0365
 1012SOL     OW14671   0.241   3.370   8.025 -0.2280 -0.5309 -0.0755
 1012SOL    HW114672   0.306   3.368   7.954  1.4559  1.1776  1.4336
 1012SOL    HW214673   0.295   3.382   8.103  1.2102 -1.4362 -0.9183
 1013SOL     OW14674   3.251   1.398   5.878 -0.2769  0.0584  0.0378
 1013SOL    HW114675   3.277   1.313   5.914  0.6548  0.9119  1.3800
 1013SOL    HW214676   3.163   1.388   5.841  0.7522  0.0668 -2.4603
 1014SOL     OW14677   3.063   3.405   2.709  0.1945 -0.1775  0.3572
 1014SOL    HW114678   3.064   3.334   2.773  1.4156 -1.9631 -1.6528
 1014SOL    HW214679   3.145   3.445   2.736 -0.0743 -0.5744  1.7413
 1015SOL     OW14680   1.446   4.731   1.856  0.2770  0.2802  0.1827
 1015SOL    HW114681   1.411   0.074   1.819 -0.2806  0.1167  0.3386
 1015SOL    HW214682   1.470   0.022   1.944 -0.9504  2.4208 -0.1838
 1016SOL     OW14683   0.214   3.645  10.523  0.2726 -0.4286  0.1883
 1016SOL    HW114684   0.279   3.642  10.452  1.1162 -2.7238  1.0746
 1016SOL    HW214685   0.197   3.739  10.534 -0.3307 -0.4838 -0.3150
 1017SOL     OW14686   3.684   4.126   6.945 -0.1063 -0.2452  0.4101
 1017SOL    HW114687   3.658   4.063   7.013  3.0970 -0.4115  1.4509
 1017SOL    HW214688   3.646   4.208   6.977 -0.9951 -0.4694 -0.0791
 1018SOL     OW14689   4.149   3.938  16.014 -0.3774 -0.2787 -0.0148
 1018SOL    HW114690   4.156   3.955  15.920 -1.3257  0.6406  0.0838
 1018SOL    HW214691   4.078   3.874  16.012 -2.6582  2.2678  0.3625
 1019SOL     OW14692   3.385   0.384   8.080 -0.1231  0.1179 -0.6565
 1019SOL    HW114693   3.431   0.301   8.093 -1.6046 -0.5962 -0.0169
 1019SOL    HW214694   3.447   0.456   8.069  3.2291 -2.6822 -0.1247
 1020SOL     OW14695   2.650   3.594   5.375  0.0780 -0.0494 -0.2861
 1020SOL    HW114696   2.635   3.537   5.450 -0.5806 -1.9900 -1.9076
 1020SOL    HW214697   2.608   3.675   5.406  0.9028 -0.4331  1.8386
 1021SOL     OW14698   1.290   1.147   5.353  0.0929  0.0408 -0.2887
 1021SOL    HW114699   1.222   1.119   5.415  1.9846  0.3469  1.9189
 1021SOL    HW214700   1.352   1.189   5.413 -1.1232  0.4844  0.6646
 1022SOL     OW14701   1.063   4.378   4.328 -0.0056  0.2846 -0.7023
 1022SOL    HW114702   1.106   4.308   4.279 -3.0188 -1.5512 -0.7633
 1022SOL    HW214703   0.975   4.390   4.291  0.0540 -2.8402 -1.8210
 1023SOL     OW14704   4.042   2.076   5.412 -0.0756  0.1476 -0.5241
 1023SOL    HW114705   4.088   2.050   5.333  1.4588 -0.2195  0.4891
 1023SOL    HW214706   4.069   2.007   5.473  0.8835  1.7437  0.8715
 1024SOL     OW14707   1.167   1.180   6.034 -0.1356 -0.1626 -0.2089
 1024SOL    HW114708   1.187   1.090   6.009  3.0141  0.8199 -1.1821
 1024SOL    HW214709   1.072   1.176   6.029 -0.1273 -0.8443  0.1685
 1025SOL     OW14710   1.774   2.776   9.813  0.0165  0.3800 -0.2300
 1025SOL    HW114711   1.786   2.732   9.898  1.3541 -0.1670 -0.6881
 1025SOL    HW214712   1.851   2.736   9.772 -0.3945  0.7256 -1.3113
 1026SOL     OW14713   3.177   1.237   9.180  0.1446  0.1888  0.2503
 1026SOL    HW114714   3.197   1.198   9.096 -0.5108  0.0780  0.1437
 1026SOL    HW214715   3.167   1.162   9.239 -0.3589  1.5062  1.8514
 1027SOL     OW14716   4.338   1.483   7.768  0.4008  0.7981 -0.1321
 1027SOL    HW114717   4.303   1.467   7.680 -0.4975  1.6024  0.0899
 1027SOL    HW214718   4.421   1.435   7.762 -0.6977 -1.0440 -0.8525
 1028SOL     OW14719   2.797   1.531   4.917  0.0048  0.1943 -0.1748
 1028SOL    HW114720   2.784   1.613   4.870 -1.3207 -1.1956 -2.2244
 1028SOL    HW214721   2.844   1.549   4.999 -0.6929 -0.5292  0.3850
 1029SOL     OW14722   2.677   0.651   3.434 -0.3625  0.3025 -0.3404
 1029SOL    HW114723   2.673   0.705   3.355  1.4902  2.2966  0.9322
 1029SOL    HW214724   2.768   0.622   3.432 -0.8484 -1.1318 -1.5422
 1030SOL     OW14725   0.265   4.129   5.507 -0.0810  0.0716 -0.0025
 1030SOL    HW114726   0.209   4.076   5.450  0.2391  1.2159 -1.3905
 1030SOL    HW214727   0.248   4.103   5.597  0.2874 -0.8606 -0.2067
 1031SOL     OW14728   4.277   4.512   4.636  0.2630 -0.2578  0.5655
 1031SOL    HW114729   4.209   4.451   4.605  2.2725 -2.3426  0.2514
 1031SOL    HW214730   4.265   4.515   4.731  1.5046 -1.7077  0.7712
 1032SOL     OW14731   1.333   4.497  13.145  0.0303  0.0906  0.1425
 1032SOL    HW114732   1.262   4.433  13.157  0.2012  0.2364  1.9321
 1032SOL    HW214733   1.318   4.534  13.058 -0.4716 -0.8886 -0.1970
 1033SOL     OW14734   1.856   4.388   3.245 -0.3770  0.5324  0.1110
 1033SOL    HW114735   1.947   4.410   3.226 -0.5313  1.6709  0.6846
 1033SOL    HW214736   1.860   4.294   3.229 -1.3539  0.6817 -1.0421
 1034SOL     OW14737   0.921   2.397  14.690 -0.2351  0.1116 -0.0539
 1034SOL    HW114738   0.994   2.344  14.723  2.8902  2.4679 -3.1544
 1034SOL    HW214739   0.848   2.358  14.739  1.0110 -0.7575  1.0974
 1035SOL     OW14740   4.160   2.105  12.657 -0.2198 -0.1816  0.8474
 1035SOL    HW114741   4.106   2.082  12.582  0.0244  0.9886  0.3010
 1035SOL    HW214742   4.235   2.050  12.636 -0.3734 -0.5914  1.3754
 1036SOL     OW14743   4.581   1.080   9.905 -0.9353 -0.6712  0.1082
 1036SOL    HW114744   4.647   1.092   9.837  1.3443 -2.4704  1.9837
 1036SOL    HW214745   4.521   1.034   9.847 -0.8861 -0.9180  0.2482
 1037SOL     OW14746   3.096   0.336  12.630 -0.0507  0.5210 -0.2006
 1037SOL    HW114747   3.172   0.315  12.683 -1.4418 -0.7838  1.2930
 1037SOL    HW214748   3.095   0.266  12.564 -0.1367  3.1892 -3.0270
 1038SOL     OW14749   1.284   0.375  10.698  0.1390 -0.6761  0.1519
 1038SOL    HW114750   1.337   0.418  10.766  2.5783 -2.0387 -0.9337
 1038SOL    HW214751   1.310   0.284  10.711 -1.0620 -1.1568 -0.8184
 1039SOL     OW14752   1.741   2.358   3.313  0.0810  0.1452  0.9991
 1039SOL    HW114753   1.756   2.266   3.291 -3.2041 -0.3550  0.8025
 1039SOL    HW214754   1.800   2.405   3.255  0.4893 -2.6799 -0.8655
 1040SOL     OW14755   1.681   2.665   4.240  0.2692  0.7551 -0.3721
 1040SOL    HW114756   1.754   2.703   4.290 -0.9722 -0.5938  2.4646
 1040SOL    HW214757   1.729   2.612   4.176  0.0472 -0.6177  0.5909
 1041SOL     OW14758   4.033   1.393  13.515 -0.2175  0.0977 -0.4220
 1041SOL    HW114759   4.027   1.488  13.526 -2.1576  0.0980 -1.4527
 1041SOL    HW214760   4.111   1.379  13.460 -0.6319  1.5270 -1.3869
 1042SOL     OW14761   0.037   1.878   8.263  0.7385 -0.0504  0.2533
 1042SOL    HW114762   0.013   1.841   8.179  1.1565  0.6936 -0.1914
 1042SOL    HW214763   0.128   1.851   8.276  0.7340 -1.1685 -2.1099
 1043SOL     OW14764   0.886   2.309   4.565 -0.3499 -0.0227 -0.0271
 1043SOL    HW114765   0.819   2.343   4.505 -0.3815  0.9037  0.5430
 1043SOL    HW214766   0.966   2.354   4.536 -2.1731  1.7414 -2.2862
 1044SOL     OW14767   3.512   2.628   0.886 -0.0007  0.3694 -0.4598
 1044SOL    HW114768   3.462   2.553   0.857 -2.6863  2.3757 -1.0068
 1044SOL    HW214769   3.601   2.605   0.858  0.1875 -0.7081  0.9835
 1045SOL     OW14770   2.756   3.899   8.151 -0.1189  0.3404  0.0021
 1045SOL    HW114771   2.688   3.941   8.099  0.8765 -0.4157 -1.8820
 1045SOL    HW214772   2.721   3.891   8.240 -1.7738  1.9365 -0.5187
 1046SOL     OW14773   4.155   1.842   3.868  0.2869  0.0799 -0.1555
 1046SOL    HW114774   4.180   1.803   3.952  1.3943  1.1523  0.0116
 1046SOL    HW214775   4.085   1.900   3.898 -1.5711 -3.2176  1.8908
 1047SOL     OW14776   2.601   2.196   4.173 -0.0100  0.3138  0.2520
 1047SOL    HW114777   2.506   2.203   4.164 -0.0531 -0.0361  0.4299
 1047SOL    HW214778   2.623   2.289   4.167 -0.2441  0.4235  1.1430
 1048SOL     OW14779   2.483   2.358   9.805  0.7617 -0.5132  0.0470
 1048SOL    HW114780   2.518   2.425   9.746  1.0188  0.5356  1.4039
 1048SOL    HW214781   2.530   2.385   9.884  2.9128  2.1129 -2.1080
 1049SOL     OW14782   1.882   0.983   7.616  0.4039 -0.3546  0.3632
 1049SOL    HW114783   1.902   1.073   7.638 -4.4826  1.1284 -1.2248
 1049SOL    HW214784   1.961   0.941   7.649  0.8108  0.3405  0.2643
 1050SOL     OW14785   0.397   3.319   1.622  0.0408  0.1506  0.3084
 1050SOL    HW114786   0.428   3.284   1.705  1.0464  2.1634  0.7964
 1050SOL    HW214787   0.454   3.283   1.555  0.7183  1.9789 -0.0959
 1051SOL     OW14788   1.421   2.885   0.922  0.0730  0.5837 -0.2786
 1051SOL    HW114789   1.433   2.919   1.010  0.7491  1.9012 -0.8785
 1051SOL    HW214790   1.510   2.876   0.889  0.6735 -0.1671  1.5622
 1052SOL     OW14791   4.319   3.600   3.728 -0.4088  0.0173  0.2133
 1052SOL    HW114792   4.392   3.659   3.746  1.3330 -1.2054 -2.7976
 1052SOL    HW214793   4.246   3.660   3.717 -0.9805 -0.4872  1.2704
 1053SOL     OW14794   1.768   1.212   3.845 -0.5206  0.3764  0.1405
 1053SOL    HW114795   1.836   1.199   3.912  1.2236  1.2911 -1.4454
 1053SOL    HW214796   1.778   1.307   3.848 -0.7374  0.4774 -2.5192
 1054SOL     OW14797   4.012   4.037   4.919  0.3665  0.5687  0.7918
 1054SOL    HW114798   4.038   4.091   4.844  2.0973 -1.9046 -0.3574
 1054SOL    HW214799   4.087   3.979   4.929 -2.1470 -2.6727  1.0371
 1055SOL     OW14800   2.327   3.396   9.152  0.0449  0.3737  0.0081
 1055SOL    HW114801   2.404   3.342   9.137 -1.1408 -1.3724  0.2444
 1055SOL    HW214802   2.263   3.354   9.095 -1.0753  0.5216  1.1565
 1056SOL     OW14803   3.083   4.662   9.239  0.0732  0.5386 -0.8259
 1056SOL    HW114804   3.133   4.632   9.162  0.1876  0.6784 -0.8069
 1056SOL    HW214805   3.143   4.680   9.311  0.8714  1.5144 -1.7242
 1057SOL     OW14806   3.398   1.583  11.006  0.1586 -0.2051 -0.3722
 1057SOL    HW114807   3.428   1.656  11.061  1.1748 -1.2691  0.4520
 1057SOL    HW214808   3.312   1.623  10.991 -0.8188 -0.8697  3.4876
 1058SOL     OW14809   4.005   4.207   3.474  0.0608 -0.1859 -0.3639
 1058SOL    HW114810   3.983   4.128   3.426 -1.2071  1.5214 -2.5993
 1058SOL    HW214811   4.062   4.242   3.405  1.7841 -0.1463  1.0660
 1059SOL     OW14812   0.400   0.673   1.301 -0.3040 -0.2933  0.4306
 1059SOL    HW114813   0.431   0.642   1.216 -1.6586 -2.3628  0.6714
 1059SOL    HW214814   0.446   0.757   1.307 -0.2662 -0.3623  1.1652
 1060SOL     OW14815   2.822   4.464   7.800  0.3269  0.0641 -0.5616
 1060SOL    HW114816   2.751   4.479   7.863 -0.2666  0.7342 -1.3925
 1060SOL    HW214817   2.876   4.539   7.828  2.6552 -1.5455 -0.7158
 1061SOL     OW14818   3.074   1.473   6.701 -0.1196  0.6761 -0.3585
 1061SOL    HW114819   2.997   1.518   6.665 -0.4131  1.5393  1.3375
 1061SOL    HW214820   3.045   1.399   6.754  0.5001 -0.8152 -2.1261
 1062SOL     OW14821   1.282   3.518  16.362 -0.3670 -0.5528 -0.2634
 1062SOL    HW114822   1.332   3.439  16.341 -0.1467 -0.2228 -0.9925
 1062SOL    HW214823   1.255   3.501  16.452  0.4172  1.3887  0.3335
 1063SOL     OW14824   4.548   3.061   7.195 -0.3395  0.5619 -0.2276
 1063SOL    HW114825   4.630   3.111   7.191 -1.2216  1.8436 -2.6928
 1063SOL    HW214826   4.520   3.046   7.104  0.8400 -1.1265 -0.3142
 1064SOL     OW14827   2.736   3.842   6.893 -0.3303  0.0208 -0.3380
 1064SOL    HW114828   2.710   3.810   6.979 -1.6729  0.3586 -0.6137
 1064SOL    HW214829   2.784   3.924   6.906  2.6388 -1.9261  0.8877
 1065SOL     OW14830   0.703   2.172   4.713 -0.3927 -0.6095 -0.2924
 1065SOL    HW114831   0.758   2.224   4.654  1.8861 -1.9914  0.6267
 1065SOL    HW214832   0.662   2.236   4.771  3.0440  0.6159  0.7312
 1066SOL     OW14833   4.150   2.344   7.194 -0.6558 -0.2134 -0.0048
 1066SOL    HW114834   4.061   2.339   7.158 -0.2493 -0.4474 -0.9865
 1066SOL    HW214835   4.138   2.418   7.253 -0.8932  0.1138 -0.4597
 1067SOL     OW14836   1.733   2.074   8.033  0.1854  0.7055 -0.1032
 1067SOL    HW114837   1.776   2.158   8.018  0.7439  0.1307 -1.7463
 1067SOL    HW214838   1.669   2.105   8.096  0.3099  0.3246  0.2154
 1068SOL     OW14839   0.675   2.375   1.423  0.5703 -0.6099  0.2621
 1068SOL    HW114840   0.756   2.347   1.466  1.5401  0.3860 -0.9071
 1068SOL    HW214841   0.651   2.452   1.474  1.0696 -1.3249  1.5630
 1069SOL     OW14842   3.068   2.368  15.856 -0.2006  0.1010  0.4208
 1069SOL    HW114843   3.104   2.455  15.868  1.2335 -0.2962 -0.9525
 1069SOL    HW214844   3.005   2.362  15.928 -0.2990  0.0934  0.3344
 1070SOL     OW14845   4.477   1.399   5.641  0.1465  0.7157 -0.0079
 1070SOL    HW114846   4.390   1.399   5.601  0.5934  0.1358 -0.9656
 1070SOL    HW214847   4.478   1.493   5.659  0.8419  0.5716  0.7046
 1071SOL     OW14848   1.055   0.451   8.511 -0.2689  0.1584  0.2021
 1071SOL    HW114849   1.141   0.480   8.545  1.3089 -0.6003 -3.1762
 1071SOL    HW214850   1.008   0.522   8.555  1.2523  1.6622 -0.5974
 1072SOL     OW14851   0.460   3.695   8.052 -0.6377  0.3470  0.3867
 1072SOL    HW114852   0.537   3.722   8.103  0.4690 -0.3049 -0.9452
 1072SOL    HW214853   0.467   3.600   8.055  0.4773  0.4050 -0.5851
 1073SOL     OW14854   3.480   4.450   7.421 -0.0482  0.1154  0.2717
 1073SOL    HW114855   3.387   4.473   7.427 -0.7642 -2.4922 -0.7951
 1073SOL    HW214856   3.489   4.363   7.461 -1.5489  0.2025  0.7946
 1074SOL     OW14857   0.296   3.242   8.660 -0.0031  0.8378 -0.3125
 1074SOL    HW114858   0.274   3.335   8.655  1.0070  1.0656 -0.4102
 1074SOL    HW214859   0.384   3.242   8.697  0.4548  1.1231 -1.3970
 1075SOL     OW14860   2.511   0.626   6.139 -0.4451  0.3311  0.5585
 1075SOL    HW114861   2.589   0.673   6.171 -0.4694  1.1540 -0.5896
 1075SOL    HW214862   2.440   0.689   6.150  0.2722  1.1074  0.8115
 1076SOL     OW14863   3.034   1.171   6.131 -0.1545  0.3454  0.1003
 1076SOL    HW114864   3.088   1.097   6.105 -0.2584  0.5314 -0.6270
 1076SOL    HW214865   2.996   1.197   6.047 -1.1699 -3.8665 -0.7488
 1077SOL     OW14866   1.607   2.811  12.959 -0.2020 -0.3682 -0.1799
 1077SOL    HW114867   1.677   2.769  12.910  2.3291  2.1057  1.3611
 1077SOL    HW214868   1.612   2.898  12.921 -0.7875 -0.7602 -1.1467
 1078SOL     OW14869   1.650   1.507   6.766  0.6914  0.2136 -0.5287
 1078SOL    HW114870   1.568   1.458   6.778  0.5627  0.5983  0.1211
 1078SOL    HW214871   1.633   1.543   6.679  1.5496  2.4799  0.2692
 1079SOL     OW14872   1.447   3.732   1.399  0.0109  0.5961  0.2940
 1079SOL    HW114873   1.354   3.754   1.408 -0.6768 -2.3600  0.2256
 1079SOL    HW214874   1.446   3.648   1.353 -0.9650  1.1947 -0.7777
 1080SOL     OW14875   3.961   4.547   3.368 -0.4045  0.1636 -0.0179
 1080SOL    HW114876   3.916   4.609   3.309 -1.4420 -0.0314  0.5667
 1080SOL    HW214877   3.893   4.480   3.378 -0.7308  0.4514 -0.2840
 1081SOL     OW14878   0.041   4.493   3.239  0.7363  0.5797 -0.1470
 1081SOL    HW114879   4.703   4.434   3.240  1.2254 -0.0726 -1.3246
 1081SOL    HW214880   4.732   4.569   3.206 -1.1333  0.2789  1.8142
 1082SOL     OW14881   2.745   3.402   7.665  0.8080 -0.3487  0.3718
 1082SOL    HW114882   2.808   3.338   7.632 -0.4102 -1.2626 -0.1873
 1082SOL    HW214883   2.805   3.473   7.687 -1.3349  1.3024  0.8471
 1083SOL     OW14884   2.896   3.128   4.253  0.7860 -0.3306 -0.4483
 1083SOL    HW114885   2.813   3.173   4.268  1.7467  0.9446  1.0561
 1083SOL    HW214886   2.936   3.192   4.194  1.5558 -0.1228  0.3010
 1084SOL     OW14887   0.848   0.597   6.990 -0.4529 -0.5553  0.1411
 1084SOL    HW114888   0.755   0.575   6.996 -0.6989  0.5820  0.6344
 1084SOL    HW214889   0.861   0.678   6.940  0.5995 -0.9533 -0.2238
 1085SOL     OW14890   2.639   3.260   0.357 -0.2208  0.2945  0.1947
 1085SOL    HW114891   2.732   3.259   0.382 -0.7258  2.1540  2.1703
 1085SOL    HW214892   2.604   3.222   0.437 -0.6183 -0.1431 -0.1889
 1086SOL     OW14893   3.422   4.604   8.839  0.2827  0.0362  0.0169
 1086SOL    HW114894   3.442   4.512   8.821 -2.4113 -0.7753  1.0922
 1086SOL    HW214895   3.487   4.648   8.785 -0.5019  1.8073  0.4919
 1087SOL     OW14896   2.110   1.898  14.894  0.6087  0.5979  0.7694
 1087SOL    HW114897   2.015   1.895  14.905  0.5474 -1.0882 -0.3177
 1087SOL    HW214898   2.132   1.974  14.948  1.8526  0.2654  0.7217
 1088SOL     OW14899   3.296   4.601  17.475  0.1050 -0.1511 -0.0302
 1088SOL    HW114900   3.219   4.628  17.426  0.1558 -0.1779 -0.1240
 1088SOL    HW214901   3.323   4.687  17.506 -1.5243  0.6982 -1.0113
 1089SOL     OW14902   1.486   1.046   6.934  0.3176 -0.2661 -0.1746
 1089SOL    HW114903   1.407   1.012   6.976  0.8448 -0.8893  0.2947
 1089SOL    HW214904   1.556   1.013   6.990  0.1911  0.0395  0.1662
 1090SOL     OW14905   3.387   0.694   4.021  0.9162  0.2895  0.3386
 1090SOL    HW114906   3.299   0.658   4.014  1.1300 -0.5909  2.0427
 1090SOL    HW214907   3.432   0.617   3.986  0.7884  0.0571  0.6861
 1091SOL     OW14908   4.315   2.469   5.181  0.2541 -0.1590  0.5344
 1091SOL    HW114909   4.311   2.378   5.154  1.6694  0.6941 -2.5915
 1091SOL    HW214910   4.391   2.499   5.130 -0.5096 -1.9075 -1.5919
 1092SOL     OW14911   1.878   1.604   8.174 -0.1996  0.2121 -0.0576
 1092SOL    HW114912   1.906   1.695   8.163  1.9359 -0.2536  1.5632
 1092SOL    HW214913   1.856   1.578   8.085  0.1450 -2.9284  0.7827
 1093SOL     OW14914   0.013   1.765   8.002 -0.3115 -0.2046  0.2376
 1093SOL    HW114915   0.054   1.679   7.991 -0.0273 -0.0549  0.1290
 1093SOL    HW214916   4.685   1.767   7.933 -0.0408 -0.8630 -0.0405
 1094SOL     OW14917   0.873   0.385   3.087  0.1714  0.2795 -0.2190
 1094SOL    HW114918   0.898   0.427   3.005  0.6587 -1.2642 -0.8544
 1094SOL    HW214919   0.948   0.391   3.145  0.1918  1.7341 -0.3860
 1095SOL     OW14920   0.903   1.440   9.385 -0.4789 -0.6746 -0.6869
 1095SOL    HW114921   0.835   1.467   9.447 -0.3682 -0.5477 -0.6223
 1095SOL    HW214922   0.980   1.468   9.434 -2.1562  0.3427  1.4072
 1096SOL     OW14923   0.852   3.756  14.103 -0.3000  0.0655 -0.2371
 1096SOL    HW114924   0.941   3.789  14.112 -0.4670  0.5582 -0.4274
 1096SOL    HW214925   0.857   3.706  14.184  1.6551  1.1153  0.2735
 1097SOL     OW14926   0.618   2.055   0.003 -0.7096  0.0801 -0.4574
 1097SOL    HW114927   0.665   1.977  17.724  0.1780  0.3218  0.2786
 1097SOL    HW214928   0.527   2.025   0.008 -0.3443 -1.3938 -2.8256
 1098SOL     OW14929   2.272   1.328   2.434 -0.0208  0.1457  0.4346
 1098SOL    HW114930   2.228   1.391   2.377  1.3260 -1.1940 -2.0744
 1098SOL    HW214931   2.306   1.269   2.367  1.7726 -0.1143  1.5803
 1099SOL     OW14932   2.083   0.866   0.504 -0.3572 -0.0991 -0.0082
 1099SOL    HW114933   2.135   0.945   0.522 -2.4733  0.9623  1.4290
 1099SOL    HW214934   2.150   0.798   0.513 -0.1511  0.1640  0.4795
 1100SOL     OW14935   4.071   0.914  13.560  0.1530 -0.5179 -0.0702
 1100SOL    HW114936   4.121   0.885  13.636  1.6288 -0.9340 -1.1837
 1100SOL    HW214937   4.026   0.986  13.604  2.4411  1.2207 -0.5506
 1101SOL     OW14938   3.323   4.126   8.456 -0.4358  0.4472  0.2680
 1101SOL    HW114939   3.405   4.117   8.504 -0.5810  0.8136  0.5929
 1101SOL    HW214940   3.321   4.222   8.449 -1.3037  0.4667  0.7187
 1102SOL     OW14941   1.621   3.134  12.979 -0.9804  0.9598  0.2355
 1102SOL    HW114942   1.621   3.094  13.066 -2.2139  2.3848  0.8889
 1102SOL    HW214943   1.579   3.219  12.989 -1.0357  0.8785  0.7062
 1103SOL     OW14944   2.445   0.451   3.953 -0.6473 -0.5119 -0.2253
 1103SOL    HW114945   2.372   0.493   3.999  0.6627  0.6864  0.7554
 1103SOL    HW214946   2.453   0.373   4.007 -0.5678 -0.7276 -0.5455
 1104SOL     OW14947   0.924   0.944   3.501 -0.5698  0.0078 -0.3141
 1104SOL    HW114948   0.977   1.021   3.521 -0.8309  0.2325 -0.5063
 1104SOL    HW214949   0.837   0.976   3.523  0.4227  1.9985  0.7036
 1105SOL     OW14950   3.144   3.614   6.069  0.0884 -0.2877 -0.3412
 1105SOL    HW114951   3.175   3.704   6.079  1.7725 -0.9572  0.5954
 1105SOL    HW214952   3.071   3.608   6.008  0.6982  0.1523 -1.1003
 1106SOL     OW14953   4.333   1.373   9.679 -0.5740 -0.2528  0.3656
 1106SOL    HW114954   4.253   1.351   9.728 -0.7163 -1.0225 -0.2064
 1106SOL    HW214955   4.309   1.461   9.649 -0.5496  0.2397  1.8318
 1107SOL     OW14956   1.121   4.283   8.482  0.3679  0.2383  0.1213
 1107SOL    HW114957   1.122   4.303   8.575 -2.1946 -1.1743  0.4491
 1107SOL    HW214958   1.202   4.232   8.477  1.8689  2.4942  1.2077
 1108SOL     OW14959   2.341   3.967   0.402 -0.0564  0.0426 -1.0674
 1108SOL    HW114960   2.340   4.058   0.371 -1.5035  0.3237 -0.1964
 1108SOL    HW214961   2.359   3.982   0.495  0.3699 -0.6841 -1.0336
 1109SOL     OW14962   0.788   3.112   3.600  0.7389  0.1952  0.1838
 1109SOL    HW114963   0.724   3.045   3.623 -3.0282  3.1046 -1.8848
 1109SOL    HW214964   0.814   3.131   3.691 -3.2042 -2.0556  1.7926
 1110SOL     OW14965   2.440   1.756   8.749 -0.0140  0.1270  0.2648
 1110SOL    HW114966   2.463   1.829   8.691  0.4720  0.2229  0.5774
 1110SOL    HW214967   2.345   1.765   8.758 -0.3840 -0.9751 -2.6034
 1111SOL     OW14968   4.542   0.069   8.687 -0.2442 -0.1748  0.6212
 1111SOL    HW114969   4.595   0.087   8.765  0.1758 -0.5294  0.4174
 1111SOL    HW214970   4.541   0.145   8.629  2.3796 -0.7133 -0.0815
 1112SOL     OW14971   0.501   4.203   8.737 -0.2639  0.2464  0.0596
 1112SOL    HW114972   0.478   4.118   8.699  2.3874  0.5956 -2.3150
 1112SOL    HW214973   0.510   4.255   8.657 -1.8282 -1.5478 -1.2853
 1113SOL     OW14974   3.500   3.838   3.861  0.2021  0.2357 -0.1147
 1113SOL    HW114975   3.505   3.799   3.948  0.3877 -0.5355 -0.4706
 1113SOL    HW214976   3.438   3.786   3.809  1.3790 -0.7318 -0.5625
 1114SOL     OW14977   3.293   3.672   2.048  0.1823  0.0059  0.0242
 1114SOL    HW114978   3.268   3.648   2.137  3.3639 -0.7651  0.7063
 1114SOL    HW214979   3.383   3.641   2.055  1.0637  2.3441 -0.8815
 1115SOL     OW14980   3.245   2.285  10.738  0.4541  0.0590 -0.0073
 1115SOL    HW114981   3.226   2.305  10.646  2.7318  0.6002 -0.3580
 1115SOL    HW214982   3.327   2.330  10.756 -0.4494  1.4552  0.5804
 1116SOL     OW14983   0.023   1.472   5.345  0.1492  0.0014  0.2181
 1116SOL    HW114984   0.057   1.410   5.410  0.7151  0.6328  0.5345
 1116SOL    HW214985   0.102   1.524   5.331  1.0379 -1.8051 -1.4587
 1117SOL     OW14986   0.768   3.466   4.344 -0.2854 -0.7454  0.2191
 1117SOL    HW114987   0.860   3.437   4.345  0.6629  2.1915 -0.3310
 1117SOL    HW214988   0.729   3.399   4.400 -2.0860 -0.7807 -1.0867
 1118SOL     OW14989   1.989   2.752   3.277  0.6386 -0.0166 -0.3393
 1118SOL    HW114990   1.961   2.685   3.213  2.0431 -1.7557  0.8611
 1118SOL    HW214991   1.949   2.726   3.360 -0.1912 -1.2824 -1.1345
 1119SOL     OW14992   0.324   3.670   3.358 -0.5566  0.3148 -0.3084
 1119SOL    HW114993   0.272   3.728   3.303 -0.5573  1.9459  1.4229
 1119SOL    HW214994   0.327   3.724   3.436 -0.9187  0.1132 -0.1536
 1120SOL     OW14995   4.291   2.733   2.687  0.0332  0.5074  0.0276
 1120SOL    HW114996   4.249   2.763   2.607  0.1974 -2.3053 -1.1215
 1120SOL    HW214997   4.220   2.690   2.735  2.3509 -2.2341  1.0136
 1121SOL     OW14998   0.537   2.601   3.084 -0.3464 -0.2065 -0.9489
 1121SOL    HW114999   0.522   2.635   2.996 -0.7417  1.2021 -0.3368
 1121SOL    HW215000   0.594   2.531   3.053  0.7043  1.3446 -2.5133
 1122SOL     OW15001   0.126   1.758  16.960  0.7766 -0.0196  0.4454
 1122SOL    HW115002   0.205   1.811  16.968  0.0602  1.3408 -1.3441
 1122SOL    HW215003   0.101   1.775  16.869 -0.7803 -0.6601  0.7471
 1123SOL     OW15004   1.995   1.432   9.445 -0.3394  0.1473 -0.0102
 1123SOL    HW115005   1.941   1.354   9.427  0.4022 -0.1619 -0.8996
 1123SOL    HW215006   2.086   1.414   9.423 -0.6314  0.7053 -1.6733
 1124SOL     OW15007   4.272   1.661  11.381  0.2386  0.2946  0.4798
 1124SOL    HW115008   4.360   1.692  11.402 -0.1999  1.1617  1.0894
 1124SOL    HW215009   4.264   1.687  11.290 -0.7521  0.3668  0.5867
 1125SOL     OW15010   2.827   3.408  17.396  0.4184  0.2635  0.1325
 1125SOL    HW115011   2.875   3.329  17.371  0.7706 -0.1784  2.1943
 1125SOL    HW215012   2.895   3.474  17.384  0.2688  0.3055 -0.5057
 1126SOL     OW15013   3.393   0.995   1.032  0.2599 -0.3605  0.2103
 1126SOL    HW115014   3.297   0.990   1.028  0.3570 -1.5858 -0.5940
 1126SOL    HW215015   3.414   1.064   0.968 -0.2585  0.4903  0.9561
 1127SOL     OW15016   2.006   1.732   4.790 -0.3370  0.3463  0.0416
 1127SOL    HW115017   1.923   1.703   4.829  0.8338 -0.7306  1.6933
 1127SOL    HW215018   2.012   1.668   4.719 -1.6194 -0.3310  0.5299
 1128SOL     OW15019   4.228   3.321   3.829 -0.0565 -0.0362 -0.1744
 1128SOL    HW115020   4.263   3.410   3.819  1.7234 -0.8575 -1.1412
 1128SOL    HW215021   4.135   3.339   3.844  0.7451 -0.0243  4.6906
 1129SOL     OW15022   4.478   0.192   9.302 -0.0499 -0.0073  0.6443
 1129SOL    HW115023   4.529   0.111   9.300 -0.4851 -0.2736  0.5031
 1129SOL    HW215024   4.392   0.155   9.323 -1.7505  2.9703 -0.9939
 1130SOL     OW15025   1.374   1.225  17.418  0.1172  0.7573  0.3127
 1130SOL    HW115026   1.350   1.297  17.361  1.4463  0.2538 -0.9029
 1130SOL    HW215027   1.374   1.273  17.500 -1.1765  0.9900  0.1642
 1131SOL     OW15028   1.546   1.674  11.743 -0.4633  0.2033 -0.1237
 1131SOL    HW115029   1.458   1.658  11.774  0.2884 -1.5631  1.0833
 1131SOL    HW215030   1.529   1.690  11.650 -0.8557 -2.7703 -0.5687
 1132SOL     OW15031   0.662   0.730   7.479  0.2559  0.1962  0.5702
 1132SOL    HW115032   0.596   0.792   7.447  0.3222  0.0513  0.1574
 1132SOL    HW215033   0.661   0.666   7.408  0.0868 -0.6324  1.3233
 1133SOL     OW15034   2.002   2.938   2.402 -0.0171 -0.7756 -0.4148
 1133SOL    HW115035   2.089   2.900   2.385  0.3699 -0.8188  1.6141
 1133SOL    HW215036   2.020   3.028   2.376 -0.3125 -1.0408 -1.5359
 1134SOL     OW15037   2.832   3.872   4.646  0.4936 -0.2461 -0.3405
 1134SOL    HW115038   2.777   3.794   4.648 -0.1024  0.1536 -1.2810
 1134SOL    HW215039   2.850   3.877   4.552 -2.4998  0.6552 -0.8488
 1135SOL     OW15040   4.315   2.230   8.856 -0.0101 -0.0366 -0.0705
 1135SOL    HW115041   4.250   2.299   8.842 -0.0626  0.0527  0.6464
 1135SOL    HW215042   4.293   2.204   8.945 -2.3356  1.9617 -0.0747
 1136SOL     OW15043   2.646   0.251   3.025 -0.0677 -0.2232  0.4638
 1136SOL    HW115044   2.690   0.263   2.941 -0.6059  0.4176  0.2754
 1136SOL    HW215045   2.560   0.238   2.984  1.4244 -3.1694 -1.7562
 1137SOL     OW15046   1.776   4.538   2.528  0.3032  0.3379  0.5151
 1137SOL    HW115047   1.871   4.527   2.536  0.3150 -0.3006 -0.4610
 1137SOL    HW215048   1.754   4.457   2.483  1.8199  1.7552 -2.7517
 1138SOL     OW15049   4.425   2.310   7.447  0.0835  0.4866 -0.7211
 1138SOL    HW115050   4.464   2.241   7.500  0.8609 -0.1247 -2.0983
 1138SOL    HW215051   4.341   2.319   7.493  0.5546 -1.2982  0.4334
 1139SOL     OW15052   4.016   1.013  13.838 -0.0513  0.5415 -0.0230
 1139SOL    HW115053   3.932   0.978  13.866 -0.3578  1.0176 -0.3651
 1139SOL    HW215054   3.980   1.077  13.777  1.1511  0.4248 -0.8597
 1140SOL     OW15055   1.721   3.727  17.009  0.9468  0.1460 -0.3098
 1140SOL    HW115056   1.716   3.706  17.102  2.4753 -0.6905 -0.4139
 1140SOL    HW215057   1.670   3.653  16.976  0.5828  0.7450 -1.0970
 1141SOL     OW15058   2.667   1.911   5.793 -0.1081 -0.3250 -0.1879
 1141SOL    HW115059   2.571   1.918   5.787 -0.0510  0.2895 -0.3293
 1141SOL    HW215060   2.687   1.991   5.745  0.3188  0.6166  1.5698
 1142SOL     OW15061   2.920   3.240   7.555 -0.1265 -0.4072  0.5381
 1142SOL    HW115062   2.928   3.162   7.499  2.7539  0.7392 -0.6403
 1142SOL    HW215063   2.993   3.221   7.613 -2.6611 -3.3683  2.8218
 1143SOL     OW15064   3.141   0.075   7.156 -0.2066  0.2214  0.4045
 1143SOL    HW115065   3.054   0.090   7.117  0.5636  0.4243 -1.2194
 1143SOL    HW215066   3.194   0.146   7.119  2.2874 -1.7336  0.2571
 1144SOL     OW15067   2.190   0.300   6.667  0.3099  0.1592 -0.2070
 1144SOL    HW115068   2.129   0.366   6.700  1.0235  1.0275 -0.6311
 1144SOL    HW215069   2.203   0.251   6.748 -1.3440 -0.2643 -0.2102
 1145SOL     OW15070   0.505   1.465   4.656  0.6147  0.1038 -0.0245
 1145SOL    HW115071   0.498   1.560   4.667 -0.9688 -0.0090 -0.0115
 1145SOL    HW215072   0.453   1.454   4.577 -1.7896 -2.4190  1.8888
 1146SOL     OW15073   3.345   1.436  15.835  0.1449 -0.0550  0.3546
 1146SOL    HW115074   3.388   1.514  15.799 -0.5625  1.4060  2.7052
 1146SOL    HW215075   3.276   1.478  15.887  0.3611  1.7178 -0.7604
 1147SOL     OW15076   1.934   0.346  12.571  0.4889  0.4620 -0.1699
 1147SOL    HW115077   1.955   0.439  12.566  2.8735 -0.0821 -0.6757
 1147SOL    HW215078   1.852   0.342  12.523  0.1327 -0.0029  0.4840
 1148SOL     OW15079   3.397   0.237   6.137  0.5733  0.0447 -0.0529
 1148SOL    HW115080   3.431   0.325   6.149  0.0313  0.0643  1.3842
 1148SOL    HW215081   3.469   0.187   6.176  1.6106  0.3537 -1.5919
 1149SOL     OW15082   1.043   2.609  16.273  0.4794 -0.4552  0.1894
 1149SOL    HW115083   1.047   2.514  16.260  3.1224 -0.2346 -0.5733
 1149SOL    HW215084   1.070   2.640  16.186  0.1775 -0.2937  0.1541
 1150SOL     OW15085   2.838   2.653   9.289 -0.0339  0.4096  0.0859
 1150SOL    HW115086   2.773   2.636   9.356  1.8926  1.2584  2.1796
 1150SOL    HW215087   2.809   2.590   9.223 -0.6829  1.0779 -0.2632
 1151SOL     OW15088   3.931   0.996   6.710  0.3356  0.5093 -0.6575
 1151SOL    HW115089   3.892   0.966   6.792  1.2491 -1.5035 -0.9668
 1151SOL    HW215090   3.979   0.918   6.683 -1.7496 -0.9099 -0.2673
 1152SOL     OW15091   2.598   3.607   4.845 -0.0169  0.1576  0.9802
 1152SOL    HW115092   2.657   3.656   4.902  1.0248 -0.8121  0.7345
 1152SOL    HW215093   2.576   3.542   4.912  0.0998  0.9676  1.8124
 1153SOL     OW15094   4.177   1.326   2.426 -0.5975 -0.0886 -0.2615
 1153SOL    HW115095   4.242   1.357   2.489 -1.8918  0.8724  0.5830
 1153SOL    HW215096   4.192   1.232   2.430  1.4859  0.1917 -1.5745
 1154SOL     OW15097   0.398   2.645  12.960 -0.6320  0.8628 -0.0285
 1154SOL    HW115098   0.476   2.599  12.989 -1.3166 -1.7503 -2.3433
 1154SOL    HW215099   0.382   2.587  12.885  0.7387 -0.9611  1.1187
 1155SOL     OW15100   0.004   1.261   8.408 -0.3165  0.9930 -0.6486
 1155SOL    HW115101   0.074   1.225   8.462  0.3398  0.2066 -2.0209
 1155SOL    HW215102   4.678   1.297   8.468  1.9270 -0.3389  2.5155
 1156SOL     OW15103   2.459   1.591   0.471 -0.2651 -0.1583 -0.1972
 1156SOL    HW115104   2.451   1.680   0.503  0.3361  0.0173 -0.5313
 1156SOL    HW215105   2.552   1.583   0.449 -0.4836  0.3343 -1.3061
 1157SOL     OW15106   3.793   1.372  13.288  0.1180  0.5557  0.2294
 1157SOL    HW115107   3.822   1.401  13.374  0.3403 -1.5369  0.8700
 1157SOL    HW215108   3.853   1.429  13.240 -3.0248  2.3138 -1.5846
 1158SOL     OW15109   0.625   2.453   5.924 -0.2398 -0.0092 -0.2973
 1158SOL    HW115110   0.594   2.474   6.012 -1.6413 -0.6540 -0.6472
 1158SOL    HW215111   0.580   2.511   5.864 -0.5534 -1.3915 -1.3982
 1159SOL     OW15112   0.615   0.632   3.454  0.3290 -0.5871 -0.2978
 1159SOL    HW115113   0.627   0.663   3.544  2.9988 -0.0779 -0.8474
 1159SOL    HW215114   0.706   0.620   3.429 -0.2992  3.5071 -4.4987
 1160SOL     OW15115   0.566   4.365  14.151  0.2985 -0.5312 -0.0819
 1160SOL    HW115116   0.634   4.314  14.105  0.2549 -1.5946  1.0472
 1160SOL    HW215117   0.582   4.347  14.243  1.7459 -1.0085 -0.4228
 1161SOL     OW15118   3.118   3.912   5.713 -0.2819  0.3777 -0.0875
 1161SOL    HW115119   3.068   3.851   5.767  0.1745  1.4598  1.5568
 1161SOL    HW215120   3.056   3.985   5.715 -0.6143  0.0627  1.4639
 1162SOL     OW15121   0.973   0.212  11.366  0.0372  0.3457  0.0003
 1162SOL    HW115122   0.992   0.208  11.460  2.4393 -0.6504 -0.5216
 1162SOL    HW215123   1.058   0.249  11.342  0.0105  0.6828  0.4204
 1163SOL     OW15124   0.037   1.495   0.877 -0.4598  0.0215 -0.1830
 1163SOL    HW115125   0.120   1.453   0.853 -0.9168 -0.9842  0.0183
 1163SOL    HW215126   0.064   1.587   0.870 -0.3526 -0.0972 -1.3082
 1164SOL     OW15127   2.346   1.620   5.153  0.5792 -0.6223  0.6265
 1164SOL    HW115128   2.435   1.598   5.126  0.4369 -1.3891  0.7895
 1164SOL    HW215129   2.351   1.715   5.162 -1.2739 -0.4189 -0.5020
 1165SOL     OW15130   0.697   0.121   5.603 -0.0649  0.0877  0.0045
 1165SOL    HW115131   0.790   0.137   5.616 -0.7148  1.9970  2.3923
 1165SOL    HW215132   0.657   0.196   5.646  1.8706  1.5413 -0.7577
 1166SOL     OW15133   4.053   0.363   0.077 -0.2319 -0.2153 -0.5934
 1166SOL    HW115134   4.101   0.421   0.136  1.5811 -3.0874  0.7394
 1166SOL    HW215135   3.964   0.388   0.103 -0.2506 -0.3899 -0.4914
 1167SOL     OW15136   4.716   4.085   6.415 -0.0631 -0.0482 -0.0893
 1167SOL    HW115137   4.665   4.033   6.476 -0.7493  1.1214  0.3317
 1167SOL    HW215138   0.050   4.081   6.477  0.1332  1.1885 -0.2424
 1168SOL     OW15139   1.694   3.907   9.453  0.5568 -0.3107  0.3815
 1168SOL    HW115140   1.768   3.872   9.403  0.6655 -1.9632  1.6943
 1168SOL    HW215141   1.646   3.829   9.481  0.5967 -0.5922 -0.3485
 1169SOL     OW15142   3.560   1.065   2.149 -0.1108 -0.3176  0.3575
 1169SOL    HW115143   3.625   1.007   2.188  2.1482  0.6633 -1.9424
 1169SOL    HW215144   3.490   1.069   2.215  0.3291 -1.1161  0.8726
 1170SOL     OW15145   2.087   2.815   2.924  0.1631 -0.6070  0.1076
 1170SOL    HW115146   2.138   2.775   2.995 -1.1219  0.0320  1.4089
 1170SOL    HW215147   2.049   2.882   2.981 -0.2028 -2.0979  1.6427
 1171SOL     OW15148   2.963   3.334  12.282 -0.1222 -0.5689  0.6546
 1171SOL    HW115149   2.908   3.411  12.268  0.1900 -0.2378  1.2279
 1171SOL    HW215150   2.907   3.256  12.272 -0.2314 -0.7951  3.0309
 1172SOL     OW15151   4.372   4.355   9.116  0.0169 -0.1492 -0.0194
 1172SOL    HW115152   4.406   4.320   9.198 -0.2455 -1.7589 -0.5945
 1172SOL    HW215153   4.441   4.415   9.089  1.0969 -1.0454  0.7644
 1173SOL     OW15154   4.189   0.486   5.805 -0.0751 -0.0996  0.5439
 1173SOL    HW115155   4.219   0.577   5.804  0.4529 -0.2799 -0.2371
 1173SOL    HW215156   4.245   0.453   5.875  1.7246 -1.7170 -1.6474
 1174SOL     OW15157   1.588   4.444   3.694  0.1843 -0.4055 -0.1762
 1174SOL    HW115158   1.535   4.370   3.726  0.6398 -1.1082 -1.0327
 1174SOL    HW215159   1.566   4.433   3.602 -0.1737  1.1522 -0.2737
 1175SOL     OW15160   1.740   3.293   6.711  0.7578 -0.4200 -0.0551
 1175SOL    HW115161   1.651   3.261   6.726  0.6851 -0.2540 -0.1342
 1175SOL    HW215162   1.763   3.326   6.798  2.2778 -0.9573 -0.2469
 1176SOL     OW15163   2.515   0.854   3.517 -0.0557 -0.4465 -0.1389
 1176SOL    HW115164   2.545   0.940   3.486 -1.8944  1.1538  2.4852
 1176SOL    HW215165   2.572   0.796   3.468 -0.3189 -0.8090 -0.0160
 1177SOL     OW15166   1.627   3.632   6.774 -0.6194 -0.3288 -0.0307
 1177SOL    HW115167   1.649   3.551   6.820  0.2106  0.6950  1.3616
 1177SOL    HW215168   1.704   3.643   6.718 -0.6522  0.5352  0.0880
 1178SOL     OW15169   3.267   0.599  13.422  0.3539  0.0680  0.4060
 1178SOL    HW115170   3.263   0.526  13.360  0.6750  0.5520 -0.1931
 1178SOL    HW215171   3.238   0.666  13.359 -1.6914 -2.1970 -1.0663
 1179SOL     OW15172   1.349   3.395   8.544  0.0465 -0.2309  0.0606
 1179SOL    HW115173   1.427   3.401   8.600  1.6897 -0.6267 -2.1836
 1179SOL    HW215174   1.374   3.317   8.495 -0.9956  0.0462 -0.9088
 1180SOL     OW15175   4.424   4.588  15.159  0.1057 -0.1225  0.1628
 1180SOL    HW115176   4.413   4.528  15.086 -1.5881  1.4393 -0.8835
 1180SOL    HW215177   4.478   4.525  15.207  2.3151  2.0534  0.5284
 1181SOL     OW15178   0.349   1.856  15.830  0.6153  0.1569 -0.3488
 1181SOL    HW115179   0.345   1.899  15.915  1.7491  2.2631 -1.3481
 1181SOL    HW215180   0.433   1.812  15.825  1.1064  0.8274  2.0332
 1182SOL     OW15181   4.152   3.755   3.156 -0.2294 -0.3300  0.1367
 1182SOL    HW115182   4.111   3.730   3.073 -1.7528 -1.0117  1.1043
 1182SOL    HW215183   4.216   3.683   3.161  2.0070  1.6362  0.0067
 1183SOL     OW15184   3.544   1.859   4.238  0.1846  0.3208  0.0314
 1183SOL    HW115185   3.503   1.821   4.160  0.6557 -0.0965 -0.0109
 1183SOL    HW215186   3.505   1.812   4.311 -3.0352  0.7579 -1.4176
 1184SOL     OW15187   2.703   1.870   3.940  0.2289  0.7405 -0.3423
 1184SOL    HW115188   2.712   1.801   4.005 -1.8119 -1.0029 -1.9148
 1184SOL    HW215189   2.626   1.915   3.976 -0.9718 -1.0622 -0.6421
 1185SOL     OW15190   2.494   2.271  12.796  0.4784  0.4797  0.2890
 1185SOL    HW115191   2.552   2.346  12.805 -1.6732  2.4098 -2.0937
 1185SOL    HW215192   2.435   2.296  12.725  1.3255  1.4805 -0.0419
 1186SOL     OW15193   1.597   4.492  14.344  0.3862  0.0317 -0.0750
 1186SOL    HW115194   1.633   4.413  14.304 -0.1222 -0.9307  1.3479
 1186SOL    HW215195   1.525   4.501  14.282 -1.6167  1.1250  2.4058
 1187SOL     OW15196   2.546   4.662   2.362  0.0813  0.6847  0.0505
 1187SOL    HW115197   2.512   4.573   2.370 -1.7277  1.3904  0.2679
 1187SOL    HW215198   2.622   4.630   2.313 -1.1628 -0.9692 -0.7970
 1188SOL     OW15199   0.878   3.306   2.001  0.6425 -0.0172  0.0846
 1188SOL    HW115200   0.879   3.381   2.060  2.2726  0.3762 -0.4211
 1188SOL    HW215201   0.838   3.353   1.928  0.2484  1.3701  1.1981
 1189SOL     OW15202   4.263   1.539   8.538 -0.7214  0.2849 -0.2126
 1189SOL    HW115203   4.195   1.533   8.471  1.0968 -1.5852 -1.8816
 1189SOL    HW215204   4.287   1.630   8.518 -0.3887 -0.0296 -1.2487
 1190SOL     OW15205   4.110   0.319   2.956 -0.1985  0.0897  0.0719
 1190SOL    HW115206   4.092   0.310   2.863  2.6066 -1.5120 -0.3216
 1190SOL    HW215207   4.205   0.318   2.960 -0.2641  0.6412  1.6792
 1191SOL     OW15208   2.697   2.620   6.031  0.1685  0.2228 -0.0222
 1191SOL    HW115209   2.717   2.643   6.122  1.4351  0.2055 -0.2904
 1191SOL    HW215210   2.731   2.700   5.992 -2.0227  0.7220 -0.8731
 1192SOL     OW15211   3.964   0.754  13.358 -0.5519 -0.3908  0.4217
 1192SOL    HW115212   4.049   0.709  13.356 -1.0047 -1.2384  0.1693
 1192SOL    HW215213   3.978   0.807  13.436  1.0690  0.9610 -0.7741
 1193SOL     OW15214   2.186   4.098   3.283  0.1064  0.0042  0.3248
 1193SOL    HW115215   2.219   4.160   3.348 -1.7411 -1.1860  2.3774
 1193SOL    HW215216   2.251   4.028   3.286  1.7005  1.4929  0.4588
 1194SOL     OW15217   0.744   3.911   1.808 -0.1648  0.0988 -0.6207
 1194SOL    HW115218   0.817   3.921   1.746 -1.1688  0.8281 -1.6862
 1194SOL    HW215219   0.686   3.979   1.775 -2.3132 -1.2059  0.5180
 1195SOL     OW15220   1.802   0.197   8.024 -0.8466  0.4406  0.1112
 1195SOL    HW115221   1.878   0.206   7.966 -0.1025 -0.3928  0.9412
 1195SOL    HW215222   1.836   0.169   8.109 -0.6989 -0.5606 -0.2725
 1196SOL     OW15223   0.988   1.195   3.270  0.3499 -0.5185  0.0605
 1196SOL    HW115224   1.007   1.113   3.225  2.6478  0.4197 -0.6774
 1196SOL    HW215225   1.046   1.249   3.216  1.2324 -0.9367  0.5883
 1197SOL     OW15226   3.651   1.082   4.068  0.1309  0.4508  0.0011
 1197SOL    HW115227   3.687   1.105   4.154 -0.8506  0.9469  0.2782
 1197SOL    HW215228   3.558   1.072   4.088 -0.0795  0.4834 -0.9489
 1198SOL     OW15229   1.293   3.387   2.813 -0.3501  0.1125  0.2027
 1198SOL    HW115230   1.365   3.446   2.790 -1.0129  0.8954  0.1651
 1198SOL    HW215231   1.221   3.441   2.845 -0.7300 -2.2471  3.2584
 1199SOL     OW15232   0.591   1.699   2.604  0.3330 -0.1740 -0.0379
 1199SOL    HW115233   0.613   1.628   2.665  2.8592  0.6127 -0.0087
 1199SOL    HW215234   0.662   1.757   2.632  1.7446 -2.4106  1.0142
 1200SOL     OW15235   4.403   4.580   5.909 -0.7486  0.5707  0.1769
 1200SOL    HW115236   4.410   4.581   5.814  0.0692  2.1091  0.2682
 1200SOL    HW215237   4.415   4.486   5.927  2.0394  1.1508  1.3325
 1201SOL     OW15238   3.328   3.002  14.380 -0.2737 -0.0594  0.5180
 1201SOL    HW115239   3.405   2.991  14.324 -1.2818 -0.9746 -0.6754
 1201SOL    HW215240   3.263   3.053  14.332 -2.3091  1.3121  4.7169
 1202SOL     OW15241   2.546   0.522   6.735  0.9524 -0.2419 -0.5100
 1202SOL    HW115242   2.588   0.599   6.771 -0.8984  0.4831  0.0707
 1202SOL    HW215243   2.467   0.568   6.707 -0.0685 -1.0658  1.0205
 1203SOL     OW15244   4.539   3.946   1.731  0.1604  0.1598  0.1465
 1203SOL    HW115245   4.449   3.973   1.749  0.3488  0.1477  1.0958
 1203SOL    HW215246   4.588   4.027   1.746  0.5725 -0.3385  1.4489
 1204SOL     OW15247   0.777   4.262   6.309  0.4437  0.7093 -0.3416
 1204SOL    HW115248   0.867   4.239   6.282 -0.2792 -2.0448 -0.4454
 1204SOL    HW215249   0.788   4.205   6.385  2.0807  1.1651 -0.2264
 1205SOL     OW15250   4.147   2.910   7.990  0.0285 -0.0526  0.5125
 1205SOL    HW115251   4.113   2.949   8.071  2.9337  1.8499  0.8415
 1205SOL    HW215252   4.235   2.949   7.989  0.5227 -1.1867  0.2189
 1206SOL     OW15253   2.807   1.790   9.734 -0.3753 -0.3216  0.0281
 1206SOL    HW115254   2.791   1.874   9.778  1.5439 -0.1035  0.3183
 1206SOL    HW215255   2.789   1.819   9.645 -1.1401  0.7097  0.5040
 1207SOL     OW15256   2.033   1.097   0.201  0.2557 -0.4200  0.3674
 1207SOL    HW115257   2.006   1.135   0.118 -1.5234 -1.5375  0.4279
 1207SOL    HW215258   1.972   1.024   0.209 -1.4348  1.0431  1.0208
 1208SOL     OW15259   1.951   1.810   5.627 -0.5106  0.3412  0.2473
 1208SOL    HW115260   1.949   1.877   5.696  0.8552 -0.0723  0.7043
 1208SOL    HW215261   2.028   1.754   5.638  0.3707  1.6370  0.8293
 1209SOL     OW15262   1.532   0.431   8.425  0.0675 -0.3860  0.1411
 1209SOL    HW115263   1.617   0.469   8.405 -1.3205  1.5005 -2.1628
 1209SOL    HW215264   1.546   0.410   8.518 -0.2082 -1.6465 -0.1008
 1210SOL     OW15265   4.691   0.270  11.880  0.6256 -0.0456 -0.4686
 1210SOL    HW115266   4.696   0.180  11.913 -0.1802  0.8566  2.1559
 1210SOL    HW215267   0.012   0.313  11.941  0.7004 -1.4453  0.4705
 1211SOL     OW15268   0.486   0.962  14.362 -0.1343  0.1577 -0.1357
 1211SOL    HW115269   0.411   1.021  14.364 -0.1827  0.1662 -1.6326
 1211SOL    HW215270   0.546   1.012  14.306 -1.5223  0.7013 -1.1211
 1212SOL     OW15271   4.486   1.954   5.195 -0.3715  0.1848  0.1069
 1212SOL    HW115272   4.551   1.884   5.198 -0.1069  0.4319  0.2467
 1212SOL    HW215273   4.524   2.032   5.237  1.6860 -0.2655 -0.8931
 1213SOL     OW15274   3.194   1.947  15.220 -0.4479  0.3625  0.6473
 1213SOL    HW115275   3.138   1.971  15.146  0.7855 -0.1650 -0.4508
 1213SOL    HW215276   3.139   1.964  15.296 -1.2692  1.3478 -0.1594
 1214SOL     OW15277   1.969   0.502   4.791  0.0937 -0.0751 -0.2484
 1214SOL    HW115278   1.896   0.465   4.840 -1.0491  0.8754 -1.2174
 1214SOL    HW215279   1.927   0.537   4.713  1.3126  1.0920 -0.3950
 1215SOL     OW15280   4.571   0.095   6.153 -0.2729  0.3330  0.7064
 1215SOL    HW115281   4.476   0.083   6.164 -0.7343 -0.3093 -4.0474
 1215SOL    HW215282   4.595   0.066   6.241 -0.8806  1.5166  1.2590
 1216SOL     OW15283   1.558   3.631  16.293  0.0441  0.2663 -0.3168
 1216SOL    HW115284   1.580   3.680  16.372 -3.8328  2.0063 -0.2807
 1216SOL    HW215285   1.494   3.570  16.330 -0.4003  0.6395 -0.4702
 1217SOL     OW15286   3.287   1.912   5.272 -0.1131 -0.0414 -0.7581
 1217SOL    HW115287   3.323   1.927   5.360  2.3229  1.3033 -2.0242
 1217SOL    HW215288   3.360   1.858   5.243  0.9424  1.0018 -0.0174
 1218SOL     OW15289   2.779   2.094   2.305 -0.5823 -0.0065  0.2651
 1218SOL    HW115290   2.752   2.036   2.233  1.6775 -1.1506  0.3329
 1218SOL    HW215291   2.769   2.174   2.254 -2.9771  0.0816  0.8679
 1219SOL     OW15292   2.223   0.655   6.914  0.1841  0.0582  0.6694
 1219SOL    HW115293   2.291   0.608   6.962 -0.8422 -2.8246 -0.7075
 1219SOL    HW215294   2.200   0.727   6.974  0.0823  1.8751 -1.5506
 1220SOL     OW15295   2.239   0.407   9.461 -0.2960  0.4986  0.5170
 1220SOL    HW115296   2.298   0.456   9.404 -1.8538  0.3772 -1.1940
 1220SOL    HW215297   2.290   0.327   9.470 -1.7510 -0.6706 -1.4973
 1221SOL     OW15298   2.532   1.901   1.742  0.2447  0.1467 -1.0656
 1221SOL    HW115299   2.540   1.928   1.651  2.1081 -0.9070 -1.2136
 1221SOL    HW215300   2.575   1.980   1.777  0.6578 -1.2775  1.6877
 1222SOL     OW15301   1.776   2.082   3.292  0.0595 -0.4327  0.1418
 1222SOL    HW115302   1.704   2.097   3.353 -1.1430  0.3220 -1.4739
 1222SOL    HW215303   1.776   1.987   3.281  2.2024 -0.5274  0.8700
 1223SOL     OW15304   3.043   2.724   2.613  0.7711  0.1830 -0.4743
 1223SOL    HW115305   3.022   2.817   2.621  1.3361  0.0995  2.1227
 1223SOL    HW215306   3.011   2.710   2.524  0.6990 -1.7641 -0.1250
 1224SOL     OW15307   1.995   0.100   7.169  0.1978 -0.3477  0.1434
 1224SOL    HW115308   1.899   0.100   7.175  0.2254  1.6741  0.5904
 1224SOL    HW215309   2.022   0.008   7.175  0.1061 -0.4801 -1.4252
 1225SOL     OW15310   3.122   1.157   9.667 -0.7870 -0.3548  0.6551
 1225SOL    HW115311   3.193   1.135   9.727  0.9005  0.6887 -0.9806
 1225SOL    HW215312   3.180   1.198   9.603 -0.0599  0.1574  1.6535
 1226SOL     OW15313   2.567   4.661   6.146 -0.1361  0.0499 -0.0591
 1226SOL    HW115314   2.534   4.576   6.177 -0.9059  0.2901 -0.2042
 1226SOL    HW215315   2.655   4.629   6.127 -0.0163 -2.0954  4.2030
 1227SOL     OW15316   3.439   2.503   6.665  0.0421  0.2045 -0.6655
 1227SOL    HW115317   3.385   2.574   6.700  2.2012  1.7954 -0.5447
 1227SOL    HW215318   3.372   2.436   6.666  0.9777 -0.7390 -0.7567
 1228SOL     OW15319   4.255   3.882   7.605  0.4574 -0.1310  0.2767
 1228SOL    HW115320   4.177   3.827   7.612  0.4179  0.2560  2.6941
 1228SOL    HW215321   4.263   3.896   7.699  1.5165  1.7000 -0.0779
 1229SOL     OW15322   0.010   0.891   4.832 -0.4365 -0.5391 -0.3748
 1229SOL    HW115323   0.099   0.855   4.822  0.1654  0.8075  0.1579
 1229SOL    HW215324   4.727   0.878   4.925  0.3677  0.1513 -0.0929
 1230SOL     OW15325   4.691   2.041   4.632 -0.1030 -0.5375 -0.2079
 1230SOL    HW115326   4.599   2.056   4.611 -0.3640  0.7565  1.8114
 1230SOL    HW215327   4.681   1.954   4.672  0.2086 -0.9953 -1.1417
 1231SOL     OW15328   4.518   2.390  12.744 -0.3653 -0.1566  0.7054
 1231SOL    HW115329   4.493   2.306  12.783  0.3803 -0.0127  1.4820
 1231SOL    HW215330   4.537   2.444  12.820 -1.1982 -1.3762  1.7666
 1232SOL     OW15331   0.789   3.134  16.061  0.1878  0.0887 -0.1016
 1232SOL    HW115332   0.746   3.205  16.108  2.1492 -0.0097  1.8462
 1232SOL    HW215333   0.862   3.180  16.020  2.3624 -0.1457  3.5610
 1233SOL     OW15334   2.113   1.778   3.280 -0.5894  0.0732 -0.3920
 1233SOL    HW115335   2.207   1.793   3.290 -0.5896 -0.4548  0.3636
 1233SOL    HW215336   2.104   1.698   3.331 -1.8514  0.6147  0.2223
 1234SOL     OW15337   3.030   1.985   5.446 -0.1646  0.3394  0.1112
 1234SOL    HW115338   2.999   1.910   5.497  0.0968 -1.1482 -1.9218
 1234SOL    HW215339   3.083   1.947   5.376 -0.3677 -0.5287  0.4285
 1235SOL     OW15340   1.715   0.252   0.762 -0.0978 -0.7860 -0.4031
 1235SOL    HW115341   1.639   0.286   0.715  0.0401 -0.6403 -0.5171
 1235SOL    HW215342   1.727   0.167   0.719  2.9648 -0.8863  0.6456
 1236SOL     OW15343   3.204   0.768   2.462 -0.4470  0.0141  0.3169
 1236SOL    HW115344   3.160   0.684   2.472 -0.2521 -0.0182  0.9264
 1236SOL    HW215345   3.277   0.730   2.412 -0.6163  1.3190 -0.9201
 1237SOL     OW15346   3.398   1.589  11.932 -0.0564  1.1701 -0.4475
 1237SOL    HW115347   3.369   1.502  11.962  0.6319  1.0261 -0.2041
 1237SOL    HW215348   3.484   1.595  11.972  0.4234 -1.5529 -1.0752
 1238SOL     OW15349   2.341   1.265  12.697 -0.6573 -0.2786  0.4994
 1238SOL    HW115350   2.389   1.249  12.616 -1.3606  1.6471 -0.2785
 1238SOL    HW215351   2.270   1.324  12.672 -0.9978 -0.0470  1.9840
 1239SOL     OW15352   3.750   3.980   3.040 -0.1163  0.4365  0.8037
 1239SOL    HW115353   3.780   3.912   3.100 -0.6812 -1.2530 -0.8391
 1239SOL    HW215354   3.666   3.949   3.008  0.0089  1.0915 -0.1781
 1240SOL     OW15355   2.886   1.692   4.543 -0.1052 -0.5844  0.3447
 1240SOL    HW115356   2.879   1.607   4.499 -2.0193 -0.9870  1.4367
 1240SOL    HW215357   2.819   1.688   4.612  0.0268  0.6585  0.5307
 1241SOL     OW15358   4.277   2.169   8.344 -0.1376  0.1900 -0.1236
 1241SOL    HW115359   4.310   2.171   8.434  1.0616 -3.3568 -0.5154
 1241SOL    HW215360   4.353   2.189   8.289  0.7391 -0.4191  0.8733
 1242SOL     OW15361   1.506   3.136   8.653  0.0167 -0.0116 -0.0274
 1242SOL    HW115362   1.443   3.143   8.724 -0.9571  1.7758 -1.0755
 1242SOL    HW215363   1.571   3.201   8.679  2.8192 -2.8696  0.1748
 1243SOL     OW15364   0.763   0.762   6.107 -0.2344 -0.2557  0.1890
 1243SOL    HW115365   0.752   0.668   6.099 -1.3429 -0.3635  2.8092
 1243SOL    HW215366   0.719   0.784   6.189 -0.4369  2.0631 -0.5517
 1244SOL     OW15367   0.015   2.495   7.360  0.1495  0.2407  0.3877
 1244SOL    HW115368   0.038   2.573   7.310  1.2778 -0.5254 -0.2955
 1244SOL    HW215369   4.663   2.506   7.389 -0.7301 -1.8191 -1.5971
 1245SOL     OW15370   4.280   1.702   2.867 -0.2560  0.7674  0.3579
 1245SOL    HW115371   4.327   1.757   2.929  0.3454 -0.2359  0.7936
 1245SOL    HW215372   4.226   1.649   2.925 -0.7712  0.0645 -0.7414
 1246SOL     OW15373   4.344   0.846   5.551  0.6507 -0.0803 -0.3304
 1246SOL    HW115374   4.306   0.892   5.476  0.8713 -0.0959 -0.4533
 1246SOL    HW215375   4.425   0.819   5.508  0.2848  1.1344 -1.7685
 1247SOL     OW15376   2.695   2.905   3.826 -0.2832 -0.0176  0.0314
 1247SOL    HW115377   2.698   2.827   3.770 -0.7505 -1.0123  1.4072
 1247SOL    HW215378   2.685   2.972   3.758  2.4839 -0.5931 -0.9746
 1248SOL     OW15379   3.545   2.638   3.597  0.0925 -0.2143 -0.5638
 1248SOL    HW115380   3.628   2.658   3.555  0.5058 -3.1631 -1.1809
 1248SOL    HW215381   3.558   2.703   3.667 -0.0413 -1.1889  0.3785
 1249SOL     OW15382   2.504   2.722   4.896  0.0319 -0.2832  0.0214
 1249SOL    HW115383   2.588   2.698   4.859 -0.2506  0.0191 -0.8211
 1249SOL    HW215384   2.489   2.804   4.849 -0.4994  0.2273  1.0524
 1250SOL     OW15385   4.432   2.052   6.202 -0.1995 -0.4986  0.7480
 1250SOL    HW115386   4.417   2.070   6.109 -0.7120 -0.1622  0.8965
 1250SOL    HW215387   4.346   2.080   6.233 -1.2346 -2.7066 -0.1669
 1251SOL     OW15388   4.265   3.099   5.906 -0.0842  0.2282  0.0352
 1251SOL    HW115389   4.264   3.086   6.001 -0.0945  2.1290  0.2982
 1251SOL    HW215390   4.216   3.181   5.901 -1.0155 -0.2666  0.9482
 1252SOL     OW15391   4.028   2.212  16.779 -0.4269 -0.1869  0.4615
 1252SOL    HW115392   3.939   2.246  16.776 -0.6422 -0.9046 -1.7587
 1252SOL    HW215393   4.049   2.180  16.691  0.0504 -1.1442  0.9241
 1253SOL     OW15394   0.047   1.407   9.789 -0.1630 -0.2041  0.1732
 1253SOL    HW115395   4.696   1.439   9.796 -0.0161  0.0912  0.6861
 1253SOL    HW215396   0.091   1.487   9.760 -0.5099 -0.8803 -2.2520
 1254SOL     OW15397   2.075   1.340  11.407 -0.0724  0.3260 -0.2765
 1254SOL    HW115398   2.057   1.254  11.369  1.3186 -0.2513  0.3593
 1254SOL    HW215399   2.131   1.368  11.334 -2.2790  0.9052 -1.7782
 1255SOL     OW15400   1.054   4.610   8.067  0.0699 -0.9783  0.2415
 1255SOL    HW115401   1.139   4.647   8.090 -0.6896  0.6134  0.4883
 1255SOL    HW215402   0.992   4.650   8.128  2.0005  0.3249  1.3455
 1256SOL     OW15403   2.220   4.004  11.726  0.1692  0.2004  0.3812
 1256SOL    HW115404   2.129   3.973  11.727 -0.0055  0.6723 -0.8668
 1256SOL    HW215405   2.248   3.976  11.639 -1.9877  0.5069 -0.4152
 1257SOL     OW15406   1.211   1.757   6.104 -0.0115 -0.3183  0.2485
 1257SOL    HW115407   1.215   1.663   6.087  1.6592 -0.3743  0.8983
 1257SOL    HW215408   1.150   1.788   6.038  0.1270  0.6990  0.5936
 1258SOL     OW15409   1.593   4.482   1.846  0.2336  0.5348  0.1215
 1258SOL    HW115410   1.539   4.561   1.839 -0.9894 -0.2173  1.0718
 1258SOL    HW215411   1.640   4.493   1.764 -0.9937  0.5089 -0.5737
 1259SOL     OW15412   0.190   0.980  16.848  0.4181  0.5901 -0.3349
 1259SOL    HW115413   0.139   1.007  16.925 -0.6793  0.2206 -0.9460
 1259SOL    HW215414   0.129   0.935  16.791 -1.9791 -1.0710  3.5439
 1260SOL     OW15415   2.969   2.609   2.351  0.6413 -0.2319  0.2959
 1260SOL    HW115416   2.879   2.579   2.344  0.4242  0.3183  0.8220
 1260SOL    HW215417   3.010   2.538   2.401  2.0574 -0.5600 -1.2893
 1261SOL     OW15418   3.610   0.901  10.468  0.2499  0.3302  0.0409
 1261SOL    HW115419   3.610   0.853  10.551  0.2094 -1.7788 -1.1751
 1261SOL    HW215420   3.516   0.898  10.452  0.0100 -1.3442  1.7377
 1262SOL     OW15421   2.967   1.234   5.884 -1.0889 -0.0951 -0.3836
 1262SOL    HW115422   2.994   1.163   5.826  1.7091  1.2222 -0.6888
 1262SOL    HW215423   2.882   1.265   5.851 -1.1992  0.0087 -0.0005
 1263SOL     OW15424   2.791   4.145  12.133  0.1958  0.0954  0.1093
 1263SOL    HW115425   2.779   4.060  12.175 -0.4536  0.1528  0.0407
 1263SOL    HW215426   2.819   4.201  12.205  0.2894  1.1154 -0.7277
 1264SOL     OW15427   3.136   2.627   2.134 -0.3191 -0.1427 -0.8249
 1264SOL    HW115428   3.136   2.722   2.118  2.3365 -0.4035 -2.3503
 1264SOL    HW215429   3.084   2.615   2.213  0.4359 -0.1393 -0.3272
 1265SOL     OW15430   4.282   1.133   6.145  0.4313 -0.5809  0.8498
 1265SOL    HW115431   4.365   1.087   6.136  0.0191 -1.3543  1.0163
 1265SOL    HW215432   4.217   1.068   6.174 -2.4035  1.8252 -0.0531
 1266SOL     OW15433   1.720   3.149   4.069  0.1104 -0.2073  0.1727
 1266SOL    HW115434   1.710   3.145   4.164 -1.8863 -1.1133 -0.0931
 1266SOL    HW215435   1.812   3.174   4.063 -0.3120  1.5842  1.1216
 1267SOL     OW15436   2.000   1.211   2.217  0.0356 -0.2972  0.2025
 1267SOL    HW115437   2.087   1.247   2.199 -0.4552  0.7843  0.0608
 1267SOL    HW215438   1.985   1.146   2.148  0.3845 -2.0939  1.7887
 1268SOL     OW15439   3.067   2.290   2.130  0.2582  0.2768  0.5097
 1268SOL    HW115440   3.036   2.274   2.219 -0.0742 -4.0471 -0.3881
 1268SOL    HW215441   3.127   2.365   2.126  0.2057  0.2551 -0.6210
 1269SOL     OW15442   2.274   3.656   8.610 -0.1706 -0.0027 -0.2706
 1269SOL    HW115443   2.326   3.734   8.630 -1.5316  1.1496 -1.2912
 1269SOL    HW215444   2.199   3.697   8.567  0.0095 -1.3432 -1.8571
 1270SOL     OW15445   1.129   2.734   1.515  0.0599 -0.3346 -0.3667
 1270SOL    HW115446   1.117   2.804   1.579  0.4738 -0.0131 -0.6464
 1270SOL    HW215447   1.048   2.752   1.467 -0.7325  0.3448  1.2012
 1271SOL     OW15448   1.149   3.650  10.093 -0.0338  0.0546  0.0931
 1271SOL    HW115449   1.125   3.694  10.175  1.3777  2.1660 -0.6188
 1271SOL    HW215450   1.146   3.723  10.031 -3.9373  0.5297  0.8613
 1272SOL     OW15451   3.301   4.181   5.546 -0.3427 -0.1916  0.2294
 1272SOL    HW115452   3.230   4.136   5.500 -1.0136 -0.8485  1.9070
 1272SOL    HW215453   3.281   4.274   5.539 -0.0229 -0.2405 -1.3019
 1273SOL     OW15454   2.042   2.030   3.397 -0.0332  0.1373 -0.3258
 1273SOL    HW115455   1.968   2.023   3.338  0.8038  1.3330 -1.5188
 1273SOL    HW215456   2.086   1.950   3.367  0.0255  0.5606 -1.3530
 1274SOL     OW15457   4.514   0.998  12.079 -0.2133  0.1702  0.1465
 1274SOL    HW115458   4.421   0.977  12.084  0.0677 -1.1868 -0.3100
 1274SOL    HW215459   4.541   0.960  11.995 -1.5147 -0.2487 -0.0748
 1275SOL     OW15460   2.501   2.904   9.247 -0.7759 -0.0569  0.3212
 1275SOL    HW115461   2.491   2.965   9.174 -1.0147 -1.9140 -1.2023
 1275SOL    HW215462   2.454   2.829   9.212  0.4238 -0.8957  0.5105
 1276SOL     OW15463   1.169   2.855   2.931 -0.7207  0.0075 -0.1660
 1276SOL    HW115464   1.150   2.949   2.935  0.2730  0.2156 -0.3029
 1276SOL    HW215465   1.242   2.848   2.993 -0.5722 -0.0481 -0.3488
 1277SOL     OW15466   1.774   3.911   9.035 -0.1649  1.0016  0.0201
 1277SOL    HW115467   1.865   3.901   9.063 -0.1239  1.6993  0.1242
 1277SOL    HW215468   1.761   3.817   9.020  2.1016  0.6023  0.5173
 1278SOL     OW15469   2.153   3.953   6.068  0.5017  0.1563 -0.5465
 1278SOL    HW115470   2.061   3.976   6.053  0.0755  0.0671  1.8146
 1278SOL    HW215471   2.159   3.860   6.045 -2.3312 -0.1353 -0.1518
 1279SOL     OW15472   1.145   2.996   3.620  0.2179 -0.1286 -0.1215
 1279SOL    HW115473   1.056   2.962   3.613 -0.3803  1.6371 -1.1966
 1279SOL    HW215474   1.142   3.087   3.589 -1.8524 -0.7999 -1.8765
 1280SOL     OW15475   4.714   0.162   5.496  0.1625  0.6079 -0.3028
 1280SOL    HW115476   0.065   0.160   5.462  0.3257  0.4925  0.1436
 1280SOL    HW215477   4.693   0.078   5.536 -0.5169  0.3078 -1.2922
 1281SOL     OW15478   1.445   0.648  16.022  0.3717 -0.1187 -0.5619
 1281SOL    HW115479   1.444   0.736  16.060 -2.0785  0.8370 -2.8020
 1281SOL    HW215480   1.401   0.596  16.090  0.1807 -0.0906 -0.6632
 1282SOL     OW15481   1.337   1.490   5.281 -0.1943  0.3314  0.3218
 1282SOL    HW115482   1.287   1.568   5.305  0.3431  0.3650  1.3073
 1282SOL    HW215483   1.268   1.427   5.258 -0.5338  0.4514  1.0109
 1283SOL     OW15484   1.855   1.118  13.978  0.1270 -0.1415  0.2721
 1283SOL    HW115485   1.783   1.110  13.914 -0.9801  0.3778  1.4451
 1283SOL    HW215486   1.801   1.138  14.054  0.2421  0.9483  0.0788
 1284SOL     OW15487   1.919   3.488  17.718 -0.3037 -0.0758 -0.0963
 1284SOL    HW115488   1.960   3.539   0.036  0.7305 -0.8484 -0.1346
 1284SOL    HW215489   1.878   3.561  17.672  0.3704  1.1703  1.2813
 1285SOL     OW15490   1.654   0.946  14.155  0.8652  0.0469 -0.2428
 1285SOL    HW115491   1.739   0.904  14.168  2.2700  2.9530 -0.1245
 1285SOL    HW215492   1.646   0.940  14.060 -1.1190 -0.7631 -0.0325
 1286SOL     OW15493   0.463   4.197  10.451 -0.1984  0.0871 -0.5777
 1286SOL    HW115494   0.379   4.228  10.487 -0.0619 -0.4758  0.2289
 1286SOL    HW215495   0.475   4.264  10.383  0.3776 -0.2367 -0.7911
 1287SOL     OW15496   3.639   0.504   3.439  0.6193  0.2960  0.1419
 1287SOL    HW115497   3.734   0.501   3.430  0.4621 -3.1905 -0.3274
 1287SOL    HW215498   3.625   0.471   3.528  1.2205 -0.2106  0.0464
 1288SOL     OW15499   4.165   1.025   3.624 -0.7111 -0.5219 -0.5122
 1288SOL    HW115500   4.071   1.035   3.616 -0.5199  1.9569  0.4221
 1288SOL    HW215501   4.199   1.082   3.555 -1.2064  2.2103  1.5096
 1289SOL     OW15502   4.609   1.357  16.333 -0.1168  0.3478 -0.4300
 1289SOL    HW115503   4.639   1.448  16.332 -3.1278  1.3188 -1.4447
 1289SOL    HW215504   4.693   1.314  16.314  0.1780  0.7502 -0.0572
 1290SOL     OW15505   4.208   4.459  11.628  0.1856  0.5480  0.4940
 1290SOL    HW115506   4.129   4.500  11.663  0.0242 -1.0744  2.0295
 1290SOL    HW215507   4.240   4.521  11.562 -1.4257 -0.9231 -1.6676
 1291SOL     OW15508   4.499   3.111   5.765  0.2454  0.1475  0.2453
 1291SOL    HW115509   4.479   3.074   5.679 -1.8753  1.2356  0.2709
 1291SOL    HW215510   4.413   3.110   5.805  0.5565  0.3033  0.9172
 1292SOL     OW15511   2.503   4.124  13.148  0.1663 -0.0208  0.0433
 1292SOL    HW115512   2.560   4.172  13.208 -0.5626 -0.8774  1.4262
 1292SOL    HW215513   2.513   4.150  13.057 -0.2267 -0.5963 -0.1697
 1293SOL     OW15514   0.481   1.137   5.775 -0.4237  0.0339  0.0927
 1293SOL    HW115515   0.399   1.098   5.805 -0.8271 -0.8171 -2.1237
 1293SOL    HW215516   0.540   1.084   5.829 -0.4800  0.2523  0.3688
 1294SOL     OW15517   0.624   1.731   3.487 -0.3260  0.3049  0.0140
 1294SOL    HW115518   0.698   1.749   3.545 -1.1644  1.5086  0.6961
 1294SOL    HW215519   0.548   1.749   3.542 -0.9394  0.1663 -0.7873
 1295SOL     OW15520   0.140   2.822   8.932  0.2613 -0.3944 -0.3237
 1295SOL    HW115521   0.143   2.782   8.845  2.7449  0.2008 -0.5053
 1295SOL    HW215522   0.161   2.913   8.913 -1.2447 -0.3951 -2.0800
 1296SOL     OW15523   1.090   2.830  11.473  0.1581 -0.0377 -0.1837
 1296SOL    HW115524   1.147   2.882  11.416 -0.3965 -0.6098 -1.2683
 1296SOL    HW215525   1.121   2.863  11.557 -0.5284 -1.7624  0.7292
 1297SOL     OW15526   1.126   2.251   1.866  0.5573 -0.3422 -0.6357
 1297SOL    HW115527   1.204   2.216   1.909  0.1248 -0.8934 -0.2999
 1297SOL    HW215528   1.154   2.230   1.776 -0.8323 -1.3255 -0.8352
 1298SOL     OW15529   0.720   2.306  13.698 -0.4787  0.2953  0.3232
 1298SOL    HW115530   0.669   2.247  13.643  0.0042  3.3580 -3.4537
 1298SOL    HW215531   0.765   2.248  13.759  1.3118  0.4130 -0.8781
 1299SOL     OW15532   2.221   0.927   5.355  0.5941 -0.0858 -0.1021
 1299SOL    HW115533   2.181   0.963   5.435  1.0333 -0.1678  0.1575
 1299SOL    HW215534   2.197   0.993   5.291 -1.7789 -0.6748  0.2015
 1300SOL     OW15535   1.519   3.415  13.012 -1.1783 -0.1209  0.5109
 1300SOL    HW115536   1.444   3.465  13.042 -0.4373  0.5188  1.2917
 1300SOL    HW215537   1.529   3.438  12.919  0.3083 -0.9526  0.4590
 1301SOL     OW15538   2.367   2.451   4.582  0.2007  0.5141 -0.0808
 1301SOL    HW115539   2.286   2.409   4.552  1.3739  0.4209 -3.1982
 1301SOL    HW215540   2.435   2.407   4.531 -0.0470  1.0993 -0.9261
 1302SOL     OW15541   3.814   0.793   7.191 -0.4583  0.1766  0.0902
 1302SOL    HW115542   3.816   0.868   7.249 -1.1939 -0.0923  0.4504
 1302SOL    HW215543   3.741   0.740   7.222 -1.1754 -0.6335 -2.9812
 1303SOL     OW15544   2.544   3.996   5.189 -0.5138 -0.1358 -0.1140
 1303SOL    HW115545   2.498   4.031   5.113 -0.6689  1.1106  0.5473
 1303SOL    HW215546   2.627   3.968   5.150  0.6224  1.6075  1.0065
 1304SOL     OW15547   3.975   1.337   3.166 -0.2096 -0.1522  0.6418
 1304SOL    HW115548   3.961   1.416   3.217 -1.7488 -0.7382  1.1369
 1304SOL    HW215549   3.941   1.363   3.080  1.0024 -1.2123 -0.1700
 1305SOL     OW15550   0.684   2.896   7.706 -0.1440  0.1013  0.8188
 1305SOL    HW115551   0.702   2.984   7.672  2.4279 -0.4965  0.6154
 1305SOL    HW215552   0.766   2.888   7.754 -1.0038  1.4945  2.5448
 1306SOL     OW15553   2.668   0.560   1.274 -0.2472  0.1523 -0.3587
 1306SOL    HW115554   2.608   0.508   1.220 -0.2801  0.0429 -0.2154
 1306SOL    HW215555   2.636   0.557   1.364  1.3783  1.0651  0.2396
 1307SOL     OW15556   1.101   0.207  17.240 -0.1944  0.1833 -0.1536
 1307SOL    HW115557   1.123   0.295  17.271  2.7383 -0.5865  0.0121
 1307SOL    HW215558   1.006   0.214  17.251 -0.0362  1.4541  0.3873
 1308SOL     OW15559   2.170   0.674   1.156  0.5646 -0.2615  0.1510
 1308SOL    HW115560   2.157   0.768   1.168 -1.7368 -0.6604  0.8918
 1308SOL    HW215561   2.096   0.652   1.100  0.1715  0.5459  0.3570
 1309SOL     OW15562   3.615   0.539   1.428  0.2196 -0.0317  0.1235
 1309SOL    HW115563   3.628   0.632   1.410  2.1274 -0.3933 -0.4529
 1309SOL    HW215564   3.591   0.513   1.340  1.7128 -0.8387 -0.0420
 1310SOL     OW15565   3.481   4.288   4.821 -0.1916  0.3971  0.0745
 1310SOL    HW115566   3.492   4.367   4.767  3.0704  0.1169  0.3159
 1310SOL    HW215567   3.390   4.266   4.801 -1.1512 -1.1907  6.3840
 1311SOL     OW15568   2.767   3.228   8.928 -0.5419 -0.1399 -0.1300
 1311SOL    HW115569   2.790   3.168   9.000  1.0954 -0.6798 -1.1172
 1311SOL    HW215570   2.784   3.317   8.960 -2.6406 -0.3062  1.4504
 1312SOL     OW15571   2.308   1.047  12.925 -0.3061 -0.9634  0.1061
 1312SOL    HW115572   2.230   1.096  12.950 -1.4547 -2.7573  0.0018
 1312SOL    HW215573   2.361   1.114  12.882  1.0420 -1.3620  1.1335
 1313SOL     OW15574   2.043   3.998   7.158  0.4150  0.9105  0.2652
 1313SOL    HW115575   2.135   4.015   7.140  0.5956  1.3942  1.6674
 1313SOL    HW215576   2.051   3.955   7.243 -1.5929  0.3170  0.1636
 1314SOL     OW15577   0.611   0.967   8.721  0.2602  0.8423 -0.4011
 1314SOL    HW115578   0.632   1.060   8.727  2.4521  0.3476 -0.0775
 1314SOL    HW215579   0.541   0.953   8.658  1.8077  0.0328 -1.9592
 1315SOL     OW15580   0.606   2.706  10.049  0.4403 -0.2510  0.2425
 1315SOL    HW115581   0.607   2.769  10.121 -0.6307 -1.1702  1.0583
 1315SOL    HW215582   0.695   2.713  10.015 -0.3042  1.0246 -1.4561
 1316SOL     OW15583   0.210   1.297   7.340  0.0339 -0.0605 -0.5655
 1316SOL    HW115584   0.141   1.334   7.285 -1.5415  0.3396  1.6656
 1316SOL    HW215585   0.283   1.345   7.302  1.2824 -1.8681 -0.4579
 1317SOL     OW15586   4.498   4.341   7.456 -0.7920 -0.5744  0.0457
 1317SOL    HW115587   4.474   4.249   7.466  0.6671 -1.1189 -1.5823
 1317SOL    HW215588   4.536   4.362   7.541  1.8617 -1.7472 -0.8548
 1318SOL     OW15589   0.862   1.741   8.822  0.9232  0.2778  0.3662
 1318SOL    HW115590   0.958   1.743   8.829  1.0353 -1.6670 -0.7208
 1318SOL    HW215591   0.833   1.656   8.790 -1.5533  0.5864  1.7980
 1319SOL     OW15592   1.828   1.911   1.475  0.4476 -0.0994  0.2972
 1319SOL    HW115593   1.904   1.885   1.423  1.0898  1.7201  0.3401
 1319SOL    HW215594   1.799   1.825   1.506  0.9532 -0.5134 -0.3820
 1320SOL     OW15595   0.578   3.560  14.666  0.1156  0.2308 -0.9202
 1320SOL    HW115596   0.515   3.588  14.600  0.5877 -0.0101 -1.4724
 1320SOL    HW215597   0.575   3.469  14.635 -1.6108  0.0235 -0.1541
 1321SOL     OW15598   1.710   1.571  15.606 -0.2424  0.7542 -0.5554
 1321SOL    HW115599   1.789   1.559  15.554 -0.8974  1.1535 -1.6281
 1321SOL    HW215600   1.661   1.642  15.564 -1.3030 -0.1374 -0.8408
 1322SOL     OW15601   2.286   3.313  15.294 -0.3709 -0.3424 -0.6330
 1322SOL    HW115602   2.210   3.264  15.262 -1.8767  0.4282  1.8309
 1322SOL    HW215603   2.313   3.250  15.360  2.4690  1.5678  0.0402
 1323SOL     OW15604   1.731   1.308   7.065 -0.3502  0.1967  0.9339
 1323SOL    HW115605   1.744   1.216   7.039 -1.1079  0.4052 -0.1756
 1323SOL    HW215606   1.636   1.317   7.055 -0.1429  1.2871 -0.0793
 1324SOL     OW15607   2.227   4.009   8.453 -0.3430 -0.0983 -0.3120
 1324SOL    HW115608   2.166   4.054   8.394  0.5695  1.8499  0.2343
 1324SOL    HW215609   2.231   4.069   8.527  1.0665 -1.6971  0.9043
 1325SOL     OW15610   2.212   4.625   5.431  0.4292 -0.3758 -0.2399
 1325SOL    HW115611   2.178   4.658   5.514 -2.7535  0.4510 -1.8576
 1325SOL    HW215612   2.269   4.559   5.469 -0.3859 -1.2099 -0.4495
 1326SOL     OW15613   3.839   2.231  10.231 -0.0194 -0.1675 -0.3554
 1326SOL    HW115614   3.916   2.286  10.244  0.4024 -0.7530 -0.4222
 1326SOL    HW215615   3.770   2.293  10.257  0.5121 -0.5067  1.8424
 1327SOL     OW15616   1.497   4.717   8.351  0.4174  0.1998 -0.0499
 1327SOL    HW115617   1.550   4.637   8.353 -0.6794 -0.6273 -3.0532
 1327SOL    HW215618   1.445   4.714   8.431  0.2052 -1.6525 -0.2510
 1328SOL     OW15619   3.325   0.414   8.355  0.3750 -0.3655  0.8113
 1328SOL    HW115620   3.350   0.446   8.268 -1.8535 -0.5822  0.0667
 1328SOL    HW215621   3.400   0.361   8.381  0.5153 -0.4860  0.1638
 1329SOL     OW15622   1.486   1.410   1.831 -0.2937 -0.0114 -0.4665
 1329SOL    HW115623   1.468   1.437   1.741  1.3874 -1.8141 -1.3696
 1329SOL    HW215624   1.400   1.443   1.857  0.5863  0.6154  1.6062
 1330SOL     OW15625   3.748   0.775   2.953 -0.1480  0.5871 -0.1481
 1330SOL    HW115626   3.839   0.753   2.973 -1.2100 -2.4947  1.4278
 1330SOL    HW215627   3.744   0.735   2.866  3.5486  0.4870 -0.2763
 1331SOL     OW15628   3.566   0.383   2.186 -0.3881  0.2070  0.2466
 1331SOL    HW115629   3.655   0.410   2.208 -0.0044 -0.1811 -0.8556
 1331SOL    HW215630   3.562   0.420   2.098 -0.6565 -0.7141 -0.1273
 1332SOL     OW15631   4.445   2.956   3.680  0.1891  0.3614 -0.2994
 1332SOL    HW115632   4.437   3.010   3.759 -1.5515 -0.1997 -0.0998
 1332SOL    HW215633   4.525   2.992   3.642  0.6041 -1.6958 -1.4280
 1333SOL     OW15634   2.513   4.068   2.011  0.7064  0.2147  0.5159
 1333SOL    HW115635   2.454   4.129   1.966  1.1969 -0.9175 -1.6860
 1333SOL    HW215636   2.470   3.983   2.003  1.1704  0.0439 -0.1208
 1334SOL     OW15637   0.101   2.834  16.574 -0.1672  0.4807  0.3921
 1334SOL    HW115638   0.177   2.779  16.594  0.0240  0.3290 -0.7314
 1334SOL    HW215639   0.117   2.859  16.483 -2.0799 -2.2713 -0.7141
 1335SOL     OW15640   3.865   3.421   8.777 -0.4362  0.0091  0.0724
 1335SOL    HW115641   3.943   3.475   8.766  0.3135 -1.1393 -0.2718
 1335SOL    HW215642   3.801   3.476   8.734 -1.2873 -1.2791 -0.2995
 1336SOL     OW15643   3.785   4.688   5.220 -0.5418 -0.5969 -0.0968
 1336SOL    HW115644   3.797   4.620   5.154  1.1709  0.4555 -0.8846
 1336SOL    HW215645   3.842   0.018   5.185 -1.3343 -0.6195 -1.4256
 1337SOL     OW15646   2.409   1.623   2.508  0.1444  0.3213 -0.2857
 1337SOL    HW115647   2.409   1.686   2.436 -0.8560  1.6786  0.8917
 1337SOL    HW215648   2.351   1.554   2.474 -1.0398  0.5701  1.2325
 1338SOL     OW15649   3.131   3.546  10.373 -0.1493 -0.4197 -0.1793
 1338SOL    HW115650   3.162   3.634  10.352 -1.4024 -0.4308 -2.0400
 1338SOL    HW215651   3.038   3.561  10.390 -0.0226  0.2485 -0.0765
 1339SOL     OW15652   4.254   0.029  17.257 -0.2652 -0.2078  0.7447
 1339SOL    HW115653   4.274   0.123  17.252 -1.2311 -0.0614 -0.2269
 1339SOL    HW215654   4.255   0.022  17.352 -0.7549 -1.0841  0.6832
 1340SOL     OW15655   2.626   3.003  12.076 -0.3957 -0.0645  0.4739
 1340SOL    HW115656   2.540   2.977  12.044  0.5117 -0.6309 -1.4786
 1340SOL    HW215657   2.683   2.927  12.066 -0.7894 -0.3093  0.1228
 1341SOL     OW15658   0.761   4.292   4.670 -0.2615  0.2552  0.1308
 1341SOL    HW115659   0.670   4.319   4.680 -0.7115 -0.6730 -1.6207
 1341SOL    HW215660   0.758   4.245   4.587  1.7889 -0.1277  0.2651
 1342SOL     OW15661   1.645   1.314  16.833  0.6531 -0.2509 -0.0560
 1342SOL    HW115662   1.683   1.388  16.785 -0.0211 -0.3644 -0.7777
 1342SOL    HW215663   1.630   1.248  16.765 -0.5457  2.6225 -2.6299
 1343SOL     OW15664   0.480   3.011   8.141 -0.0689  0.0665 -0.3177
 1343SOL    HW115665   0.440   2.995   8.056  0.4208 -0.7846 -0.3886
 1343SOL    HW215666   0.432   2.941   8.186 -0.4187  0.6105  0.1639
 1344SOL     OW15667   2.759   0.868   3.710  0.2717  0.1132  0.5957
 1344SOL    HW115668   2.849   0.849   3.683  0.2420 -1.1593  1.4223
 1344SOL    HW215669   2.710   0.799   3.666 -1.0077  1.3738  0.0142
 1345SOL     OW15670   3.771   0.233   8.271 -0.5392  0.0784  0.2864
 1345SOL    HW115671   3.817   0.173   8.212  0.3377  0.0122  1.0531
 1345SOL    HW215672   3.775   0.192   8.357 -0.8807 -1.7368 -0.5490
 1346SOL     OW15673   0.721   4.510  15.171 -0.0790  0.1035 -0.2831
 1346SOL    HW115674   0.747   4.599  15.196 -2.0740  0.9000 -1.0622
 1346SOL    HW215675   0.652   4.496  15.235  0.4903 -1.2462  0.0266
 1347SOL     OW15676   4.146   2.445   1.090 -0.5016 -0.2591 -0.2457
 1347SOL    HW115677   4.233   2.434   1.054 -0.3279  0.7156 -0.1230
 1347SOL    HW215678   4.143   2.540   1.101  1.0199 -0.5599  2.7987
 1348SOL     OW15679   0.044   1.662   5.904 -0.3749 -1.5233  0.0237
 1348SOL    HW115680   4.705   1.676   5.959 -0.6254 -0.7782 -0.5265
 1348SOL    HW215681   0.050   1.738   5.846  1.0953 -1.9116 -0.3153
 1349SOL     OW15682   3.304   1.231  15.581 -0.1262  0.1501  0.4191
 1349SOL    HW115683   3.209   1.222  15.570 -0.0559  0.1315 -0.2137
 1349SOL    HW215684   3.330   1.157  15.636  0.9950 -0.0819 -0.4306
 1350SOL     OW15685   0.241   0.184   8.377  1.0630 -0.6300  0.3718
 1350SOL    HW115686   0.301   0.205   8.305 -0.3243  1.2887 -0.2289
 1350SOL    HW215687   0.203   0.102   8.345 -0.0099 -0.3069  0.7975
 1351SOL     OW15688   0.288   4.026   1.660  0.3864  0.2949 -0.1859
 1351SOL    HW115689   0.204   3.994   1.629  0.8050 -2.1688  1.2209
 1351SOL    HW215690   0.256   4.083   1.731 -1.1769 -0.5754 -0.1946
 1352SOL     OW15691   4.074   0.078  11.577 -0.4858 -0.4900  0.2143
 1352SOL    HW115692   4.027   0.120  11.649  4.1691  3.7046  0.8103
 1352SOL    HW215693   4.135   0.038  11.639  0.3655 -0.8142 -0.8328
 1353SOL     OW15694   1.356   4.606  17.401 -0.3492  0.1451 -0.1065
 1353SOL    HW115695   1.303   4.648  17.468 -0.4786 -1.5847  0.8817
 1353SOL    HW215696   1.350   4.666  17.327  1.8659  1.0599  0.4701
 1354SOL     OW15697   4.415   0.142   2.181  0.3502  0.0668 -0.5594
 1354SOL    HW115698   4.378   0.167   2.266  1.2998  1.7594 -0.6360
 1354SOL    HW215699   4.341   0.151   2.121 -0.5814  1.9919  0.8549
 1355SOL     OW15700   4.627   1.537   8.832  0.3427 -0.1044  0.3955
 1355SOL    HW115701   4.555   1.578   8.881  1.7562 -0.2007  2.5305
 1355SOL    HW215702   4.646   1.466   8.893 -0.7335  0.6000  1.5595
 1356SOL     OW15703   3.611   2.372  10.274 -0.5414  0.3992 -0.4761
 1356SOL    HW115704   3.543   2.395  10.338 -1.7875 -1.8077 -1.0405
 1356SOL    HW215705   3.544   2.341  10.213  0.0252 -2.1942  0.2323
 1357SOL     OW15706   1.126   3.729   4.208 -0.2940  0.7916 -0.1280
 1357SOL    HW115707   1.106   3.718   4.301  0.9517  1.6566  0.2341
 1357SOL    HW215708   1.181   3.655   4.181  3.2241  3.1319  0.6442
 1358SOL     OW15709   2.756   3.030   4.880  0.1055  0.0198  0.2712
 1358SOL    HW115710   2.783   2.942   4.905  0.6209  0.9963  3.1694
 1358SOL    HW215711   2.841   3.074   4.876 -1.0760  2.2333 -0.2754
 1359SOL     OW15712   4.031   0.716   4.985  0.0721  0.0458 -0.5710
 1359SOL    HW115713   3.988   0.705   4.900 -1.4088 -0.3164  0.2180
 1359SOL    HW215714   4.098   0.780   4.963  1.0032 -0.1818  1.6919
 1360SOL     OW15715   3.520   2.146   7.645  0.4407  0.1079 -0.4802
 1360SOL    HW115716   3.574   2.217   7.611 -1.8696  2.0963  0.0369
 1360SOL    HW215717   3.437   2.183   7.674  0.2024  0.6028 -1.8161
 1361SOL     OW15718   2.924   4.551   4.656 -0.0114 -0.2804 -0.6976
 1361SOL    HW115719   2.929   4.646   4.661  0.7475 -0.2794 -1.4642
 1361SOL    HW215720   2.834   4.524   4.638 -0.4419 -1.3935  2.9839
 1362SOL     OW15721   1.522   4.384   8.977 -0.3633 -0.2286  0.2240
 1362SOL    HW115722   1.441   4.338   8.954 -0.7032 -0.2362  1.4398
 1362SOL    HW215723   1.503   4.419   9.064  3.6168  0.5769  0.7548
 1363SOL     OW15724   3.500   1.624   9.322 -0.0526 -0.0567  0.0227
 1363SOL    HW115725   3.438   1.598   9.391 -0.4092  0.3799 -0.1327
 1363SOL    HW215726   3.509   1.544   9.271  0.6532  1.5512 -2.3669
 1364SOL     OW15727   2.779   0.782   2.620 -0.9616 -0.5249 -0.1862
 1364SOL    HW115728   2.754   0.788   2.528  2.4496  0.8338 -1.0112
 1364SOL    HW215729   2.748   0.866   2.653  1.8887 -0.2423  1.7315
 1365SOL     OW15730   3.250   2.512   7.644 -0.1066  0.4855  0.0029
 1365SOL    HW115731   3.258   2.586   7.703  3.2246  0.6405 -0.6486
 1365SOL    HW215732   3.155   2.518   7.643  0.0658  2.6298 -2.0618
 1366SOL     OW15733   4.238   1.979   8.592 -0.3206 -0.2985 -0.1010
 1366SOL    HW115734   4.169   1.950   8.651 -0.6341 -0.3386 -0.4818
 1366SOL    HW215735   4.210   2.067   8.565 -0.6827 -0.1938  0.6208
 1367SOL     OW15736   4.007   1.811   9.357 -0.7850  0.0118 -0.1080
 1367SOL    HW115737   3.911   1.810   9.352 -0.8017  1.6985 -0.3374
 1367SOL    HW215738   4.011   1.731   9.409  0.7595  0.6666  0.7653
 1368SOL     OW15739   1.305   2.852   1.893 -0.3124 -0.2914 -0.1168
 1368SOL    HW115740   1.276   2.868   1.983 -2.5311  0.2252 -0.9280
 1368SOL    HW215741   1.254   2.772   1.880 -1.7110  0.6317 -0.3061
 1369SOL     OW15742   2.549   0.673   5.634 -0.1199  0.5404  0.8675
 1369SOL    HW115743   2.486   0.685   5.705  0.7650 -2.3813  2.1636
 1369SOL    HW215744   2.488   0.695   5.564  2.4115 -1.6638 -2.0257
 1370SOL     OW15745   0.979   3.443   9.006 -0.4609  0.0329  0.5476
 1370SOL    HW115746   1.018   3.372   9.058 -2.0228 -0.5507  0.9016
 1370SOL    HW215747   0.898   3.396   8.986 -0.6614  0.7769 -0.3453
 1371SOL     OW15748   2.021   0.619   0.746  0.5349 -0.1355 -0.0238
 1371SOL    HW115749   1.933   0.605   0.712  0.7625  2.0917 -1.5420
 1371SOL    HW215750   2.061   0.650   0.665  0.5775 -0.2741 -0.0569
 1372SOL     OW15751   1.233   4.599  14.700  0.2243  0.7035 -0.7576
 1372SOL    HW115752   1.264   4.689  14.697 -0.9930  1.0961 -1.4835
 1372SOL    HW215753   1.138   4.606  14.705  0.1974 -0.5149  0.4297
 1373SOL     OW15754   0.018   4.516   0.709  0.0672 -0.0816  0.2822
 1373SOL    HW115755   4.691   4.504   0.778  0.1087  1.5423  0.5994
 1373SOL    HW215756   4.699   4.531   0.634 -1.6716  0.3979  1.7281
 1374SOL     OW15757   2.937   1.388   9.316 -1.0383  0.4122  0.1310
 1374SOL    HW115758   3.002   1.338   9.268 -1.3821 -0.2846  0.3943
 1374SOL    HW215759   2.909   1.325   9.383 -2.8868  1.8478  0.7130
 1375SOL     OW15760   3.728   4.233  17.587  0.3119  0.1235  0.0498
 1375SOL    HW115761   3.736   4.241  17.682 -0.2928 -1.1721  0.2079
 1375SOL    HW215762   3.743   4.139  17.573  0.9570  0.0399  1.3816
 1376SOL     OW15763   3.266   2.100   4.557 -0.5075 -0.1799  0.0067
 1376SOL    HW115764   3.356   2.119   4.530 -0.4228 -0.9952 -0.2690
 1376SOL    HW215765   3.286   2.059   4.641  0.8429 -0.7152 -0.5719
 1377SOL     OW15766   1.769   4.338  10.323  0.0582  0.0047 -0.5875
 1377SOL    HW115767   1.721   4.421  10.329 -3.0415 -1.7669 -0.7008
 1377SOL    HW215768   1.800   4.336  10.413 -3.3381  0.4112  0.5953
 1378SOL     OW15769   4.277   1.242   8.073 -0.8716  0.2736  0.1980
 1378SOL    HW115770   4.303   1.153   8.047  0.5582  0.4269  1.1460
 1378SOL    HW215771   4.342   1.267   8.138  1.3363 -1.6519 -1.2862
 1379SOL     OW15772   3.018   1.597   6.341 -0.3368  0.1694 -0.3177
 1379SOL    HW115773   3.073   1.539   6.288  0.3994  1.0977 -0.5683
 1379SOL    HW215774   3.028   1.542   6.419  2.8000  1.1772 -0.0297
 1380SOL     OW15775   1.154   3.086   8.363 -0.3289 -0.0266 -0.0983
 1380SOL    HW115776   1.136   3.067   8.271 -0.4140 -2.4749  0.4129
 1380SOL    HW215777   1.243   3.121   8.364 -0.1424 -0.4937 -0.4991
 1381SOL     OW15778   2.100   0.840   3.581 -0.3035  0.4299 -0.1281
 1381SOL    HW115779   2.175   0.856   3.639  0.0265  0.1485 -0.4801
 1381SOL    HW215780   2.071   0.753   3.605  2.4307 -0.4522 -0.0657
 1382SOL     OW15781   3.977   2.525   7.038  0.2461  0.3298 -0.6577
 1382SOL    HW115782   3.900   2.468   7.038  0.9251 -0.5720  1.4760
 1382SOL    HW215783   4.029   2.500   6.961 -0.1533 -1.5953 -0.2908
 1383SOL     OW15784   3.862   2.975   3.498  0.3209 -0.5475 -0.3124
 1383SOL    HW115785   3.947   3.015   3.483  0.9125 -1.5118  0.4960
 1383SOL    HW215786   3.813   3.041   3.449  0.2182 -1.0012 -0.8278
 1384SOL     OW15787   1.017   3.613   5.216  0.4273  0.5644  0.3893
 1384SOL    HW115788   0.992   3.569   5.297  0.3145 -0.2618 -0.0959
 1384SOL    HW215789   1.076   3.682   5.247  1.1442  1.5384 -3.0631
 1385SOL     OW15790   2.188   4.474  16.319 -0.0703 -0.0652 -0.3427
 1385SOL    HW115791   2.216   4.395  16.272  2.6385  1.6912 -1.6510
 1385SOL    HW215792   2.208   4.535  16.247 -0.2704  0.5991  0.1672
 1386SOL     OW15793   0.013   3.831  10.770  0.0199  0.0986  0.5499
 1386SOL    HW115794   0.007   3.738  10.748 -2.6983  0.5045 -0.3924
 1386SOL    HW215795   0.093   3.862  10.728 -1.0796 -0.6975 -2.1723
 1387SOL     OW15796   2.045   2.248   4.746 -0.0062 -0.0754  0.4871
 1387SOL    HW115797   2.040   2.266   4.840  1.1759  2.2850  0.1014
 1387SOL    HW215798   2.018   2.158   4.730  1.7478 -0.9132  2.2710
 1388SOL     OW15799   3.492   4.213  12.947  0.5387 -1.0149 -0.0578
 1388SOL    HW115800   3.561   4.250  13.002 -0.5991 -1.2491  1.5021
 1388SOL    HW215801   3.465   4.285  12.891 -0.6144 -2.3373 -1.2125
 1389SOL     OW15802   0.056   3.406   7.773 -0.0433 -0.4273  0.3850
 1389SOL    HW115803   0.083   3.496   7.795  0.1519 -0.0854 -1.2151
 1389SOL    HW215804   0.109   3.379   7.698 -0.2399  1.4264 -0.4461
 1390SOL     OW15805   0.183   2.246   4.541 -0.5596 -0.2869  0.0659
 1390SOL    HW115806   0.090   2.223   4.552 -0.6133  1.3428  2.9860
 1390SOL    HW215807   0.176   2.277   4.451 -1.3841 -1.0403 -0.1341
 1391SOL     OW15808   1.668   2.644   2.356  0.4714 -0.2666  0.1895
 1391SOL    HW115809   1.635   2.677   2.272  1.2158  1.7245  0.6830
 1391SOL    HW215810   1.599   2.661   2.420 -1.9089  0.0645 -2.4482
 1392SOL     OW15811   2.440   3.051   9.001  0.3364 -0.0687 -0.3686
 1392SOL    HW115812   2.442   2.987   8.930 -1.6406 -1.4945  0.8967
 1392SOL    HW215813   2.371   3.111   8.972  0.3457  0.9200  1.6408
 1393SOL     OW15814   3.004   3.405   7.912 -0.5445 -0.5289 -0.0729
 1393SOL    HW115815   3.097   3.427   7.904 -0.3464 -1.1248  0.5036
 1393SOL    HW215816   2.959   3.463   7.973  0.9076  0.4413  0.0848
 1394SOL     OW15817   4.274   4.072   6.445  0.2863  0.0920 -0.1824
 1394SOL    HW115818   4.301   4.134   6.513  2.2518 -1.2849  0.2971
 1394SOL    HW215819   4.230   4.008   6.501  1.6536 -1.4766 -0.8966
 1395SOL     OW15820   3.386   4.099   8.020 -0.3677  0.0078 -0.6151
 1395SOL    HW115821   3.459   4.045   8.048 -0.1529  1.3928  1.4959
 1395SOL    HW215822   3.423   4.105   7.932  0.7303 -1.0313 -0.2191
 1396SOL     OW15823   1.844   0.987   3.238 -0.4254  0.0389  0.3646
 1396SOL    HW115824   1.881   0.905   3.271 -0.4687  0.0911  0.5471
 1396SOL    HW215825   1.760   0.949   3.213 -0.0144  0.9083 -2.2753
 1397SOL     OW15826   2.525   3.674  10.242 -0.3398 -0.0582  0.0912
 1397SOL    HW115827   2.509   3.634  10.327 -1.0544 -1.7747 -0.8663
 1397SOL    HW215828   2.443   3.715  10.216  0.8358  1.2171 -1.6429
 1398SOL     OW15829   2.254   2.433  11.696  0.4400  0.9955 -0.1681
 1398SOL    HW115830   2.207   2.425  11.779 -1.6231  1.0174 -1.3252
 1398SOL    HW215831   2.268   2.345  11.661 -0.8050  1.1453 -1.0535
 1399SOL     OW15832   2.348   2.568  17.338 -0.2592  0.5180  0.3263
 1399SOL    HW115833   2.435   2.533  17.360  0.2105  1.3546 -0.2103
 1399SOL    HW215834   2.303   2.594  17.418  0.8336 -0.6679  1.3316
 1400SOL     OW15835   1.009   4.397   3.830  0.4634  0.5249 -0.3006
 1400SOL    HW115836   1.085   4.357   3.790  1.7884  0.9861  1.7637
 1400SOL    HW215837   1.048   4.481   3.855  0.2865  0.3186  0.6787
 1401SOL     OW15838   1.102   4.696   6.367  0.8676  0.1523  0.3203
 1401SOL    HW115839   1.050   4.634   6.420 -2.4245  2.0405 -0.7125
 1401SOL    HW215840   1.085   4.651   6.284 -0.4829 -1.1752  1.2947
 1402SOL     OW15841   0.222   3.869   3.134  0.1251  0.2799  0.2487
 1402SOL    HW115842   0.243   3.872   3.041  2.1997 -2.2997  0.6384
 1402SOL    HW215843   0.290   3.927   3.168 -1.2626  2.7647 -1.2085
 1403SOL     OW15844   4.706   2.977   5.443  0.1379  0.0725 -0.1793
 1403SOL    HW115845   4.653   3.053   5.465  0.7181  1.0279 -2.0028
 1403SOL    HW215846   4.674   2.962   5.354 -2.7166  0.3192  0.8324
 1404SOL     OW15847   4.469   1.761   7.224 -0.6126  0.2872 -0.1900
 1404SOL    HW115848   4.482   1.697   7.154 -0.0535 -1.4080  1.4805
 1404SOL    HW215849   4.402   1.719   7.277  0.4357  0.6456  1.4133
 1405SOL     OW15850   0.477   0.921   1.508 -0.0651 -0.6803  0.3729
 1405SOL    HW115851   0.570   0.940   1.519  0.0528 -1.7534  1.3527
 1405SOL    HW215852   0.467   0.863   1.584  0.8959 -0.6947  0.4910
 1406SOL     OW15853   0.741   4.687   9.358  0.0838  0.1956 -0.0035
 1406SOL    HW115854   0.752   4.681   9.263  1.9643  1.5813  0.1193
 1406SOL    HW215855   0.731   4.595   9.379 -1.1090 -0.0340 -1.5628
 1407SOL     OW15856   1.867   1.644   9.516 -0.2108  0.1681 -0.3231
 1407SOL    HW115857   1.911   1.561   9.500  1.2532  1.0221 -0.7165
 1407SOL    HW215858   1.941   1.703   9.504 -0.4352  0.1256 -1.9583
 1408SOL     OW15859   2.032   1.956   3.091 -0.5247 -0.1219 -0.0116
 1408SOL    HW115860   2.070   1.876   3.127  3.9610  1.8829 -0.3327
 1408SOL    HW215861   2.003   1.934   3.002 -0.9832  0.1496  0.0692
 1409SOL     OW15862   3.062   1.710  13.580  1.0755 -0.1292 -0.3881
 1409SOL    HW115863   3.078   1.769  13.507 -2.5116 -0.8533 -1.7383
 1409SOL    HW215864   3.068   1.780  13.646 -2.9605  1.9214 -2.2524
 1410SOL     OW15865   4.612   4.588   9.548  0.1373  0.8682  0.2406
 1410SOL    HW115866   4.621   4.629   9.461  1.5101  0.8734  0.3799
 1410SOL    HW215867   4.620   4.670   9.597 -1.4905  1.3503 -0.2900
 1411SOL     OW15868   3.013   1.844   9.237  0.1092  0.0917 -0.4851
 1411SOL    HW115869   3.105   1.820   9.232 -0.1908 -1.1201 -0.3732
 1411SOL    HW215870   2.985   1.772   9.294  0.8497  0.4934  0.3901
 1412SOL     OW15871   3.381   2.796   8.613  0.0476  0.2854 -0.1433
 1412SOL    HW115872   3.357   2.865   8.675  3.0358  0.8456  0.4110
 1412SOL    HW215873   3.360   2.721   8.667  0.9988  0.5749  0.6196
 1413SOL     OW15874   4.102   1.942   7.971 -0.2791  0.2129  0.1828
 1413SOL    HW115875   4.012   1.914   7.958 -0.7425  1.0794  1.5289
 1413SOL    HW215876   4.097   2.032   7.938  2.8372  1.0215  1.8511
 1414SOL     OW15877   0.982   3.491   9.656 -0.1814 -0.2131 -0.2094
 1414SOL    HW115878   0.924   3.566   9.651  0.0463  0.0422  1.0809
 1414SOL    HW215879   1.014   3.484   9.566 -0.1269 -0.5423 -0.1656
 1415SOL     OW15880   4.240   4.225   9.426 -0.7865  0.1209  0.0510
 1415SOL    HW115881   4.334   4.211   9.422 -0.6416  1.2744 -0.4847
 1415SOL    HW215882   4.227   4.289   9.496 -2.4432  0.7393 -0.8242
 1416SOL     OW15883   1.773   3.617  17.259 -0.1775 -0.2413  0.0699
 1416SOL    HW115884   1.751   3.542  17.315  0.0726 -0.5743 -0.2824
 1416SOL    HW215885   1.853   3.650  17.302 -0.4603 -0.8455  1.0624
 1417SOL     OW15886   3.865   4.660   8.668  0.2409 -0.5853 -0.1808
 1417SOL    HW115887   3.915   4.676   8.748 -2.0559 -0.6266  1.2669
 1417SOL    HW215888   3.894   4.728   8.608 -0.9042  1.0029  1.0409
 1418SOL     OW15889   4.239   0.674  15.182 -0.0890  0.0584  0.0367
 1418SOL    HW115890   4.154   0.635  15.204 -0.8755  1.5495 -0.3577
 1418SOL    HW215891   4.293   0.598  15.203  1.5422  0.7890 -1.5614
 1419SOL     OW15892   1.477   3.808   9.708  0.3967  0.1128  0.5200
 1419SOL    HW115893   1.415   3.736   9.713 -0.3512  0.7982  1.1535
 1419SOL    HW215894   1.549   3.764   9.663 -1.3635 -2.2691  0.0258
 1420SOL     OW15895   4.554   0.221   3.284  0.7075 -0.5757 -0.1666
 1420SOL    HW115896   4.595   0.253   3.365 -2.5286 -3.5602  2.6338
 1420SOL    HW215897   4.472   0.187   3.318 -0.2715  1.0792 -0.8351
 1421SOL     OW15898   0.975   4.337  17.528  0.1482  0.1238 -0.2059
 1421SOL    HW115899   1.061   4.366  17.499 -0.0655  0.4499 -0.5139
 1421SOL    HW215900   0.923   4.381  17.460  1.5514  0.9207 -0.7535
 1422SOL     OW15901   2.496   3.217   9.425  0.0082  0.3969 -1.1041
 1422SOL    HW115902   2.561   3.157   9.459  0.2964  0.7673 -1.0089
 1422SOL    HW215903   2.517   3.243   9.335  2.8618  1.4589 -0.1284
 1423SOL     OW15904   1.509   4.132   6.038  0.0282  0.1321 -0.0869
 1423SOL    HW115905   1.479   4.206   5.986 -1.3654 -1.6475 -1.8290
 1423SOL    HW215906   1.488   4.165   6.125  1.5076  2.4885 -0.6326
 1424SOL     OW15907   2.072   3.645   8.218  0.4941  1.0215  0.0114
 1424SOL    HW115908   2.127   3.723   8.212  1.4763  0.0760 -3.1698
 1424SOL    HW215909   1.982   3.671   8.197  1.5177  2.1965 -2.8684
 1425SOL     OW15910   2.214   2.306   7.442  0.2611 -0.1001  0.1955
 1425SOL    HW115911   2.266   2.326   7.520  1.0185 -0.5541 -0.1956
 1425SOL    HW215912   2.134   2.270   7.482  0.0178  0.9301  0.6244
 1426SOL     OW15913   3.742   1.743   9.317 -0.1537  0.4040 -0.0348
 1426SOL    HW115914   3.736   1.836   9.300  0.6593  0.5886  0.6678
 1426SOL    HW215915   3.654   1.707   9.307  0.0910  0.6240 -2.8727
 1427SOL     OW15916   2.797   0.737   5.721 -0.1953 -0.3523 -0.2109
 1427SOL    HW115917   2.835   0.759   5.636  1.4582 -0.0218  0.6220
 1427SOL    HW215918   2.706   0.717   5.699 -0.1786 -0.7274  0.0687
 1428SOL     OW15919   1.465   3.709   8.315  0.0360 -0.4913  0.0270
 1428SOL    HW115920   1.425   3.795   8.299  0.9004  0.2030  1.5550
 1428SOL    HW215921   1.414   3.665   8.382 -1.1324  0.8945  0.0547
 1429SOL     OW15922   2.480   1.966  16.656  0.9191 -0.5204 -0.2502
 1429SOL    HW115923   2.391   1.999  16.645  1.3653  0.5925 -0.5380
 1429SOL    HW215924   2.521   2.011  16.582 -1.7638  2.6583  0.1946
 1430SOL     OW15925   2.327   1.788   9.610 -0.5362  0.7109 -0.0633
 1430SOL    HW115926   2.399   1.850   9.596  1.0875 -1.2224 -0.2255
 1430SOL    HW215927   2.337   1.788   9.705  0.6187 -0.8619 -0.1820
 1431SOL     OW15928   4.736   3.021   1.063 -0.3724  0.6303  1.0758
 1431SOL    HW115929   4.704   2.950   1.119 -2.2613  2.5906  2.4682
 1431SOL    HW215930   0.051   3.056   1.134  1.5711 -0.1701  0.0076
 1432SOL     OW15931   4.105   1.661   7.743  0.1110  0.7316 -0.1343
 1432SOL    HW115932   4.044   1.643   7.814 -2.0029  3.6873 -1.1812
 1432SOL    HW215933   4.187   1.638   7.786 -1.3862 -0.7181  1.8712
 1433SOL     OW15934   4.477   3.845  10.622  0.2135  0.2611 -0.0728
 1433SOL    HW115935   4.431   3.770  10.584 -1.6558  0.9667  0.7467
 1433SOL    HW215936   4.524   3.805  10.695 -0.0306 -1.4956 -0.8743
 1434SOL     OW15937   1.975   3.361  13.326  0.2249  0.0901 -0.7889
 1434SOL    HW115938   1.892   3.372  13.279 -0.6175 -0.9144  0.4638
 1434SOL    HW215939   1.970   3.398  13.415  0.0219 -1.3932 -0.1777
 1435SOL     OW15940   2.252   1.943   7.026 -0.1546  0.5261  0.0572
 1435SOL    HW115941   2.341   1.914   7.048  0.0572 -0.2418 -1.7666
 1435SOL    HW215942   2.237   2.007   7.095  1.0143  1.5058 -0.5981
 1436SOL     OW15943   2.880   4.519   9.100  0.2808 -0.0311 -0.2032
 1436SOL    HW115944   2.903   4.439   9.148  1.7935  0.8838  0.5974
 1436SOL    HW215945   2.951   4.581   9.116  1.4843 -1.4267 -0.1915
 1437SOL     OW15946   0.319   2.192   6.757 -0.1947 -0.7066 -0.0576
 1437SOL    HW115947   0.388   2.165   6.818 -0.1635  0.7882  0.5793
 1437SOL    HW215948   0.237   2.175   6.804 -1.5112 -1.3106 -2.5654
 1438SOL     OW15949   0.578   1.228   8.866 -0.0865  0.0063 -0.1670
 1438SOL    HW115950   0.490   1.196   8.844 -0.6913  1.4517  0.1571
 1438SOL    HW215951   0.569   1.320   8.888 -0.1514 -0.1698  0.5292
 1439SOL     OW15952   4.241   3.499   3.134  0.0369 -0.2535  0.5514
 1439SOL    HW115953   4.188   3.454   3.200 -0.9545 -1.2024 -0.8726
 1439SOL    HW215954   4.270   3.427   3.078 -0.0035 -0.4305  0.7573
 1440SOL     OW15955   3.818   0.595  14.989 -0.0222  0.1749 -0.0206
 1440SOL    HW115956   3.870   0.537  14.933 -1.1499 -0.1174 -0.7511
 1440SOL    HW215957   3.728   0.572  14.970  0.0292 -0.9144  1.0495
 1441SOL     OW15958   3.020   3.140   2.325  0.1678  0.3184 -0.1661
 1441SOL    HW115959   3.075   3.217   2.312  0.4687  0.2094  0.4611
 1441SOL    HW215960   2.943   3.189   2.354  0.1508  1.3525 -1.9526
 1442SOL     OW15961   0.153   0.422   6.781  0.0191 -0.2786 -0.4095
 1442SOL    HW115962   0.230   0.414   6.837  0.5129 -0.7449 -1.1686
 1442SOL    HW215963   0.119   0.334   6.792 -2.0127  0.6276  0.7044
 1443SOL     OW15964   3.180   0.290   5.165 -0.6228  0.4704 -0.6705
 1443SOL    HW115965   3.129   0.270   5.087  0.6364 -0.8367 -1.1578
 1443SOL    HW215966   3.245   0.219   5.167  0.2870  1.3064 -0.9367
 1444SOL     OW15967   0.455   1.756   4.199  0.0800 -0.0843 -0.1832
 1444SOL    HW115968   0.421   1.719   4.118  1.2717  0.0642 -0.7466
 1444SOL    HW215969   0.393   1.828   4.206 -2.0525 -2.1729  2.4973
 1445SOL     OW15970   2.811   3.886   0.128 -0.5414  0.1586  0.1939
 1445SOL    HW115971   2.857   3.805   0.107  0.7369  0.9339  0.0232
 1445SOL    HW215972   2.858   3.949   0.073  1.1940 -1.0853  0.2678
 1446SOL     OW15973   0.299   2.155   6.489 -0.1922  0.0890 -0.0746
 1446SOL    HW115974   0.286   2.159   6.584  0.7667 -0.2652  0.0768
 1446SOL    HW215975   0.371   2.093   6.480 -2.0203 -2.5110  2.9462
 1447SOL     OW15976   2.196   3.229  13.457 -0.4469 -0.0329 -0.0598
 1447SOL    HW115977   2.152   3.299  13.410  2.4290 -0.4219 -3.3239
 1447SOL    HW215978   2.158   3.227  13.545  2.3974 -0.1212  1.1826
 1448SOL     OW15979   3.974   3.245  10.823  0.7950  0.3130 -0.6864
 1448SOL    HW115980   4.006   3.333  10.841 -0.4623  0.3289  1.5730
 1448SOL    HW215981   3.941   3.242  10.733  2.0573  1.5034 -1.1861
 1449SOL     OW15982   1.194   4.404  17.388 -0.0453  0.8227 -0.4057
 1449SOL    HW115983   1.254   4.330  17.390  0.1785  0.9900 -0.9820
 1449SOL    HW215984   1.256   4.475  17.405 -0.9660  1.5998 -0.2674
 1450SOL     OW15985   3.452   1.401   7.981  0.0101 -0.0054  0.1528
 1450SOL    HW115986   3.538   1.444   7.980  0.1967 -0.3643  0.8810
 1450SOL    HW215987   3.397   1.427   8.054 -0.2060 -0.3105  0.1016
 1451SOL     OW15988   0.621   2.281   6.321  0.2805  0.5290  0.1629
 1451SOL    HW115989   0.640   2.321   6.406  1.8014  4.5601 -2.0725
 1451SOL    HW215990   0.705   2.236   6.311 -0.2669 -0.5146  0.2093
 1452SOL     OW15991   3.496   1.662   3.645 -0.1248  0.3728 -0.5662
 1452SOL    HW115992   3.495   1.627   3.556  3.1879 -2.1300  0.3647
 1452SOL    HW215993   3.575   1.716   3.643  0.7003 -0.7649  1.4014
 1453SOL     OW15994   2.221   0.828   7.478  0.4035 -0.2290 -0.0497
 1453SOL    HW115995   2.209   0.917   7.510 -0.9632 -0.2648 -0.4835
 1453SOL    HW215996   2.147   0.786   7.522 -1.1058  0.8746 -1.5646
 1454SOL     OW15997   1.797   1.386   4.541 -0.0916 -0.0020  0.0040
 1454SOL    HW115998   1.815   1.302   4.498  1.0930 -0.3419  1.1667
 1454SOL    HW215999   1.711   1.400   4.501  0.0898  1.9711  0.3221
 1455SOL     OW16000   0.398   4.602   6.229 -0.2227  0.6688  0.1165
 1455SOL    HW116001   0.453   4.558   6.293 -1.8107 -0.4398  0.7327
 1455SOL    HW216002   0.392   4.540   6.156 -0.5010  0.2635  0.4847
 1456SOL     OW16003   3.791   2.302   7.103 -0.3679  0.5842 -0.8073
 1456SOL    HW116004   3.744   2.244   7.043  1.0004 -1.5793  0.2201
 1456SOL    HW216005   3.733   2.379   7.107  0.8602  1.5188 -0.9566
 1457SOL     OW16006   3.298   0.069   3.513 -0.0112  0.5089  0.0630
 1457SOL    HW116007   3.302   0.160   3.483  0.0987  0.1959 -0.8784
 1457SOL    HW216008   3.358   0.029   3.450 -0.8106  0.2092 -0.5103
 1458SOL     OW16009   2.421   2.881   7.772 -0.7058 -0.0961  0.8766
 1458SOL    HW116010   2.333   2.846   7.789 -0.3442 -1.7265 -0.5505
 1458SOL    HW216011   2.403   2.959   7.719 -2.1422 -0.9208  0.1473
 1459SOL     OW16012   3.950   2.732  10.706 -0.4458  0.0680 -0.1835
 1459SOL    HW116013   3.886   2.677  10.750  0.1876 -1.1056 -0.7352
 1459SOL    HW216014   3.975   2.670  10.637 -1.4615 -0.2534 -0.2543
 1460SOL     OW16015   3.784   0.905  16.222 -0.2614  0.2118 -0.1191
 1460SOL    HW116016   3.754   0.988  16.259 -0.4499  0.0144  0.1674
 1460SOL    HW216017   3.803   0.939  16.134 -1.6578  1.2782 -0.0047
 1461SOL     OW16018   4.060   1.583   4.286 -0.0226  0.4631  0.4477
 1461SOL    HW116019   4.036   1.613   4.374 -2.3289  3.7011 -1.2693
 1461SOL    HW216020   3.982   1.605   4.235 -0.1244 -0.8050  0.0400
 1462SOL     OW16021   1.377   0.729   6.785 -0.3164 -0.1515  0.1558
 1462SOL    HW116022   1.345   0.640   6.770 -0.5336 -0.2070  0.9420
 1462SOL    HW216023   1.295   0.777   6.779 -1.2369 -1.6642  0.4760
 1463SOL     OW16024   2.999   2.339  16.382 -0.2047 -0.9725 -0.9062
 1463SOL    HW116025   3.026   2.247  16.386  1.4874 -0.4398 -0.1445
 1463SOL    HW216026   2.957   2.336  16.296 -0.2900 -1.0908 -0.8612
 1464SOL     OW16027   4.205   3.034   2.998  0.0343  0.5541 -0.7342
 1464SOL    HW116028   4.148   3.108   3.015 -0.3461  0.7898 -3.0372
 1464SOL    HW216029   4.140   2.975   2.960 -1.7398  0.7422  2.0116
 1465SOL     OW16030   2.971   1.738   5.510 -0.3863 -0.3089 -0.0975
 1465SOL    HW116031   2.925   1.687   5.575  0.3450  2.4381  2.5681
 1465SOL    HW216032   3.006   1.668   5.455  0.4301  2.5314 -3.2118
 1466SOL     OW16033   2.184   1.803   2.343 -0.3213 -0.2331  0.2921
 1466SOL    HW116034   2.207   1.850   2.263  1.1227  1.4951  1.7492
 1466SOL    HW216035   2.143   1.876   2.389 -1.5145 -0.1155 -0.9549
 1467SOL     OW16036   2.735   1.863   7.210 -0.0197 -0.1216 -0.2303
 1467SOL    HW116037   2.732   1.958   7.219 -2.3772  0.0413 -2.6129
 1467SOL    HW216038   2.801   1.843   7.276 -0.1354  1.3192  0.3199
 1468SOL     OW16039   1.334   1.054   3.765  0.2798  0.0837  0.6184
 1468SOL    HW116040   1.415   1.078   3.809  0.0867  1.7257  0.0549
 1468SOL    HW216041   1.377   1.023   3.685  1.1122  1.1475  0.6612
 1469SOL     OW16042   3.758   2.738   1.804 -0.5137 -0.0170  0.2409
 1469SOL    HW116043   3.737   2.791   1.727 -1.7973  0.3770  0.8507
 1469SOL    HW216044   3.823   2.794   1.847 -1.3624  1.6845 -0.6650
 1470SOL     OW16045   1.623   3.029   7.731  1.0914  0.5152  0.2948
 1470SOL    HW116046   1.607   2.936   7.717 -2.1974  0.8478  1.8263
 1470SOL    HW216047   1.658   3.050   7.644  0.8215 -0.2280  0.0113
 1471SOL     OW16048   3.763   4.276   3.608 -0.6276 -0.2915  0.0094
 1471SOL    HW116049   3.835   4.247   3.552 -1.2475  0.2139 -1.0439
 1471SOL    HW216050   3.705   4.323   3.549 -1.1067  0.0379  0.7397
 1472SOL     OW16051   4.395   0.720   7.910 -0.0314  0.4732 -0.5849
 1472SOL    HW116052   4.418   0.781   7.840  1.9069 -1.5382 -1.7201
 1472SOL    HW216053   4.470   0.749   7.962  0.1659 -0.6915 -0.2239
 1473SOL     OW16054   1.240   1.677  15.670  0.0005 -0.5560  0.5323
 1473SOL    HW116055   1.159   1.719  15.698 -0.7859 -2.1501  0.6597
 1473SOL    HW216056   1.218   1.673  15.577  0.8202 -1.0112  0.3582
 1474SOL     OW16057   2.757   1.901  13.772  0.3134  0.1508  0.1436
 1474SOL    HW116058   2.764   1.812  13.736  1.4996 -0.3092  1.5120
 1474SOL    HW216059   2.672   1.889  13.815  0.9859 -2.1982  0.7903
 1475SOL     OW16060   0.660   2.481   8.851 -0.1811  0.2050  0.5306
 1475SOL    HW116061   0.613   2.558   8.818 -1.5000 -0.0032  1.9145
 1475SOL    HW216062   0.720   2.542   8.893 -0.2992  0.1119  0.8342
 1476SOL     OW16063   2.280   0.324  10.638 -0.0600  0.0668  0.1292
 1476SOL    HW116064   2.245   0.391  10.579  1.9396  0.3253 -0.7709
 1476SOL    HW216065   2.292   0.378  10.716 -0.7675 -0.5523  0.6649
 1477SOL     OW16066   0.589   1.695   3.856 -0.1087 -0.4924  0.2490
 1477SOL    HW116067   0.638   1.738   3.786 -0.2004 -1.2540 -0.2784
 1477SOL    HW216068   0.661   1.652   3.903  0.2762  0.5948  0.6677
 1478SOL     OW16069   4.026   0.132   5.490  0.0568 -0.3776  0.2993
 1478SOL    HW116070   4.096   0.067   5.497 -0.2172 -0.9450 -2.3367
 1478SOL    HW216071   4.074   0.213   5.507  1.3784 -0.7523 -1.6084
 1479SOL     OW16072   0.554   1.963   4.616 -0.4034  0.3052 -0.5871
 1479SOL    HW116073   0.519   1.983   4.529  0.3824  0.5516 -0.8507
 1479SOL    HW216074   0.588   2.048   4.643  0.5953 -0.6406  1.1093
 1480SOL     OW16075   0.004   3.353  12.204 -0.0483  0.6025 -0.0166
 1480SOL    HW116076   4.650   3.345  12.225 -0.5591  1.6940 -1.9376
 1480SOL    HW216077   0.021   3.262  12.181  2.5664  0.8295  0.9402
 1481SOL     OW16078   0.932   2.011   8.383  0.5809 -0.0195 -0.0673
 1481SOL    HW116079   0.986   1.932   8.379  0.6518 -0.0163  0.7900
 1481SOL    HW216080   1.000   2.077   8.396  1.5624 -1.0360 -0.0561
 1482SOL     OW16081   2.282   4.355   7.378 -0.0149  0.2736 -0.2285
 1482SOL    HW116082   2.344   4.385   7.444  0.2554  2.5439 -1.5299
 1482SOL    HW216083   2.203   4.405   7.396 -0.8317 -0.4710 -1.7373
 1483SOL     OW16084   2.573   3.494   8.765  0.0368  0.3500  0.4418
 1483SOL    HW116085   2.642   3.450   8.814 -1.0456 -1.1093  0.6794
 1483SOL    HW216086   2.501   3.430   8.764 -0.0777  0.4934 -0.6536
 1484SOL     OW16087   1.745   3.932   3.275 -0.7508  0.0107 -0.2216
 1484SOL    HW116088   1.678   3.917   3.208  0.3761 -0.5460 -1.2156
 1484SOL    HW216089   1.818   3.916   3.215 -0.3156 -1.1180  0.5990
 1485SOL     OW16090   1.702   0.420  14.804 -0.5749  0.5459  0.3093
 1485SOL    HW116091   1.700   0.473  14.884 -0.2519 -1.5225  1.6871
 1485SOL    HW216092   1.647   0.347  14.831  0.5730  0.2824  1.9023
 1486SOL     OW16093   2.357   3.539   7.696  0.4235  0.5072  0.7262
 1486SOL    HW116094   2.325   3.581   7.776 -0.0124 -0.9313  1.2974
 1486SOL    HW216095   2.423   3.606   7.678 -1.0296  1.8812  0.4632
 1487SOL     OW16096   3.221   0.233  14.096  0.8726 -0.1107 -0.0636
 1487SOL    HW116097   3.155   0.246  14.165  0.4751  1.2568 -0.6945
 1487SOL    HW216098   3.207   0.310  14.040 -0.4328  0.9978  1.7752
 1488SOL     OW16099   1.338   1.548   3.034  0.6391  0.0861 -0.4539
 1488SOL    HW116100   1.415   1.543   3.090  0.4483 -0.1891 -0.2158
 1488SOL    HW216101   1.353   1.491   2.959 -1.1970 -0.4110 -0.4644
 1489SOL     OW16102   2.810   0.221   1.189 -0.5319  0.1375  0.2417
 1489SOL    HW116103   2.729   0.205   1.237 -0.8656  0.2764 -0.2733
 1489SOL    HW216104   2.863   0.275   1.248  0.1142  1.9666 -1.9913
 1490SOL     OW16105   0.196   1.317   1.206 -0.0466 -0.5501 -0.0307
 1490SOL    HW116106   0.182   1.263   1.128 -1.9211 -0.5626  0.3105
 1490SOL    HW216107   0.218   1.247   1.267  0.6178 -1.2398 -1.0605
 1491SOL     OW16108   3.315   0.305  13.552  0.1207  0.6371 -0.3413
 1491SOL    HW116109   3.329   0.398  13.572 -0.7206  1.2101 -2.4371
 1491SOL    HW216110   3.258   0.290  13.628  1.8132 -1.5957  0.4683
 1492SOL     OW16111   3.068   3.843   5.455  0.2527  0.1817  0.3685
 1492SOL    HW116112   3.106   3.865   5.540  0.6223 -0.6894  0.4272
 1492SOL    HW216113   3.145   3.800   5.418 -0.2879 -0.8017  0.4124
 1493SOL     OW16114   2.167   0.465   6.310  0.7228 -0.1242  0.3581
 1493SOL    HW116115   2.099   0.412   6.269 -0.5698  1.8040  0.0538
 1493SOL    HW216116   2.205   0.387   6.351  1.5597 -0.2901 -0.7366
 1494SOL     OW16117   4.235   3.291   5.671 -0.7170  0.7642 -0.3199
 1494SOL    HW116118   4.178   3.338   5.609 -0.2838  0.6957 -0.7702
 1494SOL    HW216119   4.190   3.313   5.753 -1.0722  0.5165 -0.4500
 1495SOL     OW16120   3.787   1.167  11.074 -0.1956 -0.8442 -0.0983
 1495SOL    HW116121   3.849   1.237  11.056 -0.3144 -1.5027 -3.2122
 1495SOL    HW216122   3.712   1.186  11.018 -0.2678  0.6336  0.5205
 1496SOL     OW16123   2.281   2.771  11.636 -0.1881  0.0024 -0.7616
 1496SOL    HW116124   2.347   2.723  11.586  2.0993 -0.0180  2.2781
 1496SOL    HW216125   2.330   2.842  11.678  0.8794  0.5878 -2.9663
 1497SOL     OW16126   3.104   2.569   2.832 -0.2775 -0.0854  0.6053
 1497SOL    HW116127   3.024   2.523   2.856 -2.0305  1.4580 -2.3876
 1497SOL    HW216128   3.093   2.586   2.738  3.7522 -0.3213  0.0850
 1498SOL     OW16129   3.124   2.615   1.708 -0.7795 -0.6355  0.0680
 1498SOL    HW116130   3.072   2.593   1.631 -2.7836  1.7478  0.7424
 1498SOL    HW216131   3.178   2.691   1.685  0.9811 -2.1079 -0.7117
 1499SOL     OW16132   2.827   0.909   6.261  0.0913  0.0367 -0.1477
 1499SOL    HW116133   2.914   0.947   6.259  0.4046 -0.5661  2.0712
 1499SOL    HW216134   2.819   0.901   6.166 -0.0017  0.6587 -0.1957
 1500SOL     OW16135   1.893   2.121   7.347  0.6035  0.5063  0.0502
 1500SOL    HW116136   1.945   2.052   7.306  1.4868  0.2292  1.6359
 1500SOL    HW216137   1.867   2.174   7.271 -1.5473  0.5929  0.8406
 1501SOL     OW16138   1.638   3.939   3.546 -0.9215 -0.0222  0.2154
 1501SOL    HW116139   1.669   3.853   3.574 -0.1266 -0.4952 -2.1622
 1501SOL    HW216140   1.659   3.929   3.453  1.3919 -1.3054  0.8673
 1502SOL     OW16141   2.035   3.209  15.260  0.3346 -0.1347 -0.5024
 1502SOL    HW116142   2.034   3.124  15.216 -1.7823 -0.4771  0.2130
 1502SOL    HW216143   1.940   3.219  15.255  0.2540  0.4913  2.6815
 1503SOL     OW16144   2.475   4.423   3.288  0.7395  0.2686 -0.4186
 1503SOL    HW116145   2.472   4.476   3.208  0.2295  1.8344  0.6195
 1503SOL    HW216146   2.486   4.495   3.350  3.3870  0.6100 -1.2517
 1504SOL     OW16147   1.043   3.517   3.697 -0.0780  0.5112 -0.0337
 1504SOL    HW116148   0.962   3.564   3.717 -1.4976 -1.8910 -0.2149
 1504SOL    HW216149   1.022   3.500   3.605 -0.7999  2.9686 -0.3232
 1505SOL     OW16150   0.365   0.366  11.888  0.0326 -0.2620 -0.1148
 1505SOL    HW116151   0.443   0.388  11.940 -0.4742 -2.8380  1.7606
 1505SOL    HW216152   0.391   0.392  11.800  1.1438  0.4749  0.4349
 1506SOL     OW16153   4.563   2.798  14.606 -0.5325  0.4504 -0.0195
 1506SOL    HW116154   4.518   2.880  14.625  0.3987  0.1412  3.4162
 1506SOL    HW216155   4.489   2.763  14.556 -0.1978 -3.2063  2.0473
 1507SOL     OW16156   1.073   1.498   2.684  0.5132 -0.7856 -0.1005
 1507SOL    HW116157   1.034   1.510   2.771  1.9817  1.2651  0.2719
 1507SOL    HW216158   1.007   1.459   2.628 -0.4034  0.8280 -0.1465
 1508SOL     OW16159   3.597   2.364   4.695  0.0281  0.3890  0.1309
 1508SOL    HW116160   3.508   2.399   4.687  0.0204  0.3278 -0.0463
 1508SOL    HW216161   3.606   2.319   4.779  1.4268 -2.8215 -1.7348
 1509SOL     OW16162   0.554   4.297   6.594  0.7899  0.0952 -0.0146
 1509SOL    HW116163   0.607   4.219   6.608 -1.1355 -1.2876 -0.4329
 1509SOL    HW216164   0.614   4.369   6.613  0.6180  0.2354 -0.0040
 1510SOL     OW16165   2.468   4.611  13.277  0.3981  0.1090  0.1250
 1510SOL    HW116166   2.545   4.621  13.333  0.5536  0.3710 -0.1335
 1510SOL    HW216167   2.438   4.524  13.301  0.3549  0.3112  0.8019
 1511SOL     OW16168   2.305   2.760   6.465 -0.2543 -0.1260  0.0160
 1511SOL    HW116169   2.327   2.786   6.554 -0.0820 -2.4099  0.6272
 1511SOL    HW216170   2.213   2.739   6.481  0.4592 -1.1237  2.8755
 1512SOL     OW16171   2.561   0.896   6.230 -0.1173 -0.1232 -0.0988
 1512SOL    HW116172   2.645   0.935   6.256  0.0445  0.1867 -1.0921
 1512SOL    HW216173   2.523   0.963   6.173  0.7274 -0.6225 -1.2608
 1513SOL     OW16174   3.914   4.464   9.109  0.0656  0.0305  0.1172
 1513SOL    HW116175   3.890   4.390   9.164 -0.8154 -0.1157 -0.4728
 1513SOL    HW216176   3.848   4.458   9.041 -1.8363  2.2274  1.7781
 1514SOL     OW16177   2.646   3.388  10.313 -0.5149  0.2379  0.2611
 1514SOL    HW116178   2.580   3.320  10.309  0.2611 -0.3371 -2.7014
 1514SOL    HW216179   2.586   3.456  10.281 -2.5874 -1.1934  1.1102
 1515SOL     OW16180   4.369   3.934   6.800 -0.3182 -0.5611 -0.4916
 1515SOL    HW116181   4.336   3.846   6.781  0.6481 -1.4778  2.1852
 1515SOL    HW216182   4.290   3.986   6.782  0.8004  1.2302 -0.1845
 1516SOL     OW16183   1.734   4.240   1.845  0.8749 -0.3532  0.2077
 1516SOL    HW116184   1.803   4.256   1.909  2.2064  2.6083 -1.9378
 1516SOL    HW216185   1.681   4.318   1.866  0.8488 -0.3717  0.2110
 1517SOL     OW16186   2.526   2.629   6.443  0.1194  0.7466  0.3235
 1517SOL    HW116187   2.527   2.645   6.538 -0.4528  3.0727 -0.0561
 1517SOL    HW216188   2.449   2.679   6.416 -0.6088 -0.8450 -0.5441
 1518SOL     OW16189   2.345   4.685   2.088 -0.0687 -0.2820 -0.2729
 1518SOL    HW116190   2.405   4.627   2.136  0.7341 -1.0146 -2.1592
 1518SOL    HW216191   2.375   0.032   2.118  0.8420 -0.7641  0.2046
 1519SOL     OW16192   2.205   0.889  10.032 -0.5935 -0.4702  0.1308
 1519SOL    HW116193   2.180   0.973   9.992  1.4297  0.9086  1.7682
 1519SOL    HW216194   2.176   0.823   9.969  0.4206 -0.5377 -0.2582
 1520SOL     OW16195   0.257   4.082   6.549  0.0977  0.0955 -0.1891
 1520SOL    HW116196   0.305   4.031   6.484  2.1860  0.8318  0.7735
 1520SOL    HW216197   0.268   4.171   6.515 -0.2651  0.7115  1.3326
 1521SOL     OW16198   0.743   4.296   5.095  0.4473 -0.0120 -0.3350
 1521SOL    HW116199   0.732   4.220   5.039  1.6465 -1.2432  1.1116
 1521SOL    HW216200   0.706   4.253   5.172 -0.2249 -1.5479 -1.5220
 1522SOL     OW16201   1.414   2.611   3.996  0.1799  0.0989  0.4009
 1522SOL    HW116202   1.401   2.596   3.903  1.6112  0.6483  0.1180
 1522SOL    HW216203   1.447   2.526   4.024  0.7129  0.5240  1.0782
 1523SOL     OW16204   2.818   4.176   0.125 -0.3083 -0.3259  0.1911
 1523SOL    HW116205   2.850   4.189   0.214 -1.6792  1.0957  0.4762
 1523SOL    HW216206   2.895   4.129   0.092 -1.0997 -0.7976 -0.9764
 1524SOL     OW16207   3.964   0.836   0.738  0.5331  0.5696  0.6326
 1524SOL    HW116208   4.037   0.810   0.795  0.9033 -0.0643 -0.1184
 1524SOL    HW216209   3.989   0.917   0.692 -0.5031  1.2204  1.2271
 1525SOL     OW16210   1.493   4.313   5.547  0.0184  0.3323 -0.3521
 1525SOL    HW116211   1.560   4.379   5.564  0.1947 -0.1676  0.8708
 1525SOL    HW216212   1.411   4.357   5.568 -0.3920 -0.4355 -0.3355
 1526SOL     OW16213   0.370   2.971   7.901 -0.3432 -0.0292 -0.1983
 1526SOL    HW116214   0.278   2.995   7.911 -0.8088 -2.0212  0.3666
 1526SOL    HW216215   0.398   3.028   7.829  1.2484  1.1984  1.4048
 1527SOL     OW16216   0.763   3.532   3.670 -0.3307 -0.1918  0.0681
 1527SOL    HW116217   0.748   3.622   3.643 -0.2263  0.1828  1.2333
 1527SOL    HW216218   0.733   3.491   3.589  0.1789 -1.9963  0.7874
 1528SOL     OW16219   2.001   1.973   6.986  0.4514 -0.3751  0.2483
 1528SOL    HW116220   1.981   1.882   7.006  1.7689 -0.8849 -0.7901
 1528SOL    HW216221   2.095   1.967   6.974  0.3955  0.3482 -0.5675
 1529SOL     OW16222   3.752   0.106  10.462 -0.4162 -0.1699  0.1652
 1529SOL    HW116223   3.847   0.108  10.449 -0.6550  1.3708 -1.3211
 1529SOL    HW216224   3.740   0.012  10.475  1.3640 -0.3981  0.1578
 1530SOL     OW16225   2.222   3.438   2.366  0.4281  0.2188 -0.0308
 1530SOL    HW116226   2.300   3.423   2.421  0.1660  0.7942  0.5006
 1530SOL    HW216227   2.261   3.495   2.300 -1.5042 -0.9250 -2.1353
 1531SOL     OW16228   3.322   2.435   5.918 -0.2819 -0.2559 -0.3138
 1531SOL    HW116229   3.245   2.446   5.973  0.7050  1.3611  0.7489
 1531SOL    HW216230   3.290   2.379   5.847 -0.6693  2.4534 -2.2974
 1532SOL     OW16231   4.580   4.446   3.526 -0.4684  0.3280  0.2378
 1532SOL    HW116232   4.524   4.517   3.495 -2.4317 -0.8440  1.0837
 1532SOL    HW216233   4.588   4.397   3.444 -1.1851  1.1411 -0.3212
 1533SOL     OW16234   0.254   4.038  11.117 -0.0177  0.0255  0.1191
 1533SOL    HW116235   0.258   4.117  11.172  3.7315 -1.0874  1.4335
 1533SOL    HW216236   0.178   3.993  11.154  0.0164  0.4958  0.7668
 1534SOL     OW16237   2.279   2.531   2.648 -0.2938 -0.1854 -0.1324
 1534SOL    HW116238   2.265   2.481   2.567 -2.5808 -0.9017  0.7192
 1534SOL    HW216239   2.196   2.576   2.657  0.5556  1.5824 -1.1851
 1535SOL     OW16240   3.085   4.440   5.163 -0.2618 -0.0428 -0.1865
 1535SOL    HW116241   3.007   4.445   5.217  0.5566 -3.7638  1.3289
 1535SOL    HW216242   3.051   4.452   5.074  1.4987 -2.0173 -1.1525
 1536SOL     OW16243   0.505   4.419   3.731 -0.1219  0.1559 -0.2824
 1536SOL    HW116244   0.440   4.488   3.719 -0.6312 -0.4954 -1.2428
 1536SOL    HW216245   0.577   4.458   3.681 -1.3343 -1.0394 -2.9551
 1537SOL     OW16246   3.591   1.868   7.756  0.1626 -0.1980  0.3210
 1537SOL    HW116247   3.504   1.854   7.793 -0.1129  0.1489 -0.1767
 1537SOL    HW216248   3.583   1.953   7.710 -0.0642 -0.2823  0.2029
 1538SOL     OW16249   3.543   2.153   5.578  0.1369  0.7072  0.3507
 1538SOL    HW116250   3.624   2.109   5.604  0.4428  1.0932  0.0455
 1538SOL    HW216251   3.582   2.235   5.548  0.3572  0.1880 -0.7686
 1539SOL     OW16252   3.219   0.407   7.453  0.3397  0.3263 -0.3368
 1539SOL    HW116253   3.156   0.472   7.482 -0.2203  1.2403 -3.6096
 1539SOL    HW216254   3.220   0.345   7.526 -1.3115  1.5884  0.7340
 1540SOL     OW16255   3.383   0.689   4.306 -0.0554 -0.3081 -0.5655
 1540SOL    HW116256   3.367   0.595   4.311  1.8590 -0.6048 -0.0434
 1540SOL    HW216257   3.401   0.694   4.213 -0.1233  0.1852 -0.5495
 1541SOL     OW16258   3.341   3.423   6.405  0.1950  0.5917  0.1491
 1541SOL    HW116259   3.385   3.341   6.380 -1.4830 -0.6108  1.1451
 1541SOL    HW216260   3.355   3.416   6.500 -1.1511  1.2418  0.3908
 1542SOL     OW16261   2.795   1.407   7.205 -0.5998 -0.2095 -0.1559
 1542SOL    HW116262   2.877   1.439   7.243 -0.3232 -0.3751 -0.6110
 1542SOL    HW216263   2.785   1.325   7.253  1.5419 -0.7888 -0.6900
 1543SOL     OW16264   1.685   0.527  15.992 -0.6214 -0.5304  0.3276
 1543SOL    HW116265   1.594   0.545  15.970 -0.6642 -2.1348 -0.8462
 1543SOL    HW216266   1.708   0.597  16.053 -0.7656 -0.2949  0.1062
 1544SOL     OW16267   2.358   0.541   7.987 -0.9144  0.3849 -0.0278
 1544SOL    HW116268   2.354   0.451   7.952  0.9856 -0.7222  2.6358
 1544SOL    HW216269   2.267   0.570   7.977 -0.6502  0.9039 -0.8839
 1545SOL     OW16270   1.669   3.800   5.731  0.0169 -0.6812  0.6586
 1545SOL    HW116271   1.682   3.818   5.824  1.5108 -1.7135  0.6599
 1545SOL    HW216272   1.630   3.713   5.720  1.0736 -0.7226 -2.8393
 1546SOL     OW16273   1.997   1.244  17.721  0.0747 -0.2309 -0.1328
 1546SOL    HW116274   2.003   1.339  17.716 -1.1318 -0.1120  0.5155
 1546SOL    HW216275   1.963   1.220  17.635  0.6903 -2.0329  0.1187
 1547SOL     OW16276   0.194   4.665  10.617  0.0490  0.7161  0.4021
 1547SOL    HW116277   0.105   4.677  10.651 -0.4086  0.5074 -0.7207
 1547SOL    HW216278   0.231   0.005  10.656  2.2315 -0.3745  0.5177
 1548SOL     OW16279   2.630   3.701   8.587  0.4219 -0.4294  0.1924
 1548SOL    HW116280   2.596   3.626   8.637 -0.5861 -0.2800 -0.2737
 1548SOL    HW216281   2.683   3.739   8.657 -0.1485  1.9238 -0.6629
 1549SOL     OW16282   1.439   4.648   5.738  0.2864  0.1925 -0.4573
 1549SOL    HW116283   1.467   4.734   5.706  0.4917  0.1305 -0.4476
 1549SOL    HW216284   1.354   4.638   5.696 -0.4051 -2.2376  1.5280
 1550SOL     OW16285   3.375   4.266   3.426  0.0489 -0.2880  0.1827
 1550SOL    HW116286   3.381   4.341   3.486  2.5546  0.7960 -1.4347
 1550SOL    HW216287   3.354   4.298   3.338  2.5420  0.0213 -0.3017
 1551SOL     OW16288   3.510   3.158   2.229 -0.1442  0.0905  0.5061
 1551SOL    HW116289   3.432   3.126   2.184 -0.6391 -1.4712  2.4423
 1551SOL    HW216290   3.502   3.111   2.312 -0.5212 -1.2857 -0.3114
 1552SOL     OW16291   3.333   2.583   8.763  0.0077  0.3151  0.4147
 1552SOL    HW116292   3.425   2.575   8.786 -0.0296  0.9228  0.7866
 1552SOL    HW216293   3.292   2.599   8.848  0.8843  0.7177  0.7597
 1553SOL     OW16294   2.793   0.685   7.191 -0.1866 -0.2973  0.3078
 1553SOL    HW116295   2.849   0.642   7.126 -1.1218 -0.1121 -0.6182
 1553SOL    HW216296   2.800   0.617   7.258  2.5656 -0.2335  0.0911
 1554SOL     OW16297   0.321   1.437  12.200 -0.2971 -0.0107  0.6555
 1554SOL    HW116298   0.358   1.367  12.252  2.2129  0.6884 -0.1974
 1554SOL    HW216299   0.320   1.410  12.108 -0.7601 -0.4612  0.7951
 1555SOL     OW16300   3.262   3.322   6.026 -0.0977  0.3210  0.1143
 1555SOL    HW116301   3.224   3.407   6.047 -0.1039  0.0887  1.0444
 1555SOL    HW216302   3.303   3.341   5.941  1.1234 -0.3790  0.5521
 1556SOL     OW16303   1.994   3.379  10.771  0.1215  0.1064 -0.0134
 1556SOL    HW116304   1.987   3.425  10.855  0.2714 -0.6734  0.4274
 1556SOL    HW216305   1.939   3.431  10.712  0.3217  0.3801  0.0389
 1557SOL     OW16306   3.638   2.852  12.029  0.3183  0.0145  0.0147
 1557SOL    HW116307   3.572   2.833  11.962  1.1962 -1.3915 -0.4688
 1557SOL    HW216308   3.684   2.768  12.023  3.1472  1.6411 -1.2603
 1558SOL     OW16309   0.227   1.632  10.070 -0.5452  0.1816  0.4677
 1558SOL    HW116310   0.283   1.626  10.148  0.6435 -1.3447 -0.5171
 1558SOL    HW216311   0.163   1.565  10.093 -0.3198  0.6216  2.4086
 1559SOL     OW16312   2.938   0.732   3.344 -0.6095 -0.2054  0.0067
 1559SOL    HW116313   2.914   0.644   3.318  0.6616 -0.3116 -0.8067
 1559SOL    HW216314   2.947   0.771   3.257 -0.8292  0.1657  0.1491
 1560SOL     OW16315   2.564   3.938   4.507 -0.2816  0.3166  0.1831
 1560SOL    HW116316   2.626   3.875   4.472 -1.1920  0.3133 -1.4290
 1560SOL    HW216317   2.531   3.900   4.588 -1.4814  0.3587 -0.2816
 1561SOL     OW16318   3.409   0.634   2.327 -1.0838  0.7270  0.0613
 1561SOL    HW116319   3.483   0.693   2.339  0.2481 -0.6120 -1.5585
 1561SOL    HW216320   3.424   0.614   2.235  0.7221  0.0325  0.5095
 1562SOL     OW16321   2.892   0.461   5.781 -0.2132  0.0735  0.1220
 1562SOL    HW116322   2.816   0.518   5.773 -0.7263 -0.2974  2.1834
 1562SOL    HW216323   2.943   0.515   5.843  0.9981 -1.1513  0.1947
 1563SOL     OW16324   1.054   2.386   5.594 -0.4046 -0.4681  1.0273
 1563SOL    HW116325   1.022   2.375   5.684 -2.2483  2.0346  0.6752
 1563SOL    HW216326   1.149   2.390   5.608 -0.7494  4.0240  2.0888
 1564SOL     OW16327   3.988   2.130   4.292  0.1190 -0.2396  0.3299
 1564SOL    HW116328   3.945   2.052   4.326  1.1502 -0.4336  1.1956
 1564SOL    HW216329   4.059   2.092   4.240  0.2897 -0.6386  0.8468
 1565SOL     OW16330   0.502   3.950   8.643  0.4841  0.0326 -0.0132
 1565SOL    HW116331   0.555   3.912   8.574 -0.2566 -0.5171 -0.2741
 1565SOL    HW216332   0.456   3.875   8.681  0.6903  1.0959  2.3605
 1566SOL     OW16333   1.894   4.193   4.113  0.5042 -0.8371  0.3653
 1566SOL    HW116334   1.881   4.098   4.120  2.2356 -1.2555 -2.1931
 1566SOL    HW216335   1.967   4.185   4.174  2.7326  1.0740 -2.0436
 1567SOL     OW16336   3.038   3.319   8.807  0.4410 -0.2167  0.5872
 1567SOL    HW116337   3.108   3.376   8.775  1.0805 -1.8739 -1.0544
 1567SOL    HW216338   3.020   3.367   8.887 -0.7316  2.4384 -1.2557
 1568SOL     OW16339   2.747   3.092  16.547 -0.2739 -0.3727 -0.1787
 1568SOL    HW116340   2.764   3.159  16.613 -0.7022 -1.0342  0.6057
 1568SOL    HW216341   2.704   3.028  16.603  1.0408 -0.8494  0.2747
 1569SOL     OW16342   3.461   4.350   7.003 -0.2197 -0.4886  0.3757
 1569SOL    HW116343   3.404   4.322   6.932 -1.8927  1.1234  1.0616
 1569SOL    HW216344   3.484   4.437   6.969  2.3583 -1.2464  0.1869
 1570SOL     OW16345   1.336   0.657  16.831 -0.2416  0.0247 -0.0996
 1570SOL    HW116346   1.416   0.664  16.780 -1.7153 -0.9615 -2.5250
 1570SOL    HW216347   1.318   0.750  16.841 -1.2002 -0.1113 -0.5766
 1571SOL     OW16348   4.692   1.876   9.670  0.0740  0.4272 -0.0818
 1571SOL    HW116349   4.607   1.847   9.702 -0.2884 -0.3793 -1.7549
 1571SOL    HW216350   0.006   1.872   9.749  1.7938  2.0077 -1.1270
 1572SOL     OW16351   3.556   1.498   8.958 -0.1097 -0.3466 -0.3524
 1572SOL    HW116352   3.622   1.547   8.908  0.9980  0.3024  1.7399
 1572SOL    HW216353   3.470   1.539   8.951 -0.2214  0.1935  3.9009
 1573SOL     OW16354   2.700   1.643  13.673 -0.3465 -0.4546  0.2418
 1573SOL    HW116355   2.632   1.578  13.693  1.1203 -1.9674  0.2769
 1573SOL    HW216356   2.735   1.600  13.595  1.5005  2.3226 -0.4746
 1574SOL     OW16357   3.279   1.442   0.119  0.3182 -0.1466 -0.1393
 1574SOL    HW116358   3.227   1.376   0.165 -0.3970 -0.9610 -2.1464
 1574SOL    HW216359   3.229   1.450   0.038  1.8967 -2.3599 -1.3251
 1575SOL     OW16360   2.041   2.497   5.230  0.4311 -0.9406  0.1534
 1575SOL    HW116361   1.951   2.492   5.261 -0.0499  3.2997 -0.6666
 1575SOL    HW216362   2.065   2.404   5.228  0.0757 -1.0099 -1.1610
 1576SOL     OW16363   2.742   0.670   2.230 -0.2713  0.1846 -0.4575
 1576SOL    HW116364   2.747   0.744   2.291  4.0252  0.2847 -0.8904
 1576SOL    HW216365   2.813   0.694   2.170 -0.3164  0.4032 -0.4235
 1577SOL     OW16366   4.359   0.422   6.001 -0.0113 -0.6749  0.1901
 1577SOL    HW116367   4.426   0.437   6.067 -1.7406  0.2395  1.7419
 1577SOL    HW216368   4.383   0.330   5.987 -0.8916 -0.8665 -0.1181
 1578SOL     OW16369   1.934   2.704   6.402 -0.3761  0.4252  0.3153
 1578SOL    HW116370   1.928   2.796   6.430  1.3273  0.4408  0.6191
 1578SOL    HW216371   1.885   2.653   6.467 -1.1464 -0.4829 -0.9731
 1579SOL     OW16372   4.330   0.129   5.495 -0.2602 -0.5060  0.3816
 1579SOL    HW116373   4.321   0.224   5.484  0.8913 -0.2674  1.4768
 1579SOL    HW216374   4.380   0.127   5.576 -0.0843  0.5083  0.3066
 1580SOL     OW16375   2.894   4.100   6.357 -0.4551 -0.2055  0.0265
 1580SOL    HW116376   2.852   4.041   6.419  0.3819 -0.0360  0.7565
 1580SOL    HW216377   2.985   4.069   6.349 -0.1078  1.4445 -2.4027
 1581SOL     OW16378   2.879   3.840  12.177  0.2656  0.4865 -0.1979
 1581SOL    HW116379   2.856   3.782  12.104 -0.9698 -1.1514  1.4861
 1581SOL    HW216380   2.791   3.871  12.200  0.2971  0.1843  0.3374
 1582SOL     OW16381   2.427   2.106   9.703  0.5370  0.3667  0.1341
 1582SOL    HW116382   2.448   2.197   9.723 -0.1175  0.7166 -0.7253
 1582SOL    HW216383   2.340   2.127   9.669  1.0881  0.9306 -0.9488
 1583SOL     OW16384   2.497   3.120   3.807  0.2072  0.2194  0.1859
 1583SOL    HW116385   2.592   3.130   3.800  0.1483  0.8879  0.4062
 1583SOL    HW216386   2.480   3.150   3.718 -0.3058  0.7503  0.4633
 1584SOL     OW16387   1.530   3.443   1.642  0.7198  0.0215  0.0776
 1584SOL    HW116388   1.553   3.519   1.589  1.9451 -0.7784 -0.5411
 1584SOL    HW216389   1.613   3.431   1.689 -0.3282 -2.1156  1.3960
 1585SOL     OW16390   3.314   2.773   2.890 -0.0330 -0.1755  0.0548
 1585SOL    HW116391   3.247   2.840   2.901 -1.8217 -1.8620 -0.6625
 1585SOL    HW216392   3.254   2.702   2.910  0.4359 -0.3840  0.7309
 1586SOL     OW16393   1.683   3.661   8.565  0.1422  0.0535 -0.6819
 1586SOL    HW116394   1.666   3.698   8.478  0.1235  1.8343  0.0805
 1586SOL    HW216395   1.778   3.651   8.562  0.0975 -0.4502 -0.4316
 1587SOL     OW16396   3.738   1.798   3.583 -0.0669 -0.1567  0.1047
 1587SOL    HW116397   3.828   1.776   3.562 -0.4104 -1.1874 -0.2660
 1587SOL    HW216398   3.732   1.886   3.544 -0.4141  0.7188  2.1482
 1588SOL     OW16399   0.293   3.565   6.317  0.3497  0.6082  0.1313
 1588SOL    HW116400   0.334   3.529   6.395  0.9567 -1.2184 -1.0345
 1588SOL    HW216401   0.244   3.489   6.284 -0.7636  3.3547 -4.5943
 1589SOL     OW16402   1.066   2.283   4.252  0.0354  0.2399  0.0236
 1589SOL    HW116403   1.005   2.209   4.251  1.2676 -0.7444 -2.4523
 1589SOL    HW216404   1.014   2.361   4.272 -0.1154  0.6446 -1.9773
 1590SOL     OW16405   4.433   1.759   4.946 -0.3769  0.0306  0.1762
 1590SOL    HW116406   4.426   1.664   4.934  1.2640 -0.0214 -0.3994
 1590SOL    HW216407   4.435   1.763   5.042  1.6969 -2.2365  0.2492
 1591SOL     OW16408   1.063   4.257  10.262  0.1986  0.3123  0.0163
 1591SOL    HW116409   1.131   4.198  10.293  0.0338  0.5007  0.7253
 1591SOL    HW216410   1.033   4.279  10.350 -0.2423  0.4094 -0.1584
 1592SOL     OW16411   4.552   0.979   1.781 -0.7422 -0.1794 -0.4504
 1592SOL    HW116412   4.616   0.918   1.819 -0.0953  0.2338 -0.8883
 1592SOL    HW216413   4.482   0.965   1.845 -0.1806 -2.8884 -0.4048
 1593SOL     OW16414   0.836   1.459  14.532 -0.3784  0.6920  0.4408
 1593SOL    HW116415   0.765   1.434  14.472 -1.5188  1.8239  1.3161
 1593SOL    HW216416   0.841   1.382  14.588 -1.4097  1.4548  1.5719
 1594SOL     OW16417   1.517   0.726   8.667  0.5839  0.6182 -0.3009
 1594SOL    HW116418   1.501   0.818   8.686  0.5789  0.3497  1.0105
 1594SOL    HW216419   1.592   0.725   8.608  1.1395 -1.0258  0.4356
 1595SOL     OW16420   4.163   2.311   5.656 -0.2570  0.2404 -1.0095
 1595SOL    HW116421   4.161   2.315   5.752 -0.5830 -0.5676 -0.9822
 1595SOL    HW216422   4.223   2.379   5.626  0.0634  0.4840  0.1634
 1596SOL     OW16423   3.516   3.680   8.246 -0.0666 -0.4557  0.2199
 1596SOL    HW116424   3.484   3.591   8.261 -2.1349 -0.1260 -2.1702
 1596SOL    HW216425   3.505   3.693   8.152  1.8318  3.9007  0.6125
 1597SOL     OW16426   3.675   0.590   1.103 -0.4166 -0.0673  0.1072
 1597SOL    HW116427   3.591   0.635   1.101  1.3344  3.3024  2.2324
 1597SOL    HW216428   3.736   0.664   1.096  0.2473 -0.6642 -0.3832
 1598SOL     OW16429   1.686   2.032   5.701 -0.3467 -0.2158  0.4292
 1598SOL    HW116430   1.646   1.986   5.627  0.0103  0.6299 -0.2931
 1598SOL    HW216431   1.627   2.104   5.724  0.3617  0.3587  0.4488
 1599SOL     OW16432   3.576   0.388  10.268  0.1617  0.5887 -0.2647
 1599SOL    HW116433   3.652   0.446  10.278  0.9718 -0.9628  2.6964
 1599SOL    HW216434   3.504   0.448  10.286 -0.5177  0.3863 -2.2966
 1600SOL     OW16435   3.329   1.486   7.750  0.2818 -1.1305  0.6507
 1600SOL    HW116436   3.278   1.418   7.706  0.4707 -1.2629  0.6330
 1600SOL    HW216437   3.352   1.443   7.833 -1.7538 -1.7680  0.8696
 1601SOL     OW16438   0.178   2.192   8.492  0.0018 -0.1458 -0.5235
 1601SOL    HW116439   0.263   2.148   8.493  0.1453  0.1348 -0.2674
 1601SOL    HW216440   0.126   2.137   8.435  2.7090 -1.2975 -1.8995
 1602SOL     OW16441   3.066   3.529   3.581  0.1908  0.2400  0.5956
 1602SOL    HW116442   3.009   3.522   3.657 -0.5845 -1.1657 -0.1057
 1602SOL    HW216443   3.094   3.440   3.559  2.0793  1.2820 -1.1475
 1603SOL     OW16444   4.551   2.406   4.846 -0.2494  0.8411  0.3127
 1603SOL    HW116445   4.637   2.364   4.845  0.5984  2.5158  1.3281
 1603SOL    HW216446   4.561   2.474   4.913 -0.5807 -0.4676  1.6639
 1604SOL     OW16447   0.696   3.587   7.617 -0.6961  0.5494  0.7369
 1604SOL    HW116448   0.676   3.675   7.650 -0.6592  0.0025  2.1914
 1604SOL    HW216449   0.752   3.558   7.688 -0.2982 -0.6933 -0.0953
 1605SOL     OW16450   2.582   1.448  11.790  0.1467 -0.2070 -0.3340
 1605SOL    HW116451   2.594   1.523  11.731  0.2468 -1.3967 -1.8241
 1605SOL    HW216452   2.658   1.394  11.769 -1.5390 -2.1911 -1.3377
 1606SOL     OW16453   1.743   0.167   9.045 -0.2727 -0.1972  0.4744
 1606SOL    HW116454   1.799   0.111   8.992 -0.2679  0.8452 -0.6201
 1606SOL    HW216455   1.745   0.254   9.005 -0.9997 -0.8336 -0.9529
 1607SOL     OW16456   3.190   3.354   2.322  0.3155 -0.3857 -0.1518
 1607SOL    HW116457   3.237   3.378   2.242 -0.7542  1.0445 -0.3492
 1607SOL    HW216458   3.260   3.365   2.387  1.1517  1.4686 -1.3644
 1608SOL     OW16459   1.276   2.228  17.409 -0.1304 -0.0284 -0.5860
 1608SOL    HW116460   1.323   2.166  17.353 -0.1829 -0.7425  0.1553
 1608SOL    HW216461   1.281   2.303  17.350  0.7463 -0.7010 -1.3732
 1609SOL     OW16462   3.015   1.567   5.765  0.1363 -0.0980 -0.1155
 1609SOL    HW116463   2.933   1.602   5.799  1.5740  2.4437  0.6869
 1609SOL    HW216464   3.078   1.618   5.816  0.8361  0.2518 -1.3408
 1610SOL     OW16465   4.120   1.948   2.806  0.0257 -0.4703  0.0033
 1610SOL    HW116466   4.101   1.855   2.820  1.6950 -0.7713  0.3041
 1610SOL    HW216467   4.216   1.945   2.805  0.0515  0.4195 -0.2311
 1611SOL     OW16468   3.769   0.402   0.089  0.4254 -0.1820 -0.1551
 1611SOL    HW116469   3.729   0.488   0.105  0.3918 -0.2671  0.2314
 1611SOL    HW216470   3.699   0.337   0.097 -1.7791  2.0856 -0.8383
 1612SOL     OW16471   2.843   0.547   7.419 -0.0738  0.2695  0.0393
 1612SOL    HW116472   2.870   0.460   7.447 -0.3016  0.6819  1.4940
 1612SOL    HW216473   2.755   0.553   7.456  0.6735  1.3577  1.6005
 1613SOL     OW16474   1.928   1.300   8.973 -0.1655 -0.3292 -0.0074
 1613SOL    HW116475   1.852   1.346   8.937  1.6552  1.9394 -0.9455
 1613SOL    HW216476   1.998   1.351   8.933  0.5735 -2.8253 -1.8736
 1614SOL     OW16477   0.929   2.866   7.839  0.6733 -0.4538 -0.7050
 1614SOL    HW116478   0.988   2.941   7.838 -0.4038  0.3736 -1.6596
 1614SOL    HW216479   0.936   2.817   7.921 -2.9230  0.6082  0.2391
 1615SOL     OW16480   2.122   0.077   2.691  0.7372  0.2280 -0.0986
 1615SOL    HW116481   2.202   0.035   2.660 -0.0622  0.0935 -1.9654
 1615SOL    HW216482   2.145   0.122   2.772 -0.0347 -0.1408  0.3209
 1616SOL     OW16483   2.982   0.730   6.867  0.5916 -0.2502 -0.2960
 1616SOL    HW116484   2.944   0.676   6.936  0.4531 -0.0266 -0.1976
 1616SOL    HW216485   3.074   0.736   6.891  0.5947  0.6280 -0.5239
 1617SOL     OW16486   1.803   4.041   8.263  0.5817 -0.1128  0.8678
 1617SOL    HW116487   1.741   4.097   8.217 -0.0843 -1.6321 -0.0754
 1617SOL    HW216488   1.807   4.075   8.352 -1.3932 -0.3385  1.0293
 1618SOL     OW16489   1.364   3.992   3.512  0.4812 -0.5853  0.2039
 1618SOL    HW116490   1.345   3.900   3.531  0.6353 -0.3439  1.5153
 1618SOL    HW216491   1.459   3.990   3.520  0.3631 -0.3603  1.7204
 1619SOL     OW16492   1.049   0.107   3.674  0.2327 -0.1748  0.2733
 1619SOL    HW116493   1.092   0.047   3.613  1.0173 -0.5949  1.2294
 1619SOL    HW216494   1.049   0.047   3.749 -1.2309  0.7176  0.9856
 1620SOL     OW16495   2.890   3.331   2.508 -0.0636 -0.2817  0.4686
 1620SOL    HW116496   2.957   3.343   2.576 -0.4999  0.0442  0.8417
 1620SOL    HW216497   2.817   3.316   2.568 -0.6802 -0.4956 -0.3412
 1621SOL     OW16498   0.149   0.672   8.070  0.1421  0.1650  0.8685
 1621SOL    HW116499   0.243   0.655   8.063 -0.0715 -0.9672  0.7553
 1621SOL    HW216500   0.143   0.762   8.039 -0.3904 -0.7616 -1.7240
 1622SOL     OW16501   0.815   0.014   6.178 -0.0435  0.8438 -0.3855
 1622SOL    HW116502   0.813   4.725   6.270  1.4749  0.5845 -0.4319
 1622SOL    HW216503   0.775   4.674   6.139 -0.1048  1.4110 -1.4665
 1623SOL     OW16504   2.652   0.036   0.474 -0.2138  0.2133  0.6781
 1623SOL    HW116505   2.568   0.019   0.517 -1.2855 -1.6067 -2.1834
 1623SOL    HW216506   2.667   4.692   0.429 -1.0554  0.9253 -0.9088
 1624SOL     OW16507   1.850   4.431  17.010  0.3821  0.3201  0.8735
 1624SOL    HW116508   1.901   4.509  16.987 -1.3563  1.5188  1.1316
 1624SOL    HW216509   1.784   4.462  17.071  0.6644  0.9068  0.8745
 1625SOL     OW16510   1.726   1.415   5.326  0.2340 -0.3005 -0.0158
 1625SOL    HW116511   1.653   1.388   5.381 -0.9772  2.0651 -0.4520
 1625SOL    HW216512   1.716   1.343   5.263 -1.0586 -0.0770 -0.0503
 1626SOL     OW16513   0.404   3.890  14.732 -0.4213 -0.0124 -0.2853
 1626SOL    HW116514   0.488   3.871  14.690 -0.3401 -0.9410  0.3050
 1626SOL    HW216515   0.400   3.829  14.806  0.7616 -1.8759 -1.7629
 1627SOL     OW16516   0.647   3.649  13.961 -0.4474 -0.1734 -0.2615
 1627SOL    HW116517   0.720   3.684  14.013 -0.8814 -1.3744  1.1355
 1627SOL    HW216518   0.600   3.594  14.023  0.0726 -0.8090 -0.4268
 1628SOL     OW16519   4.148   2.461   7.842 -0.1397  0.2695 -0.0835
 1628SOL    HW116520   4.091   2.521   7.891  1.2460  0.0361  1.8062
 1628SOL    HW216521   4.214   2.523   7.811  0.7533 -0.7405 -0.1810
 1629SOL     OW16522   0.845   1.327  16.652 -0.1828  0.6478  0.7024
 1629SOL    HW116523   0.888   1.353  16.733  2.2305 -2.6097  0.4668
 1629SOL    HW216524   0.847   1.231  16.655 -2.8887  0.5313 -0.7140
 1630SOL     OW16525   0.788   3.666   9.597 -0.0892 -0.1087  0.1504
 1630SOL    HW116526   0.723   3.661   9.667 -0.9513 -3.0727 -0.8601
 1630SOL    HW216527   0.740   3.650   9.515 -0.1550  0.5312  0.0648
 1631SOL     OW16528   1.831   3.929   5.543  0.1998 -0.2262  0.5713
 1631SOL    HW116529   1.886   3.977   5.604 -0.0046  0.4399  0.2360
 1631SOL    HW216530   1.780   3.891   5.614  1.5293  0.2954  1.8067
 1632SOL     OW16531   0.884   1.412   6.935 -0.6059 -0.2216  0.4355
 1632SOL    HW116532   0.884   1.414   7.031 -1.3828  2.2040  0.3725
 1632SOL    HW216533   0.976   1.402   6.912 -0.4845  2.1778 -0.0717
 1633SOL     OW16534   3.627   2.147  16.456  0.0871 -0.0898 -0.8057
 1633SOL    HW116535   3.684   2.106  16.391  1.8771 -0.5711  1.0582
 1633SOL    HW216536   3.639   2.085  16.528 -1.3546 -1.2679 -1.5739
 1634SOL     OW16537   2.690   0.084   2.028  0.1144  0.2019 -0.0897
 1634SOL    HW116538   2.622   0.078   2.095  1.4870 -2.4892  1.0622
 1634SOL    HW216539   2.756   0.137   2.073 -2.3821  1.9475  1.4933
 1635SOL     OW16540   4.326   3.072   8.867 -0.0185 -0.3662  0.0409
 1635SOL    HW116541   4.347   3.165   8.864  0.6573 -0.5257 -0.0206
 1635SOL    HW216542   4.292   3.055   8.779  0.6066 -1.5457  0.0280
 1636SOL     OW16543   3.806   0.756   2.688  0.6635  0.0687  0.0233
 1636SOL    HW116544   3.824   0.850   2.678  0.1962 -0.0371 -1.9691
 1636SOL    HW216545   3.894   0.722   2.675  0.0783 -0.8787 -1.4910
 1637SOL     OW16546   3.799   0.433  13.199  0.1865 -1.3035 -0.3255
 1637SOL    HW116547   3.703   0.430  13.199  0.1597 -0.8001  0.9566
 1637SOL    HW216548   3.809   0.527  13.218 -2.3243 -0.7790 -1.5228
 1638SOL     OW16549   0.734   3.943   3.754 -0.4675  0.0728  0.1504
 1638SOL    HW116550   0.803   4.007   3.742  1.1438 -1.5129  0.9763
 1638SOL    HW216551   0.722   3.951   3.849  0.5532  2.2063  0.0818
 1639SOL     OW16552   3.037   2.137   3.396  0.1955 -0.4047 -0.3148
 1639SOL    HW116553   3.006   2.157   3.308  2.8023 -2.7474 -1.7928
 1639SOL    HW216554   3.124   2.177   3.385  0.5219 -0.7309  1.1241
 1640SOL     OW16555   0.932   4.236   5.578 -0.0416  0.0690  0.5492
 1640SOL    HW116556   0.996   4.304   5.600 -0.5051  0.8673 -0.5538
 1640SOL    HW216557   0.872   4.254   5.650 -0.6684 -0.5506  0.1872
 1641SOL     OW16558   0.805   0.075   8.959 -0.1080 -0.3430  0.3904
 1641SOL    HW116559   0.744   0.042   8.893 -0.1706 -0.9894  0.7695
 1641SOL    HW216560   0.813   0.004   9.023  2.9480 -1.8466 -1.6542
 1642SOL     OW16561   1.586   1.352   2.579  0.1540  0.3070  0.0294
 1642SOL    HW116562   1.663   1.408   2.580  0.5701 -0.2673 -0.1281
 1642SOL    HW216563   1.633   1.270   2.593 -2.4941 -0.9495  1.6033
 1643SOL     OW16564   2.470   0.292   7.425 -0.0207 -0.0701  0.6889
 1643SOL    HW116565   2.444   0.210   7.467 -1.5663 -0.9613 -2.0088
 1643SOL    HW216566   2.526   0.257   7.356 -0.8236  0.7102 -0.3569
 1644SOL     OW16567   0.952   1.389   5.713 -0.3230  0.0382 -1.2026
 1644SOL    HW116568   0.970   1.439   5.633  0.9673  0.7540 -0.4685
 1644SOL    HW216569   0.857   1.377   5.708 -0.1644 -1.6833 -0.0978
 1645SOL     OW16570   1.390   4.539   3.979 -0.4170 -0.1090  0.2399
 1645SOL    HW116571   1.349   4.585   3.906  1.8347  0.2829 -0.7749
 1645SOL    HW216572   1.477   4.523   3.943 -0.9869  0.0804 -1.1853
 1646SOL     OW16573   1.217   3.347  14.762  0.0338 -0.0391  0.0230
 1646SOL    HW116574   1.164   3.333  14.840 -0.5075  0.5919 -0.2289
 1646SOL    HW216575   1.302   3.348  14.806  0.1222 -2.9383 -0.1037
 1647SOL     OW16576   3.320   1.329   2.004 -0.3066 -0.2829  0.1624
 1647SOL    HW116577   3.290   1.240   1.984 -1.7339  0.1917  0.2253
 1647SOL    HW216578   3.393   1.345   1.943 -0.9959 -0.4190 -0.6883
 1648SOL     OW16579   3.562   2.506  17.236  0.0982  0.4500  0.4969
 1648SOL    HW116580   3.635   2.565  17.254  2.0770 -1.8491 -0.0189
 1648SOL    HW216581   3.559   2.455  17.318 -0.4484  1.1605  0.9236
 1649SOL     OW16582   3.244   4.435   8.515 -0.0098 -0.1472 -0.5180
 1649SOL    HW116583   3.149   4.424   8.525  0.1688 -1.3762 -0.1344
 1649SOL    HW216584   3.239   4.455   8.421  1.8968  2.0371 -0.1465
 1650SOL     OW16585   4.685   2.182  11.440  0.1807 -0.7608  0.0574
 1650SOL    HW116586   4.602   2.154  11.478  0.4279 -1.9416 -0.2839
 1650SOL    HW216587   4.712   2.117  11.375 -0.6868 -1.6495  0.5882
 1651SOL     OW16588   3.455   3.884   2.903 -0.5465 -1.0031  0.0118
 1651SOL    HW116589   3.393   3.946   2.863  1.3508  0.2068 -1.0833
 1651SOL    HW216590   3.417   3.869   2.989 -1.8302 -1.2155 -0.5950
 1652SOL     OW16591   1.509   4.240   7.785  0.4373 -0.2459  0.0784
 1652SOL    HW116592   1.522   4.285   7.702  0.8970  0.0852  0.3300
 1652SOL    HW216593   1.414   4.229   7.772  0.4425  1.5527 -1.4661
 1653SOL     OW16594   1.944   3.977  11.444  0.0086  0.5656  0.0237
 1653SOL    HW116595   1.978   3.890  11.425 -4.0760 -0.8306 -0.9760
 1653SOL    HW216596   2.015   4.031  11.409 -0.7090  1.5244  0.0338
 1654SOL     OW16597   2.730   3.279   2.734 -0.0440  0.1710  0.1064
 1654SOL    HW116598   2.772   3.243   2.811  1.9129  1.2141 -0.4562
 1654SOL    HW216599   2.640   3.257   2.756 -0.0797 -0.1705 -0.3860
 1655SOL     OW16600   1.809   1.070   6.939 -0.1799 -0.2577 -0.7587
 1655SOL    HW116601   1.829   1.034   6.853  0.7071  2.1009 -1.5621
 1655SOL    HW216602   1.794   0.990   6.989  0.4623 -0.5236 -0.9851
 1656SOL     OW16603   4.201   2.639   9.041 -0.0788 -0.2298 -0.0548
 1656SOL    HW116604   4.202   2.668   8.950 -2.3148  0.6182  0.1956
 1656SOL    HW216605   4.288   2.599   9.037 -0.3474 -0.8646  0.4407
 1657SOL     OW16606   3.375   2.010   8.995  0.1416 -0.9146  0.1728
 1657SOL    HW116607   3.358   1.935   9.052 -1.4539 -0.2424  0.5876
 1657SOL    HW216608   3.321   2.074   9.042 -1.2973 -0.8282 -1.6141
 1658SOL     OW16609   2.892   3.539  14.922  0.1249 -0.4613 -0.0344
 1658SOL    HW116610   2.956   3.577  14.983 -0.1492 -0.9142  0.5344
 1658SOL    HW216611   2.809   3.525  14.967  1.5695  0.1928  2.8152
 1659SOL     OW16612   0.809   0.211  17.230  0.1445  0.2235 -0.2382
 1659SOL    HW116613   0.725   0.186  17.269 -1.0947  1.4726 -2.0787
 1659SOL    HW216614   0.798   0.195  17.136  1.7091 -0.5856 -0.2725
 1660SOL     OW16615   1.812   2.502   6.525 -0.1267  0.0419 -0.1338
 1660SOL    HW116616   1.859   2.502   6.441  0.3667 -2.6199  0.1413
 1660SOL    HW216617   1.754   2.426   6.520  0.0815 -0.0978 -0.4940
 1661SOL     OW16618   1.063   3.072  11.098  0.1724 -0.0795  0.0588
 1661SOL    HW116619   1.077   3.162  11.129 -0.7882  0.5070 -1.2431
 1661SOL    HW216620   0.985   3.047  11.147  0.3111 -0.4725  0.0792
 1662SOL     OW16621   3.778   4.618   4.378 -0.2983  0.4530  0.2477
 1662SOL    HW116622   3.828   4.554   4.327 -2.1377 -1.1116  0.3876
 1662SOL    HW216623   3.711   4.647   4.318 -0.5741 -2.6919 -0.9693
 1663SOL     OW16624   0.668   4.370   9.392  0.1901 -0.5406 -0.3631
 1663SOL    HW116625   0.712   4.414   9.465 -1.9217  0.5805  0.2527
 1663SOL    HW216626   0.616   4.302   9.435 -0.8729  0.7354  0.3863
 1664SOL     OW16627   0.796   1.485   9.141 -0.0082  0.2334 -0.0257
 1664SOL    HW116628   0.833   1.450   9.222  0.5183  0.1344 -0.3066
 1664SOL    HW216629   0.702   1.487   9.160 -0.1933  0.1049 -0.9292
 1665SOL     OW16630   3.129   4.252   1.747  0.3373  0.0404  0.2272
 1665SOL    HW116631   3.055   4.216   1.796  0.9717  0.6313  1.6271
 1665SOL    HW216632   3.132   4.341   1.782  0.3253  0.1185  0.0265
 1666SOL     OW16633   3.589   0.566   8.923 -0.3791  0.2131  0.0157
 1666SOL    HW116634   3.638   0.499   8.970  1.8249  1.6596 -0.2430
 1666SOL    HW216635   3.650   0.639   8.921  0.6268 -0.6066  0.8870
 1667SOL     OW16636   1.706   3.574  14.815  0.2936 -0.2129  0.1531
 1667SOL    HW116637   1.725   3.629  14.739 -3.1453 -1.0570 -1.3237
 1667SOL    HW216638   1.671   3.650  14.861 -0.4005 -1.2435  1.3418
 1668SOL     OW16639   1.385   0.517  10.892  0.7458 -0.3722 -0.2781
 1668SOL    HW116640   1.423   0.468  10.965 -0.8370 -1.4399 -0.1684
 1668SOL    HW216641   1.426   0.602  10.906  0.1111  0.0522 -0.9670
 1669SOL     OW16642   3.718   2.759   2.459 -0.3064  0.4708  0.5737
 1669SOL    HW116643   3.693   2.730   2.371 -0.7349  2.4081  0.0587
 1669SOL    HW216644   3.711   2.674   2.502  0.8650  0.5346  0.8738
 1670SOL     OW16645   1.730   2.152  14.439  0.5511  0.0012 -0.9362
 1670SOL    HW116646   1.664   2.101  14.391  0.5260 -1.9267  1.1337
 1670SOL    HW216647   1.757   2.101  14.516 -0.7927 -0.8781 -1.0416
 1671SOL     OW16648   4.058   2.883   7.511 -0.4335 -0.1057 -0.0348
 1671SOL    HW116649   4.107   2.934   7.575 -1.8918  0.2919  0.7795
 1671SOL    HW216650   4.125   2.820   7.486 -0.5888  0.2440 -1.3377
 1672SOL     OW16651   0.878   0.417  17.398  0.2069 -0.6258 -0.0300
 1672SOL    HW116652   0.883   0.495  17.342 -0.4711  0.4999  1.4756
 1672SOL    HW216653   0.853   0.351  17.333 -2.5436 -1.7007  2.1434
 1673SOL     OW16654   3.783   2.048   5.233  0.2212 -0.7273 -0.0791
 1673SOL    HW116655   3.824   1.987   5.172 -0.3278  0.1128 -1.2946
 1673SOL    HW216656   3.752   1.988   5.300 -0.1322  0.5026  0.8495
 1674SOL     OW16657   2.563   0.972   8.641  0.0855 -0.9990 -0.6992
 1674SOL    HW116658   2.477   0.956   8.603  0.8921 -0.9365 -2.5481
 1674SOL    HW216659   2.583   0.895   8.694 -0.3074 -0.6449 -0.0378
 1675SOL     OW16660   4.457   2.209   1.917 -0.5592 -0.0683 -0.5708
 1675SOL    HW116661   4.461   2.115   1.937 -0.1764  0.8212  3.4123
 1675SOL    HW216662   4.507   2.225   1.836  0.8285 -0.5622  0.1861
 1676SOL     OW16663   3.142   4.199   1.467  0.6266 -0.4791  0.0683
 1676SOL    HW116664   3.118   4.230   1.555  0.2021 -0.8799  0.0928
 1676SOL    HW216665   3.131   4.283   1.423  1.1326 -0.0986  0.6617
 1677SOL     OW16666   1.008   4.615   8.684 -0.3832 -0.8362 -0.4607
 1677SOL    HW116667   0.942   4.685   8.685  2.5215  1.9226  1.1494
 1677SOL    HW216668   0.977   4.555   8.616 -0.0220 -0.4337 -0.9850
 1678SOL     OW16669   0.342   3.533   5.424  0.2764  0.4267  0.2768
 1678SOL    HW116670   0.347   3.575   5.510 -0.1457 -2.6459  1.7959
 1678SOL    HW216671   0.249   3.537   5.401  0.8710 -0.7084 -2.3670
 1679SOL     OW16672   1.740   0.943   4.260  0.7576 -0.0885 -0.4054
 1679SOL    HW116673   1.705   1.029   4.241 -0.9246 -0.2847  1.9072
 1679SOL    HW216674   1.676   0.875   4.238  2.4469 -1.5301 -0.9218
 1680SOL     OW16675   0.751   0.041   9.979 -0.9249  0.3045 -0.3823
 1680SOL    HW116676   0.840   0.044   9.943 -0.0636 -0.9305  1.6240
 1680SOL    HW216677   0.750   0.129  10.017 -1.4392 -0.2491  0.8805
 1681SOL     OW16678   4.711   3.617  12.305  0.2664 -0.0241 -0.6472
 1681SOL    HW116679   4.641   3.576  12.356  0.1681  0.0770 -0.7002
 1681SOL    HW216680   0.006   3.537  12.264 -0.8843  0.0367 -1.7129
 1682SOL     OW16681   1.249   3.028   5.508 -0.2711  0.2558 -0.0855
 1682SOL    HW116682   1.185   3.079   5.557 -0.9258 -1.2316  0.6275
 1682SOL    HW216683   1.274   3.100   5.450 -0.6611 -0.9669 -1.7745
 1683SOL     OW16684   2.066   0.060   9.746  0.1517  0.3267  0.4345
 1683SOL    HW116685   2.011   0.016   9.811  0.6587 -3.0201 -1.3639
 1683SOL    HW216686   2.022   0.145   9.742  1.8618  1.2768  1.8987
 1684SOL     OW16687   0.684   1.456   2.725 -0.2201 -0.0892 -0.7860
 1684SOL    HW116688   0.756   1.446   2.788  0.3779 -1.7393 -1.7459
 1684SOL    HW216689   0.680   1.366   2.693 -1.4489 -0.1494 -0.4572
 1685SOL     OW16690   0.185   4.223   8.619 -0.4822 -0.2462 -0.2525
 1685SOL    HW116691   0.202   4.257   8.707  1.6927 -0.3391 -0.6155
 1685SOL    HW216692   0.101   4.180   8.631  0.3821 -1.3476  1.8936
 1686SOL     OW16693   0.892   1.565  17.443 -0.2543  0.3650  0.2363
 1686SOL    HW116694   0.882   1.658  17.463 -1.6537  0.2817 -0.0490
 1686SOL    HW216695   0.952   1.542  17.514 -0.7568 -0.4193  0.4156
 1687SOL     OW16696   3.082   0.654   9.521  0.3030 -0.9238  0.0490
 1687SOL    HW116697   3.029   0.698   9.588  0.7900  0.2185 -0.3255
 1687SOL    HW216698   3.027   0.578   9.500  0.1361 -0.3020 -1.7170
 1688SOL     OW16699   1.306   2.284   8.080 -0.5196 -0.1294 -0.5228
 1688SOL    HW116700   1.330   2.204   8.034 -2.2755 -1.3600  0.6987
 1688SOL    HW216701   1.372   2.336   8.034 -0.5644 -0.7557 -1.2929
 1689SOL     OW16702   3.480   0.923   6.988 -0.3019  0.3416 -0.1639
 1689SOL    HW116703   3.499   1.008   7.028  2.7912 -0.7177  0.6411
 1689SOL    HW216704   3.524   0.941   6.906 -1.3493 -3.8945 -1.6418
 1690SOL     OW16705   1.545   2.966  17.718  0.1131  0.0223 -0.3073
 1690SOL    HW116706   1.501   2.981  17.634  1.3711  0.1837 -0.9326
 1690SOL    HW216707   1.540   3.054   0.002  0.8084 -0.5482  1.1357
 1691SOL     OW16708   1.081   4.175  16.406  0.3856  0.1075 -0.0081
 1691SOL    HW116709   1.048   4.151  16.319 -2.5513 -1.7834  1.6268
 1691SOL    HW216710   1.140   4.246  16.380  0.7534 -0.6921 -1.3588
 1692SOL     OW16711   0.229   1.889   4.820 -0.4703  0.1797 -0.1370
 1692SOL    HW116712   0.286   1.882   4.897 -2.7719 -0.9324  1.4469
 1692SOL    HW216713   0.144   1.875   4.861 -1.5762  1.0876 -2.0867
 1693SOL     OW16714   0.193   3.654   5.908  0.0428  0.1179  0.0386
 1693SOL    HW116715   0.160   3.720   5.846 -0.3461  0.5406  0.6974
 1693SOL    HW216716   0.112   3.603   5.906  0.5168 -0.6185 -0.5597
 1694SOL     OW16717   4.118   3.155  13.202 -0.4279  0.6988  0.0422
 1694SOL    HW116718   4.148   3.067  13.224 -0.6087  1.3239  2.7177
 1694SOL    HW216719   4.127   3.147  13.107 -1.0327 -0.0928  0.0536
 1695SOL     OW16720   1.774   1.426   3.978 -0.3662 -0.2351 -0.4360
 1695SOL    HW116721   1.816   1.506   3.946  0.6398 -0.0079  1.4395
 1695SOL    HW216722   1.702   1.459   4.033  0.5593  2.2615 -0.7256
 1696SOL     OW16723   1.686   1.171   7.476  0.1351 -0.2495 -0.2815
 1696SOL    HW116724   1.765   1.181   7.529 -0.0255 -0.7805  0.0582
 1696SOL    HW216725   1.660   1.092   7.524  0.2661 -0.0972  0.0378
 1697SOL     OW16726   2.574   3.671   2.400  0.6951 -0.2530 -0.0034
 1697SOL    HW116727   2.488   3.692   2.436  1.2839  2.6940 -0.2650
 1697SOL    HW216728   2.578   3.729   2.324  1.6246 -1.0241 -0.5311
 1698SOL     OW16729   2.368   3.084  16.539  0.0692  0.4517  0.1971
 1698SOL    HW116730   2.273   3.090  16.526  0.1148  1.2107  0.2126
 1698SOL    HW216731   2.382   3.092  16.633 -1.6898  0.8037  0.4314
 1699SOL     OW16732   2.556   2.740   1.885 -0.0796 -0.0684  0.0358
 1699SOL    HW116733   2.615   2.757   1.812  1.4054 -2.7741  0.5917
 1699SOL    HW216734   2.499   2.669   1.857  1.5612 -2.0068  1.5281
 1700SOL     OW16735   1.809   0.297  14.047  0.4963  0.0878  0.1450
 1700SOL    HW116736   1.805   0.337  13.961 -0.4382 -0.1662  0.0716
 1700SOL    HW216737   1.889   0.329  14.089 -1.0165 -0.6538  3.6493
 1701SOL     OW16738   2.100   2.234   1.351  0.4195 -0.0901 -0.1203
 1701SOL    HW116739   2.080   2.293   1.279  0.6116  0.0118 -0.0875
 1701SOL    HW216740   2.073   2.153   1.306 -1.3191  1.4538 -1.8770
 1702SOL     OW16741   3.880   2.762   8.161 -0.0631  0.3356 -0.0951
 1702SOL    HW116742   3.851   2.852   8.176 -1.6709  0.0707 -1.6261
 1702SOL    HW216743   3.927   2.754   8.244  2.0859 -1.1760 -1.4359
 1703SOL     OW16744   3.145   0.686  10.512 -0.1087  0.5471 -0.1054
 1703SOL    HW116745   3.077   0.714  10.450 -0.3066 -2.8238 -1.4153
 1703SOL    HW216746   3.191   0.626  10.453  0.5566  0.3547  0.6109
 1704SOL     OW16747   0.089   0.001   2.424 -0.2204 -0.2970  0.6259
 1704SOL    HW116748   0.102   4.715   2.332 -1.5506 -2.7189  1.0950
 1704SOL    HW216749   4.735   4.721   2.433 -0.1077 -1.5508 -0.8298
 1705SOL     OW16750   2.993   2.290  11.248 -0.1427  0.2666 -0.5443
 1705SOL    HW116751   2.964   2.374  11.285  2.1056  0.2109  1.3207
 1705SOL    HW216752   3.068   2.322  11.198 -1.7470  2.5357 -1.5517
 1706SOL     OW16753   1.904   4.472  11.916  0.1640 -0.1533 -0.2351
 1706SOL    HW116754   1.918   4.380  11.893  0.8994 -0.3637  1.0472
 1706SOL    HW216755   1.865   4.464  12.003 -1.2163  0.6161 -0.7871
 1707SOL     OW16756   1.383   2.919   7.361  0.4034  0.3392  0.5889
 1707SOL    HW116757   1.468   2.891   7.393  0.5377  1.4182  1.1975
 1707SOL    HW216758   1.369   3.006   7.399  1.6904  0.6440  0.3358
 1708SOL     OW16759   3.679   1.658  10.876  0.2919 -0.2655  0.2801
 1708SOL    HW116760   3.671   1.739  10.926  2.5067 -0.3205  0.7184
 1708SOL    HW216761   3.618   1.669  10.804  1.5704  0.4343 -0.6859
 1709SOL     OW16762   0.562   3.504   9.309  0.1528 -0.2963 -0.4568
 1709SOL    HW116763   0.649   3.470   9.330  0.0498 -0.1399  0.2411
 1709SOL    HW216764   0.512   3.427   9.280  1.0204 -1.8187  2.0727
 1710SOL     OW16765   0.907   4.131   3.819  0.2055 -0.0021 -0.0730
 1710SOL    HW116766   0.941   4.221   3.821  1.0857 -0.2419 -3.7539
 1710SOL    HW216767   0.938   4.103   3.905  0.1296 -1.1668 -0.4263
 1711SOL     OW16768   0.230   3.728  12.385  0.3669  0.0622  0.9034
 1711SOL    HW116769   0.145   3.695  12.356 -0.0377  0.6931  1.3885
 1711SOL    HW216770   0.294   3.660  12.364  0.9748  0.4970  1.3728
 1712SOL     OW16771   0.583   4.082  10.736 -0.6568 -0.2827  0.1782
 1712SOL    HW116772   0.596   4.176  10.750 -2.8077  0.2008 -1.0630
 1712SOL    HW216773   0.487   4.074  10.730 -0.6272 -0.2833 -0.2897
 1713SOL     OW16774   4.107   2.830  13.975  0.2355 -0.4679 -0.1780
 1713SOL    HW116775   4.149   2.831  13.889  0.3780  0.1249 -0.1034
 1713SOL    HW216776   4.170   2.877  14.030 -1.7512  1.6534  0.2654
 1714SOL     OW16777   0.780   0.427   9.360 -0.0311  0.0342  0.1453
 1714SOL    HW116778   0.750   0.336   9.353 -2.3812  0.9537 -1.6760
 1714SOL    HW216779   0.827   0.437   9.278  0.4681 -0.1579  0.4056
 1715SOL     OW16780   1.115   4.369   2.304  0.1388 -0.5096 -0.5578
 1715SOL    HW116781   1.186   4.375   2.241 -1.4933  2.3448 -2.1595
 1715SOL    HW216782   1.108   4.458   2.341 -1.1393 -0.6082 -0.5723
 1716SOL     OW16783   0.170   1.412   3.661 -0.0984  0.0098  0.2392
 1716SOL    HW116784   0.156   1.458   3.578 -0.9698 -1.0723 -0.2191
 1716SOL    HW216785   0.081   1.404   3.694  0.5112  1.0671  2.1611
 1717SOL     OW16786   0.120   2.648   7.094 -0.3906 -0.3880 -0.0544
 1717SOL    HW116787   0.065   2.727   7.092  1.1426  0.6755 -0.1549
 1717SOL    HW216788   0.160   2.646   7.007 -1.3200  3.0172 -0.5859
 1718SOL     OW16789   1.207   2.414   2.868 -0.4758  0.5907  0.2666
 1718SOL    HW116790   1.209   2.490   2.809 -0.4977  0.7217  0.4337
 1718SOL    HW216791   1.254   2.454   2.941  0.2589  0.7559 -0.2946
 1719SOL     OW16792   1.106   3.872  12.957  0.1134  0.1240 -0.0562
 1719SOL    HW116793   1.137   3.856  13.047 -0.7540 -0.0142  0.2229
 1719SOL    HW216794   1.190   3.891  12.916 -0.7793  0.4237 -1.7457
 1720SOL     OW16795   0.274   3.844   2.135 -0.7247 -0.2216  0.9346
 1720SOL    HW116796   0.320   3.904   2.194 -0.7223  1.1438 -0.4715
 1720SOL    HW216797   0.316   3.763   2.165  1.6396  0.6111 -0.1037
 1721SOL     OW16798   1.367   3.323   1.870 -0.0902  0.1011 -0.4283
 1721SOL    HW116799   1.437   3.317   1.804 -0.2926 -1.1464 -0.5244
 1721SOL    HW216800   1.353   3.416   1.849 -0.6598 -0.3430 -2.0434
 1722SOL     OW16801   2.074   1.926   8.501 -0.0011 -0.0314 -0.4660
 1722SOL    HW116802   2.027   1.947   8.582 -0.4305 -1.7407 -0.2731
 1722SOL    HW216803   2.010   1.960   8.438 -0.0099 -1.6343 -1.3071
 1723SOL     OW16804   1.127   4.323  11.246 -0.2106 -0.3726 -0.1856
 1723SOL    HW116805   1.154   4.284  11.329  1.0718  0.4427 -0.2068
 1723SOL    HW216806   1.067   4.390  11.280 -0.5417 -1.1699  0.7988
 1724SOL     OW16807   4.121   2.012   7.202  0.1673  0.2276 -0.7565
 1724SOL    HW116808   4.036   2.011   7.246  0.8330 -0.1653  0.5205
 1724SOL    HW216809   4.182   2.041   7.269 -1.0844 -1.4792  1.1193
 1725SOL     OW16810   1.640   2.076   7.142 -0.1503  0.0112 -0.8359
 1725SOL    HW116811   1.716   2.127   7.113 -0.1260  0.1049 -0.6045
 1725SOL    HW216812   1.567   2.129   7.109 -0.7881 -1.6696 -2.1659
 1726SOL     OW16813   2.047   3.394  16.796 -0.9482 -0.4436 -0.4046
 1726SOL    HW116814   2.009   3.438  16.871  0.6246 -0.8960  0.6648
 1726SOL    HW216815   2.137   3.382  16.827 -0.0854  0.3232 -2.6142
 1727SOL     OW16816   0.443   2.361   8.003  0.3103 -0.7464 -0.3730
 1727SOL    HW116817   0.352   2.390   8.014  0.0730 -1.5009 -0.3908
 1727SOL    HW216818   0.437   2.266   8.012 -1.0010 -0.5188  1.1612
 1728SOL     OW16819   0.705   0.995   5.610  0.1899 -0.5760  0.4252
 1728SOL    HW116820   0.663   0.945   5.540  0.4842 -0.0777 -0.1037
 1728SOL    HW216821   0.716   0.925   5.674  2.6382 -0.6484 -0.0828
 1729SOL     OW16822   1.674   2.619  11.795 -0.7783  0.0634  0.7266
 1729SOL    HW116823   1.585   2.590  11.777 -0.2864 -1.2998  0.5103
 1729SOL    HW216824   1.666   2.652  11.885 -2.0831  1.3807  0.1414
 1730SOL     OW16825   1.757   4.665  11.798  0.2750  0.0280  0.0748
 1730SOL    HW116826   1.800   4.645  11.715  1.6507  2.1450  0.2840
 1730SOL    HW216827   1.819   4.616  11.852  0.1138 -1.2703 -0.9015
 1731SOL     OW16828   3.840   4.695   6.196  0.6287 -0.0468  0.1388
 1731SOL    HW116829   3.825   4.601   6.185  1.6600  0.1644 -2.7877
 1731SOL    HW216830   3.933   4.693   6.216  0.3762  0.0513  1.3525
 1732SOL     OW16831   1.845   2.809   6.886 -0.3013  0.1642  0.3056
 1732SOL    HW116832   1.930   2.842   6.858  0.6369 -2.0430  0.5403
 1732SOL    HW216833   1.865   2.768   6.970 -2.2517 -1.9206 -0.2265
 1733SOL     OW16834   4.374   1.980   9.227 -0.8016  0.5824 -0.2630
 1733SOL    HW116835   4.338   1.933   9.152 -0.6860  2.6290 -1.5922
 1733SOL    HW216836   4.428   2.052   9.195 -0.6589  1.1276  1.2013
 1734SOL     OW16837   4.713   3.710  11.638 -0.1838  0.0470 -0.0659
 1734SOL    HW116838   4.703   3.735  11.730 -1.8521  0.2508 -0.3047
 1734SOL    HW216839   4.708   3.616  11.658 -1.1593  0.0034 -0.5529
 1735SOL     OW16840   4.221   2.179   3.931 -0.2161 -0.1399  0.7573
 1735SOL    HW116841   4.132   2.203   3.957  0.8125  1.9770  2.3616
 1735SOL    HW216842   4.240   2.122   4.005  2.1687 -1.6164 -1.0180
 1736SOL     OW16843   0.278   3.047   4.099 -0.2272 -0.2843  0.2335
 1736SOL    HW116844   0.321   3.012   4.178 -1.5296 -0.3618  0.9073
 1736SOL    HW216845   0.242   3.132   4.126  0.0738  0.2836 -1.1544
 1737SOL     OW16846   4.653   0.367   4.179  0.5224 -0.3174  0.3648
 1737SOL    HW116847   4.567   0.325   4.176  0.1580  0.4971 -0.7731
 1737SOL    HW216848   4.692   0.333   4.259  1.1185  1.5717  0.8760
 1738SOL     OW16849   3.759   2.300  14.922  0.8591 -0.6979  0.1513
 1738SOL    HW116850   3.817   2.305  14.998 -0.0839  1.4270  0.7412
 1738SOL    HW216851   3.801   2.369  14.871 -0.7284  1.1115  1.2674
 1739SOL     OW16852   1.909   3.188  12.525 -0.3742 -0.1410 -0.2293
 1739SOL    HW116853   1.849   3.243  12.574 -0.6853 -1.0539  0.4075
 1739SOL    HW216854   1.927   3.121  12.591  0.4606  0.1355 -0.1664
 1740SOL     OW16855   0.595   0.961   5.975 -0.4783  0.2342 -0.7079
 1740SOL    HW116856   0.680   0.935   6.009 -0.3310 -0.6493 -1.7564
 1740SOL    HW216857   0.556   1.005   6.051 -0.7386 -2.7302  0.8687
 1741SOL     OW16858   1.157   4.134   2.879 -0.1188 -0.1655 -0.2645
 1741SOL    HW116859   1.235   4.188   2.883  0.9820 -1.8156  0.4949
 1741SOL    HW216860   1.127   4.167   2.794 -0.8491 -0.8872 -0.2891
 1742SOL     OW16861   3.390   2.600   8.095 -0.1496  0.5082  0.2341
 1742SOL    HW116862   3.383   2.694   8.080 -0.8111  0.5298  0.6506
 1742SOL    HW216863   3.450   2.575   8.025 -2.5400 -0.5562 -1.4436
 1743SOL     OW16864   2.687   1.194   4.626 -0.3460 -0.0328  0.1526
 1743SOL    HW116865   2.680   1.253   4.700 -1.8358  1.9215 -1.5482
 1743SOL    HW216866   2.775   1.205   4.589  0.3097 -1.3972  1.2845
 1744SOL     OW16867   2.629   0.699   4.638 -0.1724  0.0794  0.5853
 1744SOL    HW116868   2.601   0.788   4.659 -1.6620 -0.7077  1.9408
 1744SOL    HW216869   2.674   0.674   4.719 -0.1413  2.4078  1.3068
 1745SOL     OW16870   1.839   1.456   6.507  0.5299  0.5806  0.2646
 1745SOL    HW116871   1.927   1.456   6.545  0.2858  0.7028  0.8249
 1745SOL    HW216872   1.810   1.376   6.550  1.7659 -0.5330 -0.9746
 1746SOL     OW16873   3.043   0.564   5.999  0.3154  0.2000  0.1665
 1746SOL    HW116874   3.075   0.650   5.973  1.8467 -0.7595 -1.1476
 1746SOL    HW216875   3.117   0.505   5.984 -0.2972 -0.8251  1.1363
 1747SOL     OW16876   2.742   2.148   9.042 -0.3629 -0.0135 -0.2975
 1747SOL    HW116877   2.827   2.110   9.021 -0.3576 -0.1146 -0.0992
 1747SOL    HW216878   2.760   2.206   9.116  0.8970  0.7931 -1.2534
 1748SOL     OW16879   2.539   0.629   1.825  0.1959 -0.2801  0.6569
 1748SOL    HW116880   2.489   0.692   1.877  0.6735 -0.1606  0.9719
 1748SOL    HW216881   2.570   0.572   1.895  2.1782  1.3688  1.1582
 1749SOL     OW16882   1.637   2.658   5.200  0.4745 -0.5631  0.0364
 1749SOL    HW116883   1.646   2.606   5.120 -2.0581 -1.5019  0.3727
 1749SOL    HW216884   1.699   2.720   5.162 -0.6844  1.1976  0.9743
 1750SOL     OW16885   0.382   0.606   6.548 -0.0347 -0.3743  0.2909
 1750SOL    HW116886   0.369   0.511   6.559 -0.1431 -0.5370 -1.2815
 1750SOL    HW216887   0.389   0.609   6.453 -0.0940 -1.3607  0.2500
 1751SOL     OW16888   0.640   2.965   3.126 -0.3061 -0.4951 -0.3410
 1751SOL    HW116889   0.563   2.954   3.070  0.5702 -0.3550 -1.5769
 1751SOL    HW216890   0.681   3.042   3.085 -0.8557  1.2091  2.3267
 1752SOL     OW16891   2.489   4.561   1.622 -0.4448  0.3960  0.0721
 1752SOL    HW116892   2.508   4.468   1.616 -0.6980  0.4088 -0.9697
 1752SOL    HW216893   2.437   4.553   1.702 -0.4101  0.3706  0.0919
 1753SOL     OW16894   3.508   0.876   5.271 -0.1823 -0.1895 -0.3378
 1753SOL    HW116895   3.563   0.947   5.305  0.5396  0.2261 -2.3379
 1753SOL    HW216896   3.562   0.800   5.291  1.7498  1.1772 -0.2469
 1754SOL     OW16897   1.665   3.873   7.953 -0.0173 -0.0706  0.8720
 1754SOL    HW116898   1.755   3.844   7.940  0.1814  0.5685  0.8416
 1754SOL    HW216899   1.681   3.967   7.947 -1.0511  0.1018  0.8760
 1755SOL     OW16900   3.053   1.270  16.529 -0.1530 -0.1732  0.1150
 1755SOL    HW116901   2.980   1.238  16.476 -0.1238 -0.9627  0.5394
 1755SOL    HW216902   3.023   1.355  16.560  0.8938  0.2178  0.0547
 1756SOL     OW16903   0.253   2.377   2.379 -0.2218  0.8176  0.1117
 1756SOL    HW116904   0.210   2.457   2.410 -0.4285  0.9791 -0.5750
 1756SOL    HW216905   0.222   2.302   2.429  1.2159  0.6248  0.7184
 1757SOL     OW16906   1.476   1.703  15.394  0.1511 -0.0110  0.3898
 1757SOL    HW116907   1.500   1.610  15.387 -1.0855 -0.0586 -3.1249
 1757SOL    HW216908   1.558   1.749  15.377  0.4792  0.1795  2.4741
 1758SOL     OW16909   1.287   3.648   8.489 -0.2518  0.3881 -0.4484
 1758SOL    HW116910   1.273   3.675   8.580  1.8517  0.0403 -0.0168
 1758SOL    HW216911   1.305   3.556   8.509  2.1169  1.0853  0.6355
 1759SOL     OW16912   3.492   0.076   9.357  0.1849 -0.2502 -0.3732
 1759SOL    HW116913   3.504   0.160   9.313 -0.5993  0.0305 -0.0566
 1759SOL    HW216914   3.579   0.076   9.395  0.7651 -3.1571 -1.7082
 1760SOL     OW16915   0.090   4.102  14.807  0.1377 -0.1873 -0.3964
 1760SOL    HW116916   0.160   4.149  14.853 -0.7575 -1.4356  2.2422
 1760SOL    HW216917   0.026   4.082  14.875  0.9186  0.7405  0.6304
 1761SOL     OW16918   4.606   3.705   7.858  0.1374 -0.3156 -0.7261
 1761SOL    HW116919   4.678   3.760   7.828  0.7737 -0.7137  0.0632
 1761SOL    HW216920   4.652   3.669   7.935  0.1370  1.6192  0.1790
 1762SOL     OW16921   4.001   0.168   5.214 -0.3207 -0.3121  0.7404
 1762SOL    HW116922   4.047   0.096   5.257 -0.5426 -1.0718 -0.2786
 1762SOL    HW216923   3.983   0.219   5.292  0.0660  0.1746  0.5114
 1763SOL     OW16924   4.492   3.746   6.537 -0.0090  0.3266 -0.2989
 1763SOL    HW116925   4.490   3.720   6.445 -1.9345 -0.7092  0.0328
 1763SOL    HW216926   4.402   3.769   6.558  0.0719 -0.4263  0.8731
 1764SOL     OW16927   3.509   0.636  10.053 -0.2535 -0.5632 -0.3829
 1764SOL    HW116928   3.438   0.584  10.016 -0.4422  1.7148 -3.2419
 1764SOL    HW216929   3.449   0.698  10.095  1.8378  0.7075  0.7063
 1765SOL     OW16930   1.229   4.528   1.891  0.2654  0.3967 -0.0558
 1765SOL    HW116931   1.160   4.532   1.824  0.3312  0.0449 -0.1444
 1765SOL    HW216932   1.283   4.607   1.887  1.7999 -0.6467  0.0608
 1766SOL     OW16933   3.435   0.877   9.130 -0.4800 -0.4934 -0.1251
 1766SOL    HW116934   3.525   0.847   9.138 -0.3599  0.3372  1.8388
 1766SOL    HW216935   3.388   0.794   9.135  0.8553 -1.1564  1.6141
 1767SOL     OW16936   4.082   2.218  12.273 -1.2292 -0.0106 -0.0421
 1767SOL    HW116937   4.039   2.176  12.347 -0.1816 -0.9680  0.0245
 1767SOL    HW216938   4.174   2.201  12.295 -1.0693 -0.0273 -0.7250
 1768SOL     OW16939   1.616   0.772   5.505 -0.6861 -0.4810 -0.2424
 1768SOL    HW116940   1.694   0.743   5.458  0.4623  3.1585 -0.5853
 1768SOL    HW216941   1.551   0.702   5.494  0.6356 -1.9647  1.4207
 1769SOL     OW16942   4.450   0.487   0.098  0.3993 -0.3602 -0.1015
 1769SOL    HW116943   4.386   0.552   0.069  1.5074  0.3288 -0.9838
 1769SOL    HW216944   4.487   0.531   0.174  1.7903 -0.6733 -0.5917
 1770SOL     OW16945   1.881   0.348   6.244  0.2535  0.4618  0.1178
 1770SOL    HW116946   1.829   0.419   6.206  0.7043  0.9725  0.4488
 1770SOL    HW216947   1.921   0.310   6.166  0.6703  0.2183  0.4489
 1771SOL     OW16948   3.994   2.009   9.069 -0.0032 -0.2783 -1.0215
 1771SOL    HW116949   4.056   2.072   9.106  0.7819  0.3615 -3.4731
 1771SOL    HW216950   3.919   2.027   9.126  1.2209 -0.2439  0.5648
 1772SOL     OW16951   4.554   3.427   0.728  0.1985  0.3200 -0.4739
 1772SOL    HW116952   4.599   3.508   0.752  0.7548  0.0639 -0.6528
 1772SOL    HW216953   4.626   3.371   0.698 -1.1290 -1.6276 -0.0727
 1773SOL     OW16954   1.316   1.263   0.117 -0.7373  0.3673 -0.0717
 1773SOL    HW116955   1.317   1.177   0.160  2.6184  1.5235  2.1249
 1773SOL    HW216956   1.299   1.318   0.193  1.4647 -0.4793  1.0200
 1774SOL     OW16957   0.154   0.329  12.054 -0.0454 -0.1082 -0.0689
 1774SOL    HW116958   0.224   0.343  11.990 -0.3928 -0.7779 -0.6054
 1774SOL    HW216959   0.165   0.390  12.126 -0.8805 -1.8967  1.5765
 1775SOL     OW16960   3.956   4.089   8.301 -1.0687  0.2444  0.0803
 1775SOL    HW116961   4.006   4.159   8.259 -1.8121  1.0167  0.4821
 1775SOL    HW216962   3.914   4.125   8.379  2.0837 -1.5547  2.5791
 1776SOL     OW16963   1.593   4.586   6.951 -0.2186  0.1162  0.9406
 1776SOL    HW116964   1.503   4.617   6.959 -0.9185 -1.4585 -0.8791
 1776SOL    HW216965   1.590   4.497   6.986 -1.6773 -0.4971 -0.7327
 1777SOL     OW16966   3.486   4.549   0.442 -1.0724 -0.0095 -0.0836
 1777SOL    HW116967   3.504   4.456   0.452 -2.3773 -0.3851 -1.1821
 1777SOL    HW216968   3.472   4.568   0.534 -0.0954  2.6523 -0.4926
 1778SOL     OW16969   2.526   2.216   3.459  0.6091 -0.0405 -0.1571
 1778SOL    HW116970   2.487   2.288   3.409  2.2204  0.9115 -0.0195
 1778SOL    HW216971   2.507   2.226   3.552 -1.9989  1.3281 -0.8593
 1779SOL     OW16972   4.133   4.180  13.980  0.7159 -0.3146  0.7101
 1779SOL    HW116973   4.100   4.136  13.901 -2.4459  0.0378  1.8496
 1779SOL    HW216974   4.185   4.108  14.014  1.9559 -0.9375 -2.4750
 1780SOL     OW16975   1.795   0.683   5.328  0.5388  0.2819  0.5333
 1780SOL    HW116976   1.777   0.592   5.302 -1.3964  1.3933 -1.9636
 1780SOL    HW216977   1.887   0.680   5.354 -0.2437 -1.6198  3.0605
 1781SOL     OW16978   4.639   2.115   1.485  0.1465  0.1176 -1.0113
 1781SOL    HW116979   4.716   2.103   1.429  0.6269 -1.8953  0.1242
 1781SOL    HW216980   4.593   2.031   1.481  1.6104 -0.6195 -1.9941
 1782SOL     OW16981   2.411   1.739   9.898  0.2824 -0.0902 -0.3144
 1782SOL    HW116982   2.330   1.712   9.941 -1.7620  2.8528 -2.3095
 1782SOL    HW216983   2.449   1.651   9.905  1.2274  0.4008  0.6067
 1783SOL     OW16984   1.164   2.157   1.609 -0.7117 -0.1527 -0.1154
 1783SOL    HW116985   1.100   2.101   1.566 -0.0669  0.0947 -1.4107
 1783SOL    HW216986   1.247   2.129   1.570 -0.7321 -1.4040  0.7365
 1784SOL     OW16987   4.290   1.419   3.983 -0.1656  0.4336 -0.0017
 1784SOL    HW116988   4.348   1.357   4.027 -1.3497 -0.6558 -0.0003
 1784SOL    HW216989   4.351   1.493   3.976 -0.0139  0.0399 -2.7122
 1785SOL     OW16990   1.129   2.495   2.522  0.7514 -0.2835  0.1976
 1785SOL    HW116991   1.037   2.483   2.545  0.7215  0.2455  0.3752
 1785SOL    HW216992   1.155   2.557   2.590  0.9367 -1.4510  1.1829
 1786SOL     OW16993   3.769   1.733   5.127 -0.3152  0.1446 -0.2286
 1786SOL    HW116994   3.858   1.726   5.092 -0.2474 -0.2479  0.0230
 1786SOL    HW216995   3.768   1.689   5.212 -1.7819  2.7338  1.0951
 1787SOL     OW16996   4.114   2.345  13.150  0.0550  0.1266 -0.5905
 1787SOL    HW116997   4.133   2.405  13.223  0.8524  0.6197 -1.1975
 1787SOL    HW216998   4.029   2.379  13.122  0.2256  2.0590  1.2227
 1788SOL     OW16999   3.422   3.356   7.845 -0.7726 -0.1738  0.6945
 1788SOL    HW117000   3.419   3.274   7.796  0.2898  0.4513 -0.4170
 1788SOL    HW217001   3.479   3.415   7.794 -0.5081 -0.2478  0.9049
 1789SOL     OW17002   1.044   1.497  16.353  0.0134  0.0328 -0.2625
 1789SOL    HW117003   1.099   1.569  16.322  0.0119  0.2790  0.3194
 1789SOL    HW217004   0.960   1.528  16.319  0.6265  2.3339  0.3276
 1790SOL     OW17005   1.438   4.392  12.269 -0.3117  0.5759 -0.0168
 1790SOL    HW117006   1.496   4.362  12.199  2.5022  0.3219  2.4087
 1790SOL    HW217007   1.357   4.398  12.218  0.0470 -1.3698 -0.8011
 1791SOL     OW17008   4.510   1.743  12.943  0.0793 -0.1256 -0.1607
 1791SOL    HW117009   4.577   1.700  12.890 -1.1309 -1.0376 -0.9389
 1791SOL    HW217010   4.509   1.831  12.905 -1.8489 -0.5447 -1.0702
 1792SOL     OW17011   1.660   0.709   2.932 -0.3996  0.5903  0.3909
 1792SOL    HW117012   1.616   0.702   2.848  0.4899  1.6505 -0.1529
 1792SOL    HW217013   1.633   0.626   2.972  1.5767  0.6565  1.9103
 1793SOL     OW17014   1.176   4.601  15.427  0.1577 -0.0179 -0.0278
 1793SOL    HW117015   1.118   4.561  15.362 -0.7066  0.4438  0.4543
 1793SOL    HW217016   1.110   4.615  15.495  1.0628  1.0616  0.6430
 1794SOL     OW17017   3.094   0.449  11.103  0.2281 -0.1058 -0.2010
 1794SOL    HW117018   3.073   0.537  11.074 -0.8316 -0.6413 -1.0629
 1794SOL    HW217019   3.088   0.462  11.198  0.0095  1.0809 -0.3819
 1795SOL     OW17020   3.489   1.587   6.418 -0.0387 -0.3961  1.0855
 1795SOL    HW117021   3.507   1.668   6.467 -1.6566  1.0672 -0.7718
 1795SOL    HW217022   3.563   1.583   6.357 -0.8932  0.6860 -0.0227
 1796SOL     OW17023   3.199   0.191   7.962 -0.1720  0.1316 -0.5980
 1796SOL    HW117024   3.127   0.202   8.023 -1.2613  0.2985 -1.9307
 1796SOL    HW217025   3.257   0.263   7.987  1.0610 -1.1565  0.2589
 1797SOL     OW17026   2.935   4.494   0.429  0.0336 -0.0964  0.7086
 1797SOL    HW117027   2.946   4.399   0.432 -1.2623 -0.1888  2.6617
 1797SOL    HW217028   2.845   4.502   0.397  0.9687 -0.8250 -2.1222
 1798SOL     OW17029   2.727   3.490   0.735  0.5971 -0.3152  0.3042
 1798SOL    HW117030   2.709   3.449   0.819 -1.0437 -1.2852 -0.5202
 1798SOL    HW217031   2.659   3.449   0.682 -1.3089  2.8055  0.3312
 1799SOL     OW17032   3.554   0.432   3.704 -0.1040 -0.3315  0.2172
 1799SOL    HW117033   3.576   0.518   3.739  2.1975 -0.4979 -0.8188
 1799SOL    HW217034   3.555   0.393   3.791 -0.1846 -1.2658 -0.1970
 1800SOL     OW17035   2.289   3.972  14.629 -0.0949 -0.6273  0.6489
 1800SOL    HW117036   2.327   3.948  14.713  0.0719 -0.7403  0.5409
 1800SOL    HW217037   2.305   3.893  14.578  1.3321 -1.2580  2.0797
 1801SOL     OW17038   1.404   2.087  14.407  0.1895  0.4629 -0.1815
 1801SOL    HW117039   1.458   2.008  14.418 -0.0399  0.1539 -1.2305
 1801SOL    HW217040   1.370   2.068  14.319 -1.3762 -2.1007  0.9685
 1802SOL     OW17041   0.247   4.079  15.532 -0.2615  0.1869 -0.0907
 1802SOL    HW117042   0.320   4.070  15.592 -0.3344  0.5181  0.0523
 1802SOL    HW217043   0.191   4.149  15.567  0.0444  1.0057 -1.2131
 1803SOL     OW17044   3.041   1.906  13.787  0.1296  0.1305 -0.0243
 1803SOL    HW117045   2.946   1.898  13.786  0.3596 -2.3102 -1.1392
 1803SOL    HW217046   3.051   1.990  13.833 -0.0646 -0.2282  0.6807
 1804SOL     OW17047   0.176   4.043   7.581 -0.2073  0.3437 -0.1577
 1804SOL    HW117048   0.147   3.954   7.602  0.3448  0.2609  0.2652
 1804SOL    HW217049   0.271   4.030   7.575 -0.0935  2.3507 -2.8231
 1805SOL     OW17050   4.570   3.486   9.542 -0.0578  0.2438  0.2583
 1805SOL    HW117051   4.557   3.496   9.637 -3.5023 -0.8506 -0.1031
 1805SOL    HW217052   4.657   3.446   9.547  0.7573  2.0300  0.5660
 1806SOL     OW17053   3.938   2.855   5.675  0.7942  0.0016 -0.4300
 1806SOL    HW117054   3.885   2.934   5.665  0.6390 -0.0953 -0.3707
 1806SOL    HW217055   4.019   2.873   5.627  0.7838  1.8790  0.2632
 1807SOL     OW17056   1.661   0.145   7.401 -0.3310 -0.6085  0.1929
 1807SOL    HW117057   1.629   0.096   7.325 -1.4935  2.2649 -1.1447
 1807SOL    HW217058   1.588   0.131   7.460 -1.3131 -1.2607 -1.1837
 1808SOL     OW17059   0.034   4.443   5.949  0.2265 -0.6475  0.0901
 1808SOL    HW117060   0.073   4.377   6.007 -0.3084 -1.0771 -0.0348
 1808SOL    HW217061   4.700   4.396   5.908  0.6914 -1.9796  0.7814
 1809SOL     OW17062   4.706   4.529  15.831  0.0132 -0.3846 -0.1668
 1809SOL    HW117063   0.030   4.505  15.900 -2.1038 -2.5390  0.9790
 1809SOL    HW217064   4.678   4.616  15.861  0.5943 -0.2628  0.0267
 1810SOL     OW17065   4.387   0.905   6.410 -0.0950 -0.2014 -0.0440
 1810SOL    HW117066   4.478   0.931   6.394 -0.3175  1.0728  0.7112
 1810SOL    HW217067   4.384   0.935   6.501 -0.6656  3.5653 -1.2810
 1811SOL     OW17068   4.658   1.315   3.743  0.0628 -0.4105  0.0257
 1811SOL    HW117069   4.701   1.314   3.829  0.7548  2.5482 -0.3035
 1811SOL    HW217070   4.635   1.222   3.742  0.3476 -0.4697 -1.0595
 1812SOL     OW17071   4.646   3.480   8.490 -0.0903  0.2376  0.4807
 1812SOL    HW117072   4.703   3.479   8.567 -0.6819 -1.1084  0.9054
 1812SOL    HW217073   4.702   3.532   8.432  0.2445 -0.5079  0.1347
 1813SOL     OW17074   1.823   0.770   5.734 -0.1257  0.4439  0.5164
 1813SOL    HW117075   1.772   0.764   5.653 -2.5080  0.8197  1.9892
 1813SOL    HW217076   1.906   0.799   5.694 -0.2009 -0.6850 -0.4559
 1814SOL     OW17077   0.215   2.107   7.764  0.4798 -0.7261  0.0212
 1814SOL    HW117078   0.169   2.046   7.707  0.1379 -1.3804  0.9930
 1814SOL    HW217079   0.188   2.191   7.726  1.1190 -0.3756  0.3395
 1815SOL     OW17080   2.586   1.497   8.252 -0.4140  0.0901 -0.3846
 1815SOL    HW117081   2.518   1.509   8.186  0.6615 -2.8443 -2.0354
 1815SOL    HW217082   2.535   1.508   8.332  3.8072 -0.0029  2.3310
 1816SOL     OW17083   3.913   1.159  13.632  0.7302  0.1941  0.1131
 1816SOL    HW117084   3.960   1.243  13.622  0.4210  0.2858 -0.5863
 1816SOL    HW217085   3.822   1.181  13.615  0.7292  0.4046  0.3946
 1817SOL     OW17086   4.229   0.100  14.640  0.1628 -0.2058  0.3567
 1817SOL    HW117087   4.214   0.006  14.629  1.2810 -0.3921  0.4718
 1817SOL    HW217088   4.297   0.119  14.575 -0.0838  0.9732  0.4303
 1818SOL     OW17089   2.132   4.390   6.465 -0.0274 -0.0039 -0.2694
 1818SOL    HW117090   2.048   4.360   6.501 -0.3778  2.6513  1.1785
 1818SOL    HW217091   2.104   4.404   6.375  2.2623  1.7577 -0.6928
 1819SOL     OW17092   2.512   4.512   2.920 -0.2931 -0.1822  0.0653
 1819SOL    HW117093   2.431   4.472   2.890  0.6865 -2.7149  0.8473
 1819SOL    HW217094   2.526   4.569   2.844 -2.1936  2.3969  1.6317
 1820SOL     OW17095   1.165   1.179   5.580  0.7058 -0.1514  0.3237
 1820SOL    HW117096   1.137   1.267   5.606 -2.2221 -1.4771  1.6886
 1820SOL    HW217097   1.198   1.153   5.667 -0.9121  3.5450  2.0063
 1821SOL     OW17098   4.279   2.109  13.112 -0.1926 -0.5686  0.3898
 1821SOL    HW117099   4.204   2.050  13.115  0.1319 -0.9534  1.1456
 1821SOL    HW217100   4.232   2.186  13.143 -2.8057 -1.3571 -1.6550
 1822SOL     OW17101   2.137   0.148   2.968 -0.3727  0.2173  0.2125
 1822SOL    HW117102   2.107   0.065   3.006 -0.0159  0.6788  1.5110
 1822SOL    HW217103   2.067   0.209   2.989 -0.2391  0.3460  0.2851
 1823SOL     OW17104   3.251   2.701  10.598 -0.1525 -0.6140  0.8173
 1823SOL    HW117105   3.211   2.641  10.661 -2.7093  1.2236  0.9430
 1823SOL    HW217106   3.328   2.737  10.641 -0.5723  2.3615 -0.9162
 1824SOL     OW17107   2.880   2.478   1.571  1.2599 -0.8024  0.3776
 1824SOL    HW117108   2.930   2.417   1.518  0.1153 -1.6577  0.2814
 1824SOL    HW217109   2.909   2.460   1.661 -0.2842  0.9593  1.2552
 1825SOL     OW17110   3.410   0.345   4.079 -0.0178 -0.2805  0.1052
 1825SOL    HW117111   3.475   0.276   4.093 -2.4134 -2.6309 -0.4921
 1825SOL    HW217112   3.334   0.294   4.053 -0.2919 -0.1054  0.5673
 1826SOL     OW17113   2.504   3.983  10.476 -0.1171 -0.4208  0.1338
 1826SOL    HW117114   2.530   3.999  10.566 -0.0834  1.7560 -0.2710
 1826SOL    HW217115   2.444   3.911  10.498 -1.0033  0.5403  0.8834
 1827SOL     OW17116   4.427   1.909   2.675  0.7803  0.0122  0.2552
 1827SOL    HW117117   4.413   1.838   2.738  0.3312  1.0717  1.3574
 1827SOL    HW217118   4.408   1.875   2.588  2.8164  0.6907 -0.4390
 1828SOL     OW17119   0.792   4.148  17.596  0.1870  0.3003  0.1177
 1828SOL    HW117120   0.873   4.197  17.586  0.3145  0.0805  0.0631
 1828SOL    HW217121   0.734   4.216  17.630 -1.6958 -1.6769  0.8905
 1829SOL     OW17122   3.664   3.353   3.459 -0.2103  0.2722  0.0379
 1829SOL    HW117123   3.640   3.356   3.552  0.4597 -3.2699  0.3046
 1829SOL    HW217124   3.582   3.379   3.417 -0.8445 -2.6404 -0.5403
 1830SOL     OW17125   1.997   2.477   6.732  0.1052 -0.1576 -0.0981
 1830SOL    HW117126   2.065   2.451   6.671 -1.9388 -1.4143 -1.8383
 1830SOL    HW217127   1.922   2.475   6.673 -0.8409 -0.9860  1.1265
 1831SOL     OW17128   1.981   0.583   7.560  0.2854 -0.8156 -0.3698
 1831SOL    HW117129   2.041   0.508   7.560 -0.2411 -1.2161 -2.4118
 1831SOL    HW217130   1.972   0.608   7.468  0.9389  3.5846  0.7712
 1832SOL     OW17131   1.563   1.476   4.427 -0.9112 -0.2070 -0.1119
 1832SOL    HW117132   1.470   1.457   4.437 -1.3256  0.9374 -1.7729
 1832SOL    HW217133   1.574   1.550   4.487 -1.1684 -0.7604  0.6172
 1833SOL     OW17134   2.434   4.391   7.607 -0.1477 -0.6389 -0.3014
 1833SOL    HW117135   2.510   4.447   7.592  1.4237 -3.4472 -2.6744
 1833SOL    HW217136   2.401   4.422   7.692  0.6129  1.9548 -0.9743
 1834SOL     OW17137   1.451   2.458   6.546 -0.1608  0.1506  0.1480
 1834SOL    HW117138   1.423   2.373   6.513  2.0847 -0.4859 -0.0956
 1834SOL    HW217139   1.538   2.467   6.508  0.6559  0.3788  2.0605
 1835SOL     OW17140   0.672   0.635   7.754  0.4875  0.0196  0.1238
 1835SOL    HW117141   0.603   0.569   7.742 -0.1365  0.2532  2.4301
 1835SOL    HW217142   0.682   0.644   7.659 -3.2027 -2.5780 -0.5395
 1836SOL     OW17143   4.500   1.984  13.187 -0.5925 -0.0363 -0.4113
 1836SOL    HW117144   4.419   2.034  13.178 -0.7236 -0.3594 -0.9839
 1836SOL    HW217145   4.461   1.906  13.227 -1.4670  0.3975 -0.4112
 1837SOL     OW17146   2.420   1.986   3.066 -0.0206 -0.5135  0.1343
 1837SOL    HW117147   2.470   1.952   2.992 -0.1288  0.6742 -0.4850
 1837SOL    HW217148   2.405   1.908   3.118 -1.4513  1.1324  2.1848
 1838SOL     OW17149   1.565   2.340  14.543  0.3474 -0.1395  0.4759
 1838SOL    HW117150   1.536   2.355  14.453  0.0711  0.3787  0.6481
 1838SOL    HW217151   1.640   2.284  14.525  1.6537  1.9656 -0.6219
 1839SOL     OW17152   0.406   2.197   0.596  0.2169 -0.1739  0.0946
 1839SOL    HW117153   0.337   2.258   0.571  1.2351  0.8693 -0.1431
 1839SOL    HW217154   0.356   2.115   0.593 -0.4010  0.2745 -1.8085
 1840SOL     OW17155   3.625   3.860   1.100  0.3033 -0.2313 -0.4172
 1840SOL    HW117156   3.706   3.819   1.071 -1.4370 -2.1897 -2.4815
 1840SOL    HW217157   3.642   3.951   1.075  0.2334 -0.3519 -0.9026
 1841SOL     OW17158   4.230   1.322   7.022 -0.6049 -0.1106  0.3627
 1841SOL    HW117159   4.208   1.230   7.032  0.5598 -0.4585 -0.3352
 1841SOL    HW217160   4.291   1.324   6.948  2.3402 -1.7954  2.7219
 1842SOL     OW17161   4.609   0.374   3.046  0.2630  0.3513  0.7715
 1842SOL    HW117162   4.594   0.454   3.098  2.1532 -0.2177  2.1653
 1842SOL    HW217163   4.580   0.324   3.123 -1.6934 -1.8069 -1.3511
 1843SOL     OW17164   2.035   0.508   6.778 -0.2140 -0.0660  0.2061
 1843SOL    HW117165   1.964   0.572   6.774  1.5742  1.8587 -0.6015
 1843SOL    HW217166   2.110   0.555   6.816 -0.4167  0.0344  0.4842
 1844SOL     OW17167   0.501   2.188   9.550 -0.4897  0.1311  0.8340
 1844SOL    HW117168   0.442   2.133   9.602  0.0867  1.0276  2.4206
 1844SOL    HW217169   0.526   2.132   9.477  0.0754  2.7697 -0.9873
 1845SOL     OW17170   4.300   2.620   8.403  0.5117 -0.3880  0.8639
 1845SOL    HW117171   4.300   2.592   8.495  0.0053 -1.1141  0.6459
 1845SOL    HW217172   4.225   2.678   8.389  0.0004 -1.5005 -1.0963
 1846SOL     OW17173   2.493   1.313   7.454 -0.7264 -0.3310  0.0015
 1846SOL    HW117174   2.514   1.406   7.444  2.6262 -1.1043 -0.2522
 1846SOL    HW217175   2.417   1.307   7.396 -0.3786 -0.4289 -0.4454
 1847SOL     OW17176   3.843   0.222  16.322  0.6144  0.3129  0.6206
 1847SOL    HW117177   3.756   0.231  16.283  1.4412  0.4332 -1.1842
 1847SOL    HW217178   3.815   0.179  16.403 -1.2724  1.1832  0.4377
 1848SOL     OW17179   3.102   4.153   5.158  0.0372 -0.3049  0.2763
 1848SOL    HW117180   3.108   4.239   5.117  1.6334 -0.7547 -0.4382
 1848SOL    HW217181   3.192   4.122   5.167  0.9942  1.8661 -1.8748
 1849SOL     OW17182   2.347   3.142  12.132 -0.6097  0.3242 -0.0288
 1849SOL    HW117183   2.390   3.141  12.217  2.2339  0.9783 -1.4494
 1849SOL    HW217184   2.357   3.048  12.115 -0.3703  0.3379  0.0447
 1850SOL     OW17185   1.991   3.958   8.735  0.3543 -0.0979  0.1262
 1850SOL    HW117186   1.984   4.053   8.744  1.5346 -0.4241  4.4599
 1850SOL    HW217187   1.910   3.941   8.783  0.6239 -0.3110  0.5091
 1851SOL     OW17188   2.635   0.068   4.105 -0.1684  0.4773 -0.0210
 1851SOL    HW117189   2.639   0.005   4.178 -1.5680 -1.1985 -1.3768
 1851SOL    HW217190   2.711   0.122   4.128  1.2105 -0.4996 -2.3563
 1852SOL     OW17191   0.993   1.599   1.770 -0.1371  0.3160  0.2097
 1852SOL    HW117192   0.910   1.559   1.796 -0.0493  1.6139  2.4410
 1852SOL    HW217193   1.002   1.583   1.675 -1.5447 -1.5643  0.3801
 1853SOL     OW17194   0.630   2.764   4.613 -0.2775 -0.4070  0.5262
 1853SOL    HW117195   0.544   2.721   4.614 -0.5559  0.1276 -0.4365
 1853SOL    HW217196   0.621   2.816   4.692 -2.0043  2.1709 -1.3809
 1854SOL     OW17197   0.970   3.962   6.002  0.4876  0.1506 -0.0093
 1854SOL    HW117198   0.931   3.946   5.916  0.2092  1.7092 -0.1713
 1854SOL    HW217199   1.010   4.044   5.974  0.5172 -0.0163 -0.4573
 1855SOL     OW17200   1.446   1.918   8.587  0.1155 -0.0985  0.0440
 1855SOL    HW117201   1.433   1.826   8.561 -1.9542  0.9290 -2.4894
 1855SOL    HW217202   1.518   1.952   8.534  1.6878 -2.4885  0.6371
 1856SOL     OW17203   3.748   0.977   5.030  0.8016  0.2741  0.0102
 1856SOL    HW117204   3.669   0.942   4.989 -0.4030  2.1465  0.7552
 1856SOL    HW217205   3.753   0.928   5.112 -1.8208 -2.0391 -1.2051
 1857SOL     OW17206   1.650   1.971   8.413  0.3279  0.4377  0.2380
 1857SOL    HW117207   1.588   1.978   8.340  1.7270 -0.4101 -1.0203
 1857SOL    HW217208   1.729   2.015   8.381  0.1851  1.4458  1.2823
 1858SOL     OW17209   2.348   2.432   3.350 -0.5197  0.0586  0.2077
 1858SOL    HW117210   2.256   2.409   3.366 -0.4851 -0.1509  0.1017
 1858SOL    HW217211   2.360   2.430   3.255  1.1365  2.2925  0.3765
 1859SOL     OW17212   1.963   4.141   5.759  0.8028  0.2853  0.5971
 1859SOL    HW117213   1.951   4.102   5.846  0.4644 -1.5773 -0.2973
 1859SOL    HW217214   1.950   4.233   5.784  1.1614  0.4546  0.1434
 1860SOL     OW17215   0.888   4.430   8.472 -0.1095 -0.5054 -0.3891
 1860SOL    HW117216   0.817   4.367   8.484  0.5336 -1.1615 -0.0519
 1860SOL    HW217217   0.962   4.372   8.451  0.5742  0.7415 -1.4374
 1861SOL     OW17218   2.237   1.556   7.790 -0.1119 -0.1424  0.3690
 1861SOL    HW117219   2.313   1.502   7.811 -1.1047 -2.2502 -1.5052
 1861SOL    HW217220   2.226   1.553   7.695  2.1553 -1.9931  0.1704
 1862SOL     OW17221   1.467   1.923   1.739  0.4394 -0.3163 -0.1340
 1862SOL    HW117222   1.377   1.895   1.754  0.3349 -0.1774 -0.4908
 1862SOL    HW217223   1.461   1.976   1.659 -0.5546 -0.6254 -0.2645
 1863SOL     OW17224   1.941   3.594   7.544 -0.3598 -0.5549  0.2620
 1863SOL    HW117225   1.998   3.519   7.528  0.2520 -0.5447  2.3236
 1863SOL    HW217226   1.862   3.558   7.503  0.6563 -2.2077 -0.2097
 1864SOL     OW17227   3.287   2.433   6.942  0.5697  0.3097  0.4266
 1864SOL    HW117228   3.311   2.487   7.017 -1.4286  0.7628  0.7575
 1864SOL    HW217229   3.292   2.492   6.866 -2.5756  1.6819  1.2700
 1865SOL     OW17230   1.974   3.923  11.763 -0.0525  0.4380 -0.1152
 1865SOL    HW117231   1.915   3.925  11.688  0.0820 -0.7149 -0.2488
 1865SOL    HW217232   1.958   3.841  11.809  1.7790 -0.9706 -1.9771
 1866SOL     OW17233   0.983   0.284   8.865 -0.0834 -0.2351  0.2869
 1866SOL    HW117234   0.910   0.307   8.807 -0.4692  1.1848  1.3151
 1866SOL    HW217235   0.955   0.203   8.908 -1.4673  0.1060  0.0595
 1867SOL     OW17236   4.660   1.689   6.196 -0.0798 -0.0870 -0.3675
 1867SOL    HW117237   4.645   1.622   6.262  0.7398 -1.6675 -1.7868
 1867SOL    HW217238   4.663   1.768   6.250 -1.1486  0.9035 -1.7581
 1868SOL     OW17239   3.809   0.338   5.418 -0.1995  0.4364 -0.2266
 1868SOL    HW117240   3.744   0.347   5.487  1.5128 -1.9158  1.6965
 1868SOL    HW217241   3.882   0.292   5.460 -0.4210  2.0964  1.9475
 1869SOL     OW17242   1.502   3.651   7.996  0.6278  0.5454  0.2762
 1869SOL    HW117243   1.494   3.747   7.996 -0.6600  0.4334  0.0577
 1869SOL    HW217244   1.594   3.647   8.024  1.0358  1.6961 -0.9192
 1870SOL     OW17245   0.617   2.821  13.740 -0.4752  0.2112  0.2802
 1870SOL    HW117246   0.636   2.896  13.796  0.7769  0.2876 -0.2355
 1870SOL    HW217247   0.642   2.857  13.655 -0.1091  2.2357  1.2476
 1871SOL     OW17248   4.585   3.014  12.399  0.3250 -0.1940 -0.3921
 1871SOL    HW117249   4.539   2.935  12.426 -2.2267  1.0050 -1.2808
 1871SOL    HW217250   4.530   3.076  12.446  0.4530 -0.0195 -0.4708
 1872SOL     OW17251   0.111   4.558   5.721 -0.0778 -0.1432 -0.2163
 1872SOL    HW117252   0.107   4.502   5.798 -1.0461 -0.5812 -0.5842
 1872SOL    HW217253   0.165   4.497   5.670 -1.2092 -0.2814 -1.2563
 1873SOL     OW17254   2.410   2.679   0.957 -1.2122 -0.1838 -0.4812
 1873SOL    HW117255   2.332   2.699   0.905 -1.8337 -3.9650 -1.0492
 1873SOL    HW217256   2.388   2.592   0.990 -1.6946  0.5767  1.1973
 1874SOL     OW17257   0.729   4.301   5.764 -0.7828 -0.5083 -0.2309
 1874SOL    HW117258   0.653   4.358   5.756 -1.7394 -1.5582  1.3755
 1874SOL    HW217259   0.677   4.226   5.794 -1.3238  0.7640  2.0446
 1875SOL     OW17260   1.774   0.559   7.123 -0.1200  0.0853  0.4954
 1875SOL    HW117261   1.735   0.512   7.196 -0.8792 -1.4381 -0.8935
 1875SOL    HW217262   1.806   0.489   7.067 -3.3786  0.8241 -2.2386
 1876SOL     OW17263   0.363   0.917   1.025 -0.7279  0.6996  0.1977
 1876SOL    HW117264   0.319   0.857   1.085  1.5482  0.2960  1.5013
 1876SOL    HW217265   0.340   0.874   0.943  0.2825 -2.1387  1.4020
 1877SOL     OW17266   3.551   4.501   4.666  0.0649 -0.0794 -0.2222
 1877SOL    HW117267   3.641   4.529   4.651  0.6170 -2.7916 -1.9402
 1877SOL    HW217268   3.512   4.589   4.676  0.2663  0.0061 -0.1942
 1878SOL     OW17269   3.344   1.606   5.477  0.1983  0.5825  0.5345
 1878SOL    HW117270   3.407   1.538   5.453 -0.2648  0.2677  0.2214
 1878SOL    HW217271   3.408   1.667   5.514  0.6510  1.6244 -1.9637
 1879SOL     OW17272   0.348   3.010   4.596 -0.1859 -0.2080  0.5090
 1879SOL    HW117273   0.294   2.931   4.602  2.3437 -1.9335  0.7477
 1879SOL    HW217274   0.420   2.997   4.658 -1.3590 -1.4731  1.6219
 1880SOL     OW17275   3.675   1.251   5.125  0.0549 -0.0868 -0.0149
 1880SOL    HW117276   3.588   1.258   5.086 -0.7799  0.5585  1.9609
 1880SOL    HW217277   3.715   1.182   5.072  0.5060 -0.5443  0.9209
 1881SOL     OW17278   1.831   3.657   6.599 -0.2258 -0.1579 -0.2145
 1881SOL    HW117279   1.920   3.665   6.633 -0.4995 -0.2137  0.5134
 1881SOL    HW217280   1.837   3.570   6.560  0.1907 -1.6155  3.1045
 1882SOL     OW17281   0.410   0.483   3.353 -0.4840  0.1778  0.2930
 1882SOL    HW117282   0.476   0.545   3.384 -0.2286  1.0316 -1.9310
 1882SOL    HW217283   0.457   0.404   3.379 -0.8514  0.2988  1.3398
 1883SOL     OW17284   0.103   4.483   8.477 -0.5917 -0.2731 -0.3802
 1883SOL    HW117285   0.107   4.388   8.465 -1.9014 -0.7141  2.7176
 1883SOL    HW217286   0.026   4.491   8.533 -0.7297 -2.6530 -0.2502
 1884SOL     OW17287   0.361   0.509   5.691 -0.2374 -0.4822  0.0452
 1884SOL    HW117288   0.325   0.420   5.694 -0.0189 -0.5680  0.0850
 1884SOL    HW217289   0.322   0.539   5.773 -1.7949 -1.3141 -0.3905
 1885SOL     OW17290   2.078   3.658   6.720  0.1844  0.2121  0.1316
 1885SOL    HW117291   2.072   3.599   6.795  0.2607 -1.0773 -0.8548
 1885SOL    HW217292   2.121   3.732   6.762 -2.4626  1.1059  1.2520
 1886SOL     OW17293   3.826   1.212  10.090  0.1554 -0.0948  0.0561
 1886SOL    HW117294   3.806   1.119  10.091  1.4515 -0.4049 -2.2598
 1886SOL    HW217295   3.914   1.222  10.054  0.4476 -0.6746  0.6256
 1887SOL     OW17296   0.205   1.187   6.963  0.1695 -0.5150  0.1119
 1887SOL    HW117297   0.232   1.107   6.919  3.1261  0.5540 -0.0140
 1887SOL    HW217298   0.279   1.203   7.022  0.2681 -1.6262  0.2868
 1888SOL     OW17299   0.282   2.986   1.674  0.0693  0.0264 -0.3409
 1888SOL    HW117300   0.224   2.951   1.741 -0.0383  1.3569  0.2674
 1888SOL    HW217301   0.322   3.052   1.731  0.8097 -0.5293 -0.2228
 1889SOL     OW17302   0.326   3.461   8.351 -0.2982 -0.0931 -0.4192
 1889SOL    HW117303   0.362   3.409   8.279 -2.2399 -1.6030 -0.2878
 1889SOL    HW217304   0.388   3.445   8.422 -0.1809  0.4971 -0.3918
 1890SOL     OW17305   1.320   2.711   8.416 -0.0933 -0.4374 -0.5258
 1890SOL    HW117306   1.298   2.658   8.338 -1.2259 -2.5510  1.2121
 1890SOL    HW217307   1.334   2.642   8.481  0.2874 -1.6332 -1.8657
 1891SOL     OW17308   2.757   3.823   2.216  0.6442  0.0792  0.3248
 1891SOL    HW117309   2.789   3.863   2.297  0.4530  1.2907 -0.1946
 1891SOL    HW217310   2.820   3.753   2.202  0.5634  0.5999 -2.7233
 1892SOL     OW17311   4.494   3.769   1.926  0.5499  0.3347 -0.2326
 1892SOL    HW117312   4.520   3.834   1.861  1.0906 -0.0855 -0.4394
 1892SOL    HW217313   4.566   3.765   1.990  0.9467  1.6015 -0.6012
 1893SOL     OW17314   3.081   1.851  12.957 -0.5646 -0.2046 -0.4103
 1893SOL    HW117315   3.080   1.766  13.002 -1.9858 -0.9454 -1.8196
 1893SOL    HW217316   3.170   1.877  12.979 -0.1580 -1.4516 -0.5438
 1894SOL     OW17317   3.890   2.177   8.747 -0.2230  0.4053  0.1747
 1894SOL    HW117318   3.835   2.220   8.813 -0.4655  0.1773  0.1211
 1894SOL    HW217319   3.833   2.101   8.737 -1.9774  1.3846  2.6423
 1895SOL     OW17320   1.280   0.188   7.051 -0.3474 -0.0285 -0.0443
 1895SOL    HW117321   1.186   0.174   7.059 -0.5999  0.6949 -1.6610
 1895SOL    HW217322   1.315   0.152   7.132  0.7671 -0.3516 -0.6714
 1896SOL     OW17323   1.931   1.719   6.991  0.3668  0.8115  0.6751
 1896SOL    HW117324   1.921   1.647   6.929  0.6866 -0.0638  1.6435
 1896SOL    HW217325   2.011   1.694   7.038  1.8273  0.7147 -1.8849
 1897SOL     OW17326   4.597   4.543   9.080 -0.2932  0.1982  0.2753
 1897SOL    HW117327   4.662   4.573   9.017  0.6673 -1.1159  0.6309
 1897SOL    HW217328   4.527   4.560   9.017 -1.3165 -0.5171  1.2097
 1898SOL     OW17329   1.478   1.159  12.643  0.0627  0.2615  0.0392
 1898SOL    HW117330   1.397   1.208  12.651  0.9642  1.8216 -0.5070
 1898SOL    HW217331   1.472   1.095  12.714  0.0825 -0.0867 -0.2731
 1899SOL     OW17332   0.802   1.939   3.115  0.1320 -0.3117 -0.2478
 1899SOL    HW117333   0.857   2.008   3.152 -0.9853  0.6453 -0.3586
 1899SOL    HW217334   0.738   1.932   3.185  0.0555 -2.7551 -0.5706
 1900SOL     OW17335   4.513   2.338   1.647  0.0087 -0.5717 -0.6951
 1900SOL    HW117336   4.583   2.276   1.627  1.1772  0.3380  0.5784
 1900SOL    HW217337   4.552   2.420   1.676 -0.2826 -0.8478  0.4827
 1901SOL     OW17338   3.719   2.478  10.567  0.4201 -0.0493 -0.0887
 1901SOL    HW117339   3.795   2.526  10.533  1.3150 -1.7518 -0.4670
 1901SOL    HW217340   3.694   2.424  10.493 -0.3149  0.4857 -0.2300
 1902SOL     OW17341   3.211   4.290   8.944  0.3512 -0.1632  0.9522
 1902SOL    HW117342   3.139   4.227   8.951 -0.4011  0.6486  0.5894
 1902SOL    HW217343   3.196   4.327   8.857  0.9107 -2.5142 -0.1407
 1903SOL     OW17344   4.176   4.565  14.507 -0.1316  0.6238 -0.0537
 1903SOL    HW117345   4.192   4.514  14.587 -0.0306 -2.7347 -2.2254
 1903SOL    HW217346   4.086   4.536  14.493  0.1269  0.3329 -1.0571
 1904SOL     OW17347   0.047   2.878  16.836 -0.0374  0.1968  0.4362
 1904SOL    HW117348   0.052   2.850  16.744  2.1826  2.1186 -0.0236
 1904SOL    HW217349   4.730   2.955  16.833 -1.7443 -1.0808 -0.7632
 1905SOL     OW17350   1.349   4.122   6.840 -0.5324 -0.0228  0.5420
 1905SOL    HW117351   1.268   4.124   6.789  0.2435  1.1877 -0.6739
 1905SOL    HW217352   1.412   4.070   6.789  0.3486  1.0367  0.5522
 1906SOL     OW17353   4.524   3.996   5.893 -0.6900 -0.1451  0.3491
 1906SOL    HW117354   4.447   4.024   5.843 -0.7952  1.0854  1.2121
 1906SOL    HW217355   4.480   3.982   5.977 -0.1962  1.6314  0.8940
 1907SOL     OW17356   3.629   4.570  12.381  0.1338  0.2245  0.1015
 1907SOL    HW117357   3.533   4.569  12.388  0.0628  0.6319 -0.7867
 1907SOL    HW217358   3.648   4.493  12.329 -0.0745 -0.4512  1.0305
 1908SOL     OW17359   2.049   1.388   1.390 -0.1928 -0.6514 -0.1830
 1908SOL    HW117360   1.989   1.435   1.333 -1.0829 -2.0081 -0.3587
 1908SOL    HW217361   2.040   1.441   1.469 -1.5745 -0.2286 -0.6259
 1909SOL     OW17362   4.706   0.252  11.163 -0.4671  0.2333  0.0586
 1909SOL    HW117363   4.725   0.306  11.086  2.1165 -1.1552 -0.2806
 1909SOL    HW217364   0.003   0.304  11.235  1.6795 -0.9006 -0.1637
 1910SOL     OW17365   0.805   0.752   2.986  0.0250  0.8342  0.3948
 1910SOL    HW117366   0.718   0.748   2.946  0.2386 -1.3476  0.1302
 1910SOL    HW217367   0.843   0.671   2.952  2.0732  1.9658  0.0024
 1911SOL     OW17368   2.324   1.945  13.326 -0.0380  0.2228 -0.0218
 1911SOL    HW117369   2.261   2.015  13.309  0.8367  1.0089 -0.0403
 1911SOL    HW217370   2.345   1.920  13.236 -1.6439  2.5419 -1.0337
 1912SOL     OW17371   3.904   1.723   9.069  0.1269 -0.2612  0.3917
 1912SOL    HW117372   3.945   1.809   9.079 -0.0370 -0.1279 -0.0938
 1912SOL    HW217373   3.882   1.700   9.159  1.3875 -1.4451  0.3987
 1913SOL     OW17374   2.823   4.037   4.377  0.0464 -0.3772  0.2440
 1913SOL    HW117375   2.798   3.944   4.375  0.2092 -0.3914 -1.0629
 1913SOL    HW217376   2.859   4.048   4.289 -0.2126  1.9382  0.4362
 1914SOL     OW17377   3.857   0.314  11.577  0.1121  0.8947  0.4998
 1914SOL    HW117378   3.876   0.296  11.485 -0.4220  0.3390  0.4963
 1914SOL    HW217379   3.806   0.238  11.601 -0.4709  1.3910  0.8316
 1915SOL     OW17380   2.149   3.413   7.527  0.1918 -0.0970  0.1717
 1915SOL    HW117381   2.205   3.469   7.582  0.3389 -0.9609  0.8907
 1915SOL    HW217382   2.091   3.381   7.596  0.0194 -0.9532 -0.3760
 1916SOL     OW17383   2.212   0.091   7.435  0.1409 -0.3542 -0.2055
 1916SOL    HW117384   2.293   0.059   7.474 -1.2174 -1.6716  1.5645
 1916SOL    HW217385   2.165   0.008   7.433 -0.0991 -0.1973 -0.9419
 1917SOL     OW17386   0.536   3.556  16.309 -0.7498  0.2460  0.2040
 1917SOL    HW117387   0.503   3.643  16.290  2.8169  1.4912 -0.3495
 1917SOL    HW217388   0.509   3.542  16.400  0.7817 -0.7957  0.5092
 1918SOL     OW17389   2.286   3.222  14.476  0.5356  0.3084  0.8869
 1918SOL    HW117390   2.325   3.140  14.444  2.6151  0.4982  2.9205
 1918SOL    HW217391   2.192   3.214  14.462  0.7598 -1.8342  0.5994
 1919SOL     OW17392   0.448   1.243  17.444  0.1665  0.3847 -0.3337
 1919SOL    HW117393   0.435   1.211  17.355  1.9644 -2.6990  0.4861
 1919SOL    HW217394   0.405   1.328  17.443  0.1568  0.4019  1.7288
 1920SOL     OW17395   3.275   0.950   6.705  0.2688  0.4456 -0.2902
 1920SOL    HW117396   3.368   0.958   6.724  0.3709 -1.3758 -0.0055
 1920SOL    HW217397   3.271   0.899   6.624  0.0898 -0.4230  0.2621
 1921SOL     OW17398   4.540   1.645   6.493  0.1965 -0.3246  0.4730
 1921SOL    HW117399   4.628   1.682   6.485  0.7446 -1.4559  1.2891
 1921SOL    HW217400   4.542   1.602   6.578  2.6746 -2.9796 -0.9387
 1922SOL     OW17401   4.021   0.479   6.082  0.2451  0.8123 -0.0707
 1922SOL    HW117402   3.970   0.547   6.125  2.8995  1.9036  1.3232
 1922SOL    HW217403   4.100   0.525   6.053  0.2255 -0.6722 -2.4806
 1923SOL     OW17404   4.337   2.757   1.633  0.0133  0.8226  0.1504
 1923SOL    HW117405   4.286   2.680   1.608 -0.2919  1.2026 -0.4075
 1923SOL    HW217406   4.385   2.729   1.711 -1.0304 -2.8518 -0.5214
 1924SOL     OW17407   1.701   3.849  14.788  0.2090 -0.4419 -0.2238
 1924SOL    HW117408   1.621   3.877  14.743  0.6972  0.2061 -0.6794
 1924SOL    HW217409   1.764   3.876  14.722  0.2542 -0.6946 -0.2833
 1925SOL     OW17410   0.200   4.728  12.363  0.3607  0.1144  0.1548
 1925SOL    HW117411   0.247   4.686  12.435  1.8221  0.6188 -0.5093
 1925SOL    HW217412   0.129   0.027  12.415  2.8754  2.3201  1.9260
 1926SOL     OW17413   1.015   4.504  15.236 -0.5441 -0.4373  0.4905
 1926SOL    HW117414   0.922   4.489  15.221 -0.7400 -0.8683  2.1646
 1926SOL    HW217415   1.047   4.470  15.153  0.9971 -1.1683  1.3885
 1927SOL     OW17416   2.681   3.708   7.922 -0.1848 -0.3222 -0.6349
 1927SOL    HW117417   2.732   3.632   7.947 -0.7239 -0.1025  1.1149
 1927SOL    HW217418   2.642   3.744   8.002 -0.1838 -0.9100 -0.3758
 1928SOL     OW17419   4.541   2.722   4.393  0.7885 -0.1880 -0.1325
 1928SOL    HW117420   4.477   2.713   4.323  1.6489 -2.3799 -0.6415
 1928SOL    HW217421   4.612   2.749   4.335 -0.5932  1.7220 -0.9068
 1929SOL     OW17422   2.288   3.849   5.182  0.0751 -0.1785 -0.5824
 1929SOL    HW117423   2.326   3.786   5.243 -3.2065 -1.1134  0.4810
 1929SOL    HW217424   2.360   3.912   5.182 -0.9143  0.9474  0.7712
 1930SOL     OW17425   3.776   0.613   6.957 -0.2489  0.2860 -0.0325
 1930SOL    HW117426   3.803   0.696   6.918  1.7213 -0.1425  0.4298
 1930SOL    HW217427   3.681   0.612   6.944 -0.2963  1.3022  0.2126
 1931SOL     OW17428   2.619   2.594   1.579  0.6409 -0.3784 -0.1196
 1931SOL    HW117429   2.705   2.553   1.581  0.0761 -1.7587 -3.7641
 1931SOL    HW217430   2.565   2.535   1.631  0.5573 -1.2657 -1.2204
 1932SOL     OW17431   1.890   4.110   2.541 -0.1605  0.0099 -0.3074
 1932SOL    HW117432   1.829   4.121   2.614  0.3933  0.7452  0.0416
 1932SOL    HW217433   1.949   4.051   2.586 -1.9098 -0.0936  1.8345
 1933SOL     OW17434   1.760   0.861   7.364  0.0138 -0.2098 -0.3825
 1933SOL    HW117435   1.814   0.872   7.442 -1.3610 -1.5499  0.7679
 1933SOL    HW217436   1.682   0.905   7.399  0.3391  0.2945 -0.2905
 1934SOL     OW17437   1.541   3.383   5.470  0.2330 -0.0328 -0.1294
 1934SOL    HW117438   1.576   3.411   5.386  0.9161 -0.7816 -0.0935
 1934SOL    HW217439   1.500   3.302   5.439 -0.8029  0.5061 -0.1748
 1935SOL     OW17440   3.404   1.613   5.861  0.1686  0.2934 -0.1525
 1935SOL    HW117441   3.323   1.663   5.857 -0.2376 -0.2223  1.6418
 1935SOL    HW217442   3.367   1.524   5.853 -1.3235  0.7980  1.1532
 1936SOL     OW17443   2.357   3.515   9.701  0.6531  0.0795 -0.2047
 1936SOL    HW117444   2.343   3.527   9.608  0.0857  0.8813 -0.0075
 1936SOL    HW217445   2.452   3.514   9.712  0.6375  0.1343 -0.0566
 1937SOL     OW17446   4.526   2.461   8.574 -0.6009  0.0424  0.6244
 1937SOL    HW117447   4.552   2.510   8.652  2.3828  0.1604 -0.4407
 1937SOL    HW217448   4.556   2.373   8.597 -2.5411 -0.7595  0.1229
 1938SOL     OW17449   0.515   2.413   2.199 -0.5225  0.1731 -0.3120
 1938SOL    HW117450   0.504   2.358   2.121 -0.8720 -2.6454  1.7578
 1938SOL    HW217451   0.430   2.400   2.241  0.2561  2.7482  2.0725
 1939SOL     OW17452   0.261   3.882  12.130 -0.2905 -0.1673  0.5357
 1939SOL    HW117453   0.270   3.832  12.211 -0.4293 -0.3700  0.4272
 1939SOL    HW217454   0.351   3.875  12.100 -0.1551 -0.1388  0.9407
 1940SOL     OW17455   3.448   2.738   5.609 -0.1890  0.1301  0.0099
 1940SOL    HW117456   3.369   2.738   5.663 -0.8065 -1.6107 -0.8769
 1940SOL    HW217457   3.503   2.669   5.645 -0.2059 -1.1418 -2.3880
 1941SOL     OW17458   0.298   0.094   6.924 -0.5543  0.0320  0.0847
 1941SOL    HW117459   0.315   0.170   6.980  1.6668 -0.1356 -0.3866
 1941SOL    HW217460   0.306   0.027   6.993  0.8588 -1.8666 -1.9357
 1942SOL     OW17461   4.206   0.618  10.460 -0.5694  0.7328  0.1996
 1942SOL    HW117462   4.206   0.668  10.542 -1.0362 -3.2293  2.6127
 1942SOL    HW217463   4.137   0.665  10.413 -1.7653 -0.1423  1.0822
 1943SOL     OW17464   1.516   2.636  17.235  0.0584  0.1345  0.2448
 1943SOL    HW117465   1.542   2.655  17.145 -2.1155  1.5941 -0.0718
 1943SOL    HW217466   1.426   2.604  17.222  0.6089 -0.6378 -1.7241
 1944SOL     OW17467   3.305   1.831   4.056 -0.1193 -0.0102 -0.2728
 1944SOL    HW117468   3.299   1.905   4.116  0.2908 -2.5232  2.8780
 1944SOL    HW217469   3.336   1.875   3.977 -1.3452  0.6731 -0.3701
 1945SOL     OW17470   2.218   2.121   6.516  0.0425 -0.3183  0.1424
 1945SOL    HW117471   2.152   2.189   6.505  0.8592  0.5944  0.8959
 1945SOL    HW217472   2.293   2.173   6.543 -0.2637 -0.1445  0.6459
 1946SOL     OW17473   3.618   2.315   7.958 -0.3846  0.8398  0.3363
 1946SOL    HW117474   3.572   2.235   7.981 -2.7366  1.5861 -1.7186
 1946SOL    HW217475   3.699   2.311   8.009  0.3796  1.7550 -0.7829
 1947SOL     OW17476   0.069   3.052   9.155 -0.8138  0.5491 -0.3260
 1947SOL    HW117477   0.123   2.976   9.178 -0.0601  1.4764  1.0226
 1947SOL    HW217478   0.007   3.022   9.089 -1.0740 -1.3181  0.7739
 1948SOL     OW17479   2.648   0.018   6.423 -0.1344 -0.1145  0.9036
 1948SOL    HW117480   2.601   0.083   6.370  2.5361 -0.2467 -1.6310
 1948SOL    HW217481   2.601   4.674   6.411  0.6281 -0.3297 -0.5621
 1949SOL     OW17482   0.658   3.863   2.270 -0.5195  0.7779  0.5585
 1949SOL    HW117483   0.677   3.837   2.180  2.3259  0.3292  1.2942
 1949SOL    HW217484   0.679   3.956   2.283  2.4517 -0.1990  3.0451
 1950SOL     OW17485   0.594   2.075   9.306  0.0400 -0.2505  0.4771
 1950SOL    HW117486   0.681   2.113   9.294  0.9292 -2.1345  0.9589
 1950SOL    HW217487   0.555   2.090   9.220  2.6721  2.5378 -0.2308
 1951SOL     OW17488   1.987   4.489   8.044  0.0734 -0.3302 -0.5574
 1951SOL    HW117489   2.035   4.571   8.033  3.1229 -2.2595 -1.6864
 1951SOL    HW217490   1.912   4.516   8.097  1.3145  0.5251  0.7446
 1952SOL     OW17491   0.551   0.065   2.284 -0.0254 -0.5625  0.1810
 1952SOL    HW117492   0.579   0.029   2.368 -0.7199 -2.3324 -0.3400
 1952SOL    HW217493   0.517   4.721   2.250  1.2725 -1.0325  0.0188
 1953SOL     OW17494   1.051   0.346   2.651 -0.0486  0.1816 -0.0602
 1953SOL    HW117495   1.034   0.254   2.635 -2.2326  1.2581 -3.7302
 1953SOL    HW217496   1.073   0.380   2.564 -0.1170 -0.5213 -0.3495
 1954SOL     OW17497   2.363   1.548   4.334 -0.4284 -0.1152  0.4752
 1954SOL    HW117498   2.276   1.585   4.322 -0.1469  1.3966  2.9457
 1954SOL    HW217499   2.356   1.459   4.300  2.2306  0.0319 -0.4747
 1955SOL     OW17500   3.841   1.169   1.404 -0.0538 -0.0388  0.1796
 1955SOL    HW117501   3.850   1.085   1.360  0.4473  0.0843  0.0468
 1955SOL    HW217502   3.759   1.165   1.452  0.4993 -3.4360  0.8199
 1956SOL     OW17503   1.247   1.889   5.150  0.5854  0.0129 -0.5132
 1956SOL    HW117504   1.241   1.827   5.078 -0.0426  1.6517 -1.8479
 1956SOL    HW217505   1.216   1.970   5.109 -1.5335  1.6453  4.3000
 1957SOL     OW17506   1.255   3.263  17.235  0.1941  0.3837 -0.2038
 1957SOL    HW117507   1.163   3.246  17.254  0.0993 -0.4131 -1.3209
 1957SOL    HW217508   1.284   3.172  17.244  0.3592  0.3280 -1.2093
 1958SOL     OW17509   0.394   2.377   9.164 -0.4325  0.1423  0.1878
 1958SOL    HW117510   0.300   2.382   9.150 -0.0490 -0.6502 -2.7887
 1958SOL    HW217511   0.426   2.446   9.106  2.5906 -0.1944  1.4662
 1959SOL     OW17512   4.652   4.243   5.822  0.2548 -0.4512  0.0981
 1959SOL    HW117513   4.714   4.225   5.751 -2.6414 -2.7730 -1.8291
 1959SOL    HW217514   4.631   4.157   5.861 -0.3238  0.0267  0.8457
 1960SOL     OW17515   4.286   1.744   6.423  0.1505  0.6084 -0.1317
 1960SOL    HW117516   4.362   1.734   6.480  0.6262  0.1424 -0.8375
 1960SOL    HW217517   4.310   1.679   6.357  1.4333  1.9923 -1.0183
 1961SOL     OW17518   0.318   4.579  16.780  0.1189 -0.6180  0.2809
 1961SOL    HW117519   0.306   4.575  16.685 -0.6715  3.5455  0.1835
 1961SOL    HW217520   0.368   4.661  16.780  0.3951 -0.7856  1.3243
 1962SOL     OW17521   0.701   3.970   3.078 -0.2252  0.0305  0.1040
 1962SOL    HW117522   0.727   3.925   2.997  1.4217 -0.7695  1.0911
 1962SOL    HW217523   0.753   4.050   3.069  1.8037 -1.0384  2.3698
 1963SOL     OW17524   0.764   1.486   4.720  0.8700 -0.0155 -0.6933
 1963SOL    HW117525   0.675   1.479   4.685  0.2491 -0.9246  1.0775
 1963SOL    HW217526   0.752   1.498   4.814 -0.7081 -0.8667 -0.8015
 1964SOL     OW17527   2.183   3.532   2.851  0.3191 -0.3600  0.3005
 1964SOL    HW117528   2.270   3.514   2.817 -0.3563  0.0609 -1.6423
 1964SOL    HW217529   2.202   3.528   2.945  1.8275 -3.5079 -0.1451
 1965SOL     OW17530   2.447   2.366   3.940  0.5005  0.1230 -0.1500
 1965SOL    HW117531   2.391   2.290   3.920  0.8407  0.7127 -3.4727
 1965SOL    HW217532   2.409   2.423   3.872 -1.9151 -1.0697  0.1707
 1966SOL     OW17533   4.151   3.125   7.135 -0.2282 -0.2700 -0.2145
 1966SOL    HW117534   4.173   3.037   7.167 -0.8438 -0.7897 -1.2431
 1966SOL    HW217535   4.233   3.172   7.151  2.0185 -2.9360 -3.9319
 1967SOL     OW17536   2.604   1.653   4.177  0.7571  0.0631 -0.3833
 1967SOL    HW117537   2.534   1.609   4.224  0.5072 -0.8190 -1.5769
 1967SOL    HW217538   2.650   1.695   4.250 -1.9231 -1.9307  2.4478
 1968SOL     OW17539   2.285   3.210   3.984 -0.4089 -0.3920  0.4116
 1968SOL    HW117540   2.349   3.161   3.932  0.2926 -1.0896  1.9338
 1968SOL    HW217541   2.257   3.269   3.915  1.3559  0.3048  0.2953
 1969SOL     OW17542   1.611   1.040   1.761 -0.4254  0.0296 -0.1006
 1969SOL    HW117543   1.636   1.057   1.852  0.5328  0.7227 -0.4898
 1969SOL    HW217544   1.525   1.079   1.748 -0.4228  0.1022  0.0895
 1970SOL     OW17545   3.712   0.063   7.545 -0.3108  0.0993 -0.3729
 1970SOL    HW117546   3.762   4.722   7.558 -0.4146  0.0981  0.0116
 1970SOL    HW217547   3.704   0.070   7.449 -0.7754 -0.9566 -0.4133
 1971SOL     OW17548   0.359   3.640  11.736  0.3147  0.0272 -0.4758
 1971SOL    HW117549   0.298   3.706  11.768  1.8368  1.2755 -0.1604
 1971SOL    HW217550   0.331   3.559  11.778 -0.3184 -0.4562 -1.8494
 1972SOL     OW17551   1.470   0.152   5.593 -0.0686 -0.1869  0.3299
 1972SOL    HW117552   1.385   0.192   5.577  0.1728 -0.5920 -1.9154
 1972SOL    HW217553   1.526   0.229   5.598  0.5439 -0.5327 -1.2371
 1973SOL     OW17554   0.464   4.604  10.867 -0.7741 -0.1006 -0.0927
 1973SOL    HW117555   0.450   4.532  10.805  0.6688  0.8280 -1.5054
 1973SOL    HW217556   0.436   4.559  10.947 -0.6471 -1.1196 -0.6240
 1974SOL     OW17557   2.773   0.545   3.069 -0.3341  0.1524 -0.0724
 1974SOL    HW117558   2.856   0.585   3.041  0.0374 -1.7623 -1.7395
 1974SOL    HW217559   2.810   0.503   3.147 -0.3647 -0.2007 -0.2472
 1975SOL     OW17560   1.172   2.385   7.324 -0.6788  0.1019  0.4969
 1975SOL    HW117561   1.124   2.369   7.406 -1.9370  1.2459 -0.0399
 1975SOL    HW217562   1.223   2.465   7.338  0.8882 -1.2664  2.7242
 1976SOL     OW17563   4.001   3.524  12.214  0.0624 -0.6565  0.3047
 1976SOL    HW117564   3.906   3.529  12.204 -0.0287  2.1457  2.6657
 1976SOL    HW217565   4.015   3.617  12.229  1.9738 -1.0280  0.7275
 1977SOL     OW17566   3.020   0.263   8.144 -0.1902  0.6374 -1.2842
 1977SOL    HW117567   2.942   0.295   8.100 -0.7828  0.3929 -0.4179
 1977SOL    HW217568   3.081   0.336   8.151  0.1349  0.4130 -1.8102
 1978SOL     OW17569   1.033   1.424  14.110  0.5257  0.0596 -0.5095
 1978SOL    HW117570   1.118   1.382  14.119  0.2333 -0.8143 -1.8221
 1978SOL    HW217571   1.053   1.493  14.046 -2.0412  0.8707 -0.4266
 1979SOL     OW17572   2.259   3.770   8.873 -0.1865 -0.5015 -0.0888
 1979SOL    HW117573   2.206   3.850   8.880  0.6965  0.0306  0.4061
 1979SOL    HW217574   2.322   3.810   8.814 -0.2019 -0.2574  0.0576
 1980SOL     OW17575   1.123   2.092  12.720 -0.5136  0.5797  0.0540
 1980SOL    HW117576   1.148   2.097  12.812  2.7017  0.1927 -0.7883
 1980SOL    HW217577   1.088   2.003  12.721 -1.5104  0.9976  1.2729
 1981SOL     OW17578   4.073   2.613   3.545 -0.2622  0.2070 -0.2370
 1981SOL    HW117579   4.076   2.610   3.450  0.5611  0.0499 -0.2089
 1981SOL    HW217580   4.115   2.696   3.567 -1.8002  0.5255  1.5266
 1982SOL     OW17581   3.196   3.948   2.094  0.2645  0.3973  0.1160
 1982SOL    HW117582   3.191   3.858   2.063  0.1112  0.1073  0.9915
 1982SOL    HW217583   3.226   3.934   2.184  1.6423  0.9355 -0.2554
 1983SOL     OW17584   3.169   3.762   9.663  0.0160  0.2467  0.4418
 1983SOL    HW117585   3.208   3.695   9.719 -1.7710 -1.0971  0.0733
 1983SOL    HW217586   3.243   3.820   9.646 -0.0120  0.7123  1.9399
 1984SOL     OW17587   0.929   3.970   0.732  0.0658 -0.2328 -0.0733
 1984SOL    HW117588   0.851   4.018   0.706  0.9162 -0.0939 -2.3672
 1984SOL    HW217589   0.994   4.038   0.713  0.5688 -0.7773 -0.2944
 1985SOL     OW17590   0.375   1.065   9.166 -0.0019 -0.2157 -0.5754
 1985SOL    HW117591   0.428   1.143   9.183  0.9918 -1.0912  0.3236
 1985SOL    HW217592   0.304   1.076   9.229 -0.3733 -0.5550 -0.9331
 1986SOL     OW17593   2.717   1.868   3.677 -0.0963  0.3011 -0.3820
 1986SOL    HW117594   2.812   1.864   3.672 -0.0748 -0.0946  0.4399
 1986SOL    HW217595   2.705   1.871   3.771  0.2896 -0.3422 -0.3122
 1987SOL     OW17596   1.215   4.577   2.161 -0.2377  0.3578  0.2254
 1987SOL    HW117597   1.175   4.660   2.135  2.3242  0.7688 -2.3744
 1987SOL    HW217598   1.203   4.531   2.078 -0.8872  1.2627 -0.1884
 1988SOL     OW17599   2.397   2.978   4.313  0.4775 -0.0921 -0.2009
 1988SOL    HW117600   2.365   2.904   4.262  0.6063  0.8103 -1.5934
 1988SOL    HW217601   2.428   3.043   4.250  1.5454  0.1844  0.6123
 1989SOL     OW17602   1.530   4.469   0.728  0.3934  0.4378  0.2760
 1989SOL    HW117603   1.501   4.557   0.705  4.0261  1.9378  1.3032
 1989SOL    HW217604   1.569   4.479   0.815 -0.9676  0.1806  0.9077
 1990SOL     OW17605   0.647   3.532   8.760  0.6063 -0.1012 -0.0640
 1990SOL    HW117606   0.738   3.550   8.785  1.0657  0.4819 -2.0832
 1990SOL    HW217607   0.616   3.513   8.848 -1.6749  0.2747 -0.7915
 1991SOL     OW17608   2.060   1.054   6.154 -0.2640 -0.6820 -0.1162
 1991SOL    HW117609   2.093   0.975   6.198 -1.0867 -1.6994 -1.3084
 1991SOL    HW217610   2.007   1.096   6.221  0.4630 -0.2375  0.1752
 1992SOL     OW17611   1.040   3.582   4.947 -0.3791 -0.2256 -0.1223
 1992SOL    HW117612   1.036   3.595   5.042  0.5735  1.7050 -0.3632
 1992SOL    HW217613   1.131   3.592   4.917 -0.4151 -0.2296 -0.2306
 1993SOL     OW17614   0.476   3.013  15.482 -0.0970 -0.3284  0.2122
 1993SOL    HW117615   0.503   3.063  15.559  1.6010  1.0571 -1.2936
 1993SOL    HW217616   0.552   2.966  15.448 -0.5411 -2.9538  2.8788
 1994SOL     OW17617   3.778   3.221   6.190 -0.4570 -0.1067 -0.1399
 1994SOL    HW117618   3.764   3.145   6.135  0.4540 -0.8253  0.6198
 1994SOL    HW217619   3.844   3.196   6.254 -0.4815 -0.7610 -0.3717
 1995SOL     OW17620   0.074   0.653   9.716  0.7261 -0.0265 -0.0632
 1995SOL    HW117621   0.165   0.677   9.703  0.9646 -1.4525 -1.0609
 1995SOL    HW217622   0.078   0.603   9.798 -1.1728 -0.3478 -0.1632
 1996SOL     OW17623   4.260   2.155   2.635 -0.2359  0.0502 -0.0016
 1996SOL    HW117624   4.320   2.200   2.575  1.1527 -1.3034  0.3792
 1996SOL    HW217625   4.313   2.078   2.653 -1.0530 -0.2286  1.1877
 1997SOL     OW17626   2.773   0.340   8.018  0.3628  0.0074  0.6097
 1997SOL    HW117627   2.757   0.366   7.928 -0.4543 -0.0879  0.7232
 1997SOL    HW217628   2.690   0.342   8.066 -0.0764 -3.2067 -0.0123
 1998SOL     OW17629   2.540   0.209   4.597 -0.3657  0.1060 -0.4460
 1998SOL    HW117630   2.558   0.295   4.558 -0.5917 -0.5499 -2.0088
 1998SOL    HW217631   2.447   0.223   4.613  0.3772  1.0784  2.8472
 1999SOL     OW17632   3.592   2.166   1.770  0.0777  0.1339 -0.2781
 1999SOL    HW117633   3.678   2.172   1.812  0.0486  2.0649 -0.5425
 1999SOL    HW217634   3.606   2.207   1.686 -0.0984 -0.9673 -0.8492
 2000SOL     OW17635   1.508   4.654   7.891  0.3218 -0.4477  0.2505
 2000SOL    HW117636   1.468   4.732   7.853  0.1255 -1.3245 -1.3532
 2000SOL    HW217637   1.536   4.610   7.811 -0.2533  0.6978 -0.5720
 2001SOL     OW17638   4.489   0.529   3.517  0.3149 -0.3941 -0.1355
 2001SOL    HW117639   4.446   0.584   3.582 -1.7552 -1.6810 -0.4030
 2001SOL    HW217640   4.510   0.598   3.454 -2.6480  0.7089  0.0981
 2002SOL     OW17641   0.758   2.310   8.172  0.1359 -0.4125  0.5432
 2002SOL    HW117642   0.823   2.322   8.242 -1.6554 -1.4053  2.3604
 2002SOL    HW217643   0.813   2.250   8.121 -2.0371 -2.8516  1.0587
 2003SOL     OW17644   1.952   0.599   0.994  0.0635 -0.5928 -0.1822
 2003SOL    HW117645   1.862   0.584   0.967  0.2303 -1.2169 -0.4017
 2003SOL    HW217646   1.984   0.608   0.905 -0.2266  0.1114 -0.2093
 2004SOL     OW17647   1.071   3.505   7.883  0.8543 -0.1433  0.5411
 2004SOL    HW117648   1.094   3.591   7.847 -1.8128 -0.2999 -1.5077
 2004SOL    HW217649   1.126   3.452   7.825  2.4511  1.8094  0.2409
 2005SOL     OW17650   0.677   3.048   4.324 -0.3494  0.1138  0.1754
 2005SOL    HW117651   0.658   3.054   4.230 -0.2266  0.3674  0.1667
 2005SOL    HW217652   0.651   3.135   4.353 -2.0257 -0.1708 -0.4354
 2006SOL     OW17653   1.696   0.511   6.144  0.3632  0.1716 -0.4245
 2006SOL    HW117654   1.621   0.471   6.189 -0.2283  1.8830  0.1230
 2006SOL    HW217655   1.656   0.598   6.138  0.1430  0.1498  0.6307
 2007SOL     OW17656   3.895   4.596   7.606 -0.0822 -0.1339 -0.0129
 2007SOL    HW117657   3.973   4.624   7.560  0.6678 -2.3791 -0.0989
 2007SOL    HW217658   3.852   4.526   7.558 -2.1123  0.6945  0.5644
 2008SOL     OW17659   2.729   3.280   4.450  0.0491  0.1902 -0.4077
 2008SOL    HW117660   2.761   3.197   4.483  2.7457  0.9566 -1.0884
 2008SOL    HW217661   2.728   3.324   4.535  0.3990  1.0505 -0.8404
 2009SOL     OW17662   4.536   2.838   2.708  0.3118 -0.0044 -0.7052
 2009SOL    HW117663   4.450   2.795   2.705 -0.9743  2.6545 -1.6493
 2009SOL    HW217664   4.535   2.876   2.795  1.4995 -0.7547 -0.3562
 2010SOL     OW17665   2.892   0.903   2.081  0.1154  0.3223 -0.0258
 2010SOL    HW117666   2.983   0.903   2.111  0.1292 -0.7754 -0.0746
 2010SOL    HW217667   2.872   0.997   2.072 -3.4275 -0.3534  0.8808
 2011SOL     OW17668   0.399   4.353   7.438  0.3760  0.1376  0.4507
 2011SOL    HW117669   0.329   4.331   7.499 -0.4833 -0.1230 -0.6339
 2011SOL    HW217670   0.354   4.425   7.392  2.6749  0.2475 -1.6492
 2012SOL     OW17671   1.202   3.664   6.297  0.1332  0.6146 -0.1533
 2012SOL    HW117672   1.207   3.568   6.296  1.7912  0.7614 -3.9395
 2012SOL    HW217673   1.197   3.686   6.204  2.3855 -1.5424 -0.7741
 2013SOL     OW17674   0.429   2.703  17.689  0.4668  0.3889  0.0417
 2013SOL    HW117675   0.374   2.767  17.734  0.4280  1.2808 -1.2928
 2013SOL    HW217676   0.400   2.721  17.600  0.6676  0.8347  0.0656
 2014SOL     OW17677   3.948   1.290  14.503  0.1038 -0.1042 -0.6126
 2014SOL    HW117678   3.904   1.363  14.460  1.2224  1.6724  1.2692
 2014SOL    HW217679   3.980   1.239  14.428 -1.3137 -0.5858 -0.8863
 2015SOL     OW17680   1.853   4.549   8.551  0.7798  0.3015  0.3622
 2015SOL    HW117681   1.922   4.529   8.615  0.5785  2.2048  1.1690
 2015SOL    HW217682   1.773   4.544   8.602 -1.0690  3.4737 -2.2570
 2016SOL     OW17683   3.244   4.655   8.302  1.0981 -0.4504 -0.5373
 2016SOL    HW117684   3.314   4.675   8.365  0.7636 -1.2861  0.1007
 2016SOL    HW217685   3.298   4.631   8.227  1.4390  0.7807 -0.6878
 2017SOL     OW17686   4.354   3.073   3.310  0.0838  0.2063  0.6239
 2017SOL    HW117687   4.323   3.037   3.227  2.5374 -1.3376  0.3813
 2017SOL    HW217688   4.277   3.121   3.341 -1.4807 -1.4743 -0.7197
 2018SOL     OW17689   2.725   2.367  12.595  0.0147 -0.1758  0.2569
 2018SOL    HW117690   2.760   2.299  12.652  1.0788 -1.0060 -1.3984
 2018SOL    HW217691   2.696   2.432  12.660  1.9089 -0.2431  1.1588
 2019SOL     OW17692   1.057   0.505   2.376  0.1902 -0.2667  0.3666
 2019SOL    HW117693   0.984   0.564   2.394  0.1371 -0.6626  1.4397
 2019SOL    HW217694   1.026   0.457   2.298  0.4042  1.4554 -0.7745
 2020SOL     OW17695   2.041   1.042   8.740  0.3145  0.2433 -0.2259
 2020SOL    HW117696   1.969   0.980   8.729  0.3200 -0.3894  3.2295
 2020SOL    HW217697   2.008   1.115   8.792 -2.7731 -2.6669  1.8535
 2021SOL     OW17698   2.471   4.591  16.758  0.1379  0.2774  0.1350
 2021SOL    HW117699   2.389   4.639  16.768 -0.2430  0.1565 -2.6303
 2021SOL    HW217700   2.466   4.533  16.683  0.4717  2.2756 -1.4226
 2022SOL     OW17701   1.573   0.463   4.492  0.2118  0.8956  0.6807
 2022SOL    HW117702   1.611   0.375   4.497  0.9359  1.1893  0.2966
 2022SOL    HW217703   1.540   0.463   4.402  0.6638  1.3132  0.5188
 2023SOL     OW17704   3.886   0.417   3.856  0.2868  0.5299  0.0007
 2023SOL    HW117705   3.972   0.397   3.891  1.2114  3.4428 -0.6324
 2023SOL    HW217706   3.884   0.511   3.839  2.1346  0.5065 -0.2486
 2024SOL     OW17707   1.471   0.075   8.894 -0.2899  0.1451  0.5044
 2024SOL    HW117708   1.480   0.168   8.875  0.8703  0.1363  1.0474
 2024SOL    HW217709   1.546   0.062   8.952 -1.2946 -1.1867  1.5167
 2025SOL     OW17710   0.484   3.865   3.776  0.1431 -0.3929  0.3049
 2025SOL    HW117711   0.439   3.874   3.692 -1.0763  0.8648  1.0828
 2025SOL    HW217712   0.562   3.916   3.755  0.1688 -0.8761 -0.7821
 2026SOL     OW17713   1.453   4.236   1.625 -0.1810 -0.2691  0.2215
 2026SOL    HW117714   1.474   4.158   1.573  0.1714 -0.3646  0.5063
 2026SOL    HW217715   1.530   4.288   1.601 -1.2107  1.4344  0.6455
 2027SOL     OW17716   0.671   2.527  15.718 -0.0168  0.5027 -0.7971
 2027SOL    HW117717   0.738   2.492  15.660 -1.0241  0.3937 -1.8813
 2027SOL    HW217718   0.624   2.589  15.663  0.4167  1.1685 -0.4160
 2028SOL     OW17719   1.719   3.591  14.538  0.5122  0.2533 -0.1908
 2028SOL    HW117720   1.625   3.587  14.522  0.6142 -0.8037 -0.5490
 2028SOL    HW217721   1.726   3.685  14.523  0.6609  0.3183  0.2792
 2029SOL     OW17722   4.330   0.732   4.425  0.4294  0.0648  0.0666
 2029SOL    HW117723   4.272   0.657   4.414  1.6457 -1.2160  2.3864
 2029SOL    HW217724   4.418   0.702   4.406  0.4451  1.0023 -1.3534
 2030SOL     OW17725   0.120   0.526   9.440  0.1660  0.3512  0.0420
 2030SOL    HW117726   0.083   0.574   9.514 -1.7964  0.7594 -1.2062
 2030SOL    HW217727   0.206   0.566   9.448  0.4741  0.1203 -2.0756
 2031SOL     OW17728   1.603   2.427   1.357 -0.0195 -0.1788  0.1645
 2031SOL    HW117729   1.623   2.519   1.341  2.5832 -0.5279  1.3340
 2031SOL    HW217730   1.688   2.384   1.341 -0.2287 -0.0011 -1.3435
 2032SOL     OW17731   2.844   3.158   9.189 -0.1016  0.3610 -0.1099
 2032SOL    HW117732   2.889   3.238   9.219 -0.0593  0.6064 -0.8330
 2032SOL    HW217733   2.912   3.114   9.139  0.6981  2.0770 -0.5304
 2033SOL     OW17734   2.747   4.174   3.990  0.4648 -0.0686 -0.5620
 2033SOL    HW117735   2.781   4.117   4.058 -2.2419 -0.4476  0.4612
 2033SOL    HW217736   2.825   4.180   3.935 -0.3425  2.3057 -1.4596
 2034SOL     OW17737   0.388   0.935   6.383 -0.3536  0.7752 -0.1418
 2034SOL    HW117738   0.405   0.844   6.357 -2.5251  0.3668 -0.1605
 2034SOL    HW217739   0.309   0.957   6.332 -0.0705  0.7457 -0.5985
 2035SOL     OW17740   3.480   1.116   7.910  0.3756  0.2532  0.0276
 2035SOL    HW117741   3.434   1.097   7.992 -0.2498  3.7413  0.5109
 2035SOL    HW217742   3.470   1.211   7.903  0.9173  0.3471  0.5284
 2036SOL     OW17743   2.837   0.271  12.795 -0.2932  0.3187 -0.2024
 2036SOL    HW117744   2.904   0.286  12.729 -1.7722 -1.3051 -2.0737
 2036SOL    HW217745   2.821   0.178  12.784  2.3849  0.2424 -3.3301
 2037SOL     OW17746   2.190   3.753  16.063 -0.7205 -0.3769 -0.0273
 2037SOL    HW117747   2.279   3.777  16.090 -1.4935  0.2568  1.9619
 2037SOL    HW217748   2.163   3.823  16.003  0.0912  0.5201  0.6474
 2038SOL     OW17749   4.137   3.969  15.735  0.1978 -0.6537  0.3381
 2038SOL    HW117750   4.128   3.987  15.641  3.4587 -0.1596  0.1148
 2038SOL    HW217751   4.225   3.933  15.744  1.7069  2.8011 -0.4441
 2039SOL     OW17752   2.757   2.384   1.883  0.5247 -0.3233 -0.2389
 2039SOL    HW117753   2.825   2.363   1.820 -1.0187  0.5255 -2.1814
 2039SOL    HW217754   2.685   2.323   1.866  1.7406 -1.5753 -0.8689
 2040SOL     OW17755   2.168   1.568   8.572  0.4399 -0.2101 -0.0587
 2040SOL    HW117756   2.214   1.645   8.538 -2.7767  3.0025  2.7610
 2040SOL    HW217757   2.084   1.601   8.542  1.0382  2.4144  1.1244
 2041SOL     OW17758   2.178   3.078   2.885  0.4893 -0.5106 -0.0750
 2041SOL    HW117759   2.096   3.058   2.930 -0.4003  1.4386 -0.7941
 2041SOL    HW217760   2.148   3.099   2.796 -0.8253 -0.6014  0.3426
 2042SOL     OW17761   1.489   0.078   2.142 -0.5613 -0.3157  0.3520
 2042SOL    HW117762   1.526   0.007   2.195  1.0130  2.8090  3.4147
 2042SOL    HW217763   1.398   0.049   2.150 -1.0879  1.3307  0.3439
 2043SOL     OW17764   2.945   0.586   8.327  0.1916 -0.6178  0.3077
 2043SOL    HW117765   2.992   0.578   8.410  0.1572 -2.1135  0.1730
 2043SOL    HW217766   3.007   0.556   8.260 -0.0167 -1.2066  0.3810
 2044SOL     OW17767   2.977   2.420   4.324 -0.0821  0.6209 -0.2656
 2044SOL    HW117768   3.061   2.374   4.331 -0.7042 -0.1674  2.1150
 2044SOL    HW217769   3.004   2.511   4.312 -1.2979  1.2496  1.7040
 2045SOL     OW17770   2.519   0.174  15.317 -0.0594  0.1752  0.1228
 2045SOL    HW117771   2.443   0.215  15.359 -0.1859 -0.2052  0.2678
 2045SOL    HW217772   2.589   0.224  15.359 -0.7832  1.2334  0.0790
 2046SOL     OW17773   0.102   2.120   9.893 -0.2098  0.6798  0.5821
 2046SOL    HW117774   0.093   2.026   9.884 -0.1691  0.8193 -0.8826
 2046SOL    HW217775   0.015   2.147   9.921 -0.6179  1.5296 -1.5628
 2047SOL     OW17776   0.572   1.543   5.494 -0.0222  0.6833  0.1236
 2047SOL    HW117777   0.636   1.472   5.483 -1.7976 -0.4278 -2.8195
 2047SOL    HW217778   0.486   1.512   5.522  0.5507 -0.6603  0.3796
 2048SOL     OW17779   0.633   4.496   6.342  0.5473 -0.1531  0.1367
 2048SOL    HW117780   0.661   4.539   6.423  1.9789 -3.0182  1.1490
 2048SOL    HW217781   0.690   4.420   6.342  0.9705  0.1664 -0.7675
 2049SOL     OW17782   3.981   1.745   7.521  0.1058 -0.6068  0.1560
 2049SOL    HW117783   4.040   1.723   7.592  0.6801 -0.2316 -0.2049
 2049SOL    HW217784   3.897   1.702   7.539  0.0937 -1.4749 -1.9955
 2050SOL     OW17785   3.375   1.086   4.076  0.5625 -0.3019 -0.3086
 2050SOL    HW117786   3.400   1.145   4.005 -0.1840  0.2593 -0.1015
 2050SOL    HW217787   3.324   1.015   4.037 -0.6542  0.5964 -0.3508
 2051SOL     OW17788   1.831   0.860   9.889  0.1420  0.1997 -0.1203
 2051SOL    HW117789   1.923   0.864   9.863  0.2258  0.6966  0.2362
 2051SOL    HW217790   1.809   0.801   9.817  2.0020 -0.2713 -0.3030
 2052SOL     OW17791   0.351   0.316   9.141  0.5763 -0.1375 -0.4124
 2052SOL    HW117792   0.404   0.389   9.173 -0.1634 -0.0815  0.6855
 2052SOL    HW217793   0.403   0.246   9.182 -2.0512 -2.6446 -1.3791
 2053SOL     OW17794   4.353   4.401   9.888  0.0984  0.0409  0.1123
 2053SOL    HW117795   4.417   4.443   9.831 -0.3083 -3.1817 -2.6430
 2053SOL    HW217796   4.299   4.479   9.904 -1.6244 -1.2733  0.5842
 2054SOL     OW17797   0.870   1.597   4.956  0.0738  0.1458  0.0208
 2054SOL    HW117798   0.904   1.619   5.043 -0.2907 -1.6868  0.6323
 2054SOL    HW217799   0.923   1.519   4.937  0.0737 -0.2944  1.8603
 2055SOL     OW17800   0.925   3.061  11.982  0.2581 -0.5905 -0.1889
 2055SOL    HW117801   0.994   2.997  11.961  1.2707  0.8229 -1.1618
 2055SOL    HW217802   0.909   3.032  12.072 -0.3233 -0.8157 -0.3660
 2056SOL     OW17803   0.243   0.174   4.174 -0.3684 -0.1181  0.0319
 2056SOL    HW117804   0.284   0.087   4.175 -0.7236 -0.2919 -0.8153
 2056SOL    HW217805   0.198   0.175   4.259 -0.6748  0.0111 -0.1309
 2057SOL     OW17806   0.178   4.720  11.134  0.5423 -0.4149 -0.5288
 2057SOL    HW117807   0.200   0.063  11.089  0.9914 -1.9811 -3.1801
 2057SOL    HW217808   0.088   4.700  11.111  0.4126 -2.7375  1.9398
 2058SOL     OW17809   0.275   0.647   2.451  1.2293  0.2143  0.2884
 2058SOL    HW117810   0.276   0.726   2.398  2.5366  0.1163  0.1721
 2058SOL    HW217811   0.266   0.673   2.543  1.9864 -0.8847  0.6723
 2059SOL     OW17812   3.440   3.703   4.968  0.6217 -0.0913 -0.2310
 2059SOL    HW117813   3.412   3.779   4.917  2.2565 -0.1021 -1.1411
 2059SOL    HW217814   3.380   3.702   5.042  1.3217 -0.2258  0.3360
 2060SOL     OW17815   2.974   0.582   2.893  0.3041  0.2305  0.2539
 2060SOL    HW117816   2.991   0.670   2.861  1.3674  0.1564  0.6094
 2060SOL    HW217817   3.058   0.548   2.923  1.0219  1.6311 -0.2026
 2061SOL     OW17818   1.356   2.889   2.330  0.0692  0.4325 -0.5460
 2061SOL    HW117819   1.400   2.946   2.393 -1.0754  0.9345 -0.1964
 2061SOL    HW217820   1.323   2.813   2.378  0.5853  0.2306 -0.5138
 2062SOL     OW17821   4.727   3.821  14.266  0.0550  0.3120 -0.0593
 2062SOL    HW117822   0.031   3.778  14.192  0.1451 -1.2573  0.8940
 2062SOL    HW217823   0.030   3.907  14.261  1.0635 -0.0772  1.5519
 2063SOL     OW17824   3.587   0.435   5.878  0.2646  0.3747  0.0077
 2063SOL    HW117825   3.676   0.444   5.844  0.0062  0.2771 -0.6850
 2063SOL    HW217826   3.595   0.466   5.968 -1.2185 -0.9636  0.6041
 2064SOL     OW17827   0.323   0.278   6.079 -0.1498  0.0390  0.0615
 2064SOL    HW117828   0.309   0.243   6.167 -0.9160  0.1529 -0.0118
 2064SOL    HW217829   0.319   0.372   6.099  0.8114  0.1762 -0.3819
 2065SOL     OW17830   1.935   1.204   4.404  0.5209  0.3568 -0.0979
 2065SOL    HW117831   1.917   1.173   4.315 -0.5744  1.7436 -0.3692
 2065SOL    HW217832   2.027   1.229   4.398  1.5375 -3.5464 -0.9989
 2066SOL     OW17833   2.961   0.550   4.550  0.1730 -0.0759  0.2925
 2066SOL    HW117834   2.932   0.468   4.511  0.2123 -0.5508  1.2487
 2066SOL    HW217835   2.878   0.591   4.575 -0.2668 -0.2062 -0.9719
 2067SOL     OW17836   0.832   3.916   0.023 -0.2136  0.1173  0.7243
 2067SOL    HW117837   0.832   4.001  17.730 -1.7236 -0.4298 -0.3174
 2067SOL    HW217838   0.741   3.886   0.023  0.0762 -0.7626 -0.4058
 2068SOL     OW17839   0.675   2.754   8.775 -0.1808  0.1754 -0.4136
 2068SOL    HW117840   0.715   2.801   8.702 -0.9958 -0.7938 -1.4783
 2068SOL    HW217841   0.583   2.781   8.774 -0.2899 -0.3092 -2.2671
 2069SOL     OW17842   0.054   2.908   3.976 -0.0675 -0.4906 -0.0068
 2069SOL    HW117843   0.010   2.854   4.041  0.3589 -1.2487 -0.3482
 2069SOL    HW217844   0.116   2.951   4.035  0.7024  0.9780 -1.8658
 2070SOL     OW17845   1.916   1.454   6.896  0.0214  0.0764  0.0782
 2070SOL    HW117846   1.867   1.449   6.814  0.2617 -0.3318 -0.0455
 2070SOL    HW217847   1.853   1.406   6.951 -0.0756  1.1288  0.8708
 2071SOL     OW17848   3.895   1.246   8.902 -0.1831  0.3106  0.2741
 2071SOL    HW117849   3.831   1.238   8.831  1.7421  1.7393 -1.6199
 2071SOL    HW217850   3.922   1.337   8.890 -1.2807  0.6790  0.5802
 2072SOL     OW17851   0.237   0.924   6.835  0.3846 -0.2090 -0.1218
 2072SOL    HW117852   0.233   0.899   6.927 -2.7692 -1.8257 -0.6795
 2072SOL    HW217853   0.228   0.836   6.799 -0.4627  0.4121 -1.4167
 2073SOL     OW17854   1.881   2.456   6.972 -0.5083  0.1107  0.1715
 2073SOL    HW117855   1.954   2.491   7.023  0.4141 -2.5106  0.6239
 2073SOL    HW217856   1.911   2.472   6.882  0.1559 -0.6195  0.2618
 2074SOL     OW17857   2.111   0.203   0.930 -0.6119  0.1290  0.7467
 2074SOL    HW117858   2.068   0.149   0.865  2.2454 -0.3104 -0.7924
 2074SOL    HW217859   2.036   0.260   0.945 -0.4779  0.6363 -0.5638
 2075SOL     OW17860   4.300   3.308   5.329  0.1902 -0.1211 -0.3615
 2075SOL    HW117861   4.308   3.254   5.251 -1.2492 -1.0158  0.1161
 2075SOL    HW217862   4.314   3.394   5.289 -1.0519 -0.0210 -0.6102
 2076SOL     OW17863   4.337   1.187   8.879 -0.5641 -0.6925  0.4865
 2076SOL    HW117864   4.431   1.170   8.871 -0.9439 -1.9834 -1.1388
 2076SOL    HW217865   4.322   1.255   8.813  1.2897  0.0329  0.8018
 2077SOL     OW17866   1.824   2.738  10.105  0.3882 -0.3313  0.1478
 2077SOL    HW117867   1.775   2.656  10.114 -0.1846 -0.0373 -0.3016
 2077SOL    HW217868   1.908   2.694  10.110  1.8803  2.5441 -0.0215
 2078SOL     OW17869   1.475   4.107   6.461  0.6783  0.4195 -0.3769
 2078SOL    HW117870   1.464   4.031   6.404  0.6457 -0.4343  0.7593
 2078SOL    HW217871   1.509   4.075   6.545 -0.7397 -0.3199 -0.0743
 2079SOL     OW17872   1.532   0.791   5.204  0.4856  0.0537 -0.3188
 2079SOL    HW117873   1.581   0.806   5.284  0.8014 -0.1318 -0.4769
 2079SOL    HW217874   1.546   0.699   5.181 -1.2674 -0.6317  1.3348
 2080SOL     OW17875   4.507   0.983   6.125  0.0948  0.3685 -0.1860
 2080SOL    HW117876   4.542   1.057   6.074  1.1170  0.2688  0.3594
 2080SOL    HW217877   4.551   0.992   6.210  1.4959 -0.5598 -0.8185
 2081SOL     OW17878   1.564   4.069   3.093  0.2857 -0.0107  0.1039
 2081SOL    HW117879   1.642   4.111   3.056  1.0999 -0.0678  1.7353
 2081SOL    HW217880   1.540   4.126   3.167 -1.7757 -0.1019 -0.5003
 2082SOL     OW17881   2.012   3.213   5.228 -0.3298 -0.5971  0.4032
 2082SOL    HW117882   1.958   3.164   5.290 -0.8163 -0.4343  0.1040
 2082SOL    HW217883   2.094   3.218   5.278  0.9432 -2.0127 -1.5452
 2083SOL     OW17884   1.593   1.892  14.466  0.0709  0.3208  0.1044
 2083SOL    HW117885   1.666   1.838  14.499  0.8038  1.8647  1.0135
 2083SOL    HW217886   1.544   1.891  14.548  1.3798 -1.1202  0.8761
 2084SOL     OW17887   4.170   4.396  14.779 -0.5772 -0.1349 -0.1784
 2084SOL    HW117888   4.106   4.407  14.849 -0.8118 -1.1098 -0.2334
 2084SOL    HW217889   4.247   4.387  14.835 -0.8808  1.4584  0.4866
 2085SOL     OW17890   1.041   0.842   8.487  0.0267 -0.2438 -0.6587
 2085SOL    HW117891   1.047   0.805   8.399 -0.3521  4.6537 -2.7186
 2085SOL    HW217892   0.980   0.916   8.483  0.5211  0.1948 -0.1109
 2086SOL     OW17893   1.953   3.798  11.092 -0.1825 -0.4382  0.5362
 2086SOL    HW117894   2.016   3.726  11.084 -0.2355 -0.4319  0.0572
 2086SOL    HW217895   1.882   3.779  11.031  0.0216  0.1280  0.1323
 2087SOL     OW17896   0.341   4.683   8.981 -0.4497 -0.6517  0.0604
 2087SOL    HW117897   0.320   4.610   9.039 -0.9796 -1.9875 -1.7878
 2087SOL    HW217898   0.271   0.005   9.003 -0.7892 -1.4044  1.0727
 2088SOL     OW17899   0.003   0.535   8.243 -0.4253  0.5872  0.6225
 2088SOL    HW117900   0.054   0.597   8.191  1.6933 -2.1266 -0.5328
 2088SOL    HW217901   0.054   0.532   8.323  1.5027 -0.5981 -0.6503
 2089SOL     OW17902   3.933   1.254  16.194 -0.2027 -0.3875  0.4369
 2089SOL    HW117903   3.852   1.211  16.167 -0.2419 -0.5406  0.8105
 2089SOL    HW217904   3.946   1.200  16.271  1.0677  0.9419  1.1503
 2090SOL     OW17905   0.594   2.867   1.843  0.0087 -0.0706  0.1121
 2090SOL    HW117906   0.638   2.946   1.875  2.6857 -2.6014  2.6743
 2090SOL    HW217907   0.646   2.839   1.768  0.4822 -0.1396  0.4602
 2091SOL     OW17908   4.299   0.417  16.123 -0.0954 -0.6534  0.4158
 2091SOL    HW117909   4.233   0.404  16.190 -0.1459  2.3556  0.9761
 2091SOL    HW217910   4.241   0.414  16.047  0.6701 -2.2877 -0.1086
 2092SOL     OW17911   0.194   2.569   2.721  0.0150 -0.1700  0.3058
 2092SOL    HW117912   0.230   2.607   2.802 -0.1057  0.9442 -0.1651
 2092SOL    HW217913   0.266   2.601   2.666  0.0542 -1.1420 -0.2055
 2093SOL     OW17914   2.194   3.381   3.801 -0.2315 -0.0113 -0.2245
 2093SOL    HW117915   2.188   3.475   3.820  0.9313 -0.2681  1.3426
 2093SOL    HW217916   2.109   3.375   3.757  0.8720 -1.0819 -2.2074
 2094SOL     OW17917   3.327   1.536   9.562 -0.5210 -0.5346  0.1829
 2094SOL    HW117918   3.261   1.587   9.609  0.0374 -3.4515  4.1415
 2094SOL    HW217919   3.281   1.452   9.561 -2.0101  0.2816 -0.6972
 2095SOL     OW17920   0.737   1.376   3.155 -0.0904  0.2120 -0.1631
 2095SOL    HW117921   0.724   1.402   3.246  0.5018  1.2229 -0.3709
 2095SOL    HW217922   0.681   1.298   3.152  0.0129  0.0792  1.4498
 2096SOL     OW17923   1.768   2.005   0.384  0.2407  1.1817 -0.2881
 2096SOL    HW117924   1.706   1.960   0.328  2.3466 -1.8141 -0.1817
 2096SOL    HW217925   1.775   1.936   0.449  2.7710  0.6063 -1.1723
 2097SOL     OW17926   1.234   4.119   3.826 -0.3281  0.3624 -0.2698
 2097SOL    HW117927   1.243   4.100   3.920 -1.8080 -0.0234 -0.2017
 2097SOL    HW217928   1.198   4.037   3.792 -0.7108  0.9122 -1.1653
 2098SOL     OW17929   3.224   2.898   5.358  0.0739  0.0030 -0.2593
 2098SOL    HW117930   3.226   2.898   5.262  0.5437 -0.5229 -0.2520
 2098SOL    HW217931   3.291   2.833   5.381  0.5948  1.2691  1.8173
 2099SOL     OW17932   3.961   1.331   9.425  0.0697  0.1228  0.4864
 2099SOL    HW117933   3.971   1.244   9.387  0.4654  0.0419  0.7736
 2099SOL    HW217934   3.869   1.324   9.448 -0.4596 -0.6550 -1.9001
 2100SOL     OW17935   4.256   1.103  15.072 -0.3672 -0.0667  0.2713
 2100SOL    HW117936   4.178   1.122  15.020  0.5282  2.2243 -0.2046
 2100SOL    HW217937   4.239   1.141  15.158  1.3918  1.7100 -0.1698
 2101SOL     OW17938   3.685   0.735  10.244 -0.7753 -0.4091 -0.4665
 2101SOL    HW117939   3.610   0.700  10.196 -0.3426 -0.1078 -1.3717
 2101SOL    HW217940   3.655   0.802  10.304 -0.1050 -0.1424 -0.4300
 2102SOL     OW17941   3.775   1.074  16.906  0.2757  0.5731  0.1689
 2102SOL    HW117942   3.827   1.068  16.825 -0.0030  0.4233  0.0034
 2102SOL    HW217943   3.686   1.079  16.872  0.2971  2.9378  0.4598
 2103SOL     OW17944   0.403   1.099   3.988 -0.2407 -0.1813  0.1581
 2103SOL    HW117945   0.418   1.064   3.900 -1.1785 -0.5226  0.1292
 2103SOL    HW217946   0.321   1.145   3.970  0.8657  1.6160 -0.3346
 2104SOL     OW17947   2.848   0.465  13.495  0.3356  0.0783 -0.4213
 2104SOL    HW117948   2.758   0.440  13.520  0.5634 -1.2595 -0.9164
 2104SOL    HW217949   2.883   0.461  13.584 -0.8882  0.3729  0.0799
 2105SOL     OW17950   4.628   0.999   5.329 -0.0754 -0.1704 -0.2268
 2105SOL    HW117951   4.635   1.089   5.360 -2.3367 -0.6607  1.7310
 2105SOL    HW217952   4.655   1.012   5.239 -2.1208 -0.2870 -0.8505
 2106SOL     OW17953   4.181   2.341   5.927 -0.2263 -0.0447 -0.3308
 2106SOL    HW117954   4.119   2.386   5.985  0.1324  0.7341 -0.5438
 2106SOL    HW217955   4.253   2.400   5.950  0.7012 -0.3654 -2.4311
 2107SOL     OW17956   0.530   3.147  16.399 -0.3511  0.5516 -0.5690
 2107SOL    HW117957   0.508   3.056  16.419 -1.0253  1.4429  2.6681
 2107SOL    HW217958   0.446   3.192  16.389 -0.3364  0.2776 -1.9757
 2108SOL     OW17959   2.442   2.314   8.482  0.0716 -0.6374  0.2194
 2108SOL    HW117960   2.357   2.304   8.525 -1.4360  1.0364 -2.3781
 2108SOL    HW217961   2.432   2.398   8.437  1.4298  0.1267  1.3378
 2109SOL     OW17962   1.149   1.698   8.582  0.0995 -0.4062  0.2289
 2109SOL    HW117963   1.127   1.749   8.505 -0.8747 -2.5775 -0.9315
 2109SOL    HW217964   1.092   1.621   8.579 -1.0247  0.3366  2.4673
 2110SOL     OW17965   3.483   3.585   4.686 -0.3357  0.2816 -0.2929
 2110SOL    HW117966   3.546   3.527   4.644 -0.7350 -0.3799  0.0305
 2110SOL    HW217967   3.542   3.661   4.693  1.0237 -0.6830 -1.3254
 2111SOL     OW17968   3.620   3.897   6.393 -0.3345 -0.6306 -0.4022
 2111SOL    HW117969   3.627   3.857   6.306 -1.0480  0.0201 -0.7601
 2111SOL    HW217970   3.625   3.818   6.447 -0.8422 -0.7475 -0.5225
 2112SOL     OW17971   3.271   0.499   4.949 -0.0010  0.2220  0.1590
 2112SOL    HW117972   3.258   0.552   4.870 -0.3330 -0.5700 -0.3179
 2112SOL    HW217973   3.301   0.413   4.919  1.2538  0.6804  0.0963
 2113SOL     OW17974   1.642   3.336  15.507 -0.1746  0.2463 -0.1709
 2113SOL    HW117975   1.592   3.257  15.525  1.6729 -1.8047 -3.8771
 2113SOL    HW217976   1.592   3.361  15.430 -0.2548 -0.0404 -0.2096
 2114SOL     OW17977   1.063   2.337  16.203  0.0023  0.0256  0.2352
 2114SOL    HW117978   1.024   2.350  16.117  0.7979  2.7946  0.2816
 2114SOL    HW217979   1.088   2.245  16.197 -0.2894  0.1078 -2.0712
 2115SOL     OW17980   3.955   1.062   4.854  0.4703 -0.2937  0.1613
 2115SOL    HW117981   3.892   1.017   4.911 -2.6404  1.3869 -1.9330
 2115SOL    HW217982   4.011   1.111   4.914 -0.6851  2.0109 -0.6807
 2116SOL     OW17983   2.818   4.089   0.670 -0.2030 -0.2851 -0.0514
 2116SOL    HW117984   2.797   4.018   0.611 -0.6488  0.0013 -0.2354
 2116SOL    HW217985   2.731   4.118   0.696 -1.0966 -1.9984 -1.1518
 2117SOL     OW17986   2.680   1.537   6.105  0.1646 -0.4766 -0.1442
 2117SOL    HW117987   2.601   1.585   6.132  0.0037 -0.7296 -0.1600
 2117SOL    HW217988   2.697   1.582   6.022 -2.1772  0.4618 -0.1351
 2118SOL     OW17989   4.303   1.883   4.722 -0.1541 -0.0023 -0.0266
 2118SOL    HW117990   4.222   1.900   4.770  0.7095 -1.6412  1.9980
 2118SOL    HW217991   4.359   1.880   4.799 -0.3880  0.9637  0.1845
 2119SOL     OW17992   1.858   1.664  17.426 -0.1877 -0.0579 -0.0311
 2119SOL    HW117993   1.917   1.624  17.362  1.6171  0.2171  1.4724
 2119SOL    HW217994   1.901   1.630  17.504  0.0301  2.9727  1.1719
 2120SOL     OW17995   2.636   3.955   5.862  0.4271  0.2386  0.5435
 2120SOL    HW117996   2.639   4.015   5.787 -2.8271 -1.8114 -1.2234
 2120SOL    HW217997   2.550   3.968   5.900 -1.5900  0.4190 -4.0838
 2121SOL     OW17998   2.044   1.411   4.078 -0.0728  0.0791  0.6225
 2121SOL    HW117999   1.976   1.422   4.012  0.6441 -1.5544 -0.3882
 2121SOL    HW218000   2.033   1.321   4.109  1.6934  0.1734  1.5865
 2122SOL     OW18001   0.265   0.832   3.893  0.4098 -0.0918 -0.1714
 2122SOL    HW118002   0.230   0.921   3.886 -0.4248 -0.4496 -0.4634
 2122SOL    HW218003   0.354   0.849   3.862  0.3201  0.4677 -0.1190
 2123SOL     OW18004   0.441   0.723   2.032  0.0055  0.2950  0.2212
 2123SOL    HW118005   0.512   0.673   1.991  0.0613 -0.8721  1.7206
 2123SOL    HW218006   0.474   0.812   2.027 -1.5632  0.9152  0.9762
 2124SOL     OW18007   3.352   3.444   5.797  0.3129 -0.3156  0.1029
 2124SOL    HW118008   3.384   3.399   5.720  1.0373 -1.0838  0.8576
 2124SOL    HW218009   3.336   3.535   5.770  0.9694 -0.2470 -0.0469
 2125SOL     OW18010   2.135   4.418   3.189 -0.4811 -0.1366 -0.1817
 2125SOL    HW118011   2.174   4.375   3.266 -0.2471  2.0461  0.9288
 2125SOL    HW218012   2.184   4.499   3.176  1.1690 -0.8714  1.4660
 2126SOL     OW18013   2.059   0.891   5.611  0.0207 -0.5878  0.1553
 2126SOL    HW118014   2.142   0.927   5.641  0.5047 -0.9190 -0.8172
 2126SOL    HW218015   2.002   0.967   5.605 -0.0660 -0.6721 -0.0692
 2127SOL     OW18016   3.736   3.401   2.447  0.0291  0.4188 -0.0495
 2127SOL    HW118017   3.831   3.394   2.453 -0.0954 -2.1835 -1.0435
 2127SOL    HW218018   3.724   3.416   2.540  3.5698  2.2503  0.0792
 2128SOL     OW18019   2.416   0.096   5.999  0.7071  0.0776  0.9251
 2128SOL    HW118020   2.469   0.041   6.056  0.6090 -1.9383 -0.9688
 2128SOL    HW218021   2.425   0.047   5.918  0.7726  0.5589  0.6442
 2129SOL     OW18022   0.055   4.502  10.911  0.2994  0.2453  0.1560
 2129SOL    HW118023   0.094   4.461  10.834 -2.7928 -0.5941 -0.9761
 2129SOL    HW218024   0.047   4.425  10.967  1.5158  0.4549  0.6014
 2130SOL     OW18025   1.546   4.234   5.298 -0.0420 -0.4034  0.3532
 2130SOL    HW118026   1.543   4.256   5.391 -0.1057  0.8693  0.0413
 2130SOL    HW218027   1.499   4.312   5.267  2.3126  0.7251 -0.3271
 2131SOL     OW18028   0.364   0.602   9.473 -0.4960  0.2119 -0.1131
 2131SOL    HW118029   0.439   0.660   9.463  0.1449 -0.5341  0.3723
 2131SOL    HW218030   0.397   0.547   9.544  2.2504  2.2307  0.1648
 2132SOL     OW18031   1.347   0.044  17.189  0.1375  0.0836 -0.3243
 2132SOL    HW118032   1.426   0.088  17.157  0.0739  1.3327  1.2566
 2132SOL    HW218033   1.276   0.106  17.172  0.1379  0.4759  1.1430
 2133SOL     OW18034   2.727   4.259   8.039  0.2418 -1.0635 -0.1740
 2133SOL    HW118035   2.712   4.353   8.044  1.7543 -0.7460 -1.5508
 2133SOL    HW218036   2.818   4.244   8.014  1.2976  2.0999  1.8124
 2134SOL     OW18037   3.565   3.946   4.233 -0.2077 -0.0534  0.2693
 2134SOL    HW118038   3.543   3.869   4.287 -0.8823  0.7987  1.2166
 2134SOL    HW218039   3.639   3.909   4.185 -0.5792 -0.9917  0.4167
 2135SOL     OW18040   4.256   1.707   9.212 -0.4746  0.0102 -0.4274
 2135SOL    HW118041   4.231   1.614   9.209 -0.0670 -0.1287  0.4911
 2135SOL    HW218042   4.203   1.753   9.277  0.1490  1.0114 -0.6406
 2136SOL     OW18043   2.537   2.367  13.744  0.2108  0.0906  0.3114
 2136SOL    HW118044   2.490   2.374  13.661  0.1676  1.6002  0.4723
 2136SOL    HW218045   2.495   2.436  13.794 -0.0926 -0.2225  0.4900
 2137SOL     OW18046   3.059   0.516  11.359  0.0241  0.2504  0.2145
 2137SOL    HW118047   3.131   0.579  11.353  0.3161 -0.0102  1.0236
 2137SOL    HW218048   3.052   0.505  11.454  2.2902 -1.4130  0.1926
 2138SOL     OW18049   2.367   1.543   9.234  0.3851 -0.0053 -0.4163
 2138SOL    HW118050   2.301   1.476   9.219 -0.1276  0.6523 -1.1143
 2138SOL    HW218051   2.400   1.571   9.148 -0.7008  0.7875 -0.5762
 2139SOL     OW18052   0.627   2.549  13.083 -0.1960  0.1903  0.4655
 2139SOL    HW118053   0.565   2.554  13.156 -0.1384 -1.1419  0.6164
 2139SOL    HW218054   0.695   2.485  13.103  0.0756  1.0902  2.3991
 2140SOL     OW18055   0.511   0.517   2.418  0.1341 -0.3806 -0.1712
 2140SOL    HW118056   0.472   0.470   2.345 -1.1376  0.8370 -0.2830
 2140SOL    HW218057   0.437   0.570   2.449 -0.1868 -0.8004 -0.2184
 2141SOL     OW18058   2.454   3.702   3.620 -0.1373 -0.5142  0.1270
 2141SOL    HW118059   2.419   3.785   3.653 -0.6762 -1.0431  0.8615
 2141SOL    HW218060   2.378   3.664   3.577 -0.5565 -0.1363  0.5303
 2142SOL     OW18061   3.812   0.898  13.956  0.0638  0.6131 -0.0771
 2142SOL    HW118062   3.722   0.927  13.964 -1.1755 -2.5733 -2.4394
 2142SOL    HW218063   3.819   0.839  14.031 -0.0811  1.1477  0.3572
 2143SOL     OW18064   2.148   1.854   1.663  0.2388 -0.1609 -0.3764
 2143SOL    HW118065   2.175   1.901   1.584  0.9644 -0.5196 -0.3427
 2143SOL    HW218066   2.225   1.806   1.693 -0.9029 -2.4363 -1.0965
 2144SOL     OW18067   1.492   4.060  17.714 -0.3441  0.1175  0.2720
 2144SOL    HW118068   1.515   3.981  17.665  0.7554  1.2764 -1.1115
 2144SOL    HW218069   1.526   4.121  17.648  0.8264  0.0009  0.7721
 2145SOL     OW18070   2.247   2.119   7.245 -0.1289  0.1592 -0.4243
 2145SOL    HW118071   2.201   2.185   7.297  1.1184 -0.5185  1.5242
 2145SOL    HW218072   2.332   2.121   7.288 -0.1645  2.0307 -0.4218
 2146SOL     OW18073   4.541   2.300   6.028 -0.1592 -0.1172  0.1544
 2146SOL    HW118074   4.616   2.328   6.081 -0.1476  0.2060 -0.0328
 2146SOL    HW218075   4.491   2.381   6.019  0.0508 -0.1665 -1.4958
 2147SOL     OW18076   0.501   4.592  15.302 -0.3132  0.5098 -0.3367
 2147SOL    HW118077   0.467   4.631  15.383  0.1819  0.7344 -0.2369
 2147SOL    HW218078   0.423   4.551  15.266  0.5367 -0.7427 -0.7246
 2148SOL     OW18079   3.046   0.975   9.157  0.2291 -0.2257  0.0402
 2148SOL    HW118080   2.993   0.900   9.132  1.4836 -0.2329 -2.5713
 2148SOL    HW218081   3.085   0.947   9.240 -2.7874  2.3155  2.3273
 2149SOL     OW18082   0.739   1.046  16.669  0.2126 -0.2396  0.2823
 2149SOL    HW118083   0.710   0.981  16.733  0.7854 -0.3735  0.4109
 2149SOL    HW218084   0.655   1.085  16.645 -0.0581 -0.4935  0.8054
 2150SOL     OW18085   3.769   3.153   7.932  0.6013 -0.7100  0.3625
 2150SOL    HW118086   3.835   3.123   7.870  1.2354  1.1682  0.1333
 2150SOL    HW218087   3.707   3.199   7.876 -0.4030  0.9460  2.7914
 2151SOL     OW18088   3.157   0.476   6.384  0.2821  0.2409 -0.2170
 2151SOL    HW118089   3.067   0.465   6.353  0.4500 -0.9544 -0.2979
 2151SOL    HW218090   3.139   0.549   6.443 -1.7753  1.0694 -1.8419
 2152SOL     OW18091   2.310   3.066   5.725 -0.4396  0.1469  0.1598
 2152SOL    HW118092   2.362   2.988   5.706  1.3251  0.6242  3.0424
 2152SOL    HW218093   2.272   3.100   5.645 -0.9310  1.6343  1.0215
 2153SOL     OW18094   1.108   2.038  17.580  0.0927 -0.3831  0.1370
 2153SOL    HW118095   1.165   2.112  17.560  0.6899 -0.5405  1.2519
 2153SOL    HW218096   1.118   2.020  17.674  1.0743  0.5812  0.2169
 2154SOL     OW18097   4.711   3.252   9.581  0.2412  0.3963  0.1582
 2154SOL    HW118098   0.044   3.264   9.519  1.2105 -0.7696  1.0755
 2154SOL    HW218099   0.005   3.185   9.641 -1.7644 -0.9206 -0.2357
 2155SOL     OW18100   1.218   3.670   6.658 -0.8536 -0.1462  0.6085
 2155SOL    HW118101   1.201   3.726   6.582  1.4348  1.5382  1.3479
 2155SOL    HW218102   1.235   3.729   6.731  2.8042 -0.8707  0.3073
 2156SOL     OW18103   1.786   2.668  12.830 -0.4109 -0.2558 -0.5845
 2156SOL    HW118104   1.872   2.638  12.857  0.9655  2.2536 -2.1254
 2156SOL    HW218105   1.737   2.593  12.796 -1.1648 -0.5393  1.1389
 2157SOL     OW18106   0.090   4.377   2.010 -0.2950 -0.3718  0.1617
 2157SOL    HW118107   0.050   4.378   2.097 -3.1725  0.6170 -1.1714
 2157SOL    HW218108   0.011   4.389   1.959  0.1994 -0.5130 -0.6377
 2158SOL     OW18109   3.893   4.190   5.923  0.1595  0.0346 -0.3374
 2158SOL    HW118110   3.924   4.246   5.852  0.1117 -0.7106 -0.9492
 2158SOL    HW218111   3.927   4.232   6.002 -3.8560 -1.6954  2.3566
 2159SOL     OW18112   2.882   0.846   1.342  0.4535  0.1811 -0.0015
 2159SOL    HW118113   2.837   0.910   1.396 -1.2506 -1.2898  0.3398
 2159SOL    HW218114   2.942   0.799   1.400 -2.1335 -0.4040  2.2328
 2160SOL     OW18115   1.731   1.408   8.848  0.3086  0.1245  0.2455
 2160SOL    HW118116   1.639   1.435   8.856  0.3899  1.1095 -1.9837
 2160SOL    HW218117   1.758   1.475   8.786  1.2369  0.8446  1.4242
 2161SOL     OW18118   0.016   0.019   6.999 -0.4484 -0.1146  0.0554
 2161SOL    HW118119   4.697   0.014   6.923 -0.7847  2.2133  0.1676
 2161SOL    HW218120   0.100   0.042   6.960  0.5026  1.0973  2.8439
 2162SOL     OW18121   3.281   2.477  14.140 -0.1045 -0.0914 -0.0467
 2162SOL    HW118122   3.295   2.448  14.050 -0.4123 -0.2172 -0.0555
 2162SOL    HW218123   3.191   2.508  14.133 -0.8884 -2.0084  1.5898
 2163SOL     OW18124   4.275   3.326   6.729 -0.2758  0.2020  0.1536
 2163SOL    HW118125   4.241   3.411   6.756 -1.6460 -0.2787 -0.0632
 2163SOL    HW218126   4.189   3.286   6.714  0.6385 -1.9842  0.6696
 2164SOL     OW18127   3.017   0.299   8.538  0.2123 -0.1145 -0.4474
 2164SOL    HW118128   3.064   0.227   8.495  1.5621 -0.3445  1.4075
 2164SOL    HW218129   2.999   0.257   8.622  3.6744  2.8706  1.7833
 2165SOL     OW18130   1.641   2.969   2.735  0.6897  0.5404 -0.1666
 2165SOL    HW118131   1.555   2.928   2.729 -0.5687  3.4091 -1.9293
 2165SOL    HW218132   1.694   2.920   2.798 -1.6768  0.3069  1.6737
 2166SOL     OW18133   4.564   3.686   4.058 -0.2262  0.7354 -0.1013
 2166SOL    HW118134   4.613   3.605   4.048 -0.0966  0.7438  0.4737
 2166SOL    HW218135   4.613   3.750   4.005 -2.2296  0.9070 -1.7577
 2167SOL     OW18136   1.972   0.562   2.335  0.0569 -0.7685  0.6440
 2167SOL    HW118137   1.901   0.596   2.391  0.1183 -1.1736  0.9678
 2167SOL    HW218138   2.018   0.645   2.325 -1.2436 -0.1079  0.1351
 2168SOL     OW18139   2.691   3.878   1.818 -0.1378  0.1530  0.2673
 2168SOL    HW118140   2.722   3.859   1.730  1.2098 -2.4131  1.2892
 2168SOL    HW218141   2.612   3.931   1.808 -0.0067  0.3182  0.1164
 2169SOL     OW18142   0.853   0.783  13.325  0.0197  0.0488  0.1527
 2169SOL    HW118143   0.766   0.749  13.346 -1.6319  2.2794 -3.2038
 2169SOL    HW218144   0.826   0.873  13.310  1.2097  0.0103 -2.2423
 2170SOL     OW18145   1.210   3.360   7.691 -0.5313  0.2689 -0.1563
 2170SOL    HW118146   1.242   3.355   7.601 -0.2520  2.8436 -0.2126
 2170SOL    HW218147   1.128   3.312   7.683 -0.5354  0.3314 -0.5115
 2171SOL     OW18148   1.571   4.668  16.098  0.4286 -0.3606  0.4853
 2171SOL    HW118149   1.618   4.634  16.173  2.2272  0.7585 -0.1339
 2171SOL    HW218150   1.542   4.585  16.059  3.6536 -1.9583  1.5886
 2172SOL     OW18151   4.518   3.725   0.188 -0.4236  0.5565  0.0008
 2172SOL    HW118152   4.546   3.671   0.262 -0.2351 -1.5268 -1.5852
 2172SOL    HW218153   4.432   3.693   0.160 -0.1723  1.1722 -1.4581
 2173SOL     OW18154   0.846   0.919   8.105  0.0466  0.5614  0.1700
 2173SOL    HW118155   0.935   0.905   8.137 -0.7552 -0.3087  1.9751
 2173SOL    HW218156   0.796   0.854   8.154 -1.5876  3.7270  2.7127
 2174SOL     OW18157   1.007   3.484  16.993  0.0546 -0.1827  0.2819
 2174SOL    HW118158   1.047   3.413  16.942  0.2915 -0.2568  0.5699
 2174SOL    HW218159   1.032   3.561  16.943  1.6266 -0.9629 -0.1516
 2175SOL     OW18160   2.246   0.381   8.451  0.4716  0.1467 -0.3457
 2175SOL    HW118161   2.324   0.352   8.497  0.6411  3.5140  1.4838
 2175SOL    HW218162   2.291   0.424   8.378  0.0506  2.4754  0.7750
 2176SOL     OW18163   0.486   0.139  14.336  0.1973 -0.0906  0.2524
 2176SOL    HW118164   0.460   0.055  14.372 -1.1412  0.4946  0.6181
 2176SOL    HW218165   0.403   0.164  14.295 -0.1207  0.8511  1.4931
 2177SOL     OW18166   2.253   2.769   3.574 -0.4196  0.1687 -0.1566
 2177SOL    HW118167   2.185   2.701   3.568 -1.5561  1.2512  0.4196
 2177SOL    HW218168   2.272   2.785   3.482 -0.9269 -2.6332 -0.7687
 2178SOL     OW18169   1.574   4.709  14.991 -0.2446 -0.1380 -0.4122
 2178SOL    HW118170   1.551   4.711  15.084 -0.2581 -0.0258 -0.4183
 2178SOL    HW218171   1.669   4.706  15.003 -0.3007 -0.8847 -0.1237
 2179SOL     OW18172   2.639   0.363   4.981  0.1782 -0.1691  0.3380
 2179SOL    HW118173   2.687   0.389   5.060  1.4968  0.0053 -0.5197
 2179SOL    HW218174   2.674   0.428   4.920  0.3601  1.4257  2.1219
 2180SOL     OW18175   0.962   0.885   0.583 -0.3118  0.4205 -0.3900
 2180SOL    HW118176   0.982   0.798   0.549 -3.4928 -0.3980 -0.1099
 2180SOL    HW218177   0.922   0.864   0.667 -0.8863  1.7570 -0.3341
 2181SOL     OW18178   0.082   3.583   0.466  0.1049  0.2757 -0.7657
 2181SOL    HW118179   0.128   3.655   0.421  1.2758 -0.9935 -1.5984
 2181SOL    HW218180   4.735   3.625   0.470  0.1229  0.2289  0.0404
 2182SOL     OW18181   1.710   3.669   3.614  0.1575  0.4335  0.3169
 2182SOL    HW118182   1.778   3.638   3.554 -0.7704  0.9784 -1.0137
 2182SOL    HW218183   1.637   3.607   3.614  1.0633 -0.6265 -0.5652
 2183SOL     OW18184   3.399   1.261   7.363  0.7671  0.0435  0.2255
 2183SOL    HW118185   3.398   1.355   7.380 -1.2218  0.1290 -0.3105
 2183SOL    HW218186   3.491   1.237   7.373  0.9826  0.9715  0.4304
 2184SOL     OW18187   0.411   0.617  15.313 -0.4482 -0.0649  0.1857
 2184SOL    HW118188   0.408   0.702  15.267 -0.9342 -0.9586 -1.4370
 2184SOL    HW218189   0.460   0.563  15.251 -0.1520 -1.5994  1.7546
 2185SOL     OW18190   3.866   0.717   1.862  0.3834 -0.4062  0.1061
 2185SOL    HW118191   3.771   0.725   1.871  0.1301 -0.3929 -2.7458
 2185SOL    HW218192   3.883   0.780   1.792 -0.2285 -1.1488 -0.6967
 2186SOL     OW18193   1.113   0.836   3.128 -0.4956  0.9868 -0.4033
 2186SOL    HW118194   1.131   0.816   3.036 -2.1398 -1.6481 -0.1446
 2186SOL    HW218195   1.159   0.918   3.147  2.7035 -0.4263 -1.9639
 2187SOL     OW18196   4.378   2.236   7.172 -0.1781 -0.0211 -0.3807
 2187SOL    HW118197   4.419   2.276   7.250 -1.0730 -1.6828  0.9354
 2187SOL    HW218198   4.295   2.282   7.164 -1.0095 -0.9684  2.7596
 2188SOL     OW18199   1.906   1.123  12.178  0.0208 -0.3227  0.2214
 2188SOL    HW118200   1.880   1.046  12.129  1.6301 -1.0184  0.4694
 2188SOL    HW218201   1.842   1.123  12.249 -1.2102  0.2324 -0.8877
 2189SOL     OW18202   2.700   4.091   3.362 -0.3767  0.2655 -0.0566
 2189SOL    HW118203   2.669   4.027   3.426 -1.5830  0.0968 -0.7971
 2189SOL    HW218204   2.703   4.169   3.416  3.4535  0.0470  0.0597
 2190SOL     OW18205   1.939   2.931   7.283  0.8878 -0.2235 -0.2220
 2190SOL    HW118206   2.006   2.998   7.268  0.1921  0.0115 -2.3486
 2190SOL    HW218207   1.983   2.852   7.250 -0.8680 -2.1135  1.9387
 2191SOL     OW18208   0.539   1.241   9.501 -0.4820  0.1734 -0.1082
 2191SOL    HW118209   0.503   1.316   9.454  1.7400 -1.1349 -3.9289
 2191SOL    HW218210   0.590   1.287   9.568 -1.4867 -1.6936  1.9030
 2192SOL     OW18211   3.064   2.850  14.073 -0.3108  0.1145 -0.2398
 2192SOL    HW118212   3.076   2.755  14.084  1.4355  0.4608  0.7783
 2192SOL    HW218213   3.052   2.849  13.978 -0.4515 -1.0564 -0.2168
 2193SOL     OW18214   0.850   2.896  10.920  0.0494 -0.0437  0.7653
 2193SOL    HW118215   0.941   2.905  10.894  0.6985  1.2538  3.5106
 2193SOL    HW218216   0.850   2.946  11.001 -0.6198  0.1718  0.6396
 2194SOL     OW18217   2.687   0.265   7.040  0.2749 -0.7434 -0.5582
 2194SOL    HW118218   2.711   0.334   6.978 -3.6943 -0.7644 -2.1041
 2194SOL    HW218219   2.600   0.247   7.005 -0.7888 -0.1702  1.7853
 2195SOL     OW18220   2.080   2.081   5.694 -0.4766 -0.0197 -0.2107
 2195SOL    HW118221   2.002   2.078   5.750  0.4926  0.7104  1.2014
 2195SOL    HW218222   2.087   2.175   5.677 -1.0005  0.4473  2.1508
 2196SOL     OW18223   0.496   2.907   4.812  0.4073 -0.3625 -0.4306
 2196SOL    HW118224   0.460   2.830   4.856  0.2047  0.0691  0.1592
 2196SOL    HW218225   0.517   2.962   4.887  0.6315 -2.6939  1.1974
 2197SOL     OW18226   4.184   4.365   8.863 -0.8293  0.2418 -0.0217
 2197SOL    HW118227   4.094   4.387   8.842 -1.6743 -0.6582  2.5320
 2197SOL    HW218228   4.186   4.387   8.957 -0.7383  0.8575 -0.1679
 2198SOL     OW18229   1.253   4.422   4.985 -0.2349  0.4726 -0.0300
 2198SOL    HW118230   1.270   4.332   4.959  0.6046  0.2169  1.3847
 2198SOL    HW218231   1.162   4.414   5.015 -0.2500  0.6804 -0.0206
 2199SOL     OW18232   3.355   3.329   6.657 -0.2532 -0.7257  0.1849
 2199SOL    HW118233   3.433   3.317   6.711 -1.1562 -2.3635  1.1306
 2199SOL    HW218234   3.306   3.250   6.679  3.4533 -2.9321  0.5687
 2200SOL     OW18235   2.067   4.109   8.261  0.7029 -0.1962 -0.2908
 2200SOL    HW118236   2.055   4.175   8.192 -0.0672  1.8133  1.7778
 2200SOL    HW218237   1.973   4.092   8.268  0.3068  2.1036 -0.0558
 2201SOL     OW18238   1.278   3.210   3.167 -0.8561 -0.6736  0.1152
 2201SOL    HW118239   1.336   3.177   3.235 -2.3365 -0.5276  1.4621
 2201SOL    HW218240   1.190   3.173   3.182 -0.8713 -0.8316 -0.3528
 2202SOL     OW18241   0.211   2.399  13.644 -0.0168 -0.2270 -0.3563
 2202SOL    HW118242   0.256   2.337  13.703  2.1304  1.8609  0.2375
 2202SOL    HW218243   0.152   2.336  13.604  1.2803 -1.8472  0.2383
 2203SOL     OW18244   4.207   2.503  10.736  0.0756 -0.0259  0.0823
 2203SOL    HW118245   4.217   2.573  10.672 -2.9146  1.5688  1.3205
 2203SOL    HW218246   4.223   2.550  10.818 -0.9568  0.6394 -0.0988
 2204SOL     OW18247   3.691   3.969   4.922  0.2349 -0.3133  0.0676
 2204SOL    HW118248   3.780   3.993   4.949 -0.2448  0.4323  0.9713
 2204SOL    HW218249   3.692   4.008   4.834  0.5440 -0.0950  0.1669
 2205SOL     OW18250   1.562   0.333   0.544  0.3465  0.4141 -0.3272
 2205SOL    HW118251   1.477   0.361   0.577  0.9133  0.3216  1.1936
 2205SOL    HW218252   1.529   0.268   0.481 -1.3382  0.9673 -0.0058
 2206SOL     OW18253   0.257   0.288   5.033 -0.2279 -0.6141 -0.1351
 2206SOL    HW118254   0.251   0.211   4.976 -1.5755 -0.9043  0.3879
 2206SOL    HW218255   0.335   0.265   5.082  0.5072  1.0450 -0.5197
 2207SOL     OW18256   0.499   1.245  12.787  0.1487  0.0044  0.5231
 2207SOL    HW118257   0.546   1.326  12.768  0.8309 -1.1684 -2.7867
 2207SOL    HW218258   0.425   1.242  12.726 -0.3409  0.4533  1.0844
 2208SOL     OW18259   2.725   2.149   4.938 -0.1521  0.1055  0.2359
 2208SOL    HW118260   2.631   2.159   4.922  0.0273 -1.1929 -1.5380
 2208SOL    HW218261   2.728   2.063   4.979 -1.5343 -0.9439 -1.8742
 2209SOL     OW18262   0.993   1.541  12.193 -0.0053  0.0734  0.0550
 2209SOL    HW118263   1.083   1.528  12.221  0.2035  0.4422 -0.4556
 2209SOL    HW218264   0.999   1.632  12.165 -0.9625  1.3459  3.8502
 2210SOL     OW18265   1.350   0.243  12.099 -0.3491  0.2482  0.2961
 2210SOL    HW118266   1.379   0.254  12.008 -1.2873 -2.3449 -0.3132
 2210SOL    HW218267   1.391   0.317  12.144 -3.1611  2.1805 -0.2691
 2211SOL     OW18268   3.022   2.310   1.778 -0.0694 -0.2077 -0.3538
 2211SOL    HW118269   3.086   2.326   1.708  1.3946 -1.2057  0.7573
 2211SOL    HW218270   3.075   2.323   1.856  1.5645 -1.9708 -1.1829
 2212SOL     OW18271   3.662   3.771   6.155  0.4326  0.5307 -0.3106
 2212SOL    HW118272   3.747   3.766   6.200 -1.3870 -2.0779  2.8305
 2212SOL    HW218273   3.662   3.691   6.104  2.7123  0.7346 -0.6627
 2213SOL     OW18274   2.928   1.204   2.076 -0.3986 -0.2789  0.8989
 2213SOL    HW118275   2.961   1.230   1.990  0.5372  0.9292  1.6198
 2213SOL    HW218276   2.888   1.288   2.103 -0.9818 -0.3643  0.3027
 2214SOL     OW18277   2.560   3.044   6.724  0.4127 -0.1820  0.2439
 2214SOL    HW118278   2.594   3.125   6.761 -0.1346  0.4096 -0.5477
 2214SOL    HW218279   2.584   3.063   6.634  0.2523 -0.9943  0.0272
 2215SOL     OW18280   1.794   4.258   0.281  0.4159  0.5984 -0.0196
 2215SOL    HW118281   1.729   4.190   0.301  1.2817  0.3735  1.9994
 2215SOL    HW218282   1.752   4.291   0.201 -2.3164 -1.3187  0.6392
 2216SOL     OW18283   2.841   1.220   3.037 -0.1615  0.1012  1.3196
 2216SOL    HW118284   2.879   1.162   2.971 -0.4183  0.5396  0.7864
 2216SOL    HW218285   2.903   1.210   3.109  0.7695  1.5933  0.7161
 2217SOL     OW18286   2.502   2.665   7.884  0.1240  0.0088  0.0084
 2217SOL    HW118287   2.587   2.652   7.842 -0.4581  0.0023 -1.1791
 2217SOL    HW218288   2.488   2.754   7.852 -0.8680 -0.6913 -1.5350
 2218SOL     OW18289   3.808   2.486   6.593  0.2361 -0.5486  0.1634
 2218SOL    HW118290   3.829   2.576   6.568  1.9063 -1.5940 -2.2876
 2218SOL    HW218291   3.830   2.433   6.516  0.2843  0.2991 -0.4039
 2219SOL     OW18292   0.213   1.683   4.630 -0.0945  0.5985 -0.0568
 2219SOL    HW118293   0.302   1.694   4.596 -0.4109  0.0291 -1.0944
 2219SOL    HW218294   0.222   1.743   4.703  1.2647 -1.1306  1.2004
 2220SOL     OW18295   2.912   1.923   7.903 -0.1750 -0.4620 -0.4710
 2220SOL    HW118296   2.890   1.830   7.908  3.2608 -1.1996  1.0181
 2220SOL    HW218297   2.971   1.918   7.828  0.2448 -0.3353 -0.1495
 2221SOL     OW18298   1.004   3.784   2.993  0.5390  0.6202 -0.3474
 2221SOL    HW118299   1.031   3.856   3.051  2.0016 -1.5128  1.6159
 2221SOL    HW218300   0.964   3.729   3.060  0.1235  0.7091 -0.5253
 2222SOL     OW18301   2.107   2.649  11.472 -0.0826  0.0073 -0.1939
 2222SOL    HW118302   2.028   2.697  11.497  0.7122  0.5719  1.2865
 2222SOL    HW218303   2.157   2.658  11.553  0.9317  0.1588 -0.8402
 2223SOL     OW18304   0.579   1.720  10.760  0.6538  0.4111 -0.0902
 2223SOL    HW118305   0.617   1.634  10.739  1.2014  0.8192 -0.7955
 2223SOL    HW218306   0.662   1.745  10.800 -0.6556  2.8068  1.0930
 2224SOL     OW18307   0.686   3.203   3.031  1.1405  0.3179 -0.4994
 2224SOL    HW118308   0.717   3.277   3.084  2.2797 -1.5766  1.4740
 2224SOL    HW218309   0.610   3.244   2.990  1.8401 -1.7441 -3.8368
 2225SOL     OW18310   3.580   1.275   2.913 -0.1207 -0.2427 -0.1804
 2225SOL    HW118311   3.635   1.262   2.836  2.3995 -1.4510  1.8460
 2225SOL    HW218312   3.616   1.208   2.971 -1.4055 -1.5095 -0.8429
 2226SOL     OW18313   0.632   1.118   3.135  0.0738  0.0006 -0.2349
 2226SOL    HW118314   0.642   1.137   3.042 -3.1849  2.2532 -0.1227
 2226SOL    HW218315   0.555   1.062   3.141  0.3559 -0.4872 -1.2878
 2227SOL     OW18316   0.312   4.117   7.062 -0.2409 -0.5119 -0.2412
 2227SOL    HW118317   0.327   4.171   6.985 -1.8281  0.6127  0.2571
 2227SOL    HW218318   0.325   4.025   7.039  0.0242 -0.4691 -0.2617
 2228SOL     OW18319   1.313   0.379   5.588  0.5240  0.5445  0.0652
 2228SOL    HW118320   1.310   0.422   5.503 -0.6973  1.4922  0.5951
 2228SOL    HW218321   1.242   0.432   5.622  0.2012 -0.5888  1.1787
 2229SOL     OW18322   4.146   1.204   4.056  0.0964 -0.1342  0.4667
 2229SOL    HW118323   4.170   1.190   4.148  1.5443  2.8338  0.5417
 2229SOL    HW218324   4.184   1.289   4.033 -0.1262  0.0615  0.8094
 2230SOL     OW18325   2.483   2.168   6.659  0.0075 -0.0100 -0.5490
 2230SOL    HW118326   2.483   2.139   6.751 -0.8964  1.0730 -0.2015
 2230SOL    HW218327   2.570   2.133   6.641 -1.0046 -2.6759 -0.3961
 2231SOL     OW18328   1.499   2.449   5.442 -0.2067  0.2907  0.7927
 2231SOL    HW118329   1.427   2.510   5.423 -2.1163 -2.6321 -1.2743
 2231SOL    HW218330   1.456   2.372   5.479 -1.9528  0.0069 -1.7774
 2232SOL     OW18331   2.519   3.764   7.646  0.3876 -0.2152 -0.0497
 2232SOL    HW118332   2.612   3.784   7.651 -0.5609  4.4913 -1.0419
 2232SOL    HW218333   2.477   3.830   7.700  0.8518 -1.6367  2.0357
 2233SOL     OW18334   0.774   4.131   4.388  0.1594 -0.4544 -0.3899
 2233SOL    HW118335   0.798   4.046   4.351 -1.1073 -0.2610 -1.6862
 2233SOL    HW218336   0.780   4.189   4.311  0.1372 -0.1596 -0.1684
 2234SOL     OW18337   3.545   3.054   5.882  0.4556 -0.0334 -0.1478
 2234SOL    HW118338   3.606   2.980   5.887 -0.8854 -1.1609 -0.4669
 2234SOL    HW218339   3.547   3.055   5.786 -3.9241  1.9220 -0.2164
 2235SOL     OW18340   1.610   4.664  12.028 -0.1756 -0.6898 -0.5022
 2235SOL    HW118341   1.658   4.672  11.945  3.5032  0.9906  1.7724
 2235SOL    HW218342   1.667   4.601  12.073 -0.5434  0.1566  1.1539
 2236SOL     OW18343   0.568   1.886   3.269 -0.5079 -0.4324 -0.1684
 2236SOL    HW118344   0.494   1.845   3.223 -0.6522 -2.5373  1.9415
 2236SOL    HW218345   0.576   1.819   3.336  1.1350  1.0958  1.1509
 2237SOL     OW18346   1.270   3.591   3.813  0.3603 -0.0984 -0.1714
 2237SOL    HW118347   1.261   3.542   3.895  0.1518 -0.4694 -0.4151
 2237SOL    HW218348   1.195   3.551   3.769  0.7481  0.3700 -1.2602
 2238SOL     OW18349   2.477   2.855   5.652  0.2050 -0.1268  0.2251
 2238SOL    HW118350   2.548   2.812   5.605 -1.0943 -1.1805 -0.7808
 2238SOL    HW218351   2.432   2.778   5.686 -0.9659  0.3787 -0.1559
 2239SOL     OW18352   0.170   0.222  17.704  0.1275 -0.4184  0.5488
 2239SOL    HW118353   0.124   0.251  17.625  1.3308 -1.1098 -0.4112
 2239SOL    HW218354   0.096   0.203   0.008 -1.2694  0.4575 -0.9966
 2240SOL     OW18355   0.671   0.635   0.818 -0.3982 -0.3218 -0.2034
 2240SOL    HW118356   0.736   0.570   0.847 -1.2928 -1.4542 -0.7448
 2240SOL    HW218357   0.628   0.601   0.740 -2.6585 -3.7058  2.4993
 2241SOL     OW18358   4.731   0.783   5.079  0.5408  0.6997  0.2228
 2241SOL    HW118359   0.048   0.809   5.152  0.0122  2.4733 -0.0182
 2241SOL    HW218360   4.681   0.707   5.109  1.8135 -0.1424  0.2110
 2242SOL     OW18361   0.605   3.654   9.800  0.0150 -0.1793 -0.2608
 2242SOL    HW118362   0.571   3.733   9.843 -0.1968  0.1804 -1.0985
 2242SOL    HW218363   0.543   3.587   9.829 -0.7337  1.1751  1.3097
 2243SOL     OW18364   0.335   3.616   4.193 -0.6620 -0.4060  0.1138
 2243SOL    HW118365   0.407   3.664   4.153  0.5930 -3.7744 -1.6858
 2243SOL    HW218366   0.362   3.616   4.284  0.0185 -0.2748 -0.0908
 2244SOL     OW18367   0.692   3.405   3.912 -0.1175 -0.0693 -0.0396
 2244SOL    HW118368   0.733   3.461   3.978  1.8516 -1.5145 -0.0545
 2244SOL    HW218369   0.717   3.445   3.829 -1.1526  0.3718 -0.1433
 2245SOL     OW18370   2.677   2.621   4.413 -0.1409 -0.3727 -0.6006
 2245SOL    HW118371   2.707   2.594   4.326 -0.0216  2.8784 -1.5469
 2245SOL    HW218372   2.645   2.533   4.436  3.0386 -1.5399 -0.6455
 2246SOL     OW18373   0.599   0.330   5.813 -0.9713 -0.4234 -0.4711
 2246SOL    HW118374   0.612   0.424   5.825  3.7147 -1.2083  0.7567
 2246SOL    HW218375   0.636   0.309   5.899 -0.5354 -1.3590 -0.8782
 2247SOL     OW18376   1.863   0.100   1.858 -0.3417 -0.2445 -0.4925
 2247SOL    HW118377   1.788   0.158   1.873 -1.3899 -1.2642 -1.8043
 2247SOL    HW218378   1.916   0.132   1.931  1.9715 -1.8807 -1.4714
 2248SOL     OW18379   4.223   1.174   9.132  1.0249  0.1463 -0.2729
 2248SOL    HW118380   4.253   1.180   9.041  1.0924  0.0960 -0.2543
 2248SOL    HW218381   4.297   1.124   9.165  1.3317  0.5818 -0.2997
 2249SOL     OW18382   0.600   0.638  13.362  0.0564  0.0248 -0.2552
 2249SOL    HW118383   0.547   0.616  13.439 -2.4327 -1.2066 -2.3344
 2249SOL    HW218384   0.622   0.548  13.339  0.2325  0.2561 -0.9765
 2250SOL     OW18385   1.515   2.579  17.515 -0.3519 -0.4071  0.0456
 2250SOL    HW118386   1.541   2.668  17.540  0.8251 -0.3569 -1.3603
 2250SOL    HW218387   1.535   2.576  17.421 -1.4389  0.6348 -0.2060
 2251SOL     OW18388   0.473   2.753   7.601 -0.2791  0.1599  0.3488
 2251SOL    HW118389   0.424   2.832   7.578 -1.3784 -0.5522  0.2819
 2251SOL    HW218390   0.554   2.791   7.637 -0.1108  1.0921 -1.0140
 2252SOL     OW18391   0.429   1.146   7.790 -0.5471  0.2308  0.0261
 2252SOL    HW118392   0.457   1.075   7.732  0.0373  1.1629 -0.8264
 2252SOL    HW218393   0.357   1.186   7.741 -0.4441  0.1133 -0.2230
 2253SOL     OW18394   2.595   1.225   3.205  0.3134 -0.3433  0.3169
 2253SOL    HW118395   2.667   1.238   3.143 -1.4704 -1.4348 -1.9986
 2253SOL    HW218396   2.546   1.306   3.192  1.5541 -0.0751 -2.9444
 2254SOL     OW18397   1.686   3.564  11.785  0.3172  0.1377  0.1514
 2254SOL    HW118398   1.610   3.575  11.728  0.8975 -0.4435 -0.7303
 2254SOL    HW218399   1.717   3.476  11.761 -1.9978 -0.6131 -0.0464
 2255SOL     OW18400   4.416   4.486   7.744  0.5314  0.2560 -0.4786
 2255SOL    HW118401   4.359   4.540   7.798  3.5718  2.5162  0.4552
 2255SOL    HW218402   4.464   4.446   7.817 -0.2503 -1.7810 -1.0799
 2256SOL     OW18403   3.405   2.473   3.235  0.3507 -0.4811 -0.5963
 2256SOL    HW118404   3.346   2.448   3.163 -1.6231 -0.7331  1.1183
 2256SOL    HW218405   3.466   2.524   3.181  0.3036  0.4098  0.1911
 2257SOL     OW18406   1.654   4.709   3.613 -0.0299  0.2145 -0.4301
 2257SOL    HW118407   1.631   4.617   3.630 -2.1917  0.8748  0.2827
 2257SOL    HW218408   1.669   0.012   3.697 -1.3461  1.6282 -0.8990
 2258SOL     OW18409   3.315   0.177  13.850  0.0404  0.1359 -0.6619
 2258SOL    HW118410   3.271   0.256  13.821 -0.8537 -0.2202 -0.2713
 2258SOL    HW218411   3.317   0.190  13.945 -0.9898  0.1105 -0.6375
 2259SOL     OW18412   0.548   2.841   2.597  0.0967  0.2246  0.1944
 2259SOL    HW118413   0.492   2.917   2.585 -0.4926 -0.2477 -0.0256
 2259SOL    HW218414   0.634   2.881   2.610  0.7741 -0.8907 -0.8246
 2260SOL     OW18415   3.784   4.288   3.885  0.0269 -0.1528 -0.0403
 2260SOL    HW118416   3.781   4.274   3.791  1.1929  3.6410 -0.6257
 2260SOL    HW218417   3.703   4.338   3.888  0.0608 -0.1512  0.9580
 2261SOL     OW18418   0.513   4.465   4.210 -0.1754 -0.8360  0.4412
 2261SOL    HW118419   0.451   4.522   4.165  1.7522  0.4669 -0.5452
 2261SOL    HW218420   0.476   4.379   4.190 -0.2851 -0.3911 -1.2269
 2262SOL     OW18421   3.630   4.005   8.056  0.4988 -0.0770  0.7561
 2262SOL    HW118422   3.675   4.054   7.987  0.0586  0.3791  0.7939
 2262SOL    HW218423   3.695   3.995   8.126  0.3717 -2.8807  0.4797
 2263SOL     OW18424   3.350   0.693   7.653  0.1936 -0.5468 -0.7379
 2263SOL    HW118425   3.368   0.688   7.747 -0.6553 -2.6531 -0.6930
 2263SOL    HW218426   3.258   0.668   7.649  0.6724 -2.5499  0.8848
 2264SOL     OW18427   3.983   0.158  11.841  0.4535  0.6179  0.2560
 2264SOL    HW118428   3.981   0.200  11.927  0.1649 -0.0956  0.5951
 2264SOL    HW218429   3.895   0.122  11.831  0.6489 -0.2530  1.7022
 2265SOL     OW18430   4.351   0.903   6.697  0.2351 -0.0118  0.1035
 2265SOL    HW118431   4.268   0.859   6.715 -0.9776  1.9577 -0.7177
 2265SOL    HW218432   4.418   0.843   6.730 -0.2900 -2.2307 -2.8487
 2266SOL     OW18433   3.842   0.224   1.992 -0.3444 -0.0314  0.3038
 2266SOL    HW118434   3.812   0.189   2.076  0.9794 -3.2293 -0.5401
 2266SOL    HW218435   3.936   0.210   1.994 -0.2064  0.7573 -0.6563
 2267SOL     OW18436   2.800   0.487   5.439 -0.2318 -0.0256  0.8582
 2267SOL    HW118437   2.704   0.485   5.440 -0.2515 -0.8570 -1.1400
 2267SOL    HW218438   2.811   0.485   5.534 -1.6457  1.1096  1.0511
 2268SOL     OW18439   3.556   1.959   3.141  0.0522  0.4802  0.2571
 2268SOL    HW118440   3.484   1.952   3.078  1.8297 -1.7930 -1.5524
 2268SOL    HW218441   3.522   1.898   3.207 -0.3732 -2.1587 -2.3538
 2269SOL     OW18442   3.854   0.926   6.300 -0.1492 -0.2748 -0.0703
 2269SOL    HW118443   3.882   0.980   6.227 -0.4795 -2.6627 -1.9564
 2269SOL    HW218444   3.911   0.963   6.368 -0.4569  0.0065  0.0309
 2270SOL     OW18445   0.345   3.292   9.703 -0.2651  0.1363 -0.4816
 2270SOL    HW118446   0.407   3.223   9.680  0.1524  0.3802 -0.0903
 2270SOL    HW218447   0.361   3.352   9.630 -1.2116 -0.4303 -1.1600
 2271SOL     OW18448   3.437   2.678   2.669  0.0110  0.5122 -0.1186
 2271SOL    HW118449   3.444   2.583   2.667  0.2867  0.5038  1.5788
 2271SOL    HW218450   3.387   2.701   2.747 -0.4067 -1.1177  0.0852
 2272SOL     OW18451   0.781   2.401   2.262 -0.6639  0.0871 -0.0694
 2272SOL    HW118452   0.698   2.427   2.222 -0.3399  0.1452 -0.6973
 2272SOL    HW218453   0.852   2.419   2.201 -0.6086  1.4033  0.3836
 2273SOL     OW18454   0.091   3.733   9.446 -0.2973 -0.0586  0.3673
 2273SOL    HW118455   0.004   3.699   9.465 -0.5115  0.6118  0.5825
 2273SOL    HW218456   0.067   3.776   9.364 -0.4077  0.3687  0.6254
 2274SOL     OW18457   1.525   3.132   6.654 -0.4901  0.0357  0.3311
 2274SOL    HW118458   1.475   3.071   6.708  0.0161 -0.2326  0.4957
 2274SOL    HW218459   1.604   3.083   6.630 -1.2419 -0.8761 -0.2706
 2275SOL     OW18460   0.255   2.944   9.489  0.3475 -0.1485  0.0300
 2275SOL    HW118461   0.197   2.870   9.507 -1.4475  1.7363  2.1141
 2275SOL    HW218462   0.249   2.989   9.573  0.8962  2.5934 -1.4026
 2276SOL     OW18463   3.320   0.304   9.558  0.1286 -0.2836  0.7776
 2276SOL    HW118464   3.299   0.397   9.566 -1.0544 -0.4918  0.0488
 2276SOL    HW218465   3.364   0.313   9.473 -0.0917 -1.8970  0.4910
 2277SOL     OW18466   0.528   1.982   5.154  0.1513 -0.6439 -0.3865
 2277SOL    HW118467   0.601   1.920   5.145  3.5752  3.2114  1.2950
 2277SOL    HW218468   0.553   2.033   5.231 -0.5401 -1.2252  0.2350
 2278SOL     OW18469   4.188   0.364   2.029  0.1225  0.4589  0.0354
 2278SOL    HW118470   4.122   0.429   2.004  0.3671  0.4203 -0.6988
 2278SOL    HW218471   4.154   0.278   2.003  0.2650  1.0810 -2.2335
 2279SOL     OW18472   1.683   1.056   2.509  0.1948 -0.0021  0.4243
 2279SOL    HW118473   1.777   1.046   2.526  0.8978  2.8211 -1.8684
 2279SOL    HW218474   1.674   1.039   2.416  0.0391  0.7594  0.3018
 2280SOL     OW18475   4.185   4.360   7.139  0.1198 -0.0194 -0.0028
 2280SOL    HW118476   4.235   4.386   7.216  0.5276 -3.6280  0.9476
 2280SOL    HW218477   4.158   4.271   7.163 -0.2496  0.1886  0.3652
 2281SOL     OW18478   4.232   0.566   5.209  0.0584 -0.4535  0.2500
 2281SOL    HW118479   4.310   0.518   5.235  0.1182 -0.3519  0.2593
 2281SOL    HW218480   4.261   0.613   5.131  1.0120  0.8461  1.3810
 2282SOL     OW18481   2.019   2.257   6.220  0.2950  0.2444  0.2587
 2282SOL    HW118482   2.112   2.281   6.217  0.7062 -1.5507 -1.2108
 2282SOL    HW218483   2.033   2.169   6.185 -0.7315 -1.0761  3.1399
 2283SOL     OW18484   1.293   0.757   2.554 -0.3578  0.4249 -0.2104
 2283SOL    HW118485   1.284   0.828   2.617 -0.7314  2.1988 -2.2396
 2283SOL    HW218486   1.199   0.752   2.536 -0.0231  0.1278 -1.9294
 2284SOL     OW18487   2.109   2.971  16.353  0.1166  0.6117  0.1212
 2284SOL    HW118488   2.094   3.021  16.434  1.0909  2.2420 -0.7073
 2284SOL    HW218489   2.128   3.043  16.293  1.5893  0.4672  0.4306
 2285SOL     OW18490   2.306   3.438   0.300 -0.2349  0.2572  0.1029
 2285SOL    HW118491   2.346   3.393   0.375 -0.7079  0.4298  0.4576
 2285SOL    HW218492   2.216   3.460   0.326  0.9101  1.8896  2.6403
 2286SOL     OW18493   2.933   0.246   1.638  0.1643 -0.4143  0.4473
 2286SOL    HW118494   2.869   0.194   1.687  0.3459 -2.4819 -1.5596
 2286SOL    HW218495   2.942   0.315   1.704  0.1351  1.1191 -1.1260
 2287SOL     OW18496   2.652   0.563   3.812 -0.4925 -0.1642 -0.2897
 2287SOL    HW118497   2.581   0.547   3.875  0.2477 -1.5825  0.1743
 2287SOL    HW218498   2.616   0.509   3.742  0.2048 -0.3062 -0.5388
 2288SOL     OW18499   3.183   2.070   8.465  0.0990  0.7542 -0.5494
 2288SOL    HW118500   3.138   2.154   8.454 -3.1455 -1.1640 -1.7955
 2288SOL    HW218501   3.232   2.064   8.382  0.0172 -1.2426 -0.4442
 2289SOL     OW18502   2.434   2.152  14.586  0.0793  0.6798 -0.3458
 2289SOL    HW118503   2.415   2.224  14.646 -1.2302 -0.2162  0.3296
 2289SOL    HW218504   2.347   2.148  14.548 -1.4300 -3.0258  3.5324
 2290SOL     OW18505   1.996   4.641  16.904 -0.8371  0.3551  0.2880
 2290SOL    HW118506   2.022   4.567  16.850  0.6886 -0.3096  1.9492
 2290SOL    HW218507   2.071   4.699  16.888  0.0250 -0.9089 -0.2215
 2291SOL     OW18508   2.859   3.248  11.956 -0.0518  0.1039  0.5286
 2291SOL    HW118509   2.841   3.239  12.050  0.1504 -0.4686  0.5147
 2291SOL    HW218510   2.882   3.158  11.935  1.1815  0.4593  0.3780
 2292SOL     OW18511   4.019   2.745   8.400 -0.6693  0.3304 -0.2703
 2292SOL    HW118512   3.999   2.811   8.466  0.0417  0.0118  0.2667
 2292SOL    HW218513   3.975   2.663   8.425  0.1981  0.2038  0.8546
 2293SOL     OW18514   2.531   2.862   6.951 -0.2472  0.5179  0.2954
 2293SOL    HW118515   2.545   2.945   6.906 -0.8619 -0.9106 -2.5936
 2293SOL    HW218516   2.596   2.859   7.020  0.1536 -0.5984 -0.1243
 2294SOL     OW18517   2.490   0.012   3.651  0.3350  0.3582  0.0780
 2294SOL    HW118518   2.481   0.057   3.567 -0.4215  1.1015  0.5602
 2294SOL    HW218519   2.461   0.082   3.709  2.1041  1.8633 -0.8362
 2295SOL     OW18520   1.786   0.346   4.960  0.0807  0.4616  0.4679
 2295SOL    HW118521   1.875   0.335   4.994  0.3935 -0.9265 -0.8077
 2295SOL    HW218522   1.752   0.257   4.966  0.4603  0.3561  1.0859
 2296SOL     OW18523   0.556   1.600   2.986 -0.8589 -0.5336 -0.0089
 2296SOL    HW118524   0.549   1.542   2.910 -2.0844  0.5626 -0.7116
 2296SOL    HW218525   0.584   1.528   3.044  3.2929  0.5607 -0.6122
 2297SOL     OW18526   1.204   1.654   5.485  0.0539 -0.4440  0.1918
 2297SOL    HW118527   1.157   1.737   5.485 -1.0523 -1.0767  0.2109
 2297SOL    HW218528   1.296   1.679   5.497 -0.4518  1.6027 -0.2436
 2298SOL     OW18529   2.253   0.889  10.563  0.2719  0.2359 -0.6365
 2298SOL    HW118530   2.225   0.881  10.472  0.5397 -0.7611 -0.6329
 2298SOL    HW218531   2.189   0.832  10.606  0.1303 -0.2846 -1.5281
 2299SOL     OW18532   0.301   0.729   3.533  0.1039 -0.0932 -0.0399
 2299SOL    HW118533   0.224   0.718   3.590  1.8542  1.8048  2.6831
 2299SOL    HW218534   0.267   0.669   3.466  0.8660  2.6172 -2.8297
 2300SOL     OW18535   4.305   2.676   4.171  0.1895  0.0441 -0.8004
 2300SOL    HW118536   4.265   2.763   4.169 -0.0524 -0.0523 -0.2693
 2300SOL    HW218537   4.364   2.680   4.096  1.2210  0.0781  0.0055
 2301SOL     OW18538   0.678   3.542   0.094 -0.5958 -0.5277 -0.6807
 2301SOL    HW118539   0.607   3.499   0.047  0.4344 -1.3173 -1.5046
 2301SOL    HW218540   0.725   3.571   0.016  0.9382  3.0756  1.5338
 2302SOL     OW18541   0.769   2.672  11.067  0.2629 -0.7142 -0.0306
 2302SOL    HW118542   0.833   2.726  11.022 -1.7754  0.5508 -1.4218
 2302SOL    HW218543   0.801   2.665  11.157 -0.9625  1.4030  0.5557
 2303SOL     OW18544   4.488   2.586  10.379  0.0743  0.1042 -0.6624
 2303SOL    HW118545   4.521   2.630  10.300 -0.3667  3.3655  0.9451
 2303SOL    HW218546   4.567   2.543  10.413  0.7789  1.9131  0.0467
 2304SOL     OW18547   2.384   0.715   5.404  0.4131 -0.3215 -0.2175
 2304SOL    HW118548   2.352   0.661   5.332 -0.7863 -0.2250  0.2369
 2304SOL    HW218549   2.318   0.785   5.402  0.5663 -0.1722 -0.0411
 2305SOL     OW18550   4.592   1.592   6.769  0.3296  0.1800 -0.4004
 2305SOL    HW118551   4.597   1.665   6.831 -1.9406 -1.0287  1.2037
 2305SOL    HW218552   4.683   1.562   6.774  0.6215  1.2966  1.1863
 2306SOL     OW18553   3.042   3.605   6.973  0.1840 -0.3020  0.2025
 2306SOL    HW118554   3.066   3.596   7.065 -0.2843  0.2279  0.3766
 2306SOL    HW218555   3.131   3.613   6.938 -0.8521 -0.7020 -2.5612
 2307SOL     OW18556   2.548   3.433   3.022 -0.7114 -0.4048  0.1743
 2307SOL    HW118557   2.531   3.494   2.949 -1.8499 -0.6600  0.2282
 2307SOL    HW218558   2.458   3.415   3.046 -0.5305 -2.5478 -0.7195
 2308SOL     OW18559   0.060   4.216   0.652 -0.0086  0.2735 -0.1153
 2308SOL    HW118560   0.048   4.307   0.625  0.9859  0.7614  1.1306
 2308SOL    HW218561   0.135   4.223   0.710  0.7828  1.4215 -1.2772
 2309SOL     OW18562   3.093   3.237  11.565 -0.1325 -0.2542  0.1261
 2309SOL    HW118563   3.158   3.305  11.584 -1.7635  1.2029  0.4514
 2309SOL    HW218564   3.149   3.180  11.512  0.9977  1.0222 -0.0620
 2310SOL     OW18565   1.694   0.297  12.418 -0.3477 -0.0628 -0.4864
 2310SOL    HW118566   1.708   0.267  12.328 -3.1297 -1.4177 -0.4685
 2310SOL    HW218567   1.598   0.290  12.415 -0.3886 -0.1347  0.9023
 2311SOL     OW18568   0.190   1.582  17.183  0.0065  0.2001 -0.0197
 2311SOL    HW118569   0.221   1.506  17.134 -1.1675  1.3012 -2.4760
 2311SOL    HW218570   0.151   1.641  17.119 -0.4855 -0.8498 -0.6936
 2312SOL     OW18571   0.020   4.699  10.336 -0.0357  0.1620  0.2563
 2312SOL    HW118572   0.040   4.633  10.269  0.8710 -0.2040  0.8848
 2312SOL    HW218573   0.106   4.720  10.374 -0.1611  2.4116 -0.7044
 2313SOL     OW18574   4.186   2.609   7.542 -0.2679 -0.2540  0.1698
 2313SOL    HW118575   4.177   2.520   7.574 -1.0258 -0.0897  0.4004
 2313SOL    HW218576   4.272   2.637   7.575 -0.5491 -1.5988  2.0320
 2314SOL     OW18577   4.111   4.674   6.299  0.0586  0.3204 -0.2993
 2314SOL    HW118578   4.176   4.716   6.356  1.3815 -0.3900 -1.2881
 2314SOL    HW218579   4.153   4.589   6.287 -0.6352  0.3003 -2.5815
 2315SOL     OW18580   0.472   0.736   9.984 -0.4791  0.0012 -0.7967
 2315SOL    HW118581   0.384   0.760  10.011  0.3292  3.0931 -0.8611
 2315SOL    HW218582   0.457   0.645   9.959 -2.3874 -0.1438  0.9137
 2316SOL     OW18583   3.764   1.661   8.810 -0.2549  0.9065  0.0281
 2316SOL    HW118584   3.814   1.662   8.892  0.1108  2.1629 -0.2089
 2316SOL    HW218585   3.787   1.743   8.766 -0.1918  1.4744  1.1198
 2317SOL     OW18586   2.169   4.083   7.826  0.2791  0.2320  0.1039
 2317SOL    HW118587   2.090   4.036   7.855  0.8305 -0.1617  0.9673
 2317SOL    HW218588   2.159   4.159   7.882 -0.2627  0.6995 -0.6309
 2318SOL     OW18589   2.500   3.208   4.166 -0.0354 -0.1036  0.0334
 2318SOL    HW118590   2.555   3.138   4.130  1.2098 -0.0492  1.7919
 2318SOL    HW218591   2.431   3.208   4.101  0.6566 -2.2763 -0.7019
 2319SOL     OW18592   0.598   2.687   5.406 -0.1990 -0.3597  0.6301
 2319SOL    HW118593   0.585   2.771   5.449 -3.0200 -0.5258  0.1245
 2319SOL    HW218594   0.679   2.654   5.444  1.1108  1.1967 -0.8695
 2320SOL     OW18595   1.806   3.353   7.536  0.2759 -0.1685  0.1580
 2320SOL    HW118596   1.733   3.332   7.594 -0.0202  0.9041  0.1863
 2320SOL    HW218597   1.867   3.283   7.556  0.0091 -0.8152 -1.2777
 2321SOL     OW18598   3.387   0.673   2.856  0.2098  0.2974 -0.6058
 2321SOL    HW118599   3.459   0.633   2.807  0.8171 -1.0014  1.3521
 2321SOL    HW218600   3.357   0.738   2.793 -0.5152 -0.4065 -0.9888
 2322SOL     OW18601   0.231   0.784   2.921 -0.2450 -0.3732 -0.4635
 2322SOL    HW118602   0.310   0.731   2.917 -0.9688 -1.4983  0.1936
 2322SOL    HW218603   0.160   0.723   2.900  0.2804 -0.5945 -1.5845
 2323SOL     OW18604   4.552   3.491   6.657  0.0860  0.4269 -0.0216
 2323SOL    HW118605   4.486   3.460   6.719  1.0533  1.8677  1.7368
 2323SOL    HW218606   4.521   3.579   6.636 -0.1784  0.4442  0.4496
 2324SOL     OW18607   0.022   1.366   3.990  0.1216  0.2169 -0.2174
 2324SOL    HW118608   0.063   1.451   4.002  0.3481  0.0727  0.0522
 2324SOL    HW218609   4.678   1.381   4.035  0.3697  0.2440  0.2304
 2325SOL     OW18610   1.433   0.209  17.679  0.1099 -0.6970 -0.1626
 2325SOL    HW118611   1.500   0.225  17.613  1.4277  1.3126  1.6404
 2325SOL    HW218612   1.370   0.169  17.620 -2.4101  2.4130  0.3905
 2326SOL     OW18613   0.182   0.834   7.083  0.2068 -0.3952 -0.1144
 2326SOL    HW118614   0.183   0.865   7.173 -0.8566 -0.6085 -0.0320
 2326SOL    HW218615   0.227   0.749   7.085  0.2179 -0.3575  0.8098
 2327SOL     OW18616   4.445   3.121  12.615  0.7616 -0.2135  0.0034
 2327SOL    HW118617   4.400   3.064  12.677 -1.2702 -0.4514 -1.6902
 2327SOL    HW218618   4.508   3.155  12.678  0.3775  2.8052 -1.2263
 2328SOL     OW18619   1.385   1.418  15.705  0.1749  0.1268  0.3603
 2328SOL    HW118620   1.308   1.429  15.761  2.2877  0.5670  3.2032
 2328SOL    HW218621   1.386   1.491  15.643 -2.3408  0.5868  0.8773
 2329SOL     OW18622   0.871   3.153   9.217  0.5653 -0.2792  0.5502
 2329SOL    HW118623   0.869   3.062   9.247 -2.9618  0.0063  1.2198
 2329SOL    HW218624   0.948   3.156   9.160 -0.1449 -0.1015 -0.4108
 2330SOL     OW18625   3.759   0.308   5.087  0.5236  0.2640  0.0836
 2330SOL    HW118626   3.852   0.312   5.064  0.5515 -1.0982 -0.0610
 2330SOL    HW218627   3.772   0.291   5.180  2.4180  0.1682 -0.1820
 2331SOL     OW18628   3.715   0.064   4.851 -0.1870  0.6226 -0.5892
 2331SOL    HW118629   3.790   0.120   4.866  0.1263  0.5898 -1.9679
 2331SOL    HW218630   3.752   4.716   4.865 -0.7215  0.0996 -2.3425
 2332SOL     OW18631   3.098   1.143   0.772  0.0697 -0.0804 -0.1755
 2332SOL    HW118632   3.135   1.223   0.736  2.7259 -0.3331  1.9719
 2332SOL    HW218633   3.125   1.092   0.696 -1.6363 -0.6239 -0.4230
 2333SOL     OW18634   1.655   4.499   5.656 -0.0658 -0.9917  0.3261
 2333SOL    HW118635   1.603   4.570   5.694  2.3935 -0.5386  2.8760
 2333SOL    HW218636   1.743   4.537   5.652 -0.6267  0.2547 -0.0969
 2334SOL     OW18637   1.660   1.344  14.462  0.0425  0.0052  0.3946
 2334SOL    HW118638   1.616   1.265  14.430  0.9432 -0.4449  0.2607
 2334SOL    HW218639   1.661   1.389  14.378 -0.5807 -2.3804 -0.8788
 2335SOL     OW18640   3.559   0.160  13.523  0.5495 -0.6013 -0.0308
 2335SOL    HW118641   3.592   0.159  13.612 -0.7720  2.5819  0.5274
 2335SOL    HW218642   3.471   0.196  13.535  1.1164  0.8633 -0.3042
 2336SOL     OW18643   1.396   3.037  17.190 -0.1970  0.3978 -1.0308
 2336SOL    HW118644   1.485   3.019  17.160 -0.6983  0.6527 -2.6621
 2336SOL    HW218645   1.345   3.004  17.117  0.5840 -0.9458 -0.9816
 2337SOL     OW18646   0.521   1.094   6.577  0.0654 -0.0400  0.0237
 2337SOL    HW118647   0.452   1.160   6.584 -0.7927 -0.7914 -1.3533
 2337SOL    HW218648   0.487   1.039   6.506  1.8550 -1.2895  0.1430
 2338SOL     OW18649   0.315   0.102  17.035  0.0190  0.0607  0.7157
 2338SOL    HW118650   0.334   0.110  16.942  0.6320 -2.6807  0.6053
 2338SOL    HW218651   0.345   0.013  17.055  0.8718 -0.2742 -2.0575
 2339SOL     OW18652   3.550   1.715  11.695  0.4630 -0.6312  0.2492
 2339SOL    HW118653   3.629   1.667  11.719  0.3907 -0.1444  1.4601
 2339SOL    HW218654   3.533   1.739  11.786 -1.9373  0.2753 -0.4597
 2340SOL     OW18655   0.056   2.011   1.254 -0.4467 -0.3416  0.0367
 2340SOL    HW118656   4.710   1.968   1.264 -0.4105 -1.6337 -4.7703
 2340SOL    HW218657   0.109   1.932   1.247  1.3363  0.9184 -0.7131
 2341SOL     OW18658   3.242   4.535   4.696  0.2521  0.5020 -0.0272
 2341SOL    HW118659   3.153   4.550   4.664  0.0885  2.1610  1.1871
 2341SOL    HW218660   3.238   4.599   4.767  1.9192 -0.9761  1.4050
 2342SOL     OW18661   2.807   2.898   2.047  0.3712  0.0025 -0.1730
 2342SOL    HW118662   2.730   2.912   2.102  1.0196 -0.0189  0.7363
 2342SOL    HW218663   2.785   2.804   2.050  0.8056 -0.0584  0.9086
 2343SOL     OW18664   3.778   0.758   8.035 -0.1855 -0.1034 -0.1718
 2343SOL    HW118665   3.835   0.703   7.981 -1.5845 -1.4286 -0.3046
 2343SOL    HW218666   3.783   0.840   7.985  0.0412 -0.5545 -0.8977
 2344SOL     OW18667   0.678   3.553   0.811 -0.7057  0.4735  0.2804
 2344SOL    HW118668   0.770   3.569   0.793 -0.5787  0.5932  1.0620
 2344SOL    HW218669   0.666   3.601   0.893  1.0961  2.8401 -0.8328
 2345SOL     OW18670   1.147   2.101   5.663  0.4725 -0.6212 -0.0965
 2345SOL    HW118671   1.120   2.179   5.712 -1.5203 -0.9347 -0.7035
 2345SOL    HW218672   1.068   2.048   5.650  0.1068  0.0796 -0.7744
 2346SOL     OW18673   1.069   0.647  13.200 -0.0788 -0.2229  0.5185
 2346SOL    HW118674   1.124   0.702  13.256 -0.0045  0.5570 -0.3260
 2346SOL    HW218675   0.986   0.681  13.235 -1.0662 -1.4131 -0.6931
 2347SOL     OW18676   0.358   1.562   8.672 -0.6169  0.4485 -0.4507
 2347SOL    HW118677   0.389   1.542   8.584  0.5302 -2.8213  0.7090
 2347SOL    HW218678   0.428   1.525   8.726 -1.2623 -0.8969 -0.5456
 2348SOL     OW18679   4.186   2.446   3.073 -0.8148  0.0129  0.0187
 2348SOL    HW118680   4.106   2.459   3.124 -0.1999  0.9270  0.7428
 2348SOL    HW218681   4.177   2.353   3.053  0.1498 -0.3320  1.2059
 2349SOL     OW18682   3.221   4.252   6.072  0.2653 -0.1996  1.3414
 2349SOL    HW118683   3.155   4.258   6.004  1.1454 -0.3416  0.4756
 2349SOL    HW218684   3.293   4.222   6.018 -1.3031  2.9073 -2.5031
 2350SOL     OW18685   0.698   1.131   3.447 -0.3065 -0.9477 -0.0053
 2350SOL    HW118686   0.625   1.089   3.493 -0.6343  0.2948  0.6046
 2350SOL    HW218687   0.667   1.122   3.357 -0.0264  0.2204 -0.2181
 2351SOL     OW18688   4.066   4.440  16.756 -0.0503 -0.2205 -0.4804
 2351SOL    HW118689   3.995   4.392  16.712  1.4349 -1.5958 -1.3713
 2351SOL    HW218690   4.106   4.480  16.678  2.8253  1.5561  1.9199
 2352SOL     OW18691   2.868   3.686  12.463  0.4567  0.0184  0.6155
 2352SOL    HW118692   2.953   3.715  12.429  0.2881  0.0987  0.2533
 2352SOL    HW218693   2.835   3.636  12.387  1.0896  1.6862 -0.7565
 2353SOL     OW18694   4.113   1.916  13.900 -0.0331  0.0564  0.0306
 2353SOL    HW118695   4.178   1.852  13.871 -1.3435 -0.2523 -2.2635
 2353SOL    HW218696   4.139   1.995  13.852 -1.1692  0.6127  0.3243
 2354SOL     OW18697   3.174   4.273   7.438 -0.9226  0.1047 -0.4319
 2354SOL    HW118698   3.114   4.343   7.412 -2.2101 -0.0839  2.0872
 2354SOL    HW218699   3.124   4.250   7.516 -2.7012 -4.0853 -2.7998
 2355SOL     OW18700   2.295   2.101   2.749  0.1785 -0.4686  0.3552
 2355SOL    HW118701   2.387   2.125   2.762  0.6808 -2.2001 -0.1508
 2355SOL    HW218702   2.301   2.008   2.732 -1.3727 -0.9395  2.3068
 2356SOL     OW18703   1.366   3.200   5.295 -0.3704  0.0517 -0.0895
 2356SOL    HW118704   1.335   3.249   5.218  3.0441  0.1453 -1.3981
 2356SOL    HW218705   1.441   3.153   5.259 -0.0317  1.7243 -1.5552
 2357SOL     OW18706   3.741   2.979  14.018 -0.1179 -0.1874 -0.0389
 2357SOL    HW118707   3.673   2.944  14.074 -0.7942  0.5134 -0.4269
 2357SOL    HW218708   3.752   3.070  14.046 -2.3599  0.4531 -1.2705
 2358SOL     OW18709   1.756   1.601   2.303 -0.2030  0.5885 -0.4128
 2358SOL    HW118710   1.769   1.512   2.271 -1.0429  0.9583 -1.7628
 2358SOL    HW218711   1.780   1.592   2.396  0.1281  0.1796 -0.5388
 2359SOL     OW18712   0.541   2.361  15.453 -0.3628  0.4583  0.0839
 2359SOL    HW118713   0.598   2.428  15.415  1.1229 -2.0767 -2.1008
 2359SOL    HW218714   0.525   2.395  15.541 -0.5533  1.3939 -0.3053
 2360SOL     OW18715   1.276   2.301   5.231 -0.0676  0.1214 -0.4093
 2360SOL    HW118716   1.257   2.270   5.320 -1.8690  0.8709 -0.5378
 2360SOL    HW218717   1.360   2.347   5.243 -0.9365  1.1962  1.6560
 2361SOL     OW18718   3.042   3.015   2.603  0.0734  0.1531 -0.2492
 2361SOL    HW118719   3.027   3.056   2.518  1.0373 -0.2391 -0.6060
 2361SOL    HW218720   3.138   3.011   2.605 -0.0814 -2.9703  1.6071
 2362SOL     OW18721   0.891   0.916  16.492 -0.0712  0.0594 -0.1803
 2362SOL    HW118722   0.836   0.878  16.424  1.1106 -0.1024 -1.0394
 2362SOL    HW218723   0.831   0.974  16.538  1.0329  0.7874  0.3375
 2363SOL     OW18724   0.447   4.424   0.463  0.0458  0.1994 -0.0073
 2363SOL    HW118725   0.384   4.484   0.424  0.9491  2.6712  2.3132
 2363SOL    HW218726   0.446   4.350   0.402 -1.9629 -0.3758  0.7324
 2364SOL     OW18727   0.678   2.599   0.007 -0.0984  0.2109 -0.3875
 2364SOL    HW118728   0.604   2.653  17.731 -2.3907 -0.8267  3.6460
 2364SOL    HW218729   0.640   2.514   0.027 -0.4894  0.8033  1.3875
 2365SOL     OW18730   0.479   1.979   6.286 -0.0687  0.1610  0.0708
 2365SOL    HW118731   0.531   2.059   6.289  0.4278 -0.1495 -0.3175
 2365SOL    HW218732   0.520   1.932   6.213  0.9473  2.6673 -0.9913
 2366SOL     OW18733   3.541   0.100  10.173 -0.2598  0.5700 -0.2247
 2366SOL    HW118734   3.602   0.158  10.127 -1.4945  2.8727  1.0064
 2366SOL    HW218735   3.531   0.137  10.261 -0.1751  0.6656 -0.2549
 2367SOL     OW18736   0.193   3.581   3.806 -0.4494 -0.3633  0.3096
 2367SOL    HW118737   0.226   3.518   3.870  0.9576  0.4385  0.3650
 2367SOL    HW218738   0.158   3.525   3.736  1.9208 -1.4089 -0.0152
 2368SOL     OW18739   1.025   3.968   1.923 -0.0904  0.0513 -0.2640
 2368SOL    HW118740   1.064   4.044   1.880 -2.8906  1.0461 -1.0423
 2368SOL    HW218741   0.933   3.968   1.895 -0.3272  0.8765  0.5336
 2369SOL     OW18742   1.119   0.632  10.810 -0.3216  0.1258 -0.4091
 2369SOL    HW118743   1.196   0.577  10.824 -0.1957 -0.0054 -1.6026
 2369SOL    HW218744   1.129   0.681  10.892 -1.5827 -2.7319  1.4262
 2370SOL     OW18745   2.683   3.434   5.657 -0.6630  0.5340  0.2922
 2370SOL    HW118746   2.673   3.339   5.652 -2.5675  0.7153  0.5731
 2370SOL    HW218747   2.591   3.460   5.663 -0.8473  0.1541 -0.9242
 2371SOL     OW18748   4.362   4.254  16.518  0.4182 -0.1324 -0.2050
 2371SOL    HW118749   4.410   4.312  16.460 -0.5605 -0.0126 -0.8987
 2371SOL    HW218750   4.273   4.280  16.493  0.4990  0.1454 -0.1927
 2372SOL     OW18751   3.030   3.349   0.736  0.2253 -0.0233  0.5893
 2372SOL    HW118752   3.092   3.322   0.803  2.2010 -0.8964 -1.5782
 2372SOL    HW218753   2.993   3.267   0.704  2.0321 -0.3037 -0.7787
 2373SOL     OW18754   1.624   0.231  15.168  0.0812  0.0888  0.5100
 2373SOL    HW118755   1.541   0.183  15.166 -0.0125  0.2609  0.2149
 2373SOL    HW218756   1.622   0.289  15.244  1.6761 -1.3077  1.6270
 2374SOL     OW18757   4.371   2.395   6.785  0.2986 -0.0270  0.0012
 2374SOL    HW118758   4.385   2.302   6.806 -0.0489 -0.2765 -0.9114
 2374SOL    HW218759   4.429   2.404   6.710 -0.8749 -0.9652 -1.0088
 2375SOL     OW18760   4.306   1.169   1.711  0.5477 -0.0983 -0.3195
 2375SOL    HW118761   4.211   1.175   1.715  0.4449 -1.6007 -0.5665
 2375SOL    HW218762   4.326   1.076   1.719 -1.4067 -0.4376  0.4907
 2376SOL     OW18763   3.150   3.660   0.947  0.2945 -0.3235 -0.5107
 2376SOL    HW118764   3.185   3.674   1.034 -2.1817  1.3715  0.2254
 2376SOL    HW218765   3.228   3.627   0.903  0.3236 -1.7357  0.6337
 2377SOL     OW18766   1.117   0.416  13.066  0.0102 -0.0475 -0.5454
 2377SOL    HW118767   1.209   0.397  13.084 -0.5510 -3.1834 -0.9777
 2377SOL    HW218768   1.101   0.503  13.104  0.9408  0.0589 -0.4002
 2378SOL     OW18769   3.001   0.799   8.801  0.3801  1.0471  0.8885
 2378SOL    HW118770   2.973   0.759   8.718  0.3829  3.3038 -0.1946
 2378SOL    HW218771   3.093   0.817   8.781  0.8479 -1.6080  0.6094
 2379SOL     OW18772   0.675   0.555   8.469  0.3111 -0.2740  0.6860
 2379SOL    HW118773   0.695   0.641   8.434  0.7525 -1.1296 -1.1979
 2379SOL    HW218774   0.630   0.579   8.550 -1.1775 -1.8863  0.3490
 2380SOL     OW18775   1.747   3.351   6.972 -0.1391  0.5805  0.0525
 2380SOL    HW118776   1.661   3.381   6.999  0.8709  0.4205  3.4605
 2380SOL    HW218777   1.774   3.315   7.056 -1.0563  2.0135  0.9561
 2381SOL     OW18778   0.596   1.704   6.384 -0.2468 -0.3419  0.3530
 2381SOL    HW118779   0.502   1.689   6.396 -0.9997  1.4341 -3.0831
 2381SOL    HW218780   0.633   1.616   6.397 -0.5385 -0.6971 -1.1281
 2382SOL     OW18781   1.880   1.415   7.258  0.2034 -0.3758  0.4366
 2382SOL    HW118782   1.814   1.373   7.203  1.1303  0.1653 -1.0886
 2382SOL    HW218783   1.837   1.501   7.259 -3.0517 -1.9534 -1.1017
 2383SOL     OW18784   1.509   4.332  11.711  0.1458  0.3795  0.0472
 2383SOL    HW118785   1.490   4.385  11.788 -0.1943  0.3745 -0.0318
 2383SOL    HW218786   1.555   4.395  11.656  1.4531  1.2507  2.1133
 2384SOL     OW18787   1.934   2.980  13.028 -0.5604 -0.3637 -0.7022
 2384SOL    HW118788   1.878   2.939  13.094  0.0132  0.0780  0.0614
 2384SOL    HW218789   1.917   3.071  13.049  0.7238 -0.5582  1.2168
 2385SOL     OW18790   4.034   3.339   4.276 -0.4783  0.1348  0.0476
 2385SOL    HW118791   4.072   3.311   4.193 -1.4203 -0.3287 -0.2273
 2385SOL    HW218792   3.946   3.367   4.249 -0.1740 -0.0752 -1.1874
 2386SOL     OW18793   0.776   3.241   8.883  0.1832  0.1265  0.4710
 2386SOL    HW118794   0.724   3.220   8.806  1.6848 -0.4865 -0.3702
 2386SOL    HW218795   0.847   3.177   8.878  0.4810  0.5268 -0.5725
 2387SOL     OW18796   0.046   1.603   9.150 -0.4736 -0.4451  0.0362
 2387SOL    HW118797   0.114   1.660   9.115 -0.3643 -0.8239 -0.3737
 2387SOL    HW218798   4.707   1.654   9.131  0.2859  0.7188  0.0529
 2388SOL     OW18799   3.236   1.003  11.106  0.4081 -0.4029  0.3101
 2388SOL    HW118800   3.184   0.935  11.150  1.0812 -0.4747  0.9822
 2388SOL    HW218801   3.306   1.024  11.168  1.3295 -2.8631  0.1040
 2389SOL     OW18802   1.952   1.071   5.884  0.0767  0.5348  0.0911
 2389SOL    HW118803   2.001   1.069   5.966 -1.9460 -0.7900  1.3027
 2389SOL    HW218804   2.008   1.123   5.827 -0.1695  1.0051  0.2820
 2390SOL     OW18805   4.177   4.664   5.379 -0.2604  0.1078 -0.0399
 2390SOL    HW118806   4.236   4.738   5.387 -0.4136  0.3874 -1.4813
 2390SOL    HW218807   4.234   4.612   5.322  1.1865  2.5635 -0.8485
 2391SOL     OW18808   2.849   1.636   7.908  0.1983  0.3609  0.1015
 2391SOL    HW118809   2.882   1.549   7.885  0.8806  0.0356  2.2554
 2391SOL    HW218810   2.756   1.625   7.886 -0.0157  2.5229 -0.0973
 2392SOL     OW18811   3.158   3.376   7.407  0.2289  0.2527 -1.1200
 2392SOL    HW118812   3.099   3.331   7.346 -0.8432 -1.0618  0.8751
 2392SOL    HW218813   3.120   3.339   7.487  0.6341 -0.7234 -1.3705
 2393SOL     OW18814   0.753   2.579  13.642  0.0566  0.3363  0.3015
 2393SOL    HW118815   0.754   2.499  13.694  1.7800 -0.2873 -0.6665
 2393SOL    HW218816   0.677   2.623  13.680  1.3482  1.1103  2.0034
 2394SOL     OW18817   3.850   4.579  12.564  0.2192 -0.8465 -0.0107
 2394SOL    HW118818   3.766   4.593  12.522 -0.4080  0.7924  1.8094
 2394SOL    HW218819   3.838   4.490  12.597 -1.3798 -1.2587 -1.7207
 2395SOL     OW18820   4.277   4.408   3.200  0.0445  0.3156 -0.0189
 2395SOL    HW118821   4.182   4.422   3.207 -0.0217  0.8131 -1.8535
 2395SOL    HW218822   4.292   4.502   3.191 -0.2624  0.3628 -0.0348
 2396SOL     OW18823   2.256   0.586   3.389 -0.5377 -0.0027 -0.0667
 2396SOL    HW118824   2.167   0.619   3.401 -1.0810 -1.1469 -0.8584
 2396SOL    HW218825   2.277   0.643   3.315 -1.1136  0.0698 -0.1743
 2397SOL     OW18826   1.107   0.127  13.231 -0.6625  0.0168  0.5784
 2397SOL    HW118827   1.126   0.214  13.195 -0.3905 -0.6131 -0.7919
 2397SOL    HW218828   1.113   0.079  13.149  1.7421  2.3593 -0.6137
 2398SOL     OW18829   2.742   3.304   8.250 -0.0077  0.5764 -0.0467
 2398SOL    HW118830   2.695   3.337   8.326 -1.2643 -1.0655 -0.1061
 2398SOL    HW218831   2.821   3.277   8.297  0.3022  2.5593  0.5828
 2399SOL     OW18832   2.348   0.042   8.488  0.6415 -0.3721 -0.2113
 2399SOL    HW118833   2.279   0.089   8.442 -0.4903 -2.3826 -0.5396
 2399SOL    HW218834   2.347   0.088   8.572  1.7498  0.2638 -0.5359
 2400SOL     OW18835   3.050   0.931   5.490 -0.5254  0.6481 -0.1754
 2400SOL    HW118836   2.970   0.961   5.446 -1.1360 -0.0087  0.4795
 2400SOL    HW218837   3.042   0.836   5.475  0.0937  0.4464  0.8012
 2401SOL     OW18838   2.249   3.339   4.989 -0.3107 -0.0485 -0.1151
 2401SOL    HW118839   2.275   3.369   4.902 -1.2928  0.0220 -0.3832
 2401SOL    HW218840   2.244   3.425   5.030 -1.2516 -1.6390  3.0784
 2402SOL     OW18841   3.246   3.033   3.661 -0.4088  0.2645 -0.0050
 2402SOL    HW118842   3.252   3.060   3.753 -0.7275 -1.9438  0.6696
 2402SOL    HW218843   3.241   2.937   3.665  2.2463  0.0746 -1.4277
 2403SOL     OW18844   2.042   4.274   4.690  0.0505 -0.0546 -0.0546
 2403SOL    HW118845   1.968   4.237   4.641 -1.2568  1.6635  0.6272
 2403SOL    HW218846   2.001   4.302   4.772 -0.5186  2.0456 -1.0704
 2404SOL     OW18847   2.974   4.003   1.408 -0.0008  0.4916  0.0347
 2404SOL    HW118848   3.039   4.069   1.431  0.3236 -0.3169  1.4691
 2404SOL    HW218849   2.945   4.031   1.321  2.4262  0.0194 -0.9112
 2405SOL     OW18850   0.978   4.409  14.583  0.8949 -0.2519  0.4853
 2405SOL    HW118851   0.943   4.342  14.642  0.2945  0.6372  1.1480
 2405SOL    HW218852   0.939   4.485  14.625 -0.6020  0.0375 -1.4129
 2406SOL     OW18853   3.316   1.230  10.457  0.4624 -0.5413  0.3351
 2406SOL    HW118854   3.278   1.169  10.520 -1.2942  0.1844 -0.0486
 2406SOL    HW218855   3.264   1.309  10.469  0.0731 -0.5081 -1.5627
 2407SOL     OW18856   0.132   2.283   0.897  0.0385  0.4415  0.3837
 2407SOL    HW118857   0.192   2.353   0.921  2.2750 -0.9381 -1.2518
 2407SOL    HW218858   0.081   2.266   0.976  1.5270 -0.7674  1.0847
 2408SOL     OW18859   1.620   3.710   0.748  0.0583  0.5812 -0.0872
 2408SOL    HW118860   1.625   3.749   0.660  1.0286 -0.5639 -0.5407
 2408SOL    HW218861   1.618   3.620   0.718  1.3399  0.0605  1.4029
 2409SOL     OW18862   4.672   2.809   1.804  0.4639 -1.0713 -0.2394
 2409SOL    HW118863   4.627   2.887   1.838  1.3295 -0.5023 -0.4052
 2409SOL    HW218864   0.022   2.818   1.839  0.5593  0.7911 -0.9765
 2410SOL     OW18865   0.652   1.339   6.794  0.3194 -0.1264  0.4692
 2410SOL    HW118866   0.686   1.334   6.705 -0.8169 -0.7574  0.0668
 2410SOL    HW218867   0.733   1.355   6.843  0.1084 -0.8476  1.0551
 2411SOL     OW18868   2.833   1.649  13.942  0.1866  0.1100  0.8225
 2411SOL    HW118869   2.866   1.602  13.865  0.1314  1.8474 -0.2645
 2411SOL    HW218870   2.740   1.628  13.943 -0.0839  1.3343  1.0615
 2412SOL     OW18871   0.429   2.266   5.606 -0.0620  0.2333 -0.0122
 2412SOL    HW118872   0.345   2.265   5.652 -0.2244  2.1187 -0.2955
 2412SOL    HW218873   0.402   2.314   5.528  2.0025 -1.8554 -2.0173
 2413SOL     OW18874   1.489   4.556  17.019 -0.3690  0.1954 -0.1501
 2413SOL    HW118875   1.532   4.617  17.079 -1.0320  1.7339 -1.2483
 2413SOL    HW218876   1.476   4.615  16.945  0.7685  0.0811 -0.4395
 2414SOL     OW18877   4.004   0.801  11.409  0.2923  0.5535 -0.6267
 2414SOL    HW118878   3.958   0.849  11.340  2.1053  0.8372 -1.6199
 2414SOL    HW218879   4.013   0.710  11.381 -0.6125  0.3256 -0.1874
 2415SOL     OW18880   0.042   1.110   4.637  0.2145 -0.0550 -0.1258
 2415SOL    HW118881   0.096   1.054   4.581  1.1613 -1.4758  2.2368
 2415SOL    HW218882   0.049   1.071   4.724 -1.2819  1.1287  0.5285
 2416SOL     OW18883   2.489   3.613  12.323  0.7312 -0.6853  0.0584
 2416SOL    HW118884   2.435   3.692  12.331  0.4063 -0.7088 -1.9798
 2416SOL    HW218885   2.418   3.549  12.311 -0.1834  0.5200 -1.0087
 2417SOL     OW18886   4.014   3.606   9.050  0.6111  0.1546  0.0403
 2417SOL    HW118887   4.035   3.513   9.058  0.2454 -0.2277 -3.5983
 2417SOL    HW218888   4.068   3.647   8.983  0.6545 -0.4903 -0.3181
 2418SOL     OW18889   1.938   2.982   6.454  0.3779  0.1150  0.3011
 2418SOL    HW118890   1.949   3.047   6.385  0.8122  1.3625  1.5464
 2418SOL    HW218891   1.932   3.032   6.536 -0.9324 -1.1285  0.9831
 2419SOL     OW18892   1.031   3.061  16.307  0.5018  0.1294 -0.9517
 2419SOL    HW118893   0.936   3.062  16.302  0.4358 -0.5966  0.1100
 2419SOL    HW218894   1.051   3.015  16.225  1.2607  0.0896 -0.7496
 2420SOL     OW18895   1.832   2.758   5.411  0.0896 -0.3750  0.2625
 2420SOL    HW118896   1.800   2.760   5.501  0.9586 -2.6425  0.6221
 2420SOL    HW218897   1.850   2.665   5.402 -0.6154 -0.4079 -0.8164
 2421SOL     OW18898   0.274   1.049   4.476  0.0012 -0.2097  0.3424
 2421SOL    HW118899   0.250   1.138   4.501  1.5283  1.4428 -4.1528
 2421SOL    HW218900   0.321   1.068   4.395 -0.6488  2.5322  0.6180
 2422SOL     OW18901   3.713   4.414   8.712  0.3912  0.3114 -0.4571
 2422SOL    HW118902   3.707   4.453   8.799  1.7586  0.1506 -0.2917
 2422SOL    HW218903   3.629   4.371   8.698  1.1940 -1.8812  1.4425
 2423SOL     OW18904   4.669   0.001   3.143  0.1012  0.0510  0.0108
 2423SOL    HW118905   0.007   0.058   3.144 -0.8381  1.3122  0.6310
 2423SOL    HW218906   4.607   0.056   3.191 -0.9071 -1.8199  0.8778
 2424SOL     OW18907   2.731   0.476   7.783 -0.3890 -0.2145  0.5645
 2424SOL    HW118908   2.646   0.519   7.776  0.8799  2.1797 -0.0545
 2424SOL    HW218909   2.741   0.439   7.695 -0.4383 -0.8193  0.8076
 2425SOL     OW18910   3.995   3.310   4.540  0.0116  0.7287  0.1396
 2425SOL    HW118911   4.052   3.234   4.551  1.1583  1.6129  0.2676
 2425SOL    HW218912   4.006   3.319   4.445  0.3168  2.5104  0.3445
 2426SOL     OW18913   2.482   2.174   4.748  0.0341  0.2843 -0.5409
 2426SOL    HW118914   2.489   2.213   4.660  0.0286 -1.2618 -1.2327
 2426SOL    HW218915   2.472   2.249   4.805 -0.7312 -0.8155  0.7561
 2427SOL     OW18916   2.357   0.882   8.933  0.2054 -0.2142  0.7533
 2427SOL    HW118917   2.291   0.861   9.000  0.6236 -1.5100  0.7575
 2427SOL    HW218918   2.358   0.978   8.931  1.9266 -0.2741 -0.8293
 2428SOL     OW18919   0.810   2.424  13.407  0.0767  0.1136  0.3578
 2428SOL    HW118920   0.741   2.362  13.433 -0.3048  0.9255  1.3130
 2428SOL    HW218921   0.823   2.489  13.477 -2.5147  0.4916  0.4787
 2429SOL     OW18922   1.024   3.348  14.934  0.8555  0.3998  0.0705
 2429SOL    HW118923   1.012   3.433  14.976  0.8537 -0.3153  1.5200
 2429SOL    HW218924   0.965   3.359  14.859  0.3331  1.2879  0.6092
 2430SOL     OW18925   3.526   0.033  12.638 -0.5798  0.1278  0.1806
 2430SOL    HW118926   3.558   0.038  12.548 -2.9200 -3.0328 -0.8296
 2430SOL    HW218927   3.598   0.064  12.693  0.4691  0.8998 -1.6322
 2431SOL     OW18928   4.078   3.166   4.972  0.2467  0.5552  0.0801
 2431SOL    HW118929   4.005   3.206   4.925  0.0258 -0.1498 -0.1756
 2431SOL    HW218930   4.068   3.194   5.063 -1.2878  2.1649 -0.5913
 2432SOL     OW18931   2.986   3.600   0.670  0.3105  0.0225  0.0336
 2432SOL    HW118932   3.043   3.524   0.680  0.7662  0.2153 -1.1690
 2432SOL    HW218933   2.906   3.564   0.708  1.3079  1.4034  3.5278
 2433SOL     OW18934   0.030   0.662   1.119 -0.6307 -0.4290 -0.2193
 2433SOL    HW118935   0.002   0.572   1.100 -3.1579  0.2075  0.4541
 2433SOL    HW218936   0.005   0.709   1.039 -1.3433  0.4255  0.5096
 2434SOL     OW18937   2.554   3.404  17.735 -0.0123  0.6617 -0.3296
 2434SOL    HW118938   2.613   3.364  17.671  0.0899  1.8388 -0.9853
 2434SOL    HW218939   2.564   3.353   0.062  0.4529  0.1202 -0.7376
 2435SOL     OW18940   3.449   3.220   9.744 -0.0022 -0.4484 -0.5845
 2435SOL    HW118941   3.540   3.213   9.775  0.3789  5.0833 -0.5279
 2435SOL    HW218942   3.438   3.313   9.760  0.6364 -0.7145  1.3405
 2436SOL     OW18943   3.265   2.772   5.810  0.5427 -0.2064 -0.4341
 2436SOL    HW118944   3.267   2.868   5.805  2.2356 -0.2936 -1.3439
 2436SOL    HW218945   3.280   2.756   5.903 -2.6347  1.1638  0.3146
 2437SOL     OW18946   2.753   2.005   6.786  0.0546 -0.2592 -0.4153
 2437SOL    HW118947   2.741   1.975   6.695 -1.6187 -0.3018 -0.1756
 2437SOL    HW218948   2.831   1.954   6.807 -1.2541 -2.5861 -1.1853
 2438SOL     OW18949   0.162   0.515   9.033 -0.2443  0.2120  0.4236
 2438SOL    HW118950   0.221   0.457   9.080 -0.3895 -0.6836 -0.5130
 2438SOL    HW218951   0.143   0.464   8.954 -0.8210 -0.3938  0.9520
 2439SOL     OW18952   1.156   4.238   5.920  0.0314  0.3028  0.1994
 2439SOL    HW118953   1.165   4.331   5.942  0.8219 -0.3624  2.6550
 2439SOL    HW218954   1.237   4.207   5.880 -1.1489 -2.1530 -0.2999
 2440SOL     OW18955   0.653   0.250   4.807 -0.6921 -0.3437 -0.3401
 2440SOL    HW118956   0.648   0.287   4.895  0.1307  0.5409 -0.6758
 2440SOL    HW218957   0.677   0.332   4.764 -0.4411 -1.0764 -1.5879
 2441SOL     OW18958   2.524   2.765   3.141  0.1926 -0.1285  0.0349
 2441SOL    HW118959   2.451   2.711   3.109  2.1645 -3.0356  0.4217
 2441SOL    HW218960   2.577   2.689   3.162  0.9067  0.1758 -0.6725
 2442SOL     OW18961   0.946   3.463   8.110 -0.2307 -0.1236  0.3999
 2442SOL    HW118962   0.983   3.513   8.182  1.6945 -2.0561  0.7627
 2442SOL    HW218963   1.015   3.474   8.044 -1.4518 -0.4807 -0.9448
 2443SOL     OW18964   3.524   0.131   7.766 -0.3958 -0.4282  0.2829
 2443SOL    HW118965   3.583   0.092   7.702  1.2212 -0.8381  2.0143
 2443SOL    HW218966   3.506   0.215   7.724  0.5123 -1.2973 -1.8420
 2444SOL     OW18967   1.198   3.770  15.505  0.4593 -0.4621 -0.0363
 2444SOL    HW118968   1.228   3.680  15.496  0.5971 -0.6107  1.8313
 2444SOL    HW218969   1.284   3.804  15.528 -0.3994  2.2463 -0.8457
 2445SOL     OW18970   2.425   4.481  13.638 -0.2328 -0.0041  0.3370
 2445SOL    HW118971   2.396   4.501  13.728 -0.4022  1.3362 -0.0189
 2445SOL    HW218972   2.514   4.515  13.646 -0.2602 -0.0371  0.8062
 2446SOL     OW18973   3.385   3.366   5.526  0.1172 -0.0807  0.2348
 2446SOL    HW118974   3.472   3.367   5.486 -1.0387  1.7869 -2.1870
 2446SOL    HW218975   3.366   3.272   5.524 -2.6781  0.4873  0.6642
 2447SOL     OW18976   3.640   3.273  12.276 -0.4810  0.3488 -0.4530
 2447SOL    HW118977   3.654   3.190  12.231  0.5814  0.0106  0.4728
 2447SOL    HW218978   3.560   3.257  12.326  0.7065 -2.0958  0.6826
 2448SOL     OW18979   0.511   4.659   6.716 -0.3913 -0.2237  0.2478
 2448SOL    HW118980   0.452   4.584   6.708  0.5426 -1.0271  0.8138
 2448SOL    HW218981   0.523   4.654   6.811 -0.8160  3.6603  0.4992
 2449SOL     OW18982   1.005   3.971   3.530  0.3732  0.5207  0.1204
 2449SOL    HW118983   1.027   3.994   3.620 -0.7571 -0.2696  0.5999
 2449SOL    HW218984   1.014   4.059   3.494  0.4024  0.2533 -0.5347
 2450SOL     OW18985   1.705   2.853  15.044  0.1348 -0.1275  0.1980
 2450SOL    HW118986   1.775   2.788  15.039  1.0572  1.0333 -2.0531
 2450SOL    HW218987   1.727   2.916  14.975 -1.3972  0.7694  0.5054
 2451SOL     OW18988   3.256   2.221   7.783 -0.1426 -0.6129  0.2109
 2451SOL    HW118989   3.263   2.309   7.822 -0.9325 -0.2921 -0.3781
 2451SOL    HW218990   3.228   2.169   7.858 -0.8576 -1.0529 -0.3589
 2452SOL     OW18991   1.758   1.265   9.225  0.0240  0.4033 -0.0292
 2452SOL    HW118992   1.800   1.252   9.140 -0.7746 -2.2065 -0.0432
 2452SOL    HW218993   1.820   1.226   9.286 -1.2783  0.0597  1.0735
 2453SOL     OW18994   3.479   0.227  14.840  0.5867  0.1613  0.0144
 2453SOL    HW118995   3.401   0.276  14.819  0.0949 -0.4107  0.4993
 2453SOL    HW218996   3.445   0.143  14.871 -3.1569  1.0500 -1.7399
 2454SOL     OW18997   0.128   4.619   7.636  0.8637  0.2520  0.4956
 2454SOL    HW118998   0.167   4.536   7.609  1.0657  0.8920 -1.1912
 2454SOL    HW218999   0.052   4.622   7.579 -0.5218 -0.5393  2.2969
 2455SOL     OW19000   0.116   4.399   3.674  0.0585 -0.4762  1.0698
 2455SOL    HW119001   0.074   4.314   3.658  1.6713 -1.0545 -0.1230
 2455SOL    HW219002   0.031   4.443   3.677  0.4301  0.2388  1.0247
 2456SOL     OW19003   0.633   4.697   7.785 -0.3900  0.8292 -0.1856
 2456SOL    HW119004   0.727   4.692   7.769 -0.2598  1.4082  0.4339
 2456SOL    HW219005   0.625   0.027   7.851  2.2969 -0.4257  1.4344
 2457SOL     OW19006   1.765   0.723  16.799  0.4404 -0.4222 -0.0647
 2457SOL    HW119007   1.702   0.796  16.798  1.6187  0.5868 -0.7449
 2457SOL    HW219008   1.724   0.662  16.738  2.2623 -1.3976 -0.3169
 2458SOL     OW19009   0.155   2.715   8.054 -0.0044  0.3798 -0.4755
 2458SOL    HW119010   0.204   2.642   8.092 -0.4947 -0.3033 -1.1508
 2458SOL    HW219011   0.067   2.676   8.050  0.9675 -1.9316  1.1755
 2459SOL     OW19012   4.222   3.525   2.390  0.2756 -0.2319  0.1665
 2459SOL    HW119013   4.162   3.553   2.320  3.4181 -0.8560 -2.8079
 2459SOL    HW219014   4.274   3.603   2.404  0.3010 -0.2686  0.2732
 2460SOL     OW19015   2.390   1.436   3.519  0.1934  0.1783  0.2178
 2460SOL    HW119016   2.356   1.504   3.578  0.6016 -1.8880  2.8615
 2460SOL    HW219017   2.485   1.439   3.530  0.2141 -2.3645  0.5846
 2461SOL     OW19018   3.144   4.196   2.237 -0.1327  0.1218 -0.3535
 2461SOL    HW119019   3.148   4.121   2.177  0.7073  0.6754 -1.0059
 2461SOL    HW219020   3.153   4.264   2.170 -2.0416  1.5094  0.7894
 2462SOL     OW19021   3.468   3.675   7.490  0.3611 -0.2479 -0.0185
 2462SOL    HW119022   3.414   3.675   7.411 -0.5965  1.2670  0.6123
 2462SOL    HW219023   3.530   3.744   7.464  0.8979 -1.2603 -1.3620
 2463SOL     OW19024   4.009   2.081   2.529 -0.2602 -0.6274 -0.3202
 2463SOL    HW119025   4.085   2.101   2.583  0.1874  1.5450 -1.7900
 2463SOL    HW219026   3.951   2.024   2.580  2.3558 -2.6451  0.3887
 2464SOL     OW19027   2.129   3.667  17.022 -0.2611 -1.0118  0.0758
 2464SOL    HW119028   2.058   3.722  16.989 -0.1735 -0.3227  1.0311
 2464SOL    HW219029   2.095   3.589  17.065  0.6963 -1.4097  0.1198
 2465SOL     OW19030   2.962   1.078   7.273 -0.0862 -0.3533  0.3740
 2465SOL    HW119031   3.019   1.145   7.310  0.0183 -0.0255 -0.3906
 2465SOL    HW219032   2.878   1.116   7.298 -0.7649  0.1693 -2.6449
 2466SOL     OW19033   2.423   4.608   4.003  0.3586  0.7197  0.2387
 2466SOL    HW119034   2.443   4.537   3.942 -0.6234 -0.6095  1.4527
 2466SOL    HW219035   2.508   4.626   4.043  1.5526 -0.8542 -1.5971
 2467SOL     OW19036   0.219   2.894   3.194  0.6041  0.1731 -0.3430
 2467SOL    HW119037   0.152   2.943   3.147  0.0158  0.1354  0.4631
 2467SOL    HW219038   0.200   2.918   3.285  1.2768 -2.2024  0.4397
 2468SOL     OW19039   0.184   3.279   7.549 -0.0765  0.7448 -0.4703
 2468SOL    HW119040   0.246   3.209   7.567 -0.8598  0.6830  2.0172
 2468SOL    HW219041   0.247   3.348   7.529  1.2140 -0.0538  0.8602
 2469SOL     OW19042   2.006   1.635  12.909  0.4294  0.2149  0.1366
 2469SOL    HW119043   1.960   1.693  12.970  0.1140 -0.6423  0.7144
 2469SOL    HW219044   1.949   1.641  12.832  2.0665  1.8281 -0.9535
 2470SOL     OW19045   0.595   2.866   3.661  0.3159  0.3255  0.2909
 2470SOL    HW119046   0.577   2.904   3.575 -0.3465  0.0026  0.2880
 2470SOL    HW219047   0.596   2.772   3.642 -0.3143  0.6660 -1.5099
 2471SOL     OW19048   1.557   3.335  10.165 -0.1873  0.2049  0.1293
 2471SOL    HW119049   1.494   3.294  10.106  0.8014  0.2725 -0.9672
 2471SOL    HW219050   1.513   3.413  10.199  1.8781  2.1624 -1.6845
 2472SOL     OW19051   4.702   2.233  10.792 -0.1715  0.2336  0.1703
 2472SOL    HW119052   0.014   2.162  10.830 -1.7210 -1.7038 -1.3760
 2472SOL    HW219053   4.667   2.284  10.865 -3.2396 -1.0050 -0.4211
 2473SOL     OW19054   2.444   2.390   1.655  0.0064 -0.2771  0.0520
 2473SOL    HW119055   2.485   2.330   1.717  0.8795 -0.1099 -0.3665
 2473SOL    HW219056   2.432   2.333   1.578  0.2843 -0.8347  0.4207
 2474SOL     OW19057   3.588   0.924   6.201 -0.3053 -0.9038  0.0097
 2474SOL    HW119058   3.613   0.959   6.115 -1.2691 -0.4398 -0.0837
 2474SOL    HW219059   3.671   0.902   6.244 -0.1190 -0.3555 -0.0713
 2475SOL     OW19060   2.048   0.126   2.323 -0.3729 -0.0598  0.4308
 2475SOL    HW119061   1.959   0.160   2.319 -0.2102  0.8600  3.9308
 2475SOL    HW219062   2.098   0.197   2.283  0.3328 -0.6414  0.2729
 2476SOL     OW19063   2.608   2.590   8.331  0.1361 -0.4997  0.0043
 2476SOL    HW119064   2.530   2.641   8.352  1.3531  0.7343  1.5103
 2476SOL    HW219065   2.670   2.623   8.396  2.3897 -0.2501 -2.2466
 2477SOL     OW19066   2.074   2.978  11.607 -0.0559 -0.5302  0.5005
 2477SOL    HW119067   2.024   2.899  11.629 -0.0167 -0.7654 -0.2551
 2477SOL    HW219068   2.163   2.945  11.617  0.4777  0.4496 -1.0745
 2478SOL     OW19069   4.277   2.759   9.842 -0.0092  0.1059  0.6034
 2478SOL    HW119070   4.353   2.804   9.804  2.0491 -1.6477  2.6099
 2478SOL    HW219071   4.215   2.762   9.769  1.1371  1.7866 -0.2997
 2479SOL     OW19072   0.612   0.742  14.459 -0.0178  1.1317  0.2077
 2479SOL    HW119073   0.627   0.799  14.534 -1.1607 -1.3670  2.3312
 2479SOL    HW219074   0.573   0.814  14.409 -0.3554  0.0965 -1.0101
 2480SOL     OW19075   2.929   1.499  16.372 -0.2401  0.4151 -0.2821
 2480SOL    HW119076   2.834   1.486  16.367  0.0218 -1.6643  0.1591
 2480SOL    HW219077   2.933   1.558  16.448  0.0954 -1.1410  0.9058
 2481SOL     OW19078   2.321   2.568   8.452  0.0879  0.1313 -0.1147
 2481SOL    HW119079   2.344   2.633   8.385  2.1357 -0.9271 -0.4287
 2481SOL    HW219080   2.276   2.622   8.517  2.0573  0.4066  1.0083
 2482SOL     OW19081   3.483   2.809   7.309  0.0162 -0.0768  0.2773
 2482SOL    HW119082   3.482   2.883   7.249  0.7504  0.6160  1.1103
 2482SOL    HW219083   3.577   2.798   7.326 -0.4777 -0.5556  2.7806
 2483SOL     OW19084   1.015   4.355   1.325  0.3997 -0.0620 -0.4889
 2483SOL    HW119085   1.028   4.260   1.314 -0.8030 -0.1917 -0.8217
 2483SOL    HW219086   0.976   4.366   1.412 -0.0832 -0.1887 -0.6846
 2484SOL     OW19087   1.707   0.441  11.525  0.9106  0.0703 -0.3055
 2484SOL    HW119088   1.744   0.449  11.437 -1.8436 -0.3986 -1.4895
 2484SOL    HW219089   1.624   0.487  11.521  2.6231  3.0643 -1.5209
 2485SOL     OW19090   1.952   1.900  11.935 -0.5802  0.6342 -0.1719
 2485SOL    HW119091   2.028   1.842  11.945 -0.4222  0.2714 -3.7096
 2485SOL    HW219092   1.995   1.974  11.892 -0.1511  0.6706  0.3198
 2486SOL     OW19093   1.481   3.467   3.577  0.0184  0.0521 -0.3955
 2486SOL    HW119094   1.424   3.544   3.578  1.8108  1.3693  0.9562
 2486SOL    HW219095   1.435   3.416   3.511  1.1758 -0.2659 -0.9524
 2487SOL     OW19096   2.054   0.411  12.109 -0.1375  0.6279  0.1702
 2487SOL    HW119097   2.069   0.379  12.020 -0.7428 -0.4748  0.4709
 2487SOL    HW219098   2.107   0.350  12.161 -0.2342  0.5615  0.1921
 2488SOL     OW19099   0.133   1.534  13.763 -0.0903  0.0303  0.5069
 2488SOL    HW119100   0.118   1.444  13.734  0.6315 -0.2930  1.1497
 2488SOL    HW219101   0.157   1.563  13.675 -1.7053  1.1335  0.4423
 2489SOL     OW19102   3.849   0.696   4.774 -0.2771 -0.0640  0.2983
 2489SOL    HW119103   3.782   0.649   4.725 -1.2028  1.5199  0.0600
 2489SOL    HW219104   3.803   0.729   4.852 -1.4652 -3.0642  0.8776
 2490SOL     OW19105   2.752   0.357   2.107 -0.5040 -0.3254 -0.2347
 2490SOL    HW119106   2.681   0.421   2.104  0.0702  0.2857 -0.7138
 2490SOL    HW219107   2.788   0.374   2.020 -1.7056 -0.0452 -0.6787
 2491SOL     OW19108   3.467   4.038   3.618 -0.3570 -0.3157 -0.6587
 2491SOL    HW119109   3.425   4.122   3.600  0.4543  0.5358  1.4796
 2491SOL    HW219110   3.428   4.014   3.702 -0.7262 -1.7357 -1.2295
 2492SOL     OW19111   1.983   4.703  14.662 -0.0310 -0.4721  0.0847
 2492SOL    HW119112   1.941   0.051  14.670  0.3163 -0.5893  3.3369
 2492SOL    HW219113   1.919   4.641  14.626 -1.8675 -0.0140  2.5480
 2493SOL     OW19114   1.917   3.538   5.171 -0.4929 -0.2861 -0.1534
 2493SOL    HW119115   1.962   3.517   5.253  3.1798  0.6558 -1.9173
 2493SOL    HW219116   1.963   3.483   5.108  1.0722 -0.1815  0.8780
 2494SOL     OW19117   1.704   4.146   7.967 -0.0334 -0.0774 -0.3622
 2494SOL    HW119118   1.638   4.168   7.901  0.4819 -1.4984 -1.3529
 2494SOL    HW219119   1.692   4.222   8.024 -0.5794 -1.5168  1.4477
 2495SOL     OW19120   1.142   4.451   0.345  0.2076  0.6372 -0.0513
 2495SOL    HW119121   1.055   4.413   0.327 -0.6948  2.4450  0.5360
 2495SOL    HW219122   1.201   4.377   0.356  1.7600  1.9988  0.6857
 2496SOL     OW19123   4.295   4.278   6.052 -0.1589  0.4946 -0.0567
 2496SOL    HW119124   4.247   4.207   6.009 -1.1815  1.3222 -0.2932
 2496SOL    HW219125   4.375   4.236   6.083 -0.4342 -2.1863 -2.9544
 2497SOL     OW19126   1.553   0.699   6.530  0.1303 -0.5302 -0.8271
 2497SOL    HW119127   1.567   0.765   6.598 -2.0462 -0.7020 -0.2239
 2497SOL    HW219128   1.466   0.667   6.553  0.3229  0.6485  1.5162
 2498SOL     OW19129   3.135   3.493   1.623 -0.1100  0.0406  0.0196
 2498SOL    HW119130   3.160   3.519   1.712 -1.7220  0.7503  0.2732
 2498SOL    HW219131   3.141   3.582   1.589 -1.1525  0.2641  0.4233
 2499SOL     OW19132   0.117   3.376   2.924  0.6404  0.6266 -0.4313
 2499SOL    HW119133   0.115   3.463   2.963 -1.6790 -1.0399  3.1746
 2499SOL    HW219134   0.110   3.323   3.004  1.8698 -1.2673 -1.5660
 2500SOL     OW19135   0.054   3.084   8.529  0.1152  0.4466 -1.2092
 2500SOL    HW119136   0.141   3.110   8.500 -0.1413  2.1235 -0.4481
 2500SOL    HW219137   4.731   3.136   8.476  1.5802  2.1774 -1.2121
 2501SOL     OW19138   1.918   4.123   3.419 -0.3407  0.0792 -0.0210
 2501SOL    HW119139   1.996   4.069   3.408  0.5674  0.7117  3.2272
 2501SOL    HW219140   1.858   4.055   3.388 -1.3209  1.1489 -0.4751
 2502SOL     OW19141   3.218   3.195   6.994 -0.3288  0.3187 -0.7107
 2502SOL    HW119142   3.173   3.124   7.040  0.7513  1.6208  2.3941
 2502SOL    HW219143   3.267   3.233   7.067  0.1132 -1.2433 -0.1826
 2503SOL     OW19144   0.086   3.897   1.947 -0.4347 -0.0575  0.3108
 2503SOL    HW119145   0.164   3.892   2.002 -2.2087  2.3920  3.0437
 2503SOL    HW219146   0.033   3.846   2.008 -0.9687 -0.0183 -0.1201
 2504SOL     OW19147   1.816   0.591   9.246 -0.2187  0.4751 -0.0113
 2504SOL    HW119148   1.778   0.542   9.319 -1.2689  0.0319 -0.8562
 2504SOL    HW219149   1.795   0.670   9.296 -0.7732  0.5554 -0.3771
 2505SOL     OW19150   2.332   3.013   9.445 -0.0699 -0.1603  0.2049
 2505SOL    HW119151   2.370   3.098   9.423 -1.6557  0.5804  0.3161
 2505SOL    HW219152   2.339   2.968   9.361  0.6994  0.5122 -0.0950
 2506SOL     OW19153   2.223   4.131   2.850 -0.1615 -0.6395 -0.2877
 2506SOL    HW119154   2.143   4.084   2.871  1.5716 -1.5303  4.2906
 2506SOL    HW219155   2.290   4.067   2.825  1.9124  1.8867 -1.1740
 2507SOL     OW19156   4.032   1.863   6.350 -0.1205  0.2736 -0.2967
 2507SOL    HW119157   4.118   1.834   6.380  0.1166  0.0092 -1.2332
 2507SOL    HW219158   3.976   1.803   6.400  0.1321 -0.0864 -0.4426
 2508SOL     OW19159   0.877   2.485   7.725  0.1171 -0.3416  0.9502
 2508SOL    HW119160   0.830   2.448   7.650  3.2834 -0.0319 -1.1763
 2508SOL    HW219161   0.819   2.462   7.798 -1.4969  1.7739  0.3242
 2509SOL     OW19162   3.552   4.642   3.523 -0.5195 -0.6630  0.2660
 2509SOL    HW119163   3.613   4.705   3.485  0.3555 -1.1045  0.9389
 2509SOL    HW219164   3.572   4.645   3.616 -0.5917 -1.4327  0.3124
 2510SOL     OW19165   0.053   3.825   7.034  0.0104 -0.1281 -0.1223
 2510SOL    HW119166   4.703   3.835   7.067 -0.7606 -0.8809 -1.9485
 2510SOL    HW219167   0.047   3.813   6.939 -0.6042 -1.1062  0.0463
 2511SOL     OW19168   1.183   3.146  16.503  0.2956 -0.3223  0.1328
 2511SOL    HW119169   1.190   3.064  16.552 -2.8714 -0.1012  0.9505
 2511SOL    HW219170   1.131   3.121  16.426  2.0447 -1.4685 -0.6785
 2512SOL     OW19171   1.982   1.239   6.376  0.0150  0.1069 -0.7627
 2512SOL    HW119172   1.916   1.291   6.422 -1.7164 -2.7726  0.0173
 2512SOL    HW219173   2.025   1.206   6.455  1.4701  1.1134 -1.1218
 2513SOL     OW19174   2.392   1.860   6.540 -0.3394  0.1449 -0.0817
 2513SOL    HW119175   2.368   1.818   6.623  1.0441 -0.3206  0.0770
 2513SOL    HW219176   2.375   1.952   6.557 -1.5638  0.2515 -1.9328
 2514SOL     OW19177   0.082   1.915  15.789  0.0123  0.5386  0.0920
 2514SOL    HW119178   0.085   1.993  15.844 -0.2695  0.7295 -0.1614
 2514SOL    HW219179   0.175   1.894  15.796 -0.1425 -0.8259 -1.9742
 2515SOL     OW19180   4.431   1.339  11.092 -0.0861  0.4165 -0.1171
 2515SOL    HW119181   4.414   1.345  11.186 -0.1974 -4.7161  0.1616
 2515SOL    HW219182   4.427   1.246  11.070 -0.8489  0.1739  1.0217
 2516SOL     OW19183   4.261   0.227  17.738  0.2919 -0.0942  0.1076
 2516SOL    HW119184   4.188   0.285   0.009  1.7603  1.0371  1.7934
 2516SOL    HW219185   4.332   0.288   0.003 -0.9533  0.6390  2.6300
 2517SOL     OW19186   4.556   2.213   5.284 -0.4668 -0.4696 -0.1487
 2517SOL    HW119187   4.637   2.237   5.240 -0.8559  3.2988  1.2029
 2517SOL    HW219188   4.571   2.267   5.362 -1.1742 -0.3258 -0.1122
 2518SOL     OW19189   4.683   1.950   9.198  0.4095 -0.2252  0.9248
 2518SOL    HW119190   4.697   1.930   9.105 -1.3176  1.0886  0.3754
 2518SOL    HW219191   4.631   2.030   9.199  0.2507 -0.3176  0.3106
 2519SOL     OW19192   3.956   0.070  12.641  0.3187 -0.2571 -0.1473
 2519SOL    HW119193   4.050   0.059  12.652  0.1164  0.0749  1.9492
 2519SOL    HW219194   3.927   4.733  12.591 -1.5428 -0.0691  0.6371
 2520SOL     OW19195   1.100   3.043   9.461 -0.2660  0.3697 -0.1832
 2520SOL    HW119196   1.145   2.973   9.508 -0.6394 -0.2630 -0.7656
 2520SOL    HW219197   1.133   3.028   9.372  2.3418  1.0477  0.6700
 2521SOL     OW19198   4.124   3.148  12.908 -0.7938 -0.0490  0.0586
 2521SOL    HW119199   4.182   3.074  12.891  0.3137  1.5844 -3.4165
 2521SOL    HW219200   4.087   3.168  12.822 -0.4187 -4.3058 -1.1113
 2522SOL     OW19201   3.125   2.749   3.598 -0.0073 -0.4454  0.0880
 2522SOL    HW119202   3.134   2.715   3.509  0.1096  1.2279 -0.5446
 2522SOL    HW219203   3.151   2.675   3.653  0.1755  0.6922  1.5433
 2523SOL     OW19204   4.501   1.285   4.118  0.3472  0.2168  0.2000
 2523SOL    HW119205   4.537   1.346   4.182  2.9494  0.9432 -1.9080
 2523SOL    HW219206   4.488   1.202   4.165 -0.5334  1.6833  2.5137
 2524SOL     OW19207   3.344   2.042   6.063 -0.0378 -0.0676 -0.1630
 2524SOL    HW119208   3.275   2.101   6.093  0.8120 -0.1937  2.0305
 2524SOL    HW219209   3.336   1.964   6.118 -0.3849  0.4696  0.5479
 2525SOL     OW19210   0.347   2.662   9.085 -0.2324 -0.1336  0.2995
 2525SOL    HW119211   0.288   2.700   9.020 -1.7393 -3.8378 -0.4728
 2525SOL    HW219212   0.282   2.616   9.137  0.8026 -1.5057  0.3940
 2526SOL     OW19213   4.040   3.266   3.063  0.3368  0.0464  0.7227
 2526SOL    HW119214   4.031   3.315   2.981 -0.3492 -2.1401 -0.4964
 2526SOL    HW219215   3.949   3.236   3.067  0.2302 -0.0177 -1.9965
 2527SOL     OW19216   1.784   4.116   7.373 -0.0699 -0.0843 -0.6401
 2527SOL    HW119217   1.724   4.057   7.328 -1.0270 -0.2808  0.9290
 2527SOL    HW219218   1.821   4.067   7.446  0.7758 -0.8500 -1.5743
 2528SOL     OW19219   3.575   1.137   1.490 -0.1802  0.0096 -0.2407
 2528SOL    HW119220   3.524   1.100   1.417  0.0915 -0.8581  0.0134
 2528SOL    HW219221   3.562   1.076   1.562  0.3524  1.4580  1.0774
 2529SOL     OW19222   1.664   3.863   2.057 -0.0729 -0.4307  0.3463
 2529SOL    HW119223   1.752   3.894   2.034 -0.0359 -1.5113 -0.9833
 2529SOL    HW219224   1.662   3.808   1.979  1.1806  1.7085 -1.1922
 2530SOL     OW19225   1.922   0.600   4.516 -0.0602  0.2608  0.0848
 2530SOL    HW119226   1.999   0.581   4.462 -0.1130  1.6847 -0.4905
 2530SOL    HW219227   1.907   0.692   4.495  0.5405  0.7944  2.0182
 2531SOL     OW19228   1.770   3.828   2.845 -0.2636  0.3523  0.1570
 2531SOL    HW119229   1.838   3.763   2.828 -1.7821 -1.0419 -0.6070
 2531SOL    HW219230   1.699   3.770   2.874 -0.9442  0.0508 -2.1574
 2532SOL     OW19231   3.307   3.186   4.146 -0.4071  0.5734  0.8297
 2532SOL    HW119232   3.312   3.137   4.229  1.0379  0.4206  0.6620
 2532SOL    HW219233   3.396   3.188   4.110 -1.1724  1.9560 -0.9539
 2533SOL     OW19234   0.474   1.675   2.145  0.1383  0.1421  0.0414
 2533SOL    HW119235   0.424   1.699   2.068 -1.8616  0.0308  1.2988
 2533SOL    HW219236   0.550   1.733   2.148  0.0350  0.4038 -2.7564
 2534SOL     OW19237   3.987   4.196   4.278  0.0610 -0.1433 -0.0110
 2534SOL    HW119238   3.978   4.179   4.184 -1.0829 -1.2089  0.2889
 2534SOL    HW219239   3.914   4.147   4.315  0.0383 -0.5013 -0.5367
 2535SOL     OW19240   3.350   1.823  16.571 -0.7534  0.4988  0.5664
 2535SOL    HW119241   3.294   1.879  16.625 -1.3736  0.9050 -0.4818
 2535SOL    HW219242   3.292   1.747  16.581  0.5803 -0.5332  0.3980
 2536SOL     OW19243   2.987   4.407   4.887  0.3259 -0.2873  0.5438
 2536SOL    HW119244   3.039   4.351   4.829  2.8250  1.9704  0.5787
 2536SOL    HW219245   2.975   4.479   4.825 -2.7007 -0.1668  1.2758
 2537SOL     OW19246   3.812   0.190  17.475  0.3238 -0.2099 -0.2517
 2537SOL    HW119247   3.751   0.242  17.423 -0.3187 -2.2436 -1.5273
 2537SOL    HW219248   3.789   0.101  17.450  2.9650 -0.9584 -0.0037
 2538SOL     OW19249   3.310   1.073   6.288  0.4386 -0.4681 -0.2254
 2538SOL    HW119250   3.262   1.085   6.370 -2.1055 -1.1911 -1.6179
 2538SOL    HW219251   3.297   0.983   6.257 -1.4644 -0.4462  0.5316
 2539SOL     OW19252   4.596   2.547   9.574 -0.1622  0.2595  0.4600
 2539SOL    HW119253   4.621   2.458   9.549 -1.5686  0.2108 -0.7971
 2539SOL    HW219254   4.552   2.527   9.657  1.5580 -1.5181  0.9341
 2540SOL     OW19255   2.700   2.651   2.911 -0.6836 -0.1682  0.4301
 2540SOL    HW119256   2.726   2.560   2.923  1.5773  0.4753  0.5888
 2540SOL    HW219257   2.609   2.640   2.885 -1.2177  3.4027  0.7837
 2541SOL     OW19258   1.715   0.015   0.617 -0.0088  0.3508  0.0044
 2541SOL    HW119259   1.712   0.037   0.524  2.8213 -0.9363 -0.3911
 2541SOL    HW219260   1.675   4.667   0.615  1.3406 -0.2532 -0.4034
 2542SOL     OW19261   1.571   0.104   3.896  0.2926 -0.3503 -0.0050
 2542SOL    HW119262   1.500   0.159   3.929  0.0375 -1.2546  0.9648
 2542SOL    HW219263   1.604   0.068   3.978 -1.7073 -2.1730  0.0156
 2543SOL     OW19264   2.334   3.586   6.343 -0.1664 -0.0940 -0.3940
 2543SOL    HW119265   2.275   3.525   6.386  0.5923 -0.8841 -0.4658
 2543SOL    HW219266   2.332   3.661   6.402 -0.1207  0.5119 -1.1724
 2544SOL     OW19267   1.283   0.093  10.383 -0.1014  0.0090  0.5954
 2544SOL    HW119268   1.305   0.027  10.449  2.3242 -0.0137 -0.2416
 2544SOL    HW219269   1.363   0.115  10.335 -0.2438  0.5504  0.6073
 2545SOL     OW19270   3.827   1.098  10.536  0.0790 -0.4381  0.4248
 2545SOL    HW119271   3.767   1.125  10.605  2.5836  2.3533  1.5246
 2545SOL    HW219272   3.770   1.033  10.495 -0.9975  0.5228  0.4265
 2546SOL     OW19273   4.394   3.240   3.070  0.1949  0.1711  0.4305
 2546SOL    HW119274   4.364   3.150   3.083  1.2067 -0.2611 -0.2459
 2546SOL    HW219275   4.459   3.244   3.140 -0.1732  2.3286  0.6627
 2547SOL     OW19276   2.898   2.001   1.355  0.0995  0.5827 -0.4823
 2547SOL    HW119277   2.947   2.067   1.305  1.9439 -0.7093 -0.3978
 2547SOL    HW219278   2.819   2.051   1.375 -1.0086 -1.2082 -0.3380
 2548SOL     OW19279   1.106   4.429  14.995 -0.0303  0.2866 -0.0998
 2548SOL    HW119280   1.198   4.452  14.982 -0.2943  1.8409  0.7774
 2548SOL    HW219281   1.104   4.356  14.933  0.5300 -0.2268  0.4832
 2549SOL     OW19282   0.638   2.094   0.605  0.1255 -0.1639 -0.2077
 2549SOL    HW119283   0.687   2.170   0.637 -2.4826  0.8648  1.2961
 2549SOL    HW219284   0.553   2.138   0.598  0.8314  1.5810  2.0473
 2550SOL     OW19285   2.473   2.947  14.469  0.0285 -0.0122  0.0521
 2550SOL    HW119286   2.487   3.030  14.514  0.9379  0.8353 -1.7633
 2550SOL    HW219287   2.414   2.978  14.400  1.0710  2.9597  0.4924
 2551SOL     OW19288   2.578   3.131  16.331  0.3482 -0.4521 -0.0332
 2551SOL    HW119289   2.509   3.127  16.397 -0.4315 -2.2807 -0.9203
 2551SOL    HW219290   2.655   3.124  16.387  0.4416 -1.1507 -0.2406
 2552SOL     OW19291   0.006   2.079  15.996 -0.1122  0.4347  0.2002
 2552SOL    HW119292   0.082   2.136  16.007  0.1401  0.4039 -1.4198
 2552SOL    HW219293   4.720   2.063  16.088 -2.2576 -0.8972 -0.6003
 2553SOL     OW19294   4.364   4.374   6.926 -0.3163 -0.6444 -0.2740
 2553SOL    HW119295   4.415   4.294   6.932 -2.0066 -1.6506  0.5546
 2553SOL    HW219296   4.300   4.372   6.997 -0.7504 -1.8571 -0.7026
 2554SOL     OW19297   4.111   1.865  13.042  0.0297 -0.1428  0.1359
 2554SOL    HW119298   4.033   1.838  12.994  0.2137 -0.8091  0.2099
 2554SOL    HW219299   4.102   1.810  13.120  0.1820  0.6663  0.7287
 2555SOL     OW19300   1.018   0.491   4.926 -0.0425  0.1229  0.5000
 2555SOL    HW119301   1.073   0.457   4.855 -0.1721 -0.2569  0.5791
 2555SOL    HW219302   1.037   0.584   4.925 -1.5886  0.4404  0.2503
 2556SOL     OW19303   0.803   0.636   9.529  0.5606  0.1934 -0.0378
 2556SOL    HW119304   0.850   0.711   9.493  0.0550  0.2051 -0.6587
 2556SOL    HW219305   0.801   0.572   9.458  0.8031  0.9308 -0.7007
 2557SOL     OW19306   2.904   3.570   5.849 -0.5766 -0.1401 -0.0243
 2557SOL    HW119307   2.819   3.568   5.806  0.8220 -2.0940 -2.6886
 2557SOL    HW219308   2.904   3.656   5.891 -0.7212  0.0422 -0.4032
 2558SOL     OW19309   2.368   3.766   7.029 -0.6399  0.1922 -0.7008
 2558SOL    HW119310   2.363   3.715   7.110  0.1010  0.7875 -0.2770
 2558SOL    HW219311   2.424   3.837   7.057  1.1996 -0.3437 -3.0281
 2559SOL     OW19312   0.957   2.663  13.237 -0.9430 -0.0357 -0.1647
 2559SOL    HW119313   0.889   2.612  13.280 -1.2482  0.2384 -0.3291
 2559SOL    HW219314   0.958   2.615  13.154  1.4686  1.0075 -0.7419
 2560SOL     OW19315   1.331   1.503   9.265 -0.4624  0.4625 -0.0950
 2560SOL    HW119316   1.319   1.590   9.303 -1.7417  0.4110 -0.3684
 2560SOL    HW219317   1.426   1.496   9.265 -0.6097 -1.2883 -1.3878
 2561SOL     OW19318   1.225   0.405   8.252 -0.3671  0.3916  0.3347
 2561SOL    HW119319   1.289   0.457   8.301  2.7464 -0.7639 -2.4759
 2561SOL    HW219320   1.271   0.321   8.249 -2.4943 -0.7657  0.1966
 2562SOL     OW19321   2.444   4.193   2.566  0.3533  0.6668  0.0711
 2562SOL    HW119322   2.523   4.246   2.572 -0.0351  1.1764  0.6680
 2562SOL    HW219323   2.376   4.251   2.532 -1.6520 -1.5694  0.2556
 2563SOL     OW19324   1.010   3.900   8.705  0.2953 -0.5266 -0.1876
 2563SOL    HW119325   0.962   3.832   8.751 -1.8060 -0.3266 -2.1435
 2563SOL    HW219326   0.949   3.905   8.631  2.9877 -0.5788 -2.4200
 2564SOL     OW19327   2.449   2.949   6.053 -0.2883 -0.6623 -0.9637
 2564SOL    HW119328   2.429   2.956   6.146  0.4104 -0.0933 -0.8580
 2564SOL    HW219329   2.385   2.880   6.037 -1.0864 -0.2039  0.3510
 2565SOL     OW19330   2.673   1.731  10.086  0.3007  0.3106 -0.4535
 2565SOL    HW119331   2.754   1.727  10.035  1.2384 -2.2709  1.2097
 2565SOL    HW219332   2.598   1.696  10.039  1.3100 -2.3286 -0.1180
 2566SOL     OW19333   2.143   2.470   5.983 -0.1645 -0.1895 -0.2595
 2566SOL    HW119334   2.090   2.435   6.054  0.8658 -2.3502 -0.5584
 2566SOL    HW219335   2.077   2.512   5.928  0.8708  1.8175  0.0090
 2567SOL     OW19336   2.024   0.781  11.071  0.4188  0.1792 -0.5902
 2567SOL    HW119337   2.102   0.832  11.051  1.1053 -0.2331  1.0563
 2567SOL    HW219338   1.979   0.832  11.140 -1.8600 -1.6179 -0.7438
 2568SOL     OW19339   2.971   0.071   3.455 -0.2262 -0.4128  0.1288
 2568SOL    HW119340   2.969   0.033   3.367 -1.5389  0.4759 -0.2193
 2568SOL    HW219341   3.058   0.049   3.490 -0.5012  0.9087  1.6743
 2569SOL     OW19342   2.203   3.618   0.671 -0.1459  0.0091 -0.4342
 2569SOL    HW119343   2.135   3.553   0.690 -0.2149 -0.3478 -1.9214
 2569SOL    HW219344   2.270   3.564   0.714 -0.4302 -0.0193 -0.0247
 2570SOL     OW19345   4.710   0.832   4.334 -0.2709  0.1919 -0.3466
 2570SOL    HW119346   0.033   0.814   4.405 -0.3238 -1.3006 -0.6927
 2570SOL    HW219347   4.662   0.752   4.316  0.2323  0.1884 -1.6754
 2571SOL     OW19348   3.586   4.541   2.826  0.2423 -0.2870 -0.2467
 2571SOL    HW119349   3.513   4.557   2.765  0.4347 -0.0352 -0.4121
 2571SOL    HW219350   3.652   4.489   2.780  1.0072  0.4492  0.0122
 2572SOL     OW19351   1.033   2.458  11.608 -0.3593  0.2912  0.7194
 2572SOL    HW119352   0.974   2.530  11.585 -0.0613  0.5249  0.6813
 2572SOL    HW219353   1.123   2.481  11.584 -0.3924 -1.3001 -0.9218
 2573SOL     OW19354   2.631   1.050   1.861  0.7023 -0.1495 -0.7858
 2573SOL    HW119355   2.693   0.977   1.854  0.5759 -0.2859 -0.4532
 2573SOL    HW219356   2.586   1.039   1.777  1.8735 -0.1371 -1.4155
 2574SOL     OW19357   0.561   2.972  12.275  0.0699 -0.0534  0.7317
 2574SOL    HW119358   0.509   2.892  12.271 -2.4125  1.5488  1.1723
 2574SOL    HW219359   0.498   3.035  12.310 -1.3140 -1.1613  0.2433
 2575SOL     OW19360   4.333   1.011   5.767 -0.0607 -0.1862 -0.9775
 2575SOL    HW119361   4.347   0.949   5.838 -1.2910  1.1313  0.4067
 2575SOL    HW219362   4.360   0.959   5.691  3.9209 -2.6114  2.1277
 2576SOL     OW19363   0.535   2.291   1.933 -0.8522  0.2043 -0.1972
 2576SOL    HW119364   0.511   2.296   1.840  0.1425 -0.1695 -0.4834
 2576SOL    HW219365   0.621   2.332   1.923 -1.3719  1.2672 -0.2643
 2577SOL     OW19366   0.776   3.391   5.381  0.7171 -0.0241 -0.3789
 2577SOL    HW119367   0.820   3.468   5.416  0.3417 -0.2789  0.6645
 2577SOL    HW219368   0.755   3.423   5.294 -0.4516 -0.8655 -0.4030
 2578SOL     OW19369   0.290   2.840   8.312 -0.7690  0.0904  0.5276
 2578SOL    HW119370   0.285   2.745   8.329 -0.5127 -0.0457 -0.1941
 2578SOL    HW219371   0.195   2.855   8.310 -0.8377 -0.2778  0.8431
 2579SOL     OW19372   2.309   2.249  13.545 -0.4216  0.4388 -0.1968
 2579SOL    HW119373   2.285   2.183  13.480  1.0223  0.1915 -0.4761
 2579SOL    HW219374   2.315   2.329  13.492 -0.6700  1.6116  1.5305
 2580SOL     OW19375   1.810   3.769   8.340 -0.3651  0.0606  0.2373
 2580SOL    HW119376   1.814   3.864   8.340 -0.2373  0.0619  1.1963
 2580SOL    HW219377   1.886   3.739   8.390 -0.0597 -0.1432 -0.3585
 2581SOL     OW19378   1.027   0.458   5.662  0.3562  0.4227  0.0096
 2581SOL    HW119379   1.017   0.449   5.757  0.7366  0.7091  0.0720
 2581SOL    HW219380   1.041   0.552   5.654 -0.5119  0.5615  0.1379
 2582SOL     OW19381   1.093   2.915  10.854  0.1105 -0.0310  0.5423
 2582SOL    HW119382   1.107   2.944  10.944  2.1333 -1.9013  0.8465
 2582SOL    HW219383   1.112   2.821  10.858 -0.5847 -0.2022 -0.2957
 2583SOL     OW19384   4.639   0.177   8.913  0.0403 -0.0287  0.6627
 2583SOL    HW119385   4.700   0.237   8.870 -0.1675 -1.8610 -2.2217
 2583SOL    HW219386   4.700   0.157   8.984  0.7269 -1.0595 -0.2204
 2584SOL     OW19387   0.949   0.339   6.847  0.2128 -0.5617  0.0072
 2584SOL    HW119388   1.013   0.305   6.785 -1.2874  0.6205 -2.1848
 2584SOL    HW219389   0.958   0.432   6.826  0.7552 -0.8917 -1.1816
 2585SOL     OW19390   1.611   0.251   5.196  0.1776 -0.0071  0.4335
 2585SOL    HW119391   1.673   0.245   5.269  1.2978  0.8115 -0.4368
 2585SOL    HW219392   1.606   0.159   5.173  0.5549  0.2333 -0.6144
 2586SOL     OW19393   4.195   1.729   4.108 -0.4229 -0.3351  0.1911
 2586SOL    HW119394   4.279   1.689   4.126  0.6983  1.3302 -1.3513
 2586SOL    HW219395   4.143   1.671   4.164  0.8135  0.3247  2.0177
 2587SOL     OW19396   0.563   3.107   9.840  0.0498  0.5595 -0.0417
 2587SOL    HW119397   0.617   3.079   9.914 -2.0264  0.3165  1.3872
 2587SOL    HW219398   0.550   3.025   9.791  0.0595  0.4398  0.1531
 2588SOL     OW19399   4.010   2.790   1.513 -0.3584 -0.0683  0.5423
 2588SOL    HW119400   3.920   2.787   1.480  0.7686 -3.3601 -2.2538
 2588SOL    HW219401   4.009   2.862   1.577  0.3527 -0.2792  0.7867
 2589SOL     OW19402   3.826   2.569  10.314  0.5651  0.2109 -0.2234
 2589SOL    HW119403   3.758   2.616  10.363  0.0050 -1.1033  0.2509
 2589SOL    HW219404   3.773   2.534  10.244  1.5902  1.4254 -1.6108
 2590SOL     OW19405   4.157   2.372   9.970  0.3449  0.0808 -0.3240
 2590SOL    HW119406   4.217   2.444   9.992  0.3426 -0.5307  1.7400
 2590SOL    HW219407   4.214   2.296   9.979 -1.5739 -0.8941  3.8888
 2591SOL     OW19408   1.144   1.878   8.995  0.3109 -0.3242  0.5078
 2591SOL    HW119409   1.119   1.833   9.075  0.9503 -0.3841  0.6756
 2591SOL    HW219410   1.136   1.800   8.940 -0.0003  0.6994 -0.9074
 2592SOL     OW19411   1.352   2.188   6.516  0.0958 -0.5904 -0.2622
 2592SOL    HW119412   1.275   2.131   6.506 -0.7286  0.7884 -1.7830
 2592SOL    HW219413   1.402   2.149   6.588  2.4312  0.0585 -1.5560
 2593SOL     OW19414   3.346   3.914   0.630  0.2139 -0.2915 -0.1944
 2593SOL    HW119415   3.358   3.839   0.572  2.0570 -1.2074  1.3172
 2593SOL    HW219416   3.260   3.893   0.666  1.0063 -1.6946  0.9158
 2594SOL     OW19417   4.566   3.274   9.296 -0.3358 -0.5055  0.2180
 2594SOL    HW119418   4.614   3.355   9.279 -0.4202 -0.5151 -0.0670
 2594SOL    HW219419   4.586   3.258   9.388 -0.7381 -3.0858 -0.1505
 2595SOL     OW19420   0.916   0.626   7.271  0.3462 -0.3529  0.2432
 2595SOL    HW119421   0.868   0.633   7.188  1.2285  0.1614 -0.2203
 2595SOL    HW219422   1.005   0.619   7.237 -0.4053 -0.5998 -1.6917
 2596SOL     OW19423   2.271   4.185   8.645 -0.2806  0.7550 -0.2715
 2596SOL    HW119424   2.241   4.193   8.735  0.5387 -0.3130  0.1008
 2596SOL    HW219425   2.300   4.275   8.631 -1.0356  0.8863 -1.0048
 2597SOL     OW19426   2.848   3.856  10.198 -0.3572  0.4352  0.8746
 2597SOL    HW119427   2.785   3.880  10.131  0.4941 -1.6756 -0.6682
 2597SOL    HW219428   2.830   3.927  10.259 -2.4496 -0.2003  1.0006
 2598SOL     OW19429   3.628   3.833   2.301 -0.0659 -0.4150  0.2518
 2598SOL    HW119430   3.629   3.746   2.340  0.9179 -1.0620 -1.2295
 2598SOL    HW219431   3.676   3.869   2.375  0.2319 -1.2242  0.4443
 2599SOL     OW19432   2.420   3.088  15.412 -0.0158 -0.2898 -0.1094
 2599SOL    HW119433   2.498   3.034  15.397  1.2268  1.8292 -1.4675
 2599SOL    HW219434   2.432   3.090  15.507  2.1300 -1.8677 -0.3516
 2600SOL     OW19435   2.787   4.225   0.409  0.3345  0.1165 -0.0509
 2600SOL    HW119436   2.720   4.165   0.377  1.3566 -1.8051  1.3520
 2600SOL    HW219437   2.836   4.167   0.468 -1.0346 -2.2766 -1.2883
 2601SOL     OW19438   2.285   2.810   7.121  0.0749 -0.1767 -0.5492
 2601SOL    HW119439   2.308   2.840   7.208 -0.1832  2.6353 -1.4661
 2601SOL    HW219440   2.369   2.817   7.076 -1.7645  2.9495 -3.5090
 2602SOL     OW19441   4.490   2.549   9.126 -0.7911  0.2311  0.6947
 2602SOL    HW119442   4.537   2.632   9.134  0.0613 -0.2353  0.5886
 2602SOL    HW219443   4.552   2.499   9.073  1.0516  1.9707  1.2429
 2603SOL     OW19444   4.332   1.883  12.562  0.3121 -0.2270 -0.6905
 2603SOL    HW119445   4.283   1.845  12.634 -0.1429  1.5402 -0.0584
 2603SOL    HW219446   4.413   1.907  12.608  0.1995  0.1766 -0.6979
 2604SOL     OW19447   2.928   3.569   9.323 -0.4272  0.3764 -0.6880
 2604SOL    HW119448   2.990   3.639   9.301 -1.0281  1.5394  1.3858
 2604SOL    HW219449   2.841   3.605   9.309 -0.2917  0.5326 -1.1441
 2605SOL     OW19450   2.643   0.735   8.776 -0.2936  0.2705 -0.2733
 2605SOL    HW119451   2.631   0.643   8.800 -0.6493  0.3538 -0.1341
 2605SOL    HW219452   2.652   0.774   8.863 -1.0900 -0.2523  0.0362
 2606SOL     OW19453   2.933   3.809   0.477  0.5584 -0.1457  0.0281
 2606SOL    HW119454   2.891   3.788   0.394  0.3017  0.0281  0.1150
 2606SOL    HW219455   2.946   3.722   0.515  1.1476 -0.6316 -1.2847
 2607SOL     OW19456   1.768   1.812  16.616 -0.4114 -0.3623 -0.3292
 2607SOL    HW119457   1.689   1.775  16.576 -0.0776  0.3245 -1.6241
 2607SOL    HW219458   1.744   1.896  16.655  3.7110 -1.0323  3.6618
 2608SOL     OW19459   2.333   0.719  17.555 -0.6318 -0.0585 -0.5882
 2608SOL    HW119460   2.383   0.699  17.476 -0.1497 -1.3503  0.0515
 2608SOL    HW219461   2.369   0.646  17.604  0.8973  2.1935  1.6360
 2609SOL     OW19462   1.586   0.080   3.101  0.2303 -0.7039 -0.4847
 2609SOL    HW119463   1.490   0.083   3.109  0.4012  2.3467  0.1712
 2609SOL    HW219464   1.619   0.124   3.179 -0.3242 -1.6873  0.3166
 2610SOL     OW19465   1.696   1.668   8.623  0.1431  0.2270 -0.2947
 2610SOL    HW119466   1.614   1.678   8.575  0.9313 -0.2268 -1.7265
 2610SOL    HW219467   1.766   1.653   8.560 -0.7794  1.2280 -1.5532
 2611SOL     OW19468   0.705   0.813   8.346 -0.2868  0.0876 -0.5987
 2611SOL    HW119469   0.736   0.898   8.378 -0.8123  0.0041  0.1284
 2611SOL    HW219470   0.630   0.845   8.294  1.1680  4.1150 -0.2311
 2612SOL     OW19471   2.239   3.636  15.795  0.4463 -0.5142  0.2339
 2612SOL    HW119472   2.283   3.552  15.783  0.4693 -0.6003  0.9535
 2612SOL    HW219473   2.279   3.681  15.870 -0.0635 -0.1812  0.3036
 2613SOL     OW19474   0.180   0.420   3.223 -0.0520 -0.1224  0.0477
 2613SOL    HW119475   0.112   0.483   3.250 -0.8738 -0.8911 -0.2452
 2613SOL    HW219476   0.249   0.450   3.282 -2.2792  0.3542  2.4195
 2614SOL     OW19477   2.929   0.987   4.894 -0.0505  0.2662 -0.2708
 2614SOL    HW119478   2.859   0.995   4.830  0.3187 -0.9839 -0.8353
 2614SOL    HW219479   2.992   1.007   4.824  0.6938 -0.0844  0.2949
 2615SOL     OW19480   4.538   3.887   9.423 -0.1426  0.4144  0.4747
 2615SOL    HW119481   4.617   3.929   9.389  0.1679  0.2374  0.9905
 2615SOL    HW219482   4.518   3.945   9.496 -0.8922  1.7734 -0.8146
 2616SOL     OW19483   1.035   2.736  12.259  0.6935 -0.2552  0.2738
 2616SOL    HW119484   0.973   2.805  12.286 -0.2115 -0.8565 -0.2530
 2616SOL    HW219485   1.109   2.787  12.226  0.5026  0.0506  0.3182
 2617SOL     OW19486   3.040   0.251   5.747  0.1455  0.1000  0.2162
 2617SOL    HW119487   3.031   0.207   5.831  1.6186 -1.0739 -0.2318
 2617SOL    HW219488   2.971   0.317   5.748 -2.0927 -2.2862  1.7442
 2618SOL     OW19489   1.070   1.132   2.426 -0.5305 -0.3156 -0.4711
 2618SOL    HW119490   1.138   1.103   2.366  0.7823  3.8315 -0.9847
 2618SOL    HW219491   1.034   1.044   2.437  0.5151 -0.7647 -0.6818
 2619SOL     OW19492   0.905   1.429   8.876  0.1377 -0.4094  0.1411
 2619SOL    HW119493   0.993   1.460   8.898  0.3051  0.4683 -1.7595
 2619SOL    HW219494   0.870   1.428   8.965  0.1814 -0.9646  0.1578
 2620SOL     OW19495   4.159   3.990   1.015 -0.0493  0.0078 -0.1785
 2620SOL    HW119496   4.208   3.912   0.991 -1.3615 -0.9165  0.1290
 2620SOL    HW219497   4.209   4.030   1.087  0.9776 -1.0719 -0.3053
 2621SOL     OW19498   4.063   3.535  16.410 -0.1332  0.2648 -0.1369
 2621SOL    HW119499   4.075   3.603  16.477 -1.3461 -0.5998  0.9685
 2621SOL    HW219500   4.150   3.496  16.398 -1.1156 -1.4586 -1.5662
 2622SOL     OW19501   2.651   2.098   5.282 -0.2850  0.4113 -0.3033
 2622SOL    HW119502   2.635   2.187   5.250  0.5741  0.2449 -1.1951
 2622SOL    HW219503   2.738   2.126   5.311 -0.6035 -0.1835  1.2296
 2623SOL     OW19504   3.136   1.438   8.618  0.0900  0.2062  0.4277
 2623SOL    HW119505   3.118   1.371   8.684 -1.3553 -0.1815 -0.3584
 2623SOL    HW219506   3.053   1.485   8.616  0.0462  0.1099 -0.2101
 2624SOL     OW19507   1.005   1.071   4.507  0.4913  1.0156  0.1508
 2624SOL    HW119508   0.942   1.038   4.571  0.6234  4.0034  1.7870
 2624SOL    HW219509   1.083   1.045   4.555  0.5195 -1.2126 -1.0834
 2625SOL     OW19510   3.489   2.892   6.811 -0.0618 -0.5714  0.2218
 2625SOL    HW119511   3.583   2.889   6.831  0.2564 -3.1157 -1.7011
 2625SOL    HW219512   3.486   2.966   6.750  1.8328  0.6494  1.6192
 2626SOL     OW19513   3.837   1.077  11.520  0.4806  0.1480 -0.2307
 2626SOL    HW119514   3.785   1.134  11.462 -1.1471 -0.2579  0.8212
 2626SOL    HW219515   3.922   1.077  11.476  0.2049 -0.0963 -0.7683
 2627SOL     OW19516   4.358   1.440   1.604 -0.3637 -0.4855  0.7843
 2627SOL    HW119517   4.334   1.358   1.649  0.1580 -1.1713 -0.1738
 2627SOL    HW219518   4.403   1.395   1.532  1.7597  0.3760  1.5799
 2628SOL     OW19519   0.445   3.598   3.705  0.3124 -0.4518  0.2881
 2628SOL    HW119520   0.470   3.687   3.730 -0.7781 -0.1787  0.4233
 2628SOL    HW219521   0.356   3.598   3.741 -0.8779 -0.6386 -2.7100
 2629SOL     OW19522   4.040   4.402  13.222 -0.1942  0.8724 -0.1094
 2629SOL    HW119523   4.030   4.364  13.135 -1.0456 -0.0131  0.3622
 2629SOL    HW219524   3.980   4.342  13.266  0.7062 -0.4141 -0.6339
 2630SOL     OW19525   4.149   0.764   5.746 -0.3331 -0.1970 -0.1269
 2630SOL    HW119526   4.210   0.771   5.673  1.2910 -0.5733  1.1903
 2630SOL    HW219527   4.175   0.837   5.802 -1.9983  0.4119 -0.1175
 2631SOL     OW19528   1.026   0.165   7.052  0.2510 -0.3310  0.0342
 2631SOL    HW119529   0.970   0.088   7.065 -0.6722  0.1584 -1.0046
 2631SOL    HW219530   0.994   0.200   6.969  0.0831  0.2465  0.3494
 2632SOL     OW19531   2.449   2.978  11.218  0.0723 -0.3482 -0.2939
 2632SOL    HW119532   2.391   2.925  11.272  1.4909 -1.5246  0.0545
 2632SOL    HW219533   2.522   2.916  11.221 -0.1931 -0.5518  2.4087
 2633SOL     OW19534   4.637   1.992  16.634  0.9867  0.0353 -0.2024
 2633SOL    HW119535   4.574   1.952  16.695 -0.3408  1.1827 -0.8286
 2633SOL    HW219536   4.591   2.062  16.588  0.4366  0.4502  0.9817
 2634SOL     OW19537   3.762   3.601  11.488 -0.3354  0.2966  0.0307
 2634SOL    HW119538   3.741   3.608  11.581 -0.8240 -0.2393 -0.0399
 2634SOL    HW219539   3.830   3.535  11.493 -0.0499  0.5133 -1.0728
 2635SOL     OW19540   4.550   3.530   9.078  0.8433 -0.1916 -0.6189
 2635SOL    HW119541   4.562   3.625   9.080  0.1111 -0.0875 -1.0859
 2635SOL    HW219542   4.631   3.497   9.116  0.6504  3.0672  2.5888
 2636SOL     OW19543   0.398   2.815   8.755  0.2981  0.1482 -0.4774
 2636SOL    HW119544   0.383   2.886   8.818 -1.0166  0.1240 -0.7759
 2636SOL    HW219545   0.410   2.859   8.671 -1.2465  0.5197 -0.5050
 2637SOL     OW19546   2.970   1.492   3.942  0.0370 -0.6236 -0.0073
 2637SOL    HW119547   3.040   1.492   3.877 -2.3288 -0.2865 -2.5500
 2637SOL    HW219548   2.991   1.566   3.999  0.1672 -1.1275  0.5948
 2638SOL     OW19549   3.313   0.054  10.021  0.2660  0.1097 -0.0483
 2638SOL    HW119550   3.397   0.047  10.066  0.2437 -0.8615 -0.1489
 2638SOL    HW219551   3.347   0.112   9.953  0.1220 -1.4428 -1.4482
 2639SOL     OW19552   3.909   2.958   5.315  0.1617 -0.3010  0.4036
 2639SOL    HW119553   3.849   2.895   5.354  0.3970 -0.7424  0.0541
 2639SOL    HW219554   3.907   3.027   5.381 -1.1777 -0.0694  0.1185
 2640SOL     OW19555   0.906   1.779   6.948  0.9978  0.6692  0.1675
 2640SOL    HW119556   0.924   1.859   6.997  0.6791  1.1387 -0.4826
 2640SOL    HW219557   0.970   1.778   6.877  0.0435  1.7726 -0.6998
 2641SOL     OW19558   0.983   2.363   3.019 -0.3016  0.3580 -0.0165
 2641SOL    HW119559   0.956   2.448   3.052 -0.2951 -0.5192  2.2828
 2641SOL    HW219560   1.072   2.377   2.986 -0.6413  3.3040  0.3304
 2642SOL     OW19561   4.349   1.466   0.746 -0.1754  0.2135 -0.0889
 2642SOL    HW119562   4.308   1.474   0.832  1.3810  0.0520  0.6583
 2642SOL    HW219563   4.433   1.498   0.778 -0.5184  0.6053  0.4183
 2643SOL     OW19564   0.447   1.051   8.510 -0.1364  0.1721  0.3290
 2643SOL    HW119565   0.449   1.123   8.447  1.9260 -0.7414 -0.6418
 2643SOL    HW219566   0.405   1.093   8.586 -0.4680 -1.3389  0.9868
 2644SOL     OW19567   1.109   1.038   5.136 -0.1988  0.7914 -0.3092
 2644SOL    HW119568   1.195   1.076   5.153  0.5438 -0.5271 -1.0770
 2644SOL    HW219569   1.101   1.044   5.041  1.2370 -0.9827 -0.5525
 2645SOL     OW19570   4.635   3.187   0.878  0.2725  0.6415 -0.8926
 2645SOL    HW119571   4.682   3.270   0.893 -1.6412  1.7455 -1.0454
 2645SOL    HW219572   4.651   3.130   0.953 -0.7876  1.7064  0.1513
 2646SOL     OW19573   3.227   4.480   7.961  0.1447 -0.1416 -0.0725
 2646SOL    HW119574   3.257   4.454   7.874  0.3968 -2.2219  0.6278
 2646SOL    HW219575   3.307   4.485   8.013 -0.3910  0.6171  0.6832
 2647SOL     OW19576   0.092   1.932   7.621  0.3563  0.2596 -0.0680
 2647SOL    HW119577   0.009   1.892   7.646  0.2844 -0.0854 -0.8603
 2647SOL    HW219578   0.111   1.890   7.537 -2.5653  0.1481 -0.6736
 2648SOL     OW19579   0.292   4.385   5.602 -0.2099  0.2929  1.0945
 2648SOL    HW119580   0.320   4.300   5.570  0.2566  0.7168  0.3927
 2648SOL    HW219581   0.319   4.429   5.522 -0.5721 -0.4254  0.5804
 2649SOL     OW19582   4.302   1.284  12.128  0.8012  0.4083  0.1928
 2649SOL    HW119583   4.345   1.258  12.047 -2.5729 -2.5731 -0.5921
 2649SOL    HW219584   4.209   1.266  12.115  0.6391  1.7773 -0.5243
 2650SOL     OW19585   2.115   1.542   2.310  0.5916 -0.8159 -0.4954
 2650SOL    HW119586   2.052   1.521   2.380 -0.2745 -0.7852 -1.2715
 2650SOL    HW219587   2.128   1.636   2.323 -2.2571 -0.3417 -1.0755
 2651SOL     OW19588   1.041   1.362  14.780  0.0457 -0.3768  0.6081
 2651SOL    HW119589   0.974   1.382  14.845  1.4754 -3.0019  2.8757
 2651SOL    HW219590   1.098   1.439  14.788 -0.7845  0.1394  1.5251
 2652SOL     OW19591   2.135   2.466   7.888 -0.2949  0.1729 -0.8382
 2652SOL    HW119592   2.207   2.472   7.825 -0.4990  1.3998 -0.9425
 2652SOL    HW219593   2.176   2.418   7.960  1.2208  1.4244 -0.8665
 2653SOL     OW19594   1.800   4.511  12.177 -0.0601  0.3627 -0.3908
 2653SOL    HW119595   1.889   4.534  12.202 -1.4957  1.9923  3.4244
 2653SOL    HW219596   1.765   4.526  12.265 -3.3619 -1.0003 -1.4463
 2654SOL     OW19597   1.694   3.968   4.734 -0.0524 -1.2065  0.1182
 2654SOL    HW119598   1.759   3.958   4.803 -0.0522 -0.3964  0.2338
 2654SOL    HW219599   1.657   4.047   4.773  1.7828 -0.2388 -0.0964
 2655SOL     OW19600   2.254   0.198   8.708 -0.1508 -1.0292  0.1383
 2655SOL    HW119601   2.259   0.114   8.753 -1.8128  0.9960  4.0686
 2655SOL    HW219602   2.298   0.250   8.774 -1.4595 -2.3485  2.0556
 2656SOL     OW19603   0.521   3.487   2.563  0.6441  0.0533  0.3461
 2656SOL    HW119604   0.516   3.508   2.656  0.4641  1.4015  0.0219
 2656SOL    HW219605   0.595   3.427   2.573  0.8098  0.1869 -0.0818
 2657SOL     OW19606   4.202   1.778   1.885  0.3004 -0.4218  0.3041
 2657SOL    HW119607   4.218   1.798   1.977  0.9562 -0.5231  0.2125
 2657SOL    HW219608   4.271   1.712   1.885  1.6473  0.9648  0.1302
 2658SOL     OW19609   3.592   0.669   1.741  0.2777  0.1843 -0.1540
 2658SOL    HW119610   3.605   0.579   1.771  0.3415  1.0604  2.3853
 2658SOL    HW219611   3.501   0.661   1.710 -1.0785  0.1202  3.8739
 2659SOL     OW19612   0.469   0.242   9.500  0.5344  0.2171 -0.2309
 2659SOL    HW119613   0.458   0.310   9.566  2.6436  0.0881  0.2533
 2659SOL    HW219614   0.378   0.228   9.472  0.0182 -0.4256  1.7432
 2660SOL     OW19615   3.479   1.166   5.519  0.5900 -0.5780  0.3521
 2660SOL    HW119616   3.396   1.120   5.504 -0.0386  0.5242  0.3828
 2660SOL    HW219617   3.536   1.118   5.459  0.7231 -1.3027  1.0657
 2661SOL     OW19618   0.096   3.189   3.407 -0.3014 -0.2651 -0.5376
 2661SOL    HW119619   0.150   3.205   3.330  1.1271 -2.9035 -0.1025
 2661SOL    HW219620   0.091   3.093   3.410  0.5361 -0.3368 -1.8922
 2662SOL     OW19621   4.037   2.282   8.279 -0.0589 -0.2617  0.1596
 2662SOL    HW119622   4.016   2.361   8.330  0.3168 -1.5444  2.2758
 2662SOL    HW219623   4.122   2.250   8.306  0.7797  1.3389 -0.5632
 2663SOL     OW19624   2.787   3.623   0.009  0.2081  0.3595 -0.4303
 2663SOL    HW119625   2.799   3.685  17.689  1.0778 -0.5448 -1.0622
 2663SOL    HW219626   2.725   3.560  17.725 -0.4866  0.0481  1.3004
 2664SOL     OW19627   0.509   1.758  13.189 -0.2416  0.6264  0.6384
 2664SOL    HW119628   0.472   1.675  13.159  1.4765 -0.4356  1.4495
 2664SOL    HW219629   0.445   1.780  13.257 -1.0052  2.4966 -0.6979
 2665SOL     OW19630   0.908   1.160   5.931 -0.1678  0.3198 -0.2305
 2665SOL    HW119631   0.880   1.103   5.859 -0.7209 -0.9244  0.9720
 2665SOL    HW219632   0.879   1.249   5.912  0.6485  0.6970  0.3132
 2666SOL     OW19633   3.126   3.058  10.240 -0.7431  0.3901  0.2210
 2666SOL    HW119634   3.113   3.129  10.303 -0.1230  1.1612 -0.5180
 2666SOL    HW219635   3.160   2.990  10.299  1.0638 -0.5888 -1.9595
 2667SOL     OW19636   4.497   1.637   0.973  0.6247 -0.4157 -0.4173
 2667SOL    HW119637   4.503   1.560   1.029  0.8053  0.4131  0.6859
 2667SOL    HW219638   4.578   1.627   0.922  1.0468 -1.3239  0.4289
 2668SOL     OW19639   3.351   4.250  14.204 -0.5284 -0.1179  0.9282
 2668SOL    HW119640   3.260   4.237  14.178 -0.0932 -2.6126  0.6593
 2668SOL    HW219641   3.370   4.344  14.203  0.8308 -0.4102 -1.4464
 2669SOL     OW19642   2.024   1.535  17.117  0.1132 -0.7594  0.3259
 2669SOL    HW119643   2.046   1.512  17.208  1.1726  0.9793  0.4991
 2669SOL    HW219644   1.939   1.490  17.113 -0.1844 -0.1615 -0.0380
 2670SOL     OW19645   3.573   0.947  15.242  0.1955  0.3954 -0.0346
 2670SOL    HW119646   3.642   0.929  15.178  1.1143 -0.3657  1.1608
 2670SOL    HW219647   3.611   1.006  15.308 -1.9890  0.5652  1.0724
 2671SOL     OW19648   0.439   3.807   6.388  0.1470 -0.2638  0.2162
 2671SOL    HW119649   0.463   3.800   6.480  1.1057 -0.1208 -0.0186
 2671SOL    HW219650   0.372   3.739   6.386 -1.6045  1.4108  1.3750
 2672SOL     OW19651   3.266   3.090   2.920  0.3862 -0.1418  0.0715
 2672SOL    HW119652   3.267   3.094   3.015  0.4958 -0.4475  0.0848
 2672SOL    HW219653   3.195   3.027   2.910 -0.1855  0.4876  0.1773
 2673SOL     OW19654   4.554   0.551  13.582  0.2300  0.1759 -0.2633
 2673SOL    HW119655   4.582   0.544  13.491 -0.7156 -1.3926 -0.4435
 2673SOL    HW219656   4.507   0.469  13.599  0.0280  0.2048 -0.6836
 2674SOL     OW19657   1.639   0.501   5.134 -0.4483 -0.0178  0.4524
 2674SOL    HW119658   1.670   0.475   5.047  0.4728 -0.9295  1.0573
 2674SOL    HW219659   1.629   0.410   5.161 -0.7371 -0.2221 -0.3317
 2675SOL     OW19660   0.312   2.935   7.505 -0.1219 -0.4318  0.0322
 2675SOL    HW119661   0.228   2.889   7.498 -0.5977  0.5732 -0.8431
 2675SOL    HW219662   0.344   2.936   7.415  0.6120  0.3520  0.3054
 2676SOL     OW19663   1.212   0.059  13.521 -0.3105 -0.6683  0.2364
 2676SOL    HW119664   1.212   4.716  13.571 -1.4436  0.3676  1.9242
 2676SOL    HW219665   1.196   0.028  13.432  1.4460  0.1208 -0.3662
 2677SOL     OW19666   3.869   0.549  10.174 -0.3722  0.1481  0.6176
 2677SOL    HW119667   3.825   0.633  10.191 -0.3321  0.0218  1.3489
 2677SOL    HW219668   3.890   0.512  10.260 -0.2172  1.0366  0.9726
 2678SOL     OW19669   1.257   1.207  11.763 -0.4753  0.0192 -0.4554
 2678SOL    HW119670   1.287   1.116  11.761 -0.0083  0.2018 -1.9001
 2678SOL    HW219671   1.169   1.192  11.731 -1.4242  0.8806  1.7625
 2679SOL     OW19672   2.954   4.665   2.609 -0.4707 -0.3309  0.2303
 2679SOL    HW119673   2.962   4.570   2.617 -0.9730 -0.4377 -0.4805
 2679SOL    HW219674   2.945   4.671   2.514 -1.6275 -1.1345  0.2925
 2680SOL     OW19675   3.288   1.737   8.146 -0.2264 -0.2959  0.7145
 2680SOL    HW119676   3.297   1.646   8.172 -1.0408 -0.7409 -0.5621
 2680SOL    HW219677   3.194   1.741   8.125 -0.4467 -1.6144  1.4886
 2681SOL     OW19678   3.076   4.382  12.598 -0.1560 -0.1459  0.4748
 2681SOL    HW119679   3.075   4.347  12.687  1.6352 -1.1222  0.1200
 2681SOL    HW219680   3.089   4.472  12.629 -0.9817  0.1793 -0.1417
 2682SOL     OW19681   4.671   1.811   3.862  0.2183  0.1347  0.3825
 2682SOL    HW119682   4.668   1.895   3.908  3.1256 -0.0338  0.8829
 2682SOL    HW219683   4.604   1.830   3.796  1.3148  1.4462 -0.3674
 2683SOL     OW19684   2.650   0.403  13.758  0.2918 -0.1020  0.3266
 2683SOL    HW119685   2.621   0.477  13.705  1.5416 -0.1279 -0.4087
 2683SOL    HW219686   2.745   0.411  13.752  0.1099  1.6376 -0.0864
 2684SOL     OW19687   0.329   3.405  17.491  0.0499 -0.1489 -0.4170
 2684SOL    HW119688   0.245   3.419  17.445 -0.3538  1.7604  0.8909
 2684SOL    HW219689   0.359   3.496  17.494 -0.6518  0.0521  0.8278
 2685SOL     OW19690   1.443   0.529   8.908 -0.0695  0.0946 -0.6755
 2685SOL    HW119691   1.453   0.588   8.833 -1.3702  2.8429  1.3342
 2685SOL    HW219692   1.365   0.482   8.879  0.8632 -1.1386 -1.1992
 2686SOL     OW19693   4.013   3.134   2.568 -0.4375 -0.6266  0.6823
 2686SOL    HW119694   4.103   3.108   2.585 -0.0804  0.8953  1.1711
 2686SOL    HW219695   3.981   3.058   2.519  0.3719 -0.4421 -0.1234
 2687SOL     OW19696   3.085   2.895   6.209  0.1138 -0.6116 -0.0935
 2687SOL    HW119697   3.115   2.937   6.289  0.6199  0.1339 -0.6706
 2687SOL    HW219698   3.096   2.970   6.151 -0.9659 -0.7826 -0.5296
 2688SOL     OW19699   1.727   2.306   1.735  0.0133  0.0459  0.3976
 2688SOL    HW119700   1.807   2.358   1.733 -1.2784  1.9387 -2.0288
 2688SOL    HW219701   1.766   2.219   1.736 -0.9919 -0.3993  0.2638
 2689SOL     OW19702   1.015   1.850   5.509  0.2345 -0.0368  0.0433
 2689SOL    HW119703   0.999   1.916   5.442 -1.8700 -1.5331 -0.9286
 2689SOL    HW219704   0.923   1.831   5.529  0.0045  0.4085 -0.5980
 2690SOL     OW19705   2.120   1.142   5.150 -0.0044 -0.1423  0.3569
 2690SOL    HW119706   2.056   1.077   5.179  1.5770 -0.9758  2.0125
 2690SOL    HW219707   2.053   1.200   5.114 -0.1373 -0.2272  0.4624
 2691SOL     OW19708   1.401   0.350   6.365  0.1266  0.0358 -0.3014
 2691SOL    HW119709   1.322   0.303   6.391 -0.5656  0.7717 -1.1365
 2691SOL    HW219710   1.403   0.314   6.277 -0.6776  0.6149 -0.5463
 2692SOL     OW19711   3.062   0.718   1.498 -0.2671  0.5655 -0.7629
 2692SOL    HW119712   3.108   0.685   1.575 -1.4395 -1.6153 -0.9749
 2692SOL    HW219713   3.008   0.642   1.477  2.4796 -1.2374 -1.3553
 2693SOL     OW19714   2.410   1.290  11.907  0.2398 -0.4245 -0.7020
 2693SOL    HW119715   2.377   1.245  11.829  0.5766 -0.7712 -0.6398
 2693SOL    HW219716   2.471   1.354  11.870  0.6615 -1.5184 -1.8607
 2694SOL     OW19717   3.552   0.272   9.116 -0.5112 -0.3944  0.3475
 2694SOL    HW119718   3.575   0.351   9.165  1.2681 -0.1391 -0.8859
 2694SOL    HW219719   3.615   0.275   9.043  1.2496 -0.5462  1.8492
 2695SOL     OW19720   3.511   3.824   1.707 -0.6580  0.6421 -0.0083
 2695SOL    HW119721   3.543   3.870   1.785  0.5578 -2.1576  1.1551
 2695SOL    HW219722   3.420   3.853   1.719  0.1612  2.0790  2.7476
 2696SOL     OW19723   2.965   0.174   3.878 -0.6618 -0.7344 -0.1054
 2696SOL    HW119724   3.025   0.210   3.813  0.4639 -3.1848 -0.4485
 2696SOL    HW219725   2.891   0.162   3.818  0.2262  1.0246 -1.5590
 2697SOL     OW19726   3.939   4.050  16.598  0.2996 -0.6731 -0.2109
 2697SOL    HW119727   3.845   4.054  16.578  0.9899  0.3292 -3.2403
 2697SOL    HW219728   3.956   4.117  16.665  2.9283 -0.7348 -0.8302
 2698SOL     OW19729   1.474   3.908   6.688  1.0052 -0.7390  0.3485
 2698SOL    HW119730   1.530   3.831   6.701 -0.2234 -1.5574  0.7290
 2698SOL    HW219731   1.438   3.868   6.609  0.3464  1.4694 -0.4734
 2699SOL     OW19732   4.222   2.375   3.405 -0.2920  0.0617 -0.2893
 2699SOL    HW119733   4.307   2.419   3.409 -0.9983  1.4285 -0.3133
 2699SOL    HW219734   4.197   2.364   3.496  1.4673  1.2463  0.3270
 2700SOL     OW19735   0.298   0.042   0.678  0.0196 -0.0399  0.3812
 2700SOL    HW119736   0.313   4.701   0.626  1.3140  0.0211  0.6654
 2700SOL    HW219737   0.389   0.070   0.693  0.3414 -0.0622 -1.5608
 2701SOL     OW19738   1.247   1.654   3.258 -0.4040 -0.2334  0.1187
 2701SOL    HW119739   1.159   1.691   3.251 -0.3950 -0.7645 -2.8905
 2701SOL    HW219740   1.270   1.617   3.173 -2.6909 -1.5210  0.0723
 2702SOL     OW19741   2.474   1.209   8.342  0.0472  0.1304 -0.4221
 2702SOL    HW119742   2.528   1.268   8.395 -0.5356  0.3721 -0.0934
 2702SOL    HW219743   2.405   1.197   8.407 -0.8456  0.1180 -1.3563
 2703SOL     OW19744   2.458   0.260   3.772  0.2867  0.0843 -0.3707
 2703SOL    HW119745   2.433   0.303   3.690 -2.2154 -0.1017  0.3147
 2703SOL    HW219746   2.446   0.333   3.833 -0.9595 -0.0305 -0.4866
 2704SOL     OW19747   0.094   0.546   7.215  0.6827  0.1703 -0.0811
 2704SOL    HW119748   0.016   0.591   7.180  0.2117  0.2627  1.1072
 2704SOL    HW219749   0.075   0.455   7.193 -0.6280 -0.0225  1.8201
 2705SOL     OW19750   1.452   4.081   8.450  0.1646 -0.1864 -0.4953
 2705SOL    HW119751   1.380   4.042   8.500 -1.5094 -0.2210 -2.9031
 2705SOL    HW219752   1.531   4.034   8.474  0.0895 -0.9217 -1.7081
 2706SOL     OW19753   3.941   1.279  17.472  0.4846 -0.1565  0.3749
 2706SOL    HW119754   3.964   1.186  17.472  0.7028 -0.1005 -1.8539
 2706SOL    HW219755   3.864   1.282  17.527  1.5743 -0.4135  1.9081
 2707SOL     OW19756   4.647   1.243   7.310 -0.4861 -0.2066 -0.7143
 2707SOL    HW119757   4.659   1.174   7.375 -2.4794  2.8594  2.9253
 2707SOL    HW219758   4.622   1.184   7.239 -1.6595  0.0203 -0.4947
 2708SOL     OW19759   0.095   2.066   1.968 -0.3731 -0.0431  0.1259
 2708SOL    HW119760   0.094   1.983   2.015  1.2607 -0.0053  0.2509
 2708SOL    HW219761   0.119   2.136   2.028 -0.9504 -1.3881  1.9336
 2709SOL     OW19762   1.771   1.329  15.408  0.2615 -0.4717  0.3867
 2709SOL    HW119763   1.839   1.348  15.473  0.9756 -2.6805  0.2800
 2709SOL    HW219764   1.690   1.352  15.453  0.1287  1.3746 -0.7740
 2710SOL     OW19765   2.330   2.570   3.796 -0.1634  0.8241  0.1597
 2710SOL    HW119766   2.354   2.661   3.779  0.2854  0.0850 -3.0592
 2710SOL    HW219767   2.385   2.534   3.726  0.1066  0.4726  0.5539
 2711SOL     OW19768   2.161   0.200   6.963  0.5607 -0.3424 -0.0680
 2711SOL    HW119769   2.177   0.235   7.051 -0.9544 -0.8419  0.4148
 2711SOL    HW219770   2.092   0.140   6.991  0.9882 -1.0806 -0.6180
 2712SOL     OW19771   1.839   4.154   3.026  0.1101  0.3692 -0.4649
 2712SOL    HW119772   1.883   4.233   2.995 -0.9731  1.1634  0.0147
 2712SOL    HW219773   1.908   4.088   3.029 -1.8982 -1.7032  0.0356
 2713SOL     OW19774   0.699   3.718  17.277 -0.3102 -0.4544  0.0923
 2713SOL    HW119775   0.662   3.650  17.220 -0.7614  1.0190 -1.3462
 2713SOL    HW219776   0.617   3.762  17.297 -0.1248  0.1161 -0.4130
 2714SOL     OW19777   1.681   4.279   2.442  0.2498 -0.2262 -0.1250
 2714SOL    HW119778   1.610   4.267   2.380 -0.3726 -1.6291  0.8768
 2714SOL    HW219779   1.720   4.193   2.428  1.9025  0.4231  0.4096
 2715SOL     OW19780   0.804   2.506   9.864 -0.4631  0.1930 -0.3408
 2715SOL    HW119781   0.841   2.585   9.823  1.4696 -1.4598 -1.7841
 2715SOL    HW219782   0.840   2.515   9.952 -0.2499  0.6228 -0.4676
 2716SOL     OW19783   2.395   2.062   3.673 -0.1920  0.2507  0.4013
 2716SOL    HW119784   2.429   2.006   3.604  0.1914  2.0052 -0.8394
 2716SOL    HW219785   2.459   2.045   3.741 -1.3799 -0.5434  1.3282
 2717SOL     OW19786   0.299   4.416  15.164  0.0947 -0.2243  0.0385
 2717SOL    HW119787   0.245   4.360  15.108  1.6885 -0.9166 -0.8009
 2717SOL    HW219788   0.365   4.446  15.101  0.3646 -1.9494 -0.4795
 2718SOL     OW19789   0.951   1.881  12.554 -0.1508  0.7102 -0.5219
 2718SOL    HW119790   0.879   1.938  12.579 -1.1371 -0.6200 -0.3532
 2718SOL    HW219791   0.998   1.861  12.635 -1.0610 -2.0961 -0.6831
 2719SOL     OW19792   2.441   4.326   7.170  0.8404  0.3693 -0.2627
 2719SOL    HW119793   2.522   4.305   7.215  0.4662 -0.5077 -0.0045
 2719SOL    HW219794   2.386   4.336   7.248  0.5946 -1.6726 -0.1984
 2720SOL     OW19795   1.834   2.145   4.280  0.0559 -0.7061 -0.1407
 2720SOL    HW119796   1.861   2.207   4.348  0.3703 -0.0131 -0.8915
 2720SOL    HW219797   1.743   2.123   4.302 -0.2519  0.0991 -0.5962
 2721SOL     OW19798   0.886   3.875  16.961  0.6009  0.5322  0.1572
 2721SOL    HW119799   0.892   3.956  16.911 -2.3090  0.0307 -0.9405
 2721SOL    HW219800   0.820   3.828  16.911  0.7133  1.2669 -0.6767
 2722SOL     OW19801   1.155   2.037   3.472 -0.0836  0.0838  0.0144
 2722SOL    HW119802   1.081   2.067   3.526 -1.2077 -1.7060 -0.5259
 2722SOL    HW219803   1.156   2.093   3.395  2.9991 -0.9988 -0.7098
 2723SOL     OW19804   1.982   4.316   7.536 -0.2271  0.2589 -0.0948
 2723SOL    HW119805   1.921   4.281   7.602 -0.7505 -1.3159 -1.4045
 2723SOL    HW219806   1.958   4.261   7.462 -0.2707  0.2003 -0.0372
 2724SOL     OW19807   1.560   1.166   8.917 -0.6934  0.2068 -0.1800
 2724SOL    HW119808   1.588   1.251   8.884  1.3642 -0.6476 -0.6046
 2724SOL    HW219809   1.520   1.126   8.840  1.0980 -1.8613 -0.0271
 2725SOL     OW19810   1.716   2.945   6.633  0.3018  0.5344  0.4568
 2725SOL    HW119811   1.776   2.956   6.707 -0.7416  0.2616  1.3421
 2725SOL    HW219812   1.779   2.925   6.565  2.2184  3.3955  1.3845
 2726SOL     OW19813   0.923   3.015   7.545 -0.1983 -0.5121  0.0714
 2726SOL    HW119814   0.898   2.937   7.495 -0.7883  0.5266 -1.2622
 2726SOL    HW219815   0.925   3.080   7.475 -2.3521 -1.2716 -0.7077
 2727SOL     OW19816   0.493   1.406   5.978 -0.0624 -0.4326  0.0162
 2727SOL    HW119817   0.401   1.422   5.955 -0.7354 -2.1694  1.4792
 2727SOL    HW219818   0.534   1.451   5.904  0.1510  0.0545  0.4282
 2728SOL     OW19819   0.510   0.063   9.187 -0.2232  0.3377  0.0331
 2728SOL    HW119820   0.527   0.041   9.095 -0.1718 -0.6251  0.2695
 2728SOL    HW219821   0.590   0.110   9.209 -1.8088  3.2181 -0.4036
 2729SOL     OW19822   1.941   4.690   4.401  0.4587  0.2744 -0.6661
 2729SOL    HW119823   1.868   4.673   4.460 -0.2115  1.8730 -1.0423
 2729SOL    HW219824   1.951   4.605   4.358  2.5805 -0.6903  1.7173
 2730SOL     OW19825   2.028   4.057  11.067 -0.1099 -0.8535 -0.5270
 2730SOL    HW119826   2.020   3.967  11.096  1.9113 -0.5677  0.8550
 2730SOL    HW219827   2.028   4.112  11.145  1.0665 -3.1848  1.1109
 2731SOL     OW19828   1.366   4.515  14.920 -0.1827 -0.4462  0.0051
 2731SOL    HW119829   1.317   4.529  14.839 -1.5151  0.4410  0.9604
 2731SOL    HW219830   1.430   4.586  14.921 -0.9119  0.2152 -0.7296
 2732SOL     OW19831   4.331   0.048  11.730  0.3388 -0.3225 -0.6399
 2732SOL    HW119832   4.378   0.016  11.652 -0.7510  0.5138 -1.6522
 2732SOL    HW219833   4.410   0.048  11.783  1.2318 -0.6817 -1.9586
 2733SOL     OW19834   1.075   1.556   3.629  0.3435 -0.4356 -0.1535
 2733SOL    HW119835   0.983   1.531   3.640  0.1214  0.7834  0.7696
 2733SOL    HW219836   1.096   1.507   3.550 -2.6998  0.4560 -1.5240
 2734SOL     OW19837   3.065   3.715   7.267 -0.1173  0.2268 -0.4161
 2734SOL    HW119838   3.092   3.792   7.316  1.0694 -1.8687  2.2586
 2734SOL    HW219839   2.976   3.738   7.242 -1.0341 -1.9936  0.8294
 2735SOL     OW19840   2.076   2.184  12.636  0.1083 -0.0691 -0.5137
 2735SOL    HW119841   2.169   2.165  12.626  0.5270  1.0078  1.4501
 2735SOL    HW219842   2.062   2.150  12.724  0.4914 -0.1669 -0.4925
 2736SOL     OW19843   1.023   3.251   6.261  0.2782  0.9707  0.4018
 2736SOL    HW119844   1.030   3.321   6.326  0.9759  0.8784  0.4252
 2736SOL    HW219845   1.116   3.228   6.254  0.7324  2.6724  0.8766
 2737SOL     OW19846   0.040   0.681   9.208  0.0945  0.2093 -0.4595
 2737SOL    HW119847   0.074   0.639   9.129  1.1524 -1.7954  1.0593
 2737SOL    HW219848   0.061   0.615   9.275  0.5833  1.1732  0.3346
 2738SOL     OW19849   0.196   2.765   4.592  0.3207  0.1765 -0.2040
 2738SOL    HW119850   0.105   2.756   4.619 -0.1534  2.0112 -1.1241
 2738SOL    HW219851   0.227   2.677   4.612  2.2275  1.2773  1.6038
 2739SOL     OW19852   3.112   2.362   3.623 -0.1796  0.3282  0.0518
 2739SOL    HW119853   3.170   2.327   3.555 -0.0254 -1.1326  0.9402
 2739SOL    HW219854   3.119   2.293   3.689  1.9918  0.5478  0.0844
 2740SOL     OW19855   3.242   1.368  11.054 -0.1123 -0.2410  0.4383
 2740SOL    HW119856   3.317   1.342  11.107  0.4113  2.8345  1.2318
 2740SOL    HW219857   3.269   1.456  11.027  0.5044 -1.1896 -1.9672
 2741SOL     OW19858   3.879   0.467   2.732  0.3445  0.2455  0.1676
 2741SOL    HW119859   3.939   0.475   2.657  2.1730 -0.2693  1.5787
 2741SOL    HW219860   3.845   0.378   2.719  0.2154 -0.1927  3.5457
 2742SOL     OW19861   4.178   4.473   7.856 -0.0781  0.1966  0.3750
 2742SOL    HW119862   4.180   4.524   7.936 -0.1190  0.8142 -0.0158
 2742SOL    HW219863   4.086   4.446   7.863 -0.5804  1.9474  0.5446
 2743SOL     OW19864   1.049   4.105   7.483  0.0401 -0.1918 -0.2243
 2743SOL    HW119865   0.967   4.128   7.525  0.9272  0.5729  1.0916
 2743SOL    HW219866   1.061   4.012   7.499 -2.9907 -0.9121 -2.2777
 2744SOL     OW19867   2.059   2.275   5.024  0.0624 -0.2352  0.3200
 2744SOL    HW119868   2.003   2.247   5.097  0.5457  0.2350  0.8700
 2744SOL    HW219869   2.141   2.230   5.046  0.3132  1.2505  2.3417
 2745SOL     OW19870   3.051   1.590  17.283  0.1665  0.5192  0.6282
 2745SOL    HW119871   2.997   1.653  17.235  0.1738  1.7593  2.2195
 2745SOL    HW219872   3.125   1.584  17.224  1.4558 -0.0374  2.3052
 2746SOL     OW19873   1.320   1.083   2.285  0.9970 -0.1289  0.0671
 2746SOL    HW119874   1.352   1.167   2.317 -0.1810  0.8771 -1.3569
 2746SOL    HW219875   1.344   1.084   2.192 -2.8847 -1.4179 -0.9522
 2747SOL     OW19876   2.009   2.688   7.101  0.4605  0.0450 -0.6730
 2747SOL    HW119877   2.038   2.615   7.156 -0.4809 -1.8913 -2.7549
 2747SOL    HW219878   2.092   2.734   7.087  0.6406  0.2669  1.0777
 2748SOL     OW19879   0.067   1.115   5.672 -0.1339  0.2952 -0.3236
 2748SOL    HW119880   0.091   1.207   5.659 -0.9153  0.7092  1.0634
 2748SOL    HW219881   4.718   1.134   5.705 -0.8950  0.0988 -2.2544
 2749SOL     OW19882   1.982   3.297   8.672  0.0798 -0.6659 -0.1681
 2749SOL    HW119883   1.907   3.251   8.633  0.0278  0.0383 -0.9000
 2749SOL    HW219884   2.055   3.262   8.621  2.8613  1.2098  2.5695
 2750SOL     OW19885   4.088   2.447   3.786  0.0594 -0.4110  0.3160
 2750SOL    HW119886   4.020   2.391   3.749  1.1732 -0.5922 -1.5237
 2750SOL    HW219887   4.061   2.519   3.729 -1.4008 -1.0778  0.1630
 2751SOL     OW19888   0.734   1.783   5.189 -0.1281 -0.6915  0.3908
 2751SOL    HW119889   0.814   1.731   5.178 -0.1634  0.1830 -3.9663
 2751SOL    HW219890   0.768   1.840   5.257 -2.2075  1.3750 -0.3193
 2752SOL     OW19891   1.397   3.574  16.707  0.3473  0.5743  0.0758
 2752SOL    HW119892   1.349   3.497  16.677  0.6904  0.0641  0.7999
 2752SOL    HW219893   1.472   3.554  16.650 -1.1387 -1.5204 -1.1152
 2753SOL     OW19894   2.551   0.254   0.319  0.0484  0.1879 -0.0667
 2753SOL    HW119895   2.593   0.176   0.355  0.9174  1.3941  1.5162
 2753SOL    HW219896   2.621   0.317   0.340  2.3509 -2.6089  0.6030
 2754SOL     OW19897   4.422   2.784   3.951  0.3477 -0.3670 -0.9314
 2754SOL    HW119898   4.400   2.751   3.864 -0.7271 -0.3487 -0.6713
 2754SOL    HW219899   4.345   2.841   3.953  2.7021  2.7980 -0.7262
 2755SOL     OW19900   3.952   3.447   3.951 -0.1954 -0.4578 -0.2180
 2755SOL    HW119901   3.980   3.534   3.979 -1.8520  0.0636 -0.1645
 2755SOL    HW219902   3.892   3.426   4.022 -2.6716  2.3056 -1.4803
 2756SOL     OW19903   1.217   3.819  12.245  0.2068  0.6762 -0.0736
 2756SOL    HW119904   1.245   3.741  12.196 -0.6023  0.2848  0.0897
 2756SOL    HW219905   1.279   3.884  12.212 -0.6341  1.2518 -0.4947
 2757SOL     OW19906   3.536   3.872   2.043  0.4531  0.2364  0.1336
 2757SOL    HW119907   3.570   3.882   2.132  0.1865 -0.9205  0.3755
 2757SOL    HW219908   3.530   3.777   2.032 -0.7901  0.4996 -1.4233
 2758SOL     OW19909   4.575   2.036   7.981 -0.2803  0.5656 -0.3329
 2758SOL    HW119910   4.583   1.961   7.922 -0.7328 -1.2606  1.8993
 2758SOL    HW219911   4.660   2.080   7.977  0.0099  0.2650  2.0577
 2759SOL     OW19912   1.262   4.269   6.574 -0.0141 -0.0247 -0.2788
 2759SOL    HW119913   1.314   4.343   6.605 -0.5518  0.2262  0.0342
 2759SOL    HW219914   1.324   4.219   6.522  1.5896  0.5095  1.1163
 2760SOL     OW19915   3.195   1.983  11.155 -0.3063 -0.4479  0.5032
 2760SOL    HW119916   3.215   2.052  11.091 -1.4516  2.2502  3.1011
 2760SOL    HW219917   3.113   1.950  11.118 -0.2078 -1.1090  0.8864
 2761SOL     OW19918   1.007   2.023   7.160 -0.2997 -0.1042 -0.0622
 2761SOL    HW119919   1.100   2.025   7.181  0.1429  2.1663 -2.1410
 2761SOL    HW219920   0.999   2.109   7.118 -2.0515 -0.1643  0.1526
 2762SOL     OW19921   1.660   2.766   0.151  0.1331  0.9037  0.6096
 2762SOL    HW119922   1.601   2.811   0.090 -1.1182 -3.3272 -1.3032
 2762SOL    HW219923   1.684   2.682   0.111  0.8294  1.0851  0.6448
 2763SOL     OW19924   3.561   3.386   4.895  0.2670 -0.5086 -0.0848
 2763SOL    HW119925   3.530   3.456   4.838  0.5182  0.1350  0.5623
 2763SOL    HW219926   3.474   3.352   4.915  0.1848 -1.0335 -1.3177
 2764SOL     OW19927   3.187   0.976   7.147  0.2132 -0.2719 -0.0691
 2764SOL    HW119928   3.106   1.012   7.184 -0.1898 -0.4110 -0.8187
 2764SOL    HW219929   3.208   0.924   7.225  1.5924 -0.0291 -0.2873
 2765SOL     OW19930   0.306   1.188  12.383  0.1207  0.1044 -0.3217
 2765SOL    HW119931   0.264   1.122  12.438 -0.8687 -1.9651 -3.5644
 2765SOL    HW219932   0.349   1.240  12.451  0.4680  1.1832 -1.3780
 2766SOL     OW19933   2.664   3.621  10.002  0.0976 -0.0672 -0.0923
 2766SOL    HW119934   2.708   3.702   9.976 -2.4738  1.6474  0.9441
 2766SOL    HW219935   2.642   3.640  10.093 -0.7384  1.2401 -0.5710
 2767SOL     OW19936   3.096   3.952   3.876 -0.6297  0.3903 -0.6158
 2767SOL    HW119937   3.025   4.017   3.873 -0.3702  0.7008 -0.0163
 2767SOL    HW219938   3.164   4.011   3.844 -0.2047  0.0111 -0.4029
 2768SOL     OW19939   3.382   4.554   4.103 -0.3183  0.1376 -0.4396
 2768SOL    HW119940   3.288   4.562   4.115 -0.6851 -0.7715 -2.7075
 2768SOL    HW219941   3.408   4.579   4.191 -0.0639 -0.4305 -0.3564
 2769SOL     OW19942   0.897   0.461   9.095 -0.7825 -0.2107  0.0411
 2769SOL    HW119943   0.930   0.416   9.017  0.2981  0.5128  0.0903
 2769SOL    HW219944   0.981   0.490   9.130 -2.0127  3.1075  0.2204
 2770SOL     OW19945   2.144   4.402   6.017 -0.1111 -0.5203 -0.0093
 2770SOL    HW119946   2.184   4.474   6.065 -2.5860  1.3171 -0.7265
 2770SOL    HW219947   2.064   4.442   5.983  0.7551  1.0289 -0.2057
 2771SOL     OW19948   1.265   0.481   6.819  0.4097 -0.8999  0.1404
 2771SOL    HW119949   1.197   0.492   6.752 -0.3779 -3.2681  0.5374
 2771SOL    HW219950   1.246   0.388   6.831 -1.8024 -0.3293  1.1335
 2772SOL     OW19951   1.899   2.235   0.476 -0.0551  0.0003  0.2031
 2772SOL    HW119952   1.880   2.144   0.454  2.8681 -0.7637  0.9079
 2772SOL    HW219953   1.815   2.270   0.506 -0.2142 -0.1985 -0.0071
 2773SOL     OW19954   3.172   0.349  16.399  0.1970  0.1662  0.6438
 2773SOL    HW119955   3.204   0.344  16.309 -1.2016  0.5628  0.1277
 2773SOL    HW219956   3.177   0.258  16.429  0.0859 -0.3922 -1.0079
 2774SOL     OW19957   1.481   2.339   2.273 -0.2077 -0.7913 -0.4447
 2774SOL    HW119958   1.443   2.305   2.354  1.4838  0.8481  1.0342
 2774SOL    HW219959   1.573   2.345   2.297 -0.2105 -1.7625 -0.1984
 2775SOL     OW19960   1.081   0.053   3.052  0.6184 -0.7196 -0.0436
 2775SOL    HW119961   1.155   0.085   3.000 -0.0806  2.8085  1.0853
 2775SOL    HW219962   1.116   4.724   3.109  1.0620  0.6375  1.3163
 2776SOL     OW19963   1.694   0.753  11.428  0.0659  0.0238 -0.0620
 2776SOL    HW119964   1.614   0.716  11.390 -0.7442  1.4804  0.2064
 2776SOL    HW219965   1.654   0.761  11.515  1.8487  0.4013  0.7076
 2777SOL     OW19966   0.620   3.460   8.057 -0.3394 -0.3363  0.0665
 2777SOL    HW119967   0.650   3.455   7.966 -0.0109 -0.1520  0.1626
 2777SOL    HW219968   0.702   3.456   8.107 -1.3914 -0.2488  1.7872
 2778SOL     OW19969   0.388   0.883   0.191 -0.2974  0.8939  0.1934
 2778SOL    HW119970   0.350   0.860   0.107 -2.6230 -0.6679  1.6962
 2778SOL    HW219971   0.373   0.978   0.197 -0.5641  0.7905  1.0837
 2779SOL     OW19972   0.050   2.156   6.380  0.3825 -0.2626  0.4972
 2779SOL    HW119973   0.052   2.231   6.321 -0.3023 -1.5099 -1.1102
 2779SOL    HW219974   0.141   2.152   6.409  0.7015 -1.4415 -0.6799
 2780SOL     OW19975   0.493   3.686  17.587  0.0464 -0.1875 -0.5509
 2780SOL    HW119976   0.564   3.745  17.612 -1.7140  0.4097  3.0889
 2780SOL    HW219977   0.431   3.734  17.532  0.2475  1.2838  0.4908
 2781SOL     OW19978   0.652   4.583   0.296  0.3368 -0.3016  0.0665
 2781SOL    HW119979   0.704   4.515   0.253 -0.1082  0.7333 -2.1147
 2781SOL    HW219980   0.603   4.523   0.352 -0.5040  1.2688  1.0153
 2782SOL     OW19981   2.390   0.071   1.647 -0.2478 -0.6124 -0.5936
 2782SOL    HW119982   2.430   4.726   1.669  0.2455 -0.6995 -1.8059
 2782SOL    HW219983   2.359   0.045   1.560  0.9458 -0.9917 -0.9062
 2783SOL     OW19984   3.663   0.514   8.499  0.4616 -0.0492  0.0898
 2783SOL    HW119985   3.624   0.477   8.419  0.0333  0.2548  0.1598
 2783SOL    HW219986   3.649   0.608   8.496  1.1354  0.1324  3.3386
 2784SOL     OW19987   0.061   2.703   5.186 -0.5264  0.4850 -0.5157
 2784SOL    HW119988   0.057   2.797   5.166  2.5950  0.6124 -0.4204
 2784SOL    HW219989   0.079   2.657   5.104  0.6679 -1.2921  0.7628
 2785SOL     OW19990   3.884   4.316  16.240  0.4915 -0.1597  0.3691
 2785SOL    HW119991   3.903   4.224  16.223  0.3542 -0.0985 -0.1196
 2785SOL    HW219992   3.815   4.339  16.178  1.0231 -1.9431 -0.8693
 2786SOL     OW19993   2.410   1.146  13.650 -0.0439  0.2329 -0.2570
 2786SOL    HW119994   2.463   1.129  13.728  1.1803  0.5908 -0.9994
 2786SOL    HW219995   2.328   1.170  13.692  0.2557  2.9827 -1.2486
 2787SOL     OW19996   0.141   3.440  17.327  0.6518  0.4456  0.3990
 2787SOL    HW119997   0.144   3.424  17.233  1.4742  1.8584  0.1777
 2787SOL    HW219998   0.046   3.428  17.337  0.8164 -0.6821  0.4908
 2788SOL     OW19999   4.550   4.183  15.197  0.4606  0.6982  0.1043
 2788SOL    HW120000   4.615   4.250  15.176 -0.9795  2.3636  1.0436
 2788SOL    HW220001   4.476   4.232  15.232 -1.1881 -3.0249  1.8470
 2789SOL     OW20002   1.412   1.116   4.065 -0.2179 -0.0422 -0.1459
 2789SOL    HW120003   1.404   1.028   4.102 -1.5670  0.7635  1.4487
 2789SOL    HW220004   1.318   1.127   4.054  0.0384  1.9047 -0.3716
 2790SOL     OW20005   0.620   0.325   0.419 -0.5302  0.5966 -0.2408
 2790SOL    HW120006   0.602   0.241   0.463 -1.6455  0.6510 -0.6064
 2790SOL    HW220007   0.641   0.292   0.332 -0.0668  2.1741 -0.7234
 2791SOL     OW20008   1.512   1.077   6.410 -0.3072 -0.5310  0.1852
 2791SOL    HW120009   1.525   1.145   6.345  1.8326  0.4232  1.5927
 2791SOL    HW220010   1.584   1.015   6.394 -0.8669 -1.4107  1.0123
 2792SOL     OW20011   3.703   0.020   2.939 -0.0667  0.4768  0.4765
 2792SOL    HW120012   3.770   0.012   2.872 -1.1202  3.0478 -0.8790
 2792SOL    HW220013   3.637   4.700   2.901 -0.4318 -0.2851  2.2518
 2793SOL     OW20014   3.885   2.966   9.837 -0.4186 -0.3957 -0.1155
 2793SOL    HW120015   3.803   2.986   9.881  1.2297  1.6721  1.9874
 2793SOL    HW220016   3.862   2.877   9.812 -3.8171  0.3068  0.6062
 2794SOL     OW20017   1.859   0.894   0.161  0.3494 -0.2078  0.0229
 2794SOL    HW120018   1.884   0.867   0.073  0.6385 -0.1038  0.0755
 2794SOL    HW220019   1.764   0.910   0.158  0.4930  0.1379 -2.6106
 2795SOL     OW20020   0.658   3.713   1.041 -0.6425 -0.2704  1.0786
 2795SOL    HW120021   0.581   3.723   1.097  0.6159 -0.5933  2.8794
 2795SOL    HW220022   0.688   3.804   1.035 -0.1561 -0.6196 -1.9809
 2796SOL     OW20023   0.436   0.896   7.429 -0.0172  0.1549  0.1873
 2796SOL    HW120024   0.351   0.892   7.387  0.2146 -0.0877 -0.2532
 2796SOL    HW220025   0.457   0.989   7.415  1.0559 -0.3225 -1.2738
 2797SOL     OW20026   2.330   4.531   1.845 -0.6096 -0.5868 -0.1709
 2797SOL    HW120027   2.326   4.595   1.916 -3.3268 -0.8640 -0.0964
 2797SOL    HW220028   2.271   4.461   1.874 -1.0760 -1.1385 -2.4357
 2798SOL     OW20029   4.314   3.112   5.088  0.1490  0.0871  0.0690
 2798SOL    HW120030   4.265   3.039   5.126  0.6277 -0.2362  0.0507
 2798SOL    HW220031   4.240   3.151   5.041  1.1705  2.7725  0.6380
 2799SOL     OW20032   2.209   1.728   5.599 -0.0331 -0.5117  0.4127
 2799SOL    HW120033   2.229   1.811   5.555  2.0041  0.3102  2.8701
 2799SOL    HW220034   2.295   1.685   5.603  1.2551  2.1846  1.6848
 2800SOL     OW20035   2.975   0.594   6.613  0.6923 -0.3453  0.4370
 2800SOL    HW120036   2.890   0.559   6.584  1.2554 -1.8126  0.5988
 2800SOL    HW220037   2.945   0.633   6.695 -0.8628 -3.3260  1.2897
 2801SOL     OW20038   1.395   2.965   6.805 -0.1332 -0.0012 -0.0740
 2801SOL    HW120039   1.378   2.979   6.898  1.2894 -0.8364  0.3195
 2801SOL    HW220040   1.351   2.884   6.777 -0.6536  0.5053 -0.7072
 2802SOL     OW20041   1.189   1.649  15.396 -0.9198  0.1406 -0.0931
 2802SOL    HW120042   1.284   1.647  15.385 -0.7054 -0.3305  1.8144
 2802SOL    HW220043   1.174   1.709  15.323  0.0897  0.5428  0.0271
 2803SOL     OW20044   3.453   1.926   2.565  0.0549 -0.3685 -0.5932
 2803SOL    HW120045   3.451   1.990   2.636  2.2494 -1.4235  0.4091
 2803SOL    HW220046   3.463   1.981   2.488  0.5417  2.7726  1.7122
 2804SOL     OW20047   0.735   4.392  10.636 -0.0429  0.0625  0.2368
 2804SOL    HW120048   0.759   4.459  10.699 -1.2074  1.4496 -0.7985
 2804SOL    HW220049   0.698   4.454  10.573  0.3097 -0.5926 -0.6120
 2805SOL     OW20050   4.238   3.032  15.993 -0.2683 -0.2049  0.1680
 2805SOL    HW120051   4.183   3.096  16.038 -0.5081  0.4658 -1.0641
 2805SOL    HW220052   4.295   3.094  15.948 -0.7330  1.1430  1.4649
 2806SOL     OW20053   3.354   2.278   4.004  0.1153  0.4326  0.0467
 2806SOL    HW120054   3.338   2.366   4.036  0.2395  0.8238 -0.9526
 2806SOL    HW220055   3.443   2.261   4.035 -0.1089 -0.3490  0.2725
 2807SOL     OW20056   4.595   4.003   4.711 -0.0465  0.0283  0.3460
 2807SOL    HW120057   4.635   3.959   4.636 -0.2254  1.3817 -0.5416
 2807SOL    HW220058   4.572   4.090   4.679 -4.9912 -1.8758 -1.3666
 2808SOL     OW20059   1.401   4.550   0.291  0.7806 -0.5091 -0.1204
 2808SOL    HW120060   1.404   4.607   0.214  2.1742  0.3546  0.5685
 2808SOL    HW220061   1.313   4.513   0.297 -0.3265  2.1234 -0.3634
 2809SOL     OW20062   3.149   1.277   3.944 -0.0485  0.3212 -0.0153
 2809SOL    HW120063   3.166   1.260   4.036 -3.2334  0.3236  0.5763
 2809SOL    HW220064   3.086   1.348   3.955 -1.8077 -1.1018 -0.9998
 2810SOL     OW20065   0.076   1.258   4.916 -0.5027  0.1189 -0.4434
 2810SOL    HW120066   0.076   1.336   4.971  0.7143 -0.8502  0.9377
 2810SOL    HW220067   0.096   1.297   4.831  2.8955  0.0653  0.3264
 2811SOL     OW20068   4.576   4.418   6.338  0.1409  0.5219  0.8737
 2811SOL    HW120069   4.534   4.502   6.355 -2.3169 -0.5711  0.3042
 2811SOL    HW220070   4.671   4.425   6.346  0.2974 -0.7071  0.1931
 2812SOL     OW20071   4.016   0.930   1.519 -0.0210  0.1085 -0.4288
 2812SOL    HW120072   4.036   1.019   1.550  0.6047 -0.1132 -0.1969
 2812SOL    HW220073   4.091   0.887   1.559 -0.9836 -1.1409  0.0498
 2813SOL     OW20074   4.353   0.383   5.408 -0.3986 -0.6012  0.0604
 2813SOL    HW120075   4.422   0.407   5.468 -2.1419  1.9375  1.0532
 2813SOL    HW220076   4.273   0.425   5.441  1.2725  1.9133  0.8675
 2814SOL     OW20077   0.354   4.488   4.516  0.3874  0.1682 -0.3944
 2814SOL    HW120078   0.296   4.554   4.477 -0.9288 -1.7040 -1.6261
 2814SOL    HW220079   0.422   4.548   4.545  0.6833 -0.7690  0.8867
 2815SOL     OW20080   0.768   0.044   6.861  0.3881  0.3090 -0.1281
 2815SOL    HW120081   0.759   0.022   6.953 -3.5132 -0.2748 -0.6344
 2815SOL    HW220082   0.681   0.025   6.826 -0.4424 -1.5675  2.9881
 2816SOL     OW20083   1.013   2.411   5.176  0.2287 -0.4156 -0.4402
 2816SOL    HW120084   1.097   2.368   5.190  0.2912  0.0393  0.5508
 2816SOL    HW220085   1.024   2.505   5.167 -1.7215 -0.1648 -0.3861
 2817SOL     OW20086   2.996   2.461   8.940 -0.3888  0.0735  0.3817
 2817SOL    HW120087   2.963   2.425   8.857 -0.7341  2.0306 -0.3528
 2817SOL    HW220088   3.059   2.391   8.950  3.4076  3.2240 -1.3917
 2818SOL     OW20089   0.640   0.747   4.501 -0.2900  0.5888  0.6503
 2818SOL    HW120090   0.642   0.841   4.520  0.1814  0.5176  0.9689
 2818SOL    HW220091   0.554   0.718   4.531 -1.4175  0.4351 -2.7438
 2819SOL     OW20092   3.272   3.980   4.279  0.0173 -0.4380  0.0098
 2819SOL    HW120093   3.347   3.954   4.226 -0.1560  0.3172 -0.6140
 2819SOL    HW220094   3.278   4.076   4.276 -0.9274 -0.3929 -0.2881
 2820SOL     OW20095   0.869   3.556   6.990  0.6101 -0.0124  0.9516
 2820SOL    HW120096   0.788   3.570   7.039  0.3200  3.8247 -0.5984
 2820SOL    HW220097   0.903   3.645   6.982  0.9037 -0.1663  0.4858
 2821SOL     OW20098   2.270   3.546   5.136 -0.1262 -0.0688  0.0942
 2821SOL    HW120099   2.361   3.542   5.106 -1.0711 -0.0609 -2.8385
 2821SOL    HW220100   2.268   3.568   5.229  1.8967  0.2211  0.0515
 2822SOL     OW20101   3.470   3.743   9.855 -0.5575  0.1865  1.0047
 2822SOL    HW120102   3.426   3.658   9.847 -0.2239 -0.0871  1.9981
 2822SOL    HW220103   3.563   3.721   9.867 -0.0790  1.7369  0.0688
 2823SOL     OW20104   3.830   1.665   3.925 -0.2078 -0.3619  0.2039
 2823SOL    HW120105   3.785   1.689   3.845  0.0176  0.4276  0.3134
 2823SOL    HW220106   3.889   1.596   3.895  1.2368 -0.2236  2.7145
 2824SOL     OW20107   3.541   0.721   7.196 -0.0440 -0.2069  0.2107
 2824SOL    HW120108   3.532   0.801   7.144  1.6352  0.3321  0.7494
 2824SOL    HW220109   3.538   0.654   7.128  0.2879 -0.3995  0.3904
 2825SOL     OW20110   1.667   0.603  11.873  0.4613  0.1744  0.4384
 2825SOL    HW120111   1.743   0.582  11.819 -0.7089  2.6139 -2.1814
 2825SOL    HW220112   1.683   0.555  11.954  1.8515 -0.6520 -0.3179
 2826SOL     OW20113   3.658   3.445   2.756 -0.1030  0.7198 -0.1682
 2826SOL    HW120114   3.662   3.490   2.841 -0.4865  1.5800 -0.6025
 2826SOL    HW220115   3.614   3.366   2.784 -3.1619  2.1786 -0.9019
 2827SOL     OW20116   4.542   2.595  12.930  0.3961 -0.1352  0.1658
 2827SOL    HW120117   4.602   2.658  12.890  1.6996 -1.0333  0.7029
 2827SOL    HW220118   4.453   2.628  12.915  0.8014  1.0908  0.4617
 2828SOL     OW20119   2.049   3.789   8.538  0.1289 -0.0319  0.4582
 2828SOL    HW120120   2.108   3.848   8.491  0.5860 -0.9049 -0.0744
 2828SOL    HW220121   2.022   3.852   8.604 -0.2051  0.6763 -0.3591
 2829SOL     OW20122   3.046   3.946   9.871  0.7979 -0.2543 -0.4706
 2829SOL    HW120123   3.048   3.909   9.959  0.9090 -1.4442 -0.9701
 2829SOL    HW220124   3.125   3.919   9.823  2.0229 -0.3011  1.5673
 2830SOL     OW20125   0.188   0.847   5.248 -0.1506  0.2077 -0.3693
 2830SOL    HW120126   0.201   0.776   5.310 -1.7411  1.8583  1.8598
 2830SOL    HW220127   0.203   0.921   5.307  0.5916  0.5377 -0.9598
 2831SOL     OW20128   2.258   1.766   6.759  0.0046 -0.2539  0.0663
 2831SOL    HW120129   2.281   1.798   6.847 -0.3509  2.9565 -1.0024
 2831SOL    HW220130   2.225   1.679   6.783 -2.1554  1.3324  2.9285
 2832SOL     OW20131   4.525   0.799  13.701 -0.2324  0.2068 -0.4961
 2832SOL    HW120132   4.539   0.705  13.691 -0.7794  0.2419 -1.5442
 2832SOL    HW220133   4.613   0.828  13.723 -1.5646  2.3516  1.9630
 2833SOL     OW20134   2.190   3.641   1.993  0.2391  0.1964  0.6241
 2833SOL    HW120135   2.108   3.650   2.041  0.1917 -0.9496  0.7644
 2833SOL    HW220136   2.251   3.601   2.055  2.3879  1.8048 -0.4432
 2834SOL     OW20137   1.771   2.665   8.907 -0.0867  0.3202 -0.3935
 2834SOL    HW120138   1.754   2.615   8.828  1.2534  0.4316 -0.7480
 2834SOL    HW220139   1.831   2.731   8.873  0.8598  1.0388  2.6344
 2835SOL     OW20140   0.322   1.421   6.290 -0.2738  0.1033 -0.5191
 2835SOL    HW120141   0.301   1.511   6.312 -2.6611 -0.3256 -0.9633
 2835SOL    HW220142   0.416   1.425   6.275 -0.1905  0.5015  0.1486
 2836SOL     OW20143   2.113   1.600   7.154 -1.1598 -0.2003  0.0183
 2836SOL    HW120144   2.178   1.624   7.221 -0.4201  1.0346 -1.1390
 2836SOL    HW220145   2.070   1.527   7.198  1.0270 -2.6947 -1.9802
 2837SOL     OW20146   4.409   2.656   6.696 -0.2056  0.4295 -0.3975
 2837SOL    HW120147   4.369   2.588   6.749  0.0573  0.6538  0.0865
 2837SOL    HW220148   4.351   2.663   6.620 -0.0541  1.2606 -0.4415
 2838SOL     OW20149   1.656   2.630  12.292 -0.1936 -0.1233 -0.2286
 2838SOL    HW120150   1.637   2.658  12.382 -1.4811 -2.2439  0.1646
 2838SOL    HW220151   1.724   2.565  12.308 -0.3941 -0.1634  0.4809
 2839SOL     OW20152   0.071   2.425   6.564 -0.1144  0.6123  0.1729
 2839SOL    HW120153   0.020   2.506   6.571  0.7374  1.3148 -1.7335
 2839SOL    HW220154   0.014   2.377   6.503 -0.5697  0.1736  0.9441
 2840SOL     OW20155   4.041   4.325  15.674  0.5932 -0.3916  0.2105
 2840SOL    HW120156   4.067   4.259  15.610  1.7367 -1.0343  1.3411
 2840SOL    HW220157   3.965   4.278  15.710 -0.3271  1.1273  0.2695
 2841SOL     OW20158   1.711   2.760   5.647  1.0175  0.1027  0.0646
 2841SOL    HW120159   1.628   2.806   5.664  0.9286 -1.5110  4.0640
 2841SOL    HW220160   1.693   2.667   5.656 -2.6621  1.0053  2.0824
 2842SOL     OW20161   2.823   2.159   3.556 -0.0004  0.3582 -0.2125
 2842SOL    HW120162   2.905   2.136   3.511 -0.7765  0.5925 -1.7317
 2842SOL    HW220163   2.755   2.109   3.511  0.8705  0.0457 -1.2069
 2843SOL     OW20164   1.951   2.379   2.565 -0.0857 -0.4077 -0.2342
 2843SOL    HW120165   1.983   2.434   2.636 -1.5816  0.2135 -0.0234
 2843SOL    HW220166   2.031   2.336   2.536 -1.1933 -2.2109 -0.6120
 2844SOL     OW20167   1.003   4.114  12.889 -0.2839 -0.0477 -0.1597
 2844SOL    HW120168   1.020   4.020  12.884  2.4726  0.4322  0.3709
 2844SOL    HW220169   0.994   4.122  12.984  1.4376  1.0044 -0.1014
 2845SOL     OW20170   2.987   2.712   9.511 -0.3323  0.1211 -0.2231
 2845SOL    HW120171   2.962   2.692   9.421  1.1505  1.7754 -1.0224
 2845SOL    HW220172   3.059   2.769   9.483 -0.6881  1.1261  0.9145
 2846SOL     OW20173   4.250   4.259   7.665  0.0628 -0.2505  0.3394
 2846SOL    HW120174   4.265   4.348   7.697  2.5743 -0.8057  0.6537
 2846SOL    HW220175   4.171   4.271   7.612 -0.8153 -0.8975  1.5173
 2847SOL     OW20176   0.799   2.426   3.300  0.5561  0.5144 -0.5787
 2847SOL    HW120177   0.847   2.368   3.359  2.5338  1.9238 -0.7999
 2847SOL    HW220178   0.842   2.409   3.216  0.2508 -2.1679 -0.2063
 2848SOL     OW20179   2.028   0.624   5.454  0.1007  0.2512  0.2969
 2848SOL    HW120180   2.092   0.570   5.501 -0.1461 -0.4825 -0.2149
 2848SOL    HW220181   2.057   0.709   5.485  0.5041 -0.7497  2.6344
 2849SOL     OW20182   1.088   3.359   8.449  0.0724 -0.6241  0.5234
 2849SOL    HW120183   1.082   3.267   8.424 -0.0749 -0.6299  0.5779
 2849SOL    HW220184   1.177   3.368   8.482 -0.0173 -0.5558  0.7457
 2850SOL     OW20185   2.591   3.646   9.625  0.0431 -0.0628  0.0307
 2850SOL    HW120186   2.643   3.566   9.635 -0.1985 -0.4141 -1.4759
 2850SOL    HW220187   2.637   3.696   9.693 -0.5454  0.8728 -0.2578
 2851SOL     OW20188   3.285   1.020   7.496 -0.4349  0.6506  0.5343
 2851SOL    HW120189   3.334   0.975   7.427 -1.7855 -0.1104  0.0903
 2851SOL    HW220190   3.306   1.111   7.472  4.0915 -0.5498 -0.0878
 2852SOL     OW20191   1.577   4.136  17.296  0.2361  0.0956  0.1936
 2852SOL    HW120192   1.626   4.210  17.259 -0.4571  0.9227  0.9067
 2852SOL    HW220193   1.623   4.060  17.260  0.1018 -0.8386  2.0080
 2853SOL     OW20194   3.529   1.317  13.270 -0.0042  0.2346 -0.1312
 2853SOL    HW120195   3.623   1.322  13.255  0.1954 -0.5930  0.8899
 2853SOL    HW220196   3.500   1.408  13.274 -2.0162 -0.3783 -0.5264
 2854SOL     OW20197   1.536   2.189   1.067  0.8779 -0.0626 -0.5566
 2854SOL    HW120198   1.518   2.167   1.159  0.8667 -1.5443 -0.9204
 2854SOL    HW220199   1.446   2.172   1.041  0.5225  1.9853 -0.6885
 2855SOL     OW20200   3.407   1.751  17.667 -0.2779 -0.3492  0.6008
 2855SOL    HW120201   3.468   1.679  17.687 -3.9490 -3.9860 -1.1772
 2855SOL    HW220202   3.354   1.728  17.590 -0.8511  1.9333  0.3254
 2856SOL     OW20203   1.358   2.068   4.116  0.2131 -0.1094 -0.3617
 2856SOL    HW120204   1.302   2.065   4.194  2.8676 -1.2494  1.5013
 2856SOL    HW220205   1.295   2.078   4.044 -0.1981 -2.6883 -0.3632
 2857SOL     OW20206   0.931   3.311   4.819 -0.5002  0.0546 -0.1482
 2857SOL    HW120207   0.950   3.404   4.832 -2.3821  0.2635  1.0469
 2857SOL    HW220208   0.894   3.282   4.902  2.5823 -0.4277  1.0939
 2858SOL     OW20209   4.161   2.415   2.261  0.1867  0.2243 -0.4328
 2858SOL    HW120210   4.087   2.390   2.316 -0.9191  2.7589 -0.7685
 2858SOL    HW220211   4.230   2.449   2.318 -0.1991  1.3287 -0.6027
 2859SOL     OW20212   1.094   2.296   4.843  0.3984  0.3533 -0.2752
 2859SOL    HW120213   1.059   2.374   4.887 -0.7711 -0.5887  0.4678
 2859SOL    HW220214   1.159   2.338   4.788  1.3425 -0.6769  0.0569
 2860SOL     OW20215   4.473   1.852   3.683 -0.1815 -0.3439 -0.1385
 2860SOL    HW120216   4.428   1.917   3.628  0.1614  0.8058  0.9294
 2860SOL    HW220217   4.402   1.788   3.686 -0.8392  0.4150  0.3295
 2861SOL     OW20218   3.758   0.437  16.573 -0.5187 -0.1020 -0.7297
 2861SOL    HW120219   3.708   0.363  16.537 -1.7336  0.0287  0.6683
 2861SOL    HW220220   3.752   0.508  16.510  2.9181  2.4585  1.8533
 2862SOL     OW20221   0.043   4.672   6.106  0.0749  0.1511 -0.1987
 2862SOL    HW120222   0.028   4.587   6.064  1.4445 -0.2570  0.1526
 2862SOL    HW220223   4.695   4.714   6.112  0.4747  0.8410  0.8269
 2863SOL     OW20224   4.105   0.372  15.921 -0.1699 -0.5947 -0.2250
 2863SOL    HW120225   4.051   0.294  15.932 -0.5770 -0.1962  0.6159
 2863SOL    HW220226   4.069   0.405  15.838  0.0348  0.3011  0.0403
 2864SOL     OW20227   3.911   1.393   2.914  0.3239 -0.1810  0.2103
 2864SOL    HW120228   3.915   1.371   2.821  2.5831 -1.3242  0.5809
 2864SOL    HW220229   3.896   1.487   2.909 -2.3134 -0.5105  1.7845
 2865SOL     OW20230   1.663   2.647   1.027  0.1880  0.2244  0.4739
 2865SOL    HW120231   1.617   2.667   1.109  1.0883  4.1026  0.0085
 2865SOL    HW220232   1.599   2.584   0.993  1.2821 -0.9949  0.6521
 2866SOL     OW20233   4.537   3.725   3.001 -0.1145 -0.1942 -0.1347
 2866SOL    HW120234   4.506   3.634   3.004 -2.0880  0.4513 -1.0935
 2866SOL    HW220235   4.486   3.754   2.926  0.8361  0.5654 -0.4886
 2867SOL     OW20236   0.885   1.293   2.173  0.2061  0.3019  0.0826
 2867SOL    HW120237   0.870   1.387   2.169  1.6279  0.5628  0.9108
 2867SOL    HW220238   0.980   1.281   2.171  0.2041  0.3580 -0.4729
 2868SOL     OW20239   4.327   0.935  13.437  0.1593 -0.0615  0.2012
 2868SOL    HW120240   4.367   0.866  13.383  0.5562  0.2038  0.1556
 2868SOL    HW220241   4.246   0.887  13.455 -0.4128  0.0487 -2.1938
 2869SOL     OW20242   4.591   0.578   8.652  0.7647  0.4265 -0.0657
 2869SOL    HW120243   4.585   0.515   8.723 -2.4108  1.7760  0.8562
 2869SOL    HW220244   4.684   0.600   8.646  0.4789  1.6166 -0.1589
 2870SOL     OW20245   3.649   0.453   8.159  0.5841  0.3396  0.1098
 2870SOL    HW120246   3.698   0.470   8.079  0.5810  1.1854  0.2909
 2870SOL    HW220247   3.699   0.379   8.194  0.9202 -0.0660 -1.2354
 2871SOL     OW20248   2.875   4.725   9.431  0.1111  0.4946  0.2497
 2871SOL    HW120249   2.901   4.679   9.512  0.7285  1.0006  0.3417
 2871SOL    HW220250   2.932   4.682   9.367 -0.4917  2.5413 -1.6229
 2872SOL     OW20251   2.787   3.748   3.622  0.4379 -0.6198  0.5076
 2872SOL    HW120252   2.831   3.707   3.547  0.3322 -0.5948  0.4331
 2872SOL    HW220253   2.706   3.776   3.579  0.0089 -2.9930 -0.2570
 2873SOL     OW20254   4.258   4.165   3.953  0.2678 -0.2230 -0.5938
 2873SOL    HW120255   4.217   4.163   3.867  0.5669 -3.1746 -0.6775
 2873SOL    HW220256   4.196   4.111   4.003  0.1287  1.3896  0.9704
 2874SOL     OW20257   4.363   2.992  11.627  0.0295 -0.2496  0.2064
 2874SOL    HW120258   4.438   3.051  11.639 -0.4646  0.2165  0.9441
 2874SOL    HW220259   4.407   2.908  11.639  0.2093 -0.1599  0.1766
 2875SOL     OW20260   0.484   3.340   6.116  0.3950  0.2793  0.2232
 2875SOL    HW120261   0.494   3.429   6.082  0.6472 -0.6992 -2.2162
 2875SOL    HW220262   0.550   3.352   6.184 -0.4613  0.4060  1.0308
 2876SOL     OW20263   2.260   3.210   6.900  0.3009  0.0027  0.1870
 2876SOL    HW120264   2.316   3.243   6.970 -0.6302  1.6410  0.1672
 2876SOL    HW220265   2.303   3.244   6.822 -0.2017  1.3638  0.5075
 2877SOL     OW20266   0.809   3.456   7.850  0.0561 -0.4820  0.7788
 2877SOL    HW120267   0.878   3.460   7.916  0.7396  1.8392 -0.0830
 2877SOL    HW220268   0.864   3.432   7.776 -0.1266 -0.4236  0.6257
 2878SOL     OW20269   0.441   4.034   3.162 -0.1655  0.2694 -0.0944
 2878SOL    HW120270   0.526   4.036   3.118 -0.6438 -0.7970 -1.0660
 2878SOL    HW220271   0.456   4.104   3.226 -1.5264  1.7039 -1.3254
 2879SOL     OW20272   1.953   2.547  12.132 -0.1928  0.4264  0.3248
 2879SOL    HW120273   1.905   2.539  12.214 -0.0937  0.9419  0.4299
 2879SOL    HW220274   1.939   2.454  12.112 -0.2519  0.8295 -1.4880
 2880SOL     OW20275   4.539   1.365   9.274  0.3371 -0.3593 -0.7628
 2880SOL    HW120276   4.517   1.447   9.318  1.0217 -1.4053  1.5196
 2880SOL    HW220277   4.507   1.306   9.342 -1.6350  2.6352  0.9396
 2881SOL     OW20278   1.772   0.477  11.260  0.2747 -0.9042 -0.0365
 2881SOL    HW120279   1.771   0.456  11.167  1.2200 -0.0445 -0.2282
 2881SOL    HW220280   1.865   0.488  11.277  0.1121 -0.4392  0.5598
 2882SOL     OW20281   1.066   2.260   2.690 -0.1295  0.2489  0.3915
 2882SOL    HW120282   1.106   2.331   2.741 -1.2302 -1.0140  3.0474
 2882SOL    HW220283   1.135   2.194   2.687  0.3521  0.8058 -0.6247
 2883SOL     OW20284   0.162   0.311  10.566  0.1620  0.4955  0.4922
 2883SOL    HW120285   0.226   0.242  10.584 -1.5802 -1.6351 -1.4589
 2883SOL    HW220286   0.146   0.346  10.653  1.6824  0.0932  0.9380
 2884SOL     OW20287   3.223   4.545   3.273 -0.1360  0.5074  0.2127
 2884SOL    HW120288   3.264   4.625   3.307 -0.8611  1.3399 -0.9020
 2884SOL    HW220289   3.190   4.579   3.190 -1.0720  2.2423  1.2992
 2885SOL     OW20290   3.746   2.954   4.500  0.4656 -0.2922  0.3460
 2885SOL    HW120291   3.729   2.860   4.508  1.7676 -0.6050 -0.3705
 2885SOL    HW220292   3.742   2.983   4.590 -3.4069 -0.5636  0.2297
 2886SOL     OW20293   1.288   4.115   4.557  0.8133  0.5495 -0.1037
 2886SOL    HW120294   1.382   4.123   4.540  0.6478  0.2067 -1.1694
 2886SOL    HW220295   1.269   4.208   4.569 -2.0972 -0.3223  2.0567
 2887SOL     OW20296   2.558   0.142  10.382  0.6719  0.0175 -0.3278
 2887SOL    HW120297   2.625   0.209  10.396  2.7833 -1.9931 -0.7031
 2887SOL    HW220298   2.531   0.138  10.290  0.1544  1.0952 -0.2191
 2888SOL     OW20299   1.445   3.515  11.591  0.3642  0.0896 -0.0490
 2888SOL    HW120300   1.357   3.552  11.581  1.0770  2.2074  1.5802
 2888SOL    HW220301   1.422   3.429  11.628 -2.7821  1.1666  0.5662
 2889SOL     OW20302   4.525   3.434   8.188 -0.3795  0.7502  0.3511
 2889SOL    HW120303   4.598   3.451   8.129 -0.0953 -0.1620  0.4382
 2889SOL    HW220304   4.494   3.519   8.220 -0.3932  0.4564  1.1161
 2890SOL     OW20305   2.638   0.025   1.501 -0.2021 -0.0549 -0.3188
 2890SOL    HW120306   2.646   0.059   1.590 -1.8516  2.9675 -1.3145
 2890SOL    HW220307   2.606   4.680   1.535 -0.8949  0.0607 -0.6809
 2891SOL     OW20308   1.537   1.127  16.266  0.6531  0.1459 -0.1850
 2891SOL    HW120309   1.540   1.186  16.191 -2.1486 -0.4171 -0.7406
 2891SOL    HW220310   1.577   1.188  16.328 -0.4739  0.3341  0.3626
 2892SOL     OW20311   2.404   3.730   2.622  0.0905 -0.2912  0.0503
 2892SOL    HW120312   2.312   3.707   2.608 -0.0655  0.1974  0.2642
 2892SOL    HW220313   2.401   3.821   2.652  1.0046 -0.5467  0.9094
 2893SOL     OW20314   3.729   0.196   2.593  0.7314 -0.3914  0.5564
 2893SOL    HW120315   3.815   0.157   2.580  1.1786 -0.0566  2.4143
 2893SOL    HW220316   3.675   0.149   2.530  1.0879  1.8664 -1.4138
 2894SOL     OW20317   2.342   1.335  12.173  0.0772  0.3227  0.4224
 2894SOL    HW120318   2.307   1.251  12.205 -0.8388  0.9982  1.1907
 2894SOL    HW220319   2.391   1.308  12.096 -2.8055 -1.1036 -0.9258
 2895SOL     OW20320   2.432   0.506   4.582 -0.2128  0.3162 -0.0576
 2895SOL    HW120321   2.515   0.552   4.595  0.3805 -0.0333 -2.5790
 2895SOL    HW220322   2.378   0.547   4.649 -0.7422  0.7440 -0.7450
 2896SOL     OW20323   4.185   2.712   6.524  0.1516 -0.0023 -0.7478
 2896SOL    HW120324   4.160   2.620   6.517 -0.6213  0.2009 -0.7309
 2896SOL    HW220325   4.232   2.721   6.441  2.3088  1.5956  0.6422
 2897SOL     OW20326   3.225   2.086   8.747 -0.1799  0.0125  0.5410
 2897SOL    HW120327   3.307   2.136   8.740  0.4421 -1.1030 -0.1608
 2897SOL    HW220328   3.194   2.083   8.657 -0.8228 -2.3122  0.8478
 2898SOL     OW20329   2.203   3.157   7.434 -0.0055 -0.4895  0.1185
 2898SOL    HW120330   2.181   3.150   7.341 -0.4388 -1.5537  0.3025
 2898SOL    HW220331   2.186   3.251   7.441  1.6162 -0.0998 -1.0783
 2899SOL     OW20332   3.719   2.966   9.167  0.4061 -0.1262  0.3426
 2899SOL    HW120333   3.673   3.016   9.235  0.5442  1.1680 -0.5048
 2899SOL    HW220334   3.810   2.981   9.194  0.6617 -1.0643 -0.0195
 2900SOL     OW20335   1.463   3.122  15.230  0.5988  0.3217  0.3868
 2900SOL    HW120336   1.463   3.093  15.139  0.8528  0.3051  0.3919
 2900SOL    HW220337   1.425   3.047  15.276  0.0329  0.2719 -0.1719
 2901SOL     OW20338   3.004   2.069   0.109  0.1599  0.7095 -0.3386
 2901SOL    HW120339   2.927   2.119   0.084 -1.8873 -0.6533  3.2174
 2901SOL    HW220340   3.037   2.133   0.172  1.9331  0.7485 -1.3020
 2902SOL     OW20341   4.735   3.063   3.666 -0.1049 -0.0683  0.1306
 2902SOL    HW120342   0.080   3.105   3.646 -0.6620  0.9444 -0.0388
 2902SOL    HW220343   4.716   3.105   3.750 -1.1595 -0.0105 -0.1417
 2903SOL     OW20344   1.644   2.673   3.129 -0.5263 -0.0008 -0.1626
 2903SOL    HW120345   1.602   2.693   3.213  0.1592  1.6407 -0.2105
 2903SOL    HW220346   1.719   2.616   3.148 -0.3729 -0.9746 -3.6618
 2904SOL     OW20347   3.237   0.083  16.099  0.6680  0.2502  0.1488
 2904SOL    HW120348   3.143   0.072  16.109  0.5342 -1.8222 -3.4812
 2904SOL    HW220349   3.237   0.170  16.058  0.9132  1.0444  1.8270
 2905SOL     OW20350   1.307   1.019  13.761 -0.1182  0.2043  0.1383
 2905SOL    HW120351   1.284   0.931  13.790 -1.0147 -0.0020 -1.1595
 2905SOL    HW220352   1.276   1.023  13.670  0.1964  0.9815  0.0624
 2906SOL     OW20353   1.676   0.246   2.001 -0.1474 -0.3331 -0.3238
 2906SOL    HW120354   1.703   0.309   2.068 -1.2061  0.7810 -0.9452
 2906SOL    HW220355   1.624   0.185   2.053 -0.0601 -0.2163 -0.0981
 2907SOL     OW20356   3.514   1.368   9.214  0.3751  0.3828  0.3491
 2907SOL    HW120357   3.482   1.289   9.170  3.3423  0.8686 -2.6879
 2907SOL    HW220358   3.549   1.407   9.134  1.7762 -0.7920  0.3919
 2908SOL     OW20359   1.769   3.286   7.250 -0.5502  0.2313 -0.1934
 2908SOL    HW120360   1.676   3.304   7.263 -0.4918  1.9639 -2.1289
 2908SOL    HW220361   1.808   3.297   7.337 -2.7096 -0.9666  0.9084
 2909SOL     OW20362   1.963   2.385   3.701 -0.0595  0.0406  0.2471
 2909SOL    HW120363   1.878   2.340   3.704 -0.9064  1.6489  0.4855
 2909SOL    HW220364   2.022   2.311   3.691 -0.5589 -0.2984 -0.2132
 2910SOL     OW20365   0.324   0.867   3.166  0.2487  0.2055  0.2473
 2910SOL    HW120366   0.318   0.855   3.072 -1.3972 -1.5731  0.5861
 2910SOL    HW220367   0.406   0.818   3.176 -0.5744 -1.5655 -1.8590
 2911SOL     OW20368   0.826   3.907   4.265  0.2188 -0.3262 -0.1905
 2911SOL    HW120369   0.856   3.854   4.339  0.5466  0.0257 -0.0708
 2911SOL    HW220370   0.783   3.840   4.213  0.8553 -0.7088 -0.2235
 2912SOL     OW20371   2.926   0.036   5.556 -0.0461  0.3103  0.3805
 2912SOL    HW120372   2.965   0.089   5.624  0.2562  0.3059  0.2110
 2912SOL    HW220373   2.931   0.087   5.475 -1.9254 -2.0403 -1.2417
 2913SOL     OW20374   0.814   2.023   3.506 -0.1757 -0.4085 -0.1540
 2913SOL    HW120375   0.870   1.962   3.554  0.5863 -0.2382 -0.8326
 2913SOL    HW220376   0.736   2.023   3.561  0.1956  0.1210  0.3804
 2914SOL     OW20377   0.047   1.755  10.657 -0.4822 -0.8359  0.6229
 2914SOL    HW120378   4.716   1.820  10.657  1.7535  1.5534  0.4941
 2914SOL    HW220379   0.074   1.750  10.749  0.7933  0.2117  0.3129
 2915SOL     OW20380   1.575   2.000   2.335 -0.1620  0.7451  0.1221
 2915SOL    HW120381   1.524   2.072   2.373  0.4772  1.9158 -1.2389
 2915SOL    HW220382   1.548   1.924   2.387 -1.4749  0.5025 -0.9313
 2916SOL     OW20383   4.112   1.461   2.157  0.0406  0.1400 -0.3090
 2916SOL    HW120384   4.204   1.435   2.149  0.2118  0.4604  0.5691
 2916SOL    HW220385   4.127   1.555   2.157 -3.0044  0.6321  1.6457
 2917SOL     OW20386   3.700   2.321   2.692  0.3376 -0.3513 -0.0162
 2917SOL    HW120387   3.782   2.366   2.711  0.0582 -0.9253  2.5359
 2917SOL    HW220388   3.677   2.356   2.606  0.0664  1.9691  1.0098
 2918SOL     OW20389   3.639   3.423   5.402  0.3423 -0.4033  0.2152
 2918SOL    HW120390   3.721   3.406   5.448 -0.4478 -1.5521  1.1600
 2918SOL    HW220391   3.669   3.448   5.314  1.0369 -0.2998  0.4864
 2919SOL     OW20392   0.221   1.962   3.725  0.1629  0.0966 -0.3320
 2919SOL    HW120393   0.197   2.052   3.748 -2.7614 -1.5015  2.6931
 2919SOL    HW220394   0.133   1.942   3.694  1.2528 -1.0251 -2.6879
 2920SOL     OW20395   1.346   3.272   2.438  0.4641 -0.7416 -0.0979
 2920SOL    HW120396   1.363   3.307   2.351  0.8841  0.5564  0.5167
 2920SOL    HW220397   1.297   3.332   2.494  1.4262 -0.9743  1.0018
 2921SOL     OW20398   3.390   0.679  13.987  0.2519  0.0040  0.5612
 2921SOL    HW120399   3.332   0.606  13.964 -0.8711  0.2889  2.5660
 2921SOL    HW220400   3.461   0.628  14.026  1.3135  2.4268  1.7960
 2922SOL     OW20401   3.079   0.847  11.300  0.0184  0.3621 -0.0697
 2922SOL    HW120402   3.174   0.833  11.301  0.0801  1.0405  1.7835
 2922SOL    HW220403   3.054   0.825  11.389 -0.3959  0.1331 -0.2425
 2923SOL     OW20404   1.222   1.493   2.421 -0.1906 -0.4387  0.1491
 2923SOL    HW120405   1.157   1.549   2.379 -0.8655 -0.3628  1.2840
 2923SOL    HW220406   1.244   1.542   2.500 -0.5756  1.6949 -1.0694
 2924SOL     OW20407   0.803   3.887   2.813  0.2293  0.6533 -0.4823
 2924SOL    HW120408   0.834   3.933   2.735  2.1850  0.2212  0.0532
 2924SOL    HW220409   0.885   3.849   2.843 -0.9679 -0.8417  0.9194
 2925SOL     OW20410   0.443   4.674   8.291 -0.3587  0.4606 -0.2356
 2925SOL    HW120411   0.432   0.028   8.267 -2.7044 -1.2309 -5.8182
 2925SOL    HW220412   0.418   4.674   8.383  2.6311 -1.2376  0.5790
 2926SOL     OW20413   2.034   1.358   8.434 -0.6068  0.0571  0.0369
 2926SOL    HW120414   2.106   1.372   8.495 -1.7893  0.3045  1.3931
 2926SOL    HW220415   1.982   1.437   8.450 -0.6228 -0.2461  1.5448
 2927SOL     OW20416   1.334   0.328   5.855  0.0115 -0.3563  0.5152
 2927SOL    HW120417   1.353   0.330   5.761  2.9417  0.7636  1.1337
 2927SOL    HW220418   1.327   0.422   5.872  0.3225 -0.2312 -0.0663
 2928SOL     OW20419   1.580   0.926  16.745  0.0142 -0.0922  0.2702
 2928SOL    HW120420   1.499   0.954  16.788  0.0568  0.3536  0.0678
 2928SOL    HW220421   1.575   0.996  16.679  1.4685 -2.6056 -2.4687
 2929SOL     OW20422   4.611   1.402   1.996  0.4518 -0.3273 -1.0518
 2929SOL    HW120423   4.607   1.347   1.918 -2.1769  1.3920 -2.1423
 2929SOL    HW220424   4.681   1.355   2.042  0.1196  1.0248  0.8403
 2930SOL     OW20425   1.470   2.936   8.378 -0.0629  0.1559  0.8813
 2930SOL    HW120426   1.427   2.856   8.409 -1.0736  0.0270 -0.8611
 2930SOL    HW220427   1.503   2.972   8.460  2.4382 -1.1749  0.4790
 2931SOL     OW20428   2.614   4.469   7.032 -0.0528  0.3182  0.0038
 2931SOL    HW120429   2.667   4.390   7.032 -0.7738 -0.1599  0.3802
 2931SOL    HW220430   2.540   4.431   7.080 -1.0643  0.1832 -1.6507
 2932SOL     OW20431   3.861   3.123   4.064 -0.3603  0.5443 -0.1892
 2932SOL    HW120432   3.889   3.065   4.135 -1.5753 -2.3263 -2.0900
 2932SOL    HW220433   3.896   3.074   3.990 -0.2803  3.0489 -1.8136
 2933SOL     OW20434   3.544   1.954   1.617  0.1495 -0.7015  0.2670
 2933SOL    HW120435   3.540   2.019   1.687 -3.4739  0.1847 -0.7499
 2933SOL    HW220436   3.567   2.009   1.541 -0.5924  0.3010  0.7593
 2934SOL     OW20437   2.312   3.367  15.971  0.3238 -0.1412  0.3934
 2934SOL    HW120438   2.245   3.363  15.904  1.5163 -0.9612 -0.7487
 2934SOL    HW220439   2.394   3.376  15.922 -0.0153  0.3276 -0.0853
 2935SOL     OW20440   1.596   2.085  15.636  0.8385  0.2281  0.2846
 2935SOL    HW120441   1.678   2.064  15.681  0.3753  0.1662  1.1077
 2935SOL    HW220442   1.558   1.997  15.631  0.9965  0.1329  0.7168
 2936SOL     OW20443   1.861   3.891   6.848  0.4763  0.9053 -0.1881
 2936SOL    HW120444   1.843   3.836   6.924 -1.0492 -0.6836 -1.6898
 2936SOL    HW220445   1.955   3.884   6.833  0.2907 -3.9452  0.7307
 2937SOL     OW20446   1.546   3.512  16.930 -0.0408  0.2212  0.2175
 2937SOL    HW120447   1.528   3.422  16.959  0.3302 -0.5884 -2.0045
 2937SOL    HW220448   1.470   3.515  16.872  0.0370  1.0248  0.1601
 2938SOL     OW20449   0.808   4.180  17.089  0.1150 -0.3469 -0.1547
 2938SOL    HW120450   0.842   4.096  17.121 -0.7468 -0.1195  1.3776
 2938SOL    HW220451   0.849   4.197  17.004  1.6427  0.1758  0.6861
 2939SOL     OW20452   0.996   0.578   6.721  0.0543  0.2536  0.0577
 2939SOL    HW120453   1.018   0.671   6.709 -0.5002  0.2624 -0.8798
 2939SOL    HW220454   0.941   0.558   6.645 -1.6318 -4.2687  2.4641
 2940SOL     OW20455   4.299   4.457  11.243  0.1468  0.2820  0.3833
 2940SOL    HW120456   4.269   4.403  11.170 -1.5594 -1.3416  2.3101
 2940SOL    HW220457   4.268   4.413  11.322  1.9981 -2.3740 -0.3798
 2941SOL     OW20458   3.527   4.432  16.667 -0.0749  0.7811 -0.3751
 2941SOL    HW120459   3.581   4.451  16.743 -0.3903 -1.7342  0.4805
 2941SOL    HW220460   3.442   4.468  16.693 -1.2301 -2.2275 -0.0523
 2942SOL     OW20461   2.358   3.422  13.829  0.0088  0.5608 -0.1010
 2942SOL    HW120462   2.447   3.411  13.864 -1.1466  0.5543  2.8910
 2942SOL    HW220463   2.377   3.482  13.757 -2.2087  1.9142  0.4457
 2943SOL     OW20464   1.189   3.227  14.524  0.0221  0.2165 -0.5578
 2943SOL    HW120465   1.209   3.268  14.608 -0.2154 -0.3824 -0.2095
 2943SOL    HW220466   1.277   3.228  14.486  0.9225  0.4188  1.5361
 2944SOL     OW20467   2.862   1.516   7.488  0.0896  0.3357  0.2658
 2944SOL    HW120468   2.874   1.458   7.563 -1.2122  0.7582  0.7982
 2944SOL    HW220469   2.768   1.528   7.484  0.1692  1.0581  0.4243
 2945SOL     OW20470   3.004   3.537   4.748  0.0745 -0.2122 -0.1545
 2945SOL    HW120471   2.981   3.622   4.787 -1.2751 -1.0819  0.9670
 2945SOL    HW220472   3.098   3.523   4.761  0.5480  1.5538 -1.6453
 2946SOL     OW20473   2.822   0.345   2.811  1.1272  0.5752  0.7054
 2946SOL    HW120474   2.911   0.353   2.777  0.5966  1.1254 -0.5531
 2946SOL    HW220475   2.790   0.435   2.820 -0.6179  0.0921 -0.5410
 2947SOL     OW20476   1.386   1.164   1.607  0.2991 -0.0310  0.5332
 2947SOL    HW120477   1.473   1.147   1.570 -0.3810 -2.1156 -0.1608
 2947SOL    HW220478   1.343   1.178   1.523 -1.9111 -0.4263  1.5780
 2948SOL     OW20479   1.741   0.312   2.577  0.5320 -0.1663 -0.0452
 2948SOL    HW120480   1.652   0.345   2.573  0.3399 -0.6446  0.2259
 2948SOL    HW220481   1.723   0.231   2.625  0.0270  0.0636  0.1467
 2949SOL     OW20482   4.372   4.245   2.873  0.5252 -0.3827 -0.9083
 2949SOL    HW120483   4.339   4.165   2.915 -0.8358  0.3841 -0.5189
 2949SOL    HW220484   4.361   4.227   2.780  1.5281  1.4112 -1.3805
 2950SOL     OW20485   3.396   3.424   3.571  0.1481  0.6422  0.1122
 2950SOL    HW120486   3.406   3.380   3.656 -1.4050  3.0007  1.5074
 2950SOL    HW220487   3.339   3.363   3.524  1.1221 -0.5513  0.4735
 2951SOL     OW20488   3.588   0.684   3.828 -0.0957 -0.2598  0.4240
 2951SOL    HW120489   3.557   0.772   3.805 -0.3782 -0.3501  0.4562
 2951SOL    HW220490   3.648   0.704   3.899 -0.0578  1.6257 -0.1369
 2952SOL     OW20491   1.013   1.793   2.603 -0.5880 -0.2703 -0.2826
 2952SOL    HW120492   0.924   1.828   2.616 -0.1523  0.8148 -0.2612
 2952SOL    HW220493   1.000   1.716   2.547 -0.4168 -0.0609 -0.6110
 2953SOL     OW20494   1.593   1.347  14.009 -0.1560  0.5357 -0.0615
 2953SOL    HW120495   1.522   1.285  13.991  0.0644  0.6758 -1.4368
 2953SOL    HW220496   1.657   1.331  13.939 -0.2801 -0.2472  0.0009
 2954SOL     OW20497   0.924   3.822   6.432 -0.5430 -0.3335  0.6268
 2954SOL    HW120498   1.001   3.876   6.414 -1.8141  0.3272 -2.9772
 2954SOL    HW220499   0.904   3.781   6.347  0.3694  0.9523 -0.2117
 2955SOL     OW20500   3.082   3.804  10.091 -0.0967 -0.1188  0.3664
 2955SOL    HW120501   3.006   3.820  10.146 -0.2944  2.1117 -0.5367
 2955SOL    HW220502   3.158   3.812  10.149  0.9729  1.1554 -1.1891
 2956SOL     OW20503   2.905   3.469   5.410  0.1405  0.5270 -0.1452
 2956SOL    HW120504   2.883   3.560   5.389 -0.7331  0.2465 -0.4479
 2956SOL    HW220505   2.825   3.436   5.451  1.4127 -1.5545  0.6647
 2957SOL     OW20506   0.594   3.283   7.322 -0.5440  0.5279 -0.1840
 2957SOL    HW120507   0.664   3.290   7.257 -0.9231  0.1542 -0.6394
 2957SOL    HW220508   0.549   3.368   7.319 -0.0415  0.8190  0.5767
 2958SOL     OW20509   0.377   2.778   9.920 -0.0913  0.0663  0.3456
 2958SOL    HW120510   0.410   2.741  10.002 -1.2178 -0.9436  0.3551
 2958SOL    HW220511   0.401   2.704   9.865 -2.0004  0.6223 -1.2098
 2959SOL     OW20512   4.463   3.662   6.275  0.8033  0.0917 -0.0436
 2959SOL    HW120513   4.452   3.728   6.206 -2.4132 -0.6106 -0.2014
 2959SOL    HW220514   4.375   3.626   6.271  1.3814 -1.0447 -3.0903
 2960SOL     OW20515   0.542   4.320   2.395 -0.7366 -0.5181  0.1856
 2960SOL    HW120516   0.462   4.274   2.369 -0.7333  1.0736 -2.6829
 2960SOL    HW220517   0.517   4.389   2.455 -0.9090 -0.1154 -0.3503
 2961SOL     OW20518   3.702   1.601   0.793 -0.0421 -0.1092  0.4626
 2961SOL    HW120519   3.785   1.555   0.791  0.0381  0.0231  0.8192
 2961SOL    HW220520   3.677   1.599   0.700 -0.7843 -0.9084  0.6780
 2962SOL     OW20521   0.033   0.088   2.753 -0.8740 -0.4729 -0.0404
 2962SOL    HW120522   0.088   0.012   2.732 -1.9387 -1.3734  0.3829
 2962SOL    HW220523   4.691   0.068   2.705 -1.0315  1.9235 -0.7728
 2963SOL     OW20524   2.254   3.369  10.670  0.1191  0.6476  0.1016
 2963SOL    HW120525   2.163   3.381  10.696  0.4301  3.6492 -0.2428
 2963SOL    HW220526   2.296   3.321  10.741 -0.4408 -1.1196 -0.7416
 2964SOL     OW20527   1.418   1.663   8.546  0.1609 -0.4246  0.0184
 2964SOL    HW120528   1.410   1.623   8.459  0.4178 -0.3366 -0.0473
 2964SOL    HW220529   1.328   1.668   8.579  0.0664  0.4230 -0.3650
 2965SOL     OW20530   0.622   3.180   7.591 -0.2612  0.1301 -0.2662
 2965SOL    HW120531   0.698   3.233   7.616  1.1951 -1.9908 -0.2218
 2965SOL    HW220532   0.610   3.198   7.498  1.5258 -0.1570 -0.5440
 2966SOL     OW20533   3.442   4.579   0.699 -0.2384  0.2286 -0.3961
 2966SOL    HW120534   3.464   4.591   0.791  0.6201 -0.5941 -0.4899
 2966SOL    HW220535   3.373   4.512   0.706  1.4027 -1.0998  2.8343
 2967SOL     OW20536   4.694   0.111   9.650 -0.5195 -0.1245  0.3828
 2967SOL    HW120537   4.621   0.171   9.659 -0.9471 -0.4525 -0.9141
 2967SOL    HW220538   0.033   0.163   9.670  0.6979 -1.4601 -0.8270
 2968SOL     OW20539   0.275   4.556  11.674 -0.2254  0.1446 -0.1472
 2968SOL    HW120540   0.198   4.499  11.680  0.8514 -1.1455  1.3623
 2968SOL    HW220541   0.231   4.641  11.667  1.1482  0.7651 -1.3552
 2969SOL     OW20542   0.157   2.383  12.367 -0.4030  0.3438 -0.0934
 2969SOL    HW120543   0.093   2.374  12.297  0.3492 -2.0391 -0.4655
 2969SOL    HW220544   0.118   2.453  12.419  0.1844 -0.6146  1.6476
 2970SOL     OW20545   2.657   1.475   3.575 -0.1315  0.3721 -0.1085
 2970SOL    HW120546   2.714   1.528   3.630 -1.4573  1.5149  0.1597
 2970SOL    HW220547   2.656   1.391   3.621 -1.7034  2.0095  2.8107
 2971SOL     OW20548   4.268   3.878   7.899  0.1698 -0.1676  0.3818
 2971SOL    HW120549   4.282   3.787   7.924  1.1416  0.5158  2.2716
 2971SOL    HW220550   4.290   3.927   7.978 -1.4380 -1.1672  1.4675
 2972SOL     OW20551   1.294   2.126  12.263  0.2180 -0.2352 -0.7408
 2972SOL    HW120552   1.323   2.132  12.172 -0.1575  1.1133 -0.7663
 2972SOL    HW220553   1.348   2.052  12.291 -0.7481 -1.5540 -2.4218
 2973SOL     OW20554   0.443   0.397  12.887 -0.1423  0.5564  0.3522
 2973SOL    HW120555   0.493   0.397  12.805 -1.5257  0.1954 -0.5008
 2973SOL    HW220556   0.404   0.485  12.884  0.7443  0.9111 -1.0027
 2974SOL     OW20557   4.318   3.732  12.873 -0.0914 -0.1146 -0.2195
 2974SOL    HW120558   4.290   3.816  12.838 -2.4477 -0.2264  1.3562
 2974SOL    HW220559   4.384   3.715  12.806  1.0412 -0.0348  0.8692
 2975SOL     OW20560   0.865   1.314   6.601  0.2794 -0.0788  0.2274
 2975SOL    HW120561   0.899   1.397   6.633  2.8331 -1.0358 -0.0489
 2975SOL    HW220562   0.943   1.282   6.556  0.6297 -1.2596  1.6943
 2976SOL     OW20563   1.480   1.790   5.263 -0.4857 -0.2483  0.1763
 2976SOL    HW120564   1.515   1.865   5.216 -1.3848  0.0704  0.0167
 2976SOL    HW220565   1.386   1.797   5.247 -0.5651 -0.4219  0.5543
 2977SOL     OW20566   4.727   2.468   0.488  0.3960 -0.0546  0.1471
 2977SOL    HW120567   4.733   2.479   0.583  2.6272  1.2052 -0.1336
 2977SOL    HW220568   0.013   2.556   0.459  2.5997  0.0028  2.1592
 2978SOL     OW20569   1.968   0.895  17.615 -0.4672 -0.1126  0.5887
 2978SOL    HW120570   2.041   0.940  17.573 -0.4879 -1.0582 -0.4494
 2978SOL    HW220571   1.992   0.804  17.598  0.2482  0.2683 -0.4150
 2979SOL     OW20572   1.768   3.362   1.745 -0.5005 -0.1447  0.3787
 2979SOL    HW120573   1.796   3.278   1.709 -1.2025 -0.0292 -0.4558
 2979SOL    HW220574   1.848   3.408   1.721 -1.7214  1.2860 -1.0127
 2980SOL     OW20575   2.598   4.036   3.598  0.1606 -0.2928  0.5613
 2980SOL    HW120576   2.543   3.975   3.648  0.1593 -0.5281  0.2663
 2980SOL    HW220577   2.564   4.117   3.638 -2.4619 -0.8457 -0.5347
 2981SOL     OW20578   1.595   2.762  16.960  0.3812  0.4113 -0.3079
 2981SOL    HW120579   1.607   2.847  17.004 -0.3651 -0.5575  1.7758
 2981SOL    HW220580   1.614   2.780  16.868 -0.4833  0.1190 -0.5395
 2982SOL     OW20581   0.632   0.864  12.613 -0.4206  0.7009  0.1893
 2982SOL    HW120582   0.547   0.832  12.584  0.6708 -2.3162  0.3246
 2982SOL    HW220583   0.682   0.782  12.618 -1.0914  0.3116  0.5578
 2983SOL     OW20584   4.203   1.955  11.430  0.3469 -0.0643 -0.0004
 2983SOL    HW120585   4.293   1.987  11.436  0.5623 -0.8317  1.1047
 2983SOL    HW220586   4.190   1.933  11.338  1.3159  1.1060 -0.4104
 2984SOL     OW20587   1.533   4.054   9.798 -0.2563 -0.5044  0.6983
 2984SOL    HW120588   1.444   4.088   9.796 -0.1885 -0.4299 -1.1438
 2984SOL    HW220589   1.511   3.969   9.759 -0.4953  0.3695 -1.0433
 2985SOL     OW20590   0.203   0.955   5.502  0.1662  0.0455  0.1708
 2985SOL    HW120591   0.146   1.018   5.547 -1.3782 -0.6843 -0.7872
 2985SOL    HW220592   0.184   0.875   5.551  2.4999  0.5828  1.9826
 2986SOL     OW20593   1.689   3.333   2.372 -0.2902  0.6967 -0.0699
 2986SOL    HW120594   1.601   3.346   2.337  0.1669  3.6680 -0.1160
 2986SOL    HW220595   1.703   3.243   2.343  0.3046  1.5555 -2.4783
 2987SOL     OW20596   1.235   4.387   1.577 -0.0997  0.2861  0.5826
 2987SOL    HW120597   1.313   4.335   1.599  0.0470 -0.2881 -1.3441
 2987SOL    HW220598   1.258   4.413   1.488  1.2529 -0.9636  0.5435
 2988SOL     OW20599   2.695   2.985   7.442 -0.3301 -0.4543 -0.2638
 2988SOL    HW120600   2.719   2.933   7.519 -0.4733 -2.2531 -1.4568
 2988SOL    HW220601   2.784   2.986   7.407 -0.7248 -2.0327 -1.3170
 2989SOL     OW20602   3.465   1.050   3.152 -0.3357  0.0563 -0.3184
 2989SOL    HW120603   3.490   0.971   3.200  0.5377 -0.7646 -2.1541
 2989SOL    HW220604   3.535   1.049   3.086 -1.5914 -0.6124 -1.6262
 2990SOL     OW20605   4.144   3.637   6.251  0.1690 -0.4295 -0.2266
 2990SOL    HW120606   4.111   3.578   6.183  1.0039  2.2165 -2.9644
 2990SOL    HW220607   4.164   3.725   6.217 -1.9582 -0.1681 -0.7702
 2991SOL     OW20608   3.196   2.050   2.435  0.1567  0.6617  0.3175
 2991SOL    HW120609   3.275   2.088   2.397  0.8288 -3.6675 -2.5892
 2991SOL    HW220610   3.212   2.073   2.527 -0.7030  1.1997  0.3319
 2992SOL     OW20611   1.828   4.316  10.605  0.0748 -0.3371  0.1781
 2992SOL    HW120612   1.922   4.333  10.597  0.0871 -0.4648  0.0562
 2992SOL    HW220613   1.815   4.270  10.688  1.3310  0.3180  0.7439
 2993SOL     OW20614   2.229   4.506   7.800 -0.4819 -0.1260  0.0432
 2993SOL    HW120615   2.166   4.443   7.766  1.2189 -0.3620 -2.6526
 2993SOL    HW220616   2.261   4.476   7.885 -0.1385  1.4045  0.4570
 2994SOL     OW20617   3.784   0.681  14.169 -0.6012  0.5090  0.5993
 2994SOL    HW120618   3.830   0.598  14.162  0.3825  1.2340 -1.3409
 2994SOL    HW220619   3.697   0.650  14.143  0.2329 -1.4480  0.1450
 2995SOL     OW20620   1.552   3.395   0.357 -0.2323  0.6146  0.5528
 2995SOL    HW120621   1.478   3.358   0.310  0.7870 -0.4715 -0.2312
 2995SOL    HW220622   1.620   3.390   0.290  2.2476  2.7020  2.9341
 2996SOL     OW20623   0.036   0.144   3.941 -0.4877 -0.1383 -0.1237
 2996SOL    HW120624   0.008   0.055   3.921 -0.1177 -0.7641  2.1547
 2996SOL    HW220625   0.096   0.127   4.014 -0.0066 -2.0955 -0.9806
 2997SOL     OW20626   2.017   1.760   1.026 -0.3831 -0.6508 -0.9557
 2997SOL    HW120627   2.081   1.712   0.974 -1.0223 -1.3088 -1.1368
 2997SOL    HW220628   1.965   1.817   0.969 -1.7649  0.6408  1.5916
 2998SOL     OW20629   4.050   3.895   3.349  0.7097  0.6542 -0.1597
 2998SOL    HW120630   4.118   3.953   3.315  0.1037  1.3597 -0.1728
 2998SOL    HW220631   4.061   3.832   3.278  1.0588 -1.2457  1.5641
 2999SOL     OW20632   1.867   0.422   1.221 -0.1157 -0.8797 -0.3392
 2999SOL    HW120633   1.868   0.332   1.188  1.8422  0.0237 -2.7081
 2999SOL    HW220634   1.873   0.474   1.141  0.1893  0.1873  0.3876
 3000SOL     OW20635   1.278   3.664   0.508 -0.1269 -0.2345  0.1023
 3000SOL    HW120636   1.304   3.635   0.421 -0.5375 -1.4123  0.3710
 3000SOL    HW220637   1.207   3.724   0.487  0.0965  0.0577  0.1917
 3001SOL     OW20638   2.616   4.612   4.323  0.4741 -0.0403 -0.2976
 3001SOL    HW120639   2.631   4.566   4.406 -1.2439 -2.9239 -1.5781
 3001SOL    HW220640   2.521   4.603   4.325  0.4507  0.7778  2.6796
 3002SOL     OW20641   2.909   0.427   1.883 -0.3659 -0.3381  0.1284
 3002SOL    HW120642   2.897   0.521   1.868 -0.3425 -0.2847  0.4523
 3002SOL    HW220643   2.949   0.440   1.969  0.3647  1.0839 -0.4339
 3003SOL     OW20644   3.151   4.595  15.070  0.2360 -0.4865  0.7471
 3003SOL    HW120645   3.183   4.614  15.158 -1.3125  0.7287  1.0486
 3003SOL    HW220646   3.063   4.566  15.095 -0.2544  0.7741  0.5042
 3004SOL     OW20647   0.789   4.587   9.106 -0.0320 -0.0631 -0.2676
 3004SOL    HW120648   0.874   4.557   9.136  0.8569  2.0724 -0.6575
 3004SOL    HW220649   0.734   4.508   9.105 -1.3060  0.8675 -2.1892
 3005SOL     OW20650   0.406   1.791   3.597 -0.2970 -0.8178 -0.3526
 3005SOL    HW120651   0.326   1.836   3.625 -1.2100 -1.0976 -2.5704
 3005SOL    HW220652   0.373   1.772   3.510  1.0987  0.0309 -1.0614
 3006SOL     OW20653   4.140   4.058  10.477 -0.0451 -0.5856  0.0506
 3006SOL    HW120654   4.045   4.041  10.482 -0.0071 -0.2980  1.7046
 3006SOL    HW220655   4.162   4.019  10.562  0.0366 -1.2702 -0.2862
 3007SOL     OW20656   0.208   1.031   9.514 -0.0227 -0.4563 -0.0312
 3007SOL    HW120657   0.157   1.060   9.590 -2.1704  0.1168 -1.7020
 3007SOL    HW220658   0.154   0.967   9.467  2.2329 -0.6144 -2.3621
 3008SOL     OW20659   3.355   0.271   7.238 -0.1613 -0.0521  0.3516
 3008SOL    HW120660   3.314   0.336   7.295  1.2884 -0.1664  1.5324
 3008SOL    HW220661   3.350   0.197   7.299 -1.4527 -0.5234 -0.3195
 3009SOL     OW20662   0.250   0.236   1.126 -0.2423  0.0764 -0.1522
 3009SOL    HW120663   0.302   0.280   1.059 -0.9481  1.6389  0.3409
 3009SOL    HW220664   0.248   0.152   1.080 -3.1046 -0.2015  0.5194
 3010SOL     OW20665   2.232   0.952  12.651  1.0196 -0.6916 -0.0574
 3010SOL    HW120666   2.289   0.947  12.727  0.1761 -0.6903  0.5805
 3010SOL    HW220667   2.251   1.042  12.624  0.8143 -0.9265 -0.9889
 3011SOL     OW20668   4.083   2.646   5.142 -0.2681 -0.3283 -0.1080
 3011SOL    HW120669   4.148   2.577   5.155  0.0552 -0.0413 -0.1766
 3011SOL    HW220670   4.005   2.609   5.183 -0.0745 -0.8128 -0.1821
 3012SOL     OW20671   1.975   0.511   9.020  0.5102 -0.2944  0.1180
 3012SOL    HW120672   1.930   0.520   9.104 -2.1729 -0.4897 -1.3127
 3012SOL    HW220673   2.000   0.602   9.005  1.6870 -0.5695  0.3899
 3013SOL     OW20674   1.506   4.334   0.192 -0.2331 -0.2058 -0.1897
 3013SOL    HW120675   1.568   4.369   0.127  1.1897  0.9733  1.7852
 3013SOL    HW220676   1.470   4.419   0.218 -2.2938 -1.7161  1.9249
 3014SOL     OW20677   4.700   1.461   1.631  0.2539 -0.1489 -1.1051
 3014SOL    HW120678   0.048   1.421   1.636 -0.3502 -1.0692  1.8896
 3014SOL    HW220679   4.655   1.397   1.686 -0.0202  0.8086 -0.2307
 3015SOL     OW20680   4.478   1.612  13.315  0.0909  0.0588 -0.2692
 3015SOL    HW120681   4.404   1.624  13.256  0.1180 -1.9751 -0.7182
 3015SOL    HW220682   4.460   1.520  13.338 -1.5748 -0.1563 -2.4038
 3016SOL     OW20683   4.003   0.566   1.140 -0.9263 -0.1042 -0.0465
 3016SOL    HW120684   4.060   0.638   1.112 -1.2716  0.7618  1.4695
 3016SOL    HW220685   3.921   0.611   1.163 -1.6055 -0.9355 -0.8181
 3017SOL     OW20686   4.732   0.840  16.697 -0.0162 -0.1063  0.2127
 3017SOL    HW120687   4.694   0.753  16.685 -0.1693 -0.2820  2.0849
 3017SOL    HW220688   4.667   0.894  16.652  0.4383  1.3414  1.2830
 3018SOL     OW20689   0.751   0.293   5.353 -0.3705 -0.6896 -0.0319
 3018SOL    HW120690   0.791   0.282   5.266 -1.7747 -0.1656 -0.7342
 3018SOL    HW220691   0.820   0.288   5.420  0.9477  1.0682 -1.2356
 3019SOL     OW20692   4.084   4.720   4.609 -1.0450  0.1884 -0.0212
 3019SOL    HW120693   4.106   0.068   4.574 -0.2869 -0.0252 -0.0806
 3019SOL    HW220694   4.147   4.660   4.568 -1.5021 -1.0361  1.1083
 3020SOL     OW20695   0.133   3.794   4.098  0.4680 -0.3032 -0.3234
 3020SOL    HW120696   0.159   3.732   4.165  1.2309  1.0074  0.5885
 3020SOL    HW220697   0.213   3.796   4.046 -0.0931  1.9812 -1.0986
 3021SOL     OW20698   3.076   1.069   5.714  0.7320  0.0311 -0.3369
 3021SOL    HW120699   3.164   1.032   5.711  1.8426  2.7540 -1.1037
 3021SOL    HW220700   3.044   1.013   5.642  0.9379 -1.0322  0.3951
 3022SOL     OW20701   3.255   0.817   3.044 -0.5550  0.6758 -0.4568
 3022SOL    HW120702   3.290   0.800   3.132  1.4618  1.6956 -1.0602
 3022SOL    HW220703   3.317   0.763   2.995  1.0279  2.2354 -0.1574
 3023SOL     OW20704   3.300   3.741  12.548 -0.1510  0.5149  0.4892
 3023SOL    HW120705   3.215   3.760  12.507  0.0926 -0.0968 -0.2792
 3023SOL    HW220706   3.271   3.684  12.619 -1.8643 -1.1602 -1.5765
 3024SOL     OW20707   4.734   0.147   7.659  0.2614 -0.3228 -0.8086
 3024SOL    HW120708   0.048   0.088   7.713  0.3855  0.4948 -0.0297
 3024SOL    HW220709   4.688   0.185   7.734 -1.7844  2.1543 -3.3124
 3025SOL     OW20710   1.164   3.270   4.152 -0.0478 -0.2179  0.0261
 3025SOL    HW120711   1.121   3.303   4.073 -1.8093 -1.8487  0.2872
 3025SOL    HW220712   1.252   3.247   4.121  0.5036 -0.8429  2.1020
 3026SOL     OW20713   0.920   4.409   0.776 -0.2949  0.5121  0.7403
 3026SOL    HW120714   0.964   4.386   0.859  0.1758  0.2219  0.4133
 3026SOL    HW220715   0.980   4.365   0.716 -0.0622  1.6063  0.1741
 3027SOL     OW20716   4.042   2.726   4.544  0.3280 -0.3820 -0.0809
 3027SOL    HW120717   4.134   2.716   4.569 -0.1393 -2.2796  0.8724
 3027SOL    HW220718   4.029   2.643   4.499 -0.0533 -0.0528 -0.5842
 3028SOL     OW20719   4.723   4.225   9.156  0.3091 -0.0803 -0.1260
 3028SOL    HW120720   0.003   4.316   9.134 -1.7662  0.1586 -0.9430
 3028SOL    HW220721   0.058   4.177   9.120 -0.0821  0.2312 -1.3312
 3029SOL     OW20722   2.213   0.419  17.547  0.1504 -0.4218  0.2037
 3029SOL    HW120723   2.252   0.357  17.486 -0.5218 -1.7193  1.0996
 3029SOL    HW220724   2.254   0.387  17.627 -0.6815 -0.1937  0.7243
 3030SOL     OW20725   2.075   2.979   4.400 -0.2264 -0.4694  0.1686
 3030SOL    HW120726   2.148   3.023   4.356 -0.6570  0.6322  0.5387
 3030SOL    HW220727   2.116   2.918   4.460 -0.2869 -1.7346 -1.0856
 3031SOL     OW20728   0.424   3.119   2.097  0.3559  0.3295 -0.6166
 3031SOL    HW120729   0.439   3.031   2.130  1.9967  0.8409 -0.0181
 3031SOL    HW220730   0.328   3.118   2.098  0.3804 -2.0874 -0.8629
 3032SOL     OW20731   2.842   2.464  13.660  0.4730 -0.4465 -0.1349
 3032SOL    HW120732   2.894   2.492  13.585 -0.5527  1.3088 -0.1837
 3032SOL    HW220733   2.870   2.533  13.720  2.9563 -0.5534 -1.1668
 3033SOL     OW20734   3.740   0.515   7.218  0.1821 -0.0438 -0.7689
 3033SOL    HW120735   3.822   0.478   7.250 -0.5232 -0.0886  1.0428
 3033SOL    HW220736   3.766   0.562   7.139  2.0102  0.2288  0.0013
 3034SOL     OW20737   3.766   1.003   9.015  0.1036 -0.3272  0.1559
 3034SOL    HW120738   3.703   1.064   9.054 -0.1936  0.1193 -1.0238
 3034SOL    HW220739   3.847   1.053   9.008  1.0036 -1.8218  0.0206
 3035SOL     OW20740   1.850   1.197   1.284 -0.2449 -0.0981 -0.6810
 3035SOL    HW120741   1.935   1.168   1.317  0.7507  1.9716 -1.4315
 3035SOL    HW220742   1.860   1.191   1.189 -2.7653 -1.2755 -0.8789
 3036SOL     OW20743   1.858   4.263   3.636  0.0326  0.4279 -0.3300
 3036SOL    HW120744   1.766   4.257   3.610  0.4252  0.6047 -1.7303
 3036SOL    HW220745   1.904   4.214   3.568  0.8365  0.3962  0.2353
 3037SOL     OW20746   1.090   4.616  17.665  0.4159  0.3191  0.3383
 3037SOL    HW120747   1.181   4.644  17.654 -0.1784  1.5377 -1.3919
 3037SOL    HW220748   1.038   4.654  17.595  1.6002 -0.8928 -1.1898
 3038SOL     OW20749   0.791   0.356   8.677 -0.4818  0.4677  0.5403
 3038SOL    HW120750   0.829   0.347   8.589 -1.1290 -3.5242  0.6703
 3038SOL    HW220751   0.779   0.447   8.702  0.5020  0.4547  1.0718
 3039SOL     OW20752   3.873   0.250   6.071 -0.0978  0.1530  0.1313
 3039SOL    HW120753   3.914   0.261   6.157  0.5824 -0.2819 -0.1378
 3039SOL    HW220754   3.888   0.338   6.036  2.0283 -0.9151 -1.6167
 3040SOL     OW20755   3.865   4.644  16.775 -0.6163  0.3811 -0.5271
 3040SOL    HW120756   3.939   4.583  16.776 -0.2890  0.7834  0.1676
 3040SOL    HW220757   3.848   4.650  16.869  0.5538 -2.2579 -0.1579
 3041SOL     OW20758   3.801   1.082  14.622  0.4793  0.1604  0.1255
 3041SOL    HW120759   3.852   1.131  14.557 -1.7295  0.4236 -1.4035
 3041SOL    HW220760   3.774   1.160  14.671 -0.7696 -0.0053 -0.3154
 3042SOL     OW20761   0.131   1.896   7.362 -0.0273  0.5158  0.1413
 3042SOL    HW120762   0.121   1.915   7.269  2.3349  2.5796  0.3002
 3042SOL    HW220763   0.176   1.972   7.400 -0.1979  1.1944 -1.0128
 3043SOL     OW20764   1.444   0.282   8.682 -0.0965  0.1369 -0.0830
 3043SOL    HW120765   1.379   0.250   8.620  0.8426 -0.1380 -0.9244
 3043SOL    HW220766   1.387   0.339   8.734  1.1126  0.3287  1.0367
 3044SOL     OW20767   2.747   3.414   4.688  0.0895 -0.0149 -0.6697
 3044SOL    HW120768   2.674   3.460   4.729 -1.3371 -0.0542 -3.1065
 3044SOL    HW220769   2.820   3.461   4.726 -0.6087 -0.2585  0.9480
 3045SOL     OW20770   0.280   1.384   0.765 -0.5370 -0.0416 -0.5736
 3045SOL    HW120771   0.375   1.371   0.760 -0.3322  0.4770  1.9992
 3045SOL    HW220772   0.244   1.297   0.750  1.5867 -0.8044 -1.2492
 3046SOL     OW20773   1.951   1.898   8.176  0.0519 -0.5616 -0.2197
 3046SOL    HW120774   1.898   1.974   8.150  2.4773  1.0775 -0.3805
 3046SOL    HW220775   2.044   1.919   8.166  0.1554 -0.7611  0.3253
 3047SOL     OW20776   4.178   0.169   7.883  0.0564 -0.0879  0.0392
 3047SOL    HW120777   4.132   0.207   7.958  1.5155  2.1340 -0.1869
 3047SOL    HW220778   4.109   0.126   7.832  0.9476  0.5276 -1.6762
 3048SOL     OW20779   1.948   2.717   8.446 -0.0983  0.2566 -0.1087
 3048SOL    HW120780   1.853   2.719   8.435  0.0728  0.5096 -1.5311
 3048SOL    HW220781   1.950   2.789   8.509  1.2313  1.1458 -1.1727
 3049SOL     OW20782   1.984   2.523   4.931 -0.0354 -0.2315 -0.2623
 3049SOL    HW120783   2.044   2.564   4.868 -0.4603  0.1317 -0.4237
 3049SOL    HW220784   2.028   2.445   4.965 -0.0337 -0.8712 -1.6927
 3050SOL     OW20785   3.092   2.854   4.634  0.4873 -0.0689 -0.1342
 3050SOL    HW120786   3.093   2.842   4.540 -0.1400 -1.6938  0.0671
 3050SOL    HW220787   3.186   2.855   4.654  0.4361  0.7873  0.0847
 3051SOL     OW20788   3.161   0.412   6.733 -0.1932  0.7596  0.1369
 3051SOL    HW120789   3.238   0.468   6.736  1.4669 -1.6563  2.0548
 3051SOL    HW220790   3.096   0.470   6.694  0.0383 -0.2286 -1.7275
 3052SOL     OW20791   2.680   4.710  16.876 -0.5536 -0.4499  0.1891
 3052SOL    HW120792   2.621   4.637  16.857  1.9733 -2.8465  1.5711
 3052SOL    HW220793   2.617   0.026  16.923 -1.3660 -2.1474  1.0462
 3053SOL     OW20794   2.531   0.850   7.603 -0.2404  0.1793 -0.2709
 3053SOL    HW120795   2.611   0.849   7.551  1.0809 -1.7634  1.7894
 3053SOL    HW220796   2.466   0.842   7.533 -0.1863 -0.4802 -0.2443
 3054SOL     OW20797   2.683   4.530   0.356 -0.1907  0.1040  0.6142
 3054SOL    HW120798   2.677   4.539   0.260 -1.2290 -0.5997  0.6062
 3054SOL    HW220799   2.598   4.493   0.378 -0.6556 -0.5942 -2.3157
 3055SOL     OW20800   3.149   1.575   4.302 -0.4236  0.1143 -1.4004
 3055SOL    HW120801   3.124   1.546   4.390  1.7825 -2.1891 -1.5417
 3055SOL    HW220802   3.217   1.637   4.330 -1.0871  1.2454 -2.2996
 3056SOL     OW20803   4.196   0.230   7.462  0.2244 -0.3489 -0.0098
 3056SOL    HW120804   4.236   0.191   7.539  1.4914  2.6774  0.8697
 3056SOL    HW220805   4.261   0.296   7.437 -0.3502  0.3076  0.2323
 3057SOL     OW20806   0.770   3.379   2.620 -0.0298 -0.5051  0.1817
 3057SOL    HW120807   0.820   3.388   2.701  1.4842 -1.2326 -0.6703
 3057SOL    HW220808   0.826   3.421   2.554 -0.4435  0.2675  0.3265
 3058SOL     OW20809   2.374   2.886  12.072  0.2886 -0.2122 -0.0123
 3058SOL    HW120810   2.319   2.832  12.128 -1.1415  1.4520  0.1764
 3058SOL    HW220811   2.409   2.812  12.021 -0.0414 -1.2521  1.2953
 3059SOL     OW20812   3.345   3.133   9.489  0.2355 -0.0775 -0.0089
 3059SOL    HW120813   3.384   3.168   9.569 -1.6888  2.0836  0.0021
 3059SOL    HW220814   3.359   3.207   9.430  2.2458 -1.2642 -1.0202
 3060SOL     OW20815   3.061   2.904   2.896 -0.0316  0.1149 -0.1394
 3060SOL    HW120816   2.996   2.882   2.964 -0.3084  0.5663 -0.2568
 3060SOL    HW220817   3.048   2.835   2.830 -0.5122  0.2019 -0.1397
 3061SOL     OW20818   0.459   3.066   6.859 -0.2535  0.3642 -0.3030
 3061SOL    HW120819   0.551   3.063   6.886 -0.5473  3.3124  1.0253
 3061SOL    HW220820   0.473   3.117   6.778 -1.2597  2.8560  1.0809
 3062SOL     OW20821   4.075   3.714   8.559 -0.3093 -0.3253 -0.1248
 3062SOL    HW120822   4.162   3.754   8.561 -1.5156  2.3019  0.7366
 3062SOL    HW220823   4.053   3.715   8.466  0.6196 -3.1867 -0.3799
 3063SOL     OW20824   0.555   3.057   6.356  0.6863  0.2152 -1.0118
 3063SOL    HW120825   0.594   3.026   6.274 -1.4620  3.1490 -3.1139
 3063SOL    HW220826   0.512   2.982   6.398  1.2964  1.1507  1.2442
 3064SOL     OW20827   4.681   4.330  14.683 -0.2863 -0.0689  0.0835
 3064SOL    HW120828   4.598   4.341  14.729 -0.5744  1.5068 -0.8209
 3064SOL    HW220829   4.723   4.252  14.720  0.5172 -0.0180 -0.7086
 3065SOL     OW20830   4.241   1.109  17.437 -0.8287 -0.4786  0.3602
 3065SOL    HW120831   4.241   1.200  17.468 -0.5190 -0.3112 -0.1347
 3065SOL    HW220832   4.215   1.064  17.517 -0.2386 -0.5483  0.5120
 3066SOL     OW20833   0.571   1.210   7.498 -0.0291  0.0103  0.1403
 3066SOL    HW120834   0.650   1.259   7.518 -1.0459  1.3158  0.9843
 3066SOL    HW220835   0.509   1.278   7.525 -0.0700  0.3566 -0.8129
 3067SOL     OW20836   1.354   0.302   3.161  0.3061  0.2431  0.3947
 3067SOL    HW120837   1.361   0.393   3.131  1.6549 -0.1577 -0.4786
 3067SOL    HW220838   1.304   0.273   3.085 -0.3202  0.1309  0.8477
 3068SOL     OW20839   1.207   0.374   3.631  0.2913 -0.0613  0.1664
 3068SOL    HW120840   1.155   0.296   3.650 -1.6711  1.0341 -0.7377
 3068SOL    HW220841   1.240   0.349   3.545  0.8668 -0.4122  0.4872
 3069SOL     OW20842   1.415   0.874   9.129  0.3954 -0.4672 -0.4761
 3069SOL    HW120843   1.423   0.961   9.168 -0.6226  0.6768 -2.7677
 3069SOL    HW220844   1.347   0.896   9.065  1.0611  1.7417 -0.4354
 3070SOL     OW20845   4.560   3.370   5.014 -1.1812  0.3529 -0.1546
 3070SOL    HW120846   4.573   3.402   5.103  0.5305 -2.3107  0.5515
 3070SOL    HW220847   4.593   3.281   5.012 -1.7558  0.1516 -0.6777
 3071SOL     OW20848   4.252   0.694   3.095 -0.4063  0.3768 -0.2545
 3071SOL    HW120849   4.164   0.666   3.068  0.7207 -1.0498 -2.4628
 3071SOL    HW220850   4.258   0.787   3.073  1.1849  0.5829  1.1277
 3072SOL     OW20851   1.352   0.441   0.650 -0.6503 -0.1862 -0.2261
 3072SOL    HW120852   1.275   0.390   0.626 -0.6498 -0.5454  0.5421
 3072SOL    HW220853   1.311   0.510   0.702  0.9751  1.8570 -1.6599
 3073SOL     OW20854   3.734   0.540   9.943 -0.4475 -0.2966 -0.5644
 3073SOL    HW120855   3.652   0.573   9.979 -0.0804 -1.0883  1.0192
 3073SOL    HW220856   3.782   0.528  10.025 -0.6574  0.5503 -0.3189
 3074SOL     OW20857   2.599   3.474   5.104  0.5275 -0.0210 -0.1193
 3074SOL    HW120858   2.632   3.516   5.183  0.3056  0.7060 -0.4074
 3074SOL    HW220859   2.604   3.380   5.119  1.9696  0.2497  1.0840
 3075SOL     OW20860   3.100   0.256   4.738 -0.1074  0.2203 -0.5765
 3075SOL    HW120861   3.091   0.314   4.814  0.5638 -1.3639  0.6861
 3075SOL    HW220862   3.180   0.286   4.696  0.7366 -0.5518  0.5009
 3076SOL     OW20863   0.549   1.526  12.758  0.4219  0.1511  0.2393
 3076SOL    HW120864   0.548   1.560  12.847  0.0403 -0.1521  0.3517
 3076SOL    HW220865   0.549   1.601  12.699  0.8798  0.8630  1.1398
 3077SOL     OW20866   4.719   4.417   2.247 -0.4168 -0.6820 -0.1867
 3077SOL    HW120867   0.008   4.431   2.338 -2.2404  0.8942  0.1179
 3077SOL    HW220868   4.635   4.372   2.257 -1.4607  1.0571 -1.0284
 3078SOL     OW20869   0.175   4.047  17.588  0.1307  0.4602  0.4200
 3078SOL    HW120870   0.117   4.084  17.522  1.0222 -0.4212 -0.8532
 3078SOL    HW220871   0.202   3.963  17.552  0.1689 -0.6468  3.0787
 3079SOL     OW20872   2.554   2.525   0.102 -0.0654 -0.9445  0.0055
 3079SOL    HW120873   2.561   2.507   0.008  1.0328 -2.0793  0.3013
 3079SOL    HW220874   2.643   2.515   0.137 -0.1216 -1.6968 -0.0526
 3080SOL     OW20875   0.750   1.345  16.178 -0.1897 -0.5344  0.5891
 3080SOL    HW120876   0.783   1.311  16.262 -0.7273 -1.0744  0.5832
 3080SOL    HW220877   0.833   1.341  16.132 -0.8394  1.7194 -0.7793
 3081SOL     OW20878   4.691   3.136   4.968 -0.2564  0.1858  0.0620
 3081SOL    HW120879   4.712   3.101   5.055 -0.7855  0.5830  0.3501
 3081SOL    HW220880   4.694   3.061   4.909 -0.6966  1.1203 -1.1421
 3082SOL     OW20881   0.742   4.554   3.900  0.3728  0.2675  0.5842
 3082SOL    HW120882   0.784   4.531   3.817  1.3243  0.7783  0.9297
 3082SOL    HW220883   0.694   4.472   3.916 -1.3930  0.9543 -1.1423
 3083SOL     OW20884   1.994   2.307   1.606  0.0571 -0.5076 -0.0274
 3083SOL    HW120885   1.938   2.234   1.630 -1.7864 -0.0692 -2.9482
 3083SOL    HW220886   2.031   2.272   1.525  0.2870  0.8251 -0.4986
 3084SOL     OW20887   4.447   1.503   4.602 -0.2383  0.2809  0.2260
 3084SOL    HW120888   4.387   1.432   4.580 -0.3481  0.2867  0.5081
 3084SOL    HW220889   4.528   1.465   4.568  1.4838  1.4293  3.0481
 3085SOL     OW20890   2.445   2.638   2.876 -0.0111  0.4395  0.2720
 3085SOL    HW120891   2.430   2.731   2.861 -0.2458  0.3921  0.2158
 3085SOL    HW220892   2.429   2.599   2.790 -2.4944  1.6082  0.1852
 3086SOL     OW20893   2.014   0.445   4.221  0.3674  0.1268 -0.3447
 3086SOL    HW120894   1.925   0.441   4.185  0.4522  0.0441 -0.5447
 3086SOL    HW220895   2.028   0.353   4.245  0.3778 -0.6111 -3.1232
 3087SOL     OW20896   0.285   1.315   4.440 -0.3200  0.3542 -0.3984
 3087SOL    HW120897   0.240   1.391   4.403 -0.6173  0.8205  0.9269
 3087SOL    HW220898   0.354   1.310   4.374  0.3426  1.2186  0.2261
 3088SOL     OW20899   0.581   1.295  10.482 -0.4917  0.2982 -0.0822
 3088SOL    HW120900   0.607   1.367  10.539  2.0094  0.4290 -1.4011
 3088SOL    HW220901   0.666   1.253  10.467  0.7170  2.3200  1.0797
 3089SOL     OW20902   1.121   2.958  16.078  0.2504  0.8338 -0.0014
 3089SOL    HW120903   1.207   2.923  16.055  0.0312 -0.8479  1.7560
 3089SOL    HW220904   1.105   3.016  16.003 -2.2707  0.1856  0.0295
 3090SOL     OW20905   1.592   2.733   6.826  0.6289  0.0362 -0.0393
 3090SOL    HW120906   1.547   2.806   6.784  0.9418  0.6601  0.7132
 3090SOL    HW220907   1.679   2.772   6.832  0.6327  0.8484 -4.8158
 3091SOL     OW20908   1.650   3.002  17.083  0.0877 -0.2265  0.3617
 3091SOL    HW120909   1.706   3.075  17.057 -0.6641  0.5382  0.8891
 3091SOL    HW220910   1.726   2.950  17.107  0.7539  0.9278  0.7680
 3092SOL     OW20911   3.879   4.648  13.166  0.4315 -0.2334 -0.2406
 3092SOL    HW120912   3.939   4.576  13.143 -0.4423 -1.2698  0.7376
 3092SOL    HW220913   3.823   4.604  13.229  1.2661  2.3143  2.2439
 3093SOL     OW20914   0.308   1.181   0.986  0.1715  0.3003 -0.4462
 3093SOL    HW120915   0.294   1.169   0.892  1.5664 -1.2737 -0.4521
 3093SOL    HW220916   0.285   1.096   1.023 -0.1411 -0.0909 -1.5468
 3094SOL     OW20917   3.613   1.574   0.534  0.1141 -0.1119 -0.1179
 3094SOL    HW120918   3.659   1.490   0.539  0.4593  0.1093  0.3796
 3094SOL    HW220919   3.572   1.567   0.448 -1.2365 -0.2676  0.5352
 3095SOL     OW20920   1.098   3.129   5.723 -0.1461 -0.5225  0.6202
 3095SOL    HW120921   1.039   3.103   5.794  0.5495 -0.8509  1.0761
 3095SOL    HW220922   1.038   3.173   5.663  1.1089  1.3321  0.7238
 3096SOL     OW20923   3.368   2.439   5.298 -0.0035  0.1754 -0.3742
 3096SOL    HW120924   3.298   2.471   5.356  0.0459 -1.5371  0.6314
 3096SOL    HW220925   3.415   2.516   5.266  3.8023 -1.6213  0.9321
 3097SOL     OW20926   4.542   0.572   1.370 -0.6723 -0.3692 -0.0902
 3097SOL    HW120927   4.627   0.561   1.328 -0.8210 -1.2803 -0.1489
 3097SOL    HW220928   4.493   0.495   1.341  0.3292 -0.5790 -1.2259
 3098SOL     OW20929   1.466   0.610   9.157  0.8752 -0.1408 -0.4878
 3098SOL    HW120930   1.463   0.589   9.064  0.5180 -1.2282 -0.2212
 3098SOL    HW220931   1.461   0.706   9.149 -0.3256 -0.2399 -0.9461
 3099SOL     OW20932   3.173   1.751  10.924  0.2181 -0.0622 -0.0005
 3099SOL    HW120933   3.126   1.830  10.949  0.8328  0.7534 -1.4161
 3099SOL    HW220934   3.224   1.780  10.848 -0.8384  2.6733  0.3318
 3100SOL     OW20935   1.195   4.376   4.564  0.2831  0.0678  0.2383
 3100SOL    HW120936   1.132   4.366   4.492  0.7879  1.0527 -0.3358
 3100SOL    HW220937   1.127   4.367   4.631 -1.1241  0.2723 -1.1330
 3101SOL     OW20938   0.453   4.484   8.080  1.0935 -0.2881 -0.0563
 3101SOL    HW120939   0.437   4.565   8.129  1.6290 -0.2587  0.0728
 3101SOL    HW220940   0.390   4.423   8.117  1.0022  1.3794  2.5213
 3102SOL     OW20941   1.578   1.996   5.090 -0.4094  0.2252 -0.1425
 3102SOL    HW120942   1.652   2.018   5.034  1.8806 -0.3414  2.6658
 3102SOL    HW220943   1.508   2.042   5.044  0.2536 -1.3646 -2.7516
 3103SOL     OW20944   0.739   0.333  11.476 -0.3560  0.0817 -0.0104
 3103SOL    HW120945   0.806   0.293  11.422 -0.6349  1.5787 -1.4731
 3103SOL    HW220946   0.762   0.283  11.554 -0.2127 -0.1105 -0.1760
 3104SOL     OW20947   2.419   0.254   4.135  0.9404  0.0745 -0.1565
 3104SOL    HW120948   2.436   0.316   4.206 -0.5458  0.0417  0.2413
 3104SOL    HW220949   2.489   0.191   4.148  1.3783  0.9692  1.9701
 3105SOL     OW20950   3.183   3.040   3.934 -0.1849  0.6619  0.0874
 3105SOL    HW120951   3.185   3.115   3.994 -0.6564 -0.3067  1.3027
 3105SOL    HW220952   3.095   3.008   3.916 -0.2771  1.1511 -0.3411
 3106SOL     OW20953   1.477   1.163   4.874  0.0553  0.5858 -0.2160
 3106SOL    HW120954   1.490   1.130   4.963  2.0356 -0.8814 -1.0300
 3106SOL    HW220955   1.553   1.124   4.830 -0.7532 -0.9219 -0.2681
 3107SOL     OW20956   2.150   3.931   2.217 -0.2976 -0.0011  0.0966
 3107SOL    HW120957   2.239   3.897   2.227 -0.2166  0.5008  1.1193
 3107SOL    HW220958   2.156   4.004   2.279  0.3521 -1.8911  2.2898
 3108SOL     OW20959   3.039   2.486   7.098 -0.8241  0.1628 -0.0001
 3108SOL    HW120960   3.114   2.437   7.065 -2.2931 -1.9148 -0.2806
 3108SOL    HW220961   3.066   2.570   7.062  2.2385 -0.0086  1.8898
 3109SOL     OW20962   2.359   4.655   4.759  0.0397 -0.1578 -0.4230
 3109SOL    HW120963   2.397   4.662   4.671 -1.4094  0.1997 -1.0173
 3109SOL    HW220964   2.290   4.594   4.738  0.2820  0.4612 -2.9937
 3110SOL     OW20965   2.800   3.653   0.301  0.0467 -0.3723 -0.1395
 3110SOL    HW120966   2.709   3.681   0.314  0.4294  2.6210 -3.7359
 3110SOL    HW220967   2.801   3.659   0.205 -0.9609  1.0313 -0.0703
 3111SOL     OW20968   2.027   1.970   0.257 -0.0612  0.1646 -0.0200
 3111SOL    HW120969   2.086   2.039   0.288 -1.1141  1.2775 -0.4566
 3111SOL    HW220970   1.948   2.006   0.298  3.0631  2.1583  4.2589
 3112SOL     OW20971   4.314   2.627   6.273 -0.4029  0.4674 -0.5854
 3112SOL    HW120972   4.388   2.575   6.241  0.2283  0.3017  1.1692
 3112SOL    HW220973   4.312   2.695   6.206  2.3814 -0.9990 -2.1586
 3113SOL     OW20974   3.874   0.390  10.407  0.4347 -0.1023  0.2781
 3113SOL    HW120975   3.937   0.350  10.466  0.5614 -2.2960 -1.3462
 3113SOL    HW220976   3.789   0.346  10.412  1.1379 -1.5170 -0.4662
 3114SOL     OW20977   0.708   3.683  14.865  0.6251  0.3634  0.5893
 3114SOL    HW120978   0.656   3.647  14.793  1.7735  0.0955 -0.1044
 3114SOL    HW220979   0.786   3.716  14.820 -0.1909  0.5456 -0.6950
 3115SOL     OW20980   4.196   1.074   7.663 -0.1954 -0.3953  0.3146
 3115SOL    HW120981   4.152   1.157   7.647  0.0065 -0.3556 -0.0539
 3115SOL    HW220982   4.142   1.017   7.609 -1.2461  1.4501 -0.5859
 3116SOL     OW20983   4.280   2.782   3.285  0.4172  0.7691 -0.3651
 3116SOL    HW120984   4.333   2.798   3.363 -0.3158  0.8263  0.1195
 3116SOL    HW220985   4.191   2.760   3.311  0.1766  0.2834 -1.6037
 3117SOL     OW20986   1.063   1.422  15.546 -0.1753 -0.4413 -0.0079
 3117SOL    HW120987   1.102   1.489  15.489  2.1123 -1.9772 -0.2348
 3117SOL    HW220988   1.027   1.471  15.620 -2.3407 -2.6112  0.3716
 3118SOL     OW20989   0.077   1.566  17.552 -0.2560  0.1170  0.0091
 3118SOL    HW120990   0.018   1.493  17.530 -0.4309  0.7711 -1.6500
 3118SOL    HW220991   0.024   1.641  17.527  1.3254  0.2850 -2.8340
 3119SOL     OW20992   2.484   3.674  15.912  0.5287 -0.3231  0.0777
 3119SOL    HW120993   2.450   3.695  15.999 -0.5587 -2.6921  0.2287
 3119SOL    HW220994   2.489   3.765  15.883  1.6201 -1.0180 -1.8886
 3120SOL     OW20995   1.767   2.464   2.880 -0.2922  0.1955  0.0089
 3120SOL    HW120996   1.791   2.470   2.788 -1.0091  0.9818 -0.1201
 3120SOL    HW220997   1.675   2.436   2.886 -0.1225 -0.0768  1.4490
 3121SOL     OW20998   0.522   2.661   1.988 -0.1913 -0.1910  0.4547
 3121SOL    HW120999   0.557   2.732   1.934  0.3122 -0.0921  0.9110
 3121SOL    HW221000   0.587   2.591   1.981  0.4440  0.3287  1.2097
 3122SOL     OW21001   1.644   1.662   3.596  0.3178  0.5310 -0.3059
 3122SOL    HW121002   1.624   1.579   3.639  0.7030  0.1908 -0.7871
 3122SOL    HW221003   1.552   1.688   3.597 -0.1832 -1.2128 -2.8793
 3123SOL     OW21004   3.628   4.136   9.190 -0.4718 -0.4421  0.6850
 3123SOL    HW121005   3.631   4.061   9.250 -4.4979 -0.7782  0.4436
 3123SOL    HW221006   3.709   4.183   9.209 -1.7336  0.3193  4.2103
 3124SOL     OW21007   3.963   4.184   0.429  0.2400  0.3551  0.4082
 3124SOL    HW121008   4.013   4.132   0.492  0.1053 -0.2353  0.0257
 3124SOL    HW221009   3.978   4.142   0.345  0.1170 -0.3428  0.7391
 3125SOL     OW21010   0.556   3.031  14.717 -0.3566 -0.2847 -0.1614
 3125SOL    HW121011   0.510   2.978  14.652 -1.4271  0.2504  0.1706
 3125SOL    HW221012   0.617   2.964  14.749 -0.5220  0.1877  1.1286
 3126SOL     OW21013   4.052   0.911  10.136 -0.1442 -0.1864  0.4279
 3126SOL    HW121014   4.137   0.882  10.102 -0.4694 -2.3954  1.5411
 3126SOL    HW221015   4.033   0.992  10.088  0.0590 -0.4214 -0.0508
 3127SOL     OW21016   2.334   4.596   5.827 -0.0522 -0.2135 -0.3759
 3127SOL    HW121017   2.313   4.510   5.791  0.8828 -2.1989  3.8294
 3127SOL    HW221018   2.425   4.578   5.851  0.1148  1.6147  0.3725
 3128SOL     OW21019   2.197   0.309   4.545 -0.1512  0.2578 -0.1694
 3128SOL    HW121020   2.277   0.358   4.567 -0.5357  0.3827  0.9323
 3128SOL    HW221021   2.219   0.216   4.543 -2.4520 -0.2806  0.2803
 3129SOL     OW21022   3.860   2.728  13.981  0.1503  0.1416 -0.0726
 3129SOL    HW121023   3.951   2.754  13.992 -0.7931  2.7091  1.6254
 3129SOL    HW221024   3.818   2.813  13.993  2.0548  1.0990 -0.3015
 3130SOL     OW21025   1.253   1.196  16.010  0.6966  0.0315  0.7412
 3130SOL    HW121026   1.184   1.257  15.983  0.1543 -2.4179 -3.4360
 3130SOL    HW221027   1.216   1.152  16.086  0.8061  0.8135  1.2446
 3131SOL     OW21028   1.808   3.342   2.862 -0.3149  0.1428 -0.4881
 3131SOL    HW121029   1.866   3.417   2.858 -0.0362 -0.0433 -0.0507
 3131SOL    HW221030   1.729   3.374   2.819 -2.4663 -2.1734  1.7140
 3132SOL     OW21031   4.384   4.549  12.671 -0.0088  0.5870 -0.2399
 3132SOL    HW121032   4.443   4.550  12.596 -0.9668 -3.4048 -1.0631
 3132SOL    HW221033   4.425   4.501  12.743 -0.8667 -0.2016 -0.2829
 3133SOL     OW21034   0.557   3.016   5.043 -0.0305  0.0338  0.6151
 3133SOL    HW121035   0.547   3.107   5.073 -0.7274  0.0436  0.3543
 3133SOL    HW221036   0.490   2.972   5.095 -0.6010  1.8052  1.3768
 3134SOL     OW21037   4.512   2.340   1.353 -0.9371  0.1468  0.7702
 3134SOL    HW121038   4.489   2.281   1.281  0.1252  1.4219 -0.5967
 3134SOL    HW221039   4.560   2.279   1.410  0.1360 -0.9625 -1.3355
 3135SOL     OW21040   1.326   3.090   4.521 -0.0242  0.4191  0.0916
 3135SOL    HW121041   1.305   3.173   4.565  2.0427  0.9050  0.1815
 3135SOL    HW221042   1.272   3.021   4.558 -0.0735  0.2948 -0.2149
 3136SOL     OW21043   4.145   0.048   3.244  0.4175 -0.2767  0.6838
 3136SOL    HW121044   4.067   0.104   3.238  0.0575 -0.9796 -0.9946
 3136SOL    HW221045   4.187   0.074   3.326  0.0920 -0.3949  0.8890
 3137SOL     OW21046   2.365   4.077   8.969  0.3445  0.2823 -1.0215
 3137SOL    HW121047   2.369   4.022   9.047  0.3695  0.4774 -0.8841
 3137SOL    HW221048   2.449   4.123   8.974 -0.0641  1.0800 -1.5865
 3138SOL     OW21049   2.238   2.744  10.005 -0.3472 -0.1342  0.3922
 3138SOL    HW121050   2.310   2.717   9.947  1.1315  1.3330  1.5592
 3138SOL    HW221051   2.247   2.839  10.010  1.3644 -0.1801 -1.6263
 3139SOL     OW21052   4.554   1.138   3.414  0.1369  0.4689  0.2840
 3139SOL    HW121053   4.609   1.216   3.422 -0.9806  1.3106 -0.2355
 3139SOL    HW221054   4.539   1.119   3.507 -1.0073  0.1817  0.0516
 3140SOL     OW21055   0.522   4.695   5.737 -0.5754 -0.1571 -0.3753
 3140SOL    HW121056   0.556   0.003   5.661 -0.5353 -0.2425 -0.4099
 3140SOL    HW221057   0.456   0.019   5.766 -3.8262 -3.5498 -0.3841
 3141SOL     OW21058   3.196   1.067   1.923  0.3868  0.2148 -0.0411
 3141SOL    HW121059   3.151   1.006   1.981  2.6155 -2.8406 -1.5352
 3141SOL    HW221060   3.121   1.114   1.886 -0.3747 -1.7105 -0.9328
 3142SOL     OW21061   1.758   2.032   6.524 -0.1803  0.1507 -0.5239
 3142SOL    HW121062   1.814   2.032   6.602 -1.2794 -0.3020  0.2543
 3142SOL    HW221063   1.781   1.946   6.488 -0.7305 -0.3961  0.4186
 3143SOL     OW21064   1.786   3.419   7.895 -0.3179  0.4368  0.1918
 3143SOL    HW121065   1.733   3.357   7.844  0.5296  1.0037 -1.3506
 3143SOL    HW221066   1.720   3.449   7.958  0.5684  0.0625  1.3043
 3144SOL     OW21067   2.521   4.526   6.429 -0.3484 -0.0026  0.5482
 3144SOL    HW121068   2.477   4.479   6.358 -0.9309  0.6964  0.4435
 3144SOL    HW221069   2.594   4.467   6.445 -0.1180  0.6665  2.0054
 3145SOL     OW21070   4.655   2.350   7.787  0.0743 -0.4110 -0.0970
 3145SOL    HW121071   4.609   2.279   7.743  0.2536 -0.5295 -0.0913
 3145SOL    HW221072   4.637   2.333   7.879  0.4695  0.7650  0.2073
 3146SOL     OW21073   3.948   0.064   7.790  0.0170  0.8979 -0.2954
 3146SOL    HW121074   3.979   4.724   7.746 -1.5325 -0.0227  0.2675
 3146SOL    HW221075   3.854   0.050   7.800  0.4289 -0.3142  1.6897
 3147SOL     OW21076   1.315   0.618   5.888 -0.1656  0.2276 -0.3094
 3147SOL    HW121077   1.268   0.615   5.971 -0.5114  0.4730 -0.4970
 3147SOL    HW221078   1.262   0.683   5.841 -0.2062  0.7889  0.5146
 3148SOL     OW21079   2.709   3.064   1.766  0.1423 -0.4238  0.1882
 3148SOL    HW121080   2.688   3.098   1.679  1.8898 -0.1483 -0.1254
 3148SOL    HW221081   2.690   2.972   1.746 -0.0402 -0.1007 -1.1411
 3149SOL     OW21082   1.401   0.853  16.434 -0.4979  0.0166  0.1007
 3149SOL    HW121083   1.418   0.918  16.365  1.3369 -1.0956 -0.4878
 3149SOL    HW221084   1.313   0.881  16.457  0.8010  2.6589  1.8851
 3150SOL     OW21085   3.437   0.614  13.136  0.2899 -0.5185  0.1088
 3150SOL    HW121086   3.396   0.685  13.088  0.5075  0.7171  1.7652
 3150SOL    HW221087   3.499   0.662  13.191 -0.2003  1.1935 -0.8280
 3151SOL     OW21088   2.965   1.501  13.734 -0.1293 -0.2011  0.4037
 3151SOL    HW121089   3.033   1.555  13.695  1.4379 -0.9123  2.1780
 3151SOL    HW221090   2.907   1.509  13.659 -1.3351 -1.3121  1.2053
 3152SOL     OW21091   2.955   4.278   2.920  0.0718 -0.0169  0.2224
 3152SOL    HW121092   2.871   4.315   2.944  0.1859  0.0659  0.4919
 3152SOL    HW221093   2.952   4.201   2.977 -1.6108 -0.9128 -1.0761
 3153SOL     OW21094   4.042   3.799  12.211  0.6718  0.2500  0.1426
 3153SOL    HW121095   4.050   3.846  12.294  2.0768 -0.0229  0.1580
 3153SOL    HW221096   4.018   3.878  12.163 -1.5565 -0.3921  0.2141
 3154SOL     OW21097   2.943   0.947   1.787 -0.3508 -0.0673 -0.2259
 3154SOL    HW121098   2.866   0.947   1.729  1.4175 -0.5739 -2.5776
 3154SOL    HW221099   3.005   0.997   1.733  0.2166 -0.3387  0.1748
 3155SOL     OW21100   0.497   0.729   5.947 -0.4044  1.4609  0.1171
 3155SOL    HW121101   0.549   0.806   5.967  1.8824 -0.3786  1.2580
 3155SOL    HW221102   0.527   0.713   5.858  0.1573  1.7639  0.2547
 3156SOL     OW21103   3.217   4.653   2.240  0.4046 -0.1264 -0.1974
 3156SOL    HW121104   3.129   4.616   2.241  0.5700 -0.5147 -0.2476
 3156SOL    HW221105   3.197   4.737   2.281 -1.9889 -0.9524  0.3355
 3157SOL     OW21106   1.858   1.005   6.680 -0.6818  0.4331  0.5175
 3157SOL    HW121107   1.779   0.952   6.667  0.1182 -0.0608 -2.2294
 3157SOL    HW221108   1.924   0.940   6.656 -1.0523  0.2310  0.0343
 3158SOL     OW21109   1.979   1.960   8.762  0.3186  0.5373 -0.3615
 3158SOL    HW121110   1.925   2.038   8.755 -1.5819 -0.5152  2.2524
 3158SOL    HW221111   1.909   1.896   8.775 -0.5571  1.8218  1.2440
 3159SOL     OW21112   3.170   3.482   3.139 -0.2722 -0.0039  0.0298
 3159SOL    HW121113   3.158   3.498   3.046  0.2408  3.1527  0.5102
 3159SOL    HW221114   3.107   3.544   3.174  1.0159  0.5327  1.4128
 3160SOL     OW21115   0.806   3.444   5.715 -0.1642 -0.2739 -0.1586
 3160SOL    HW121116   0.859   3.477   5.643  1.1752 -0.3819  0.7588
 3160SOL    HW221117   0.756   3.516   5.753  0.9696  1.1543 -1.3540
 3161SOL     OW21118   2.979   3.580   7.693 -0.2236  0.2520  0.2182
 3161SOL    HW121119   2.984   3.504   7.751 -1.0583  0.0925  0.0844
 3161SOL    HW221120   3.068   3.613   7.685 -0.9667  1.6426 -2.3248
 3162SOL     OW21121   1.860   0.274   0.981  0.4458  0.0529  0.3966
 3162SOL    HW121122   1.779   0.285   1.031  1.1235 -0.0897  1.5396
 3162SOL    HW221123   1.819   0.262   0.896  0.0314 -0.6562  0.6960
 3163SOL     OW21124   1.103   3.594  11.841 -0.1642  0.0299  0.4011
 3163SOL    HW121125   1.182   3.619  11.889 -0.9965  1.8565  0.8125
 3163SOL    HW221126   1.073   3.516  11.889 -1.7658  1.3445  1.5043
 3164SOL     OW21127   4.623   2.179   2.424 -0.0655 -0.4865 -0.2077
 3164SOL    HW121128   4.599   2.185   2.331  0.4598 -0.4385 -0.3423
 3164SOL    HW221129   4.563   2.243   2.462 -0.1954  0.3354 -1.8019
 3165SOL     OW21130   2.313   4.123   6.948  0.2861  0.1299  0.2104
 3165SOL    HW121131   2.357   4.125   7.033  1.9762 -0.7949 -0.6497
 3165SOL    HW221132   2.361   4.185   6.894  0.2234  1.8983  2.1531
 3166SOL     OW21133   4.712   2.651   2.287 -0.2053  0.2640 -0.8875
 3166SOL    HW121134   4.637   2.681   2.337 -0.5151 -0.9275 -0.6287
 3166SOL    HW221135   0.009   2.585   2.346 -2.5900 -1.9242 -1.8907
 3167SOL     OW21136   1.389   4.198   7.081 -0.4137  0.4546 -0.7163
 3167SOL    HW121137   1.369   4.113   7.120 -2.0404  0.5422 -1.3602
 3167SOL    HW221138   1.372   4.171   6.991 -3.3530  0.3267 -0.1385
 3168SOL     OW21139   0.753   2.171   8.908  0.1507  0.1236  0.0391
 3168SOL    HW121140   0.735   2.147   8.999 -0.9024 -0.6119 -0.3648
 3168SOL    HW221141   0.672   2.218   8.891  1.2316  2.0855  0.2427
 3169SOL     OW21142   3.462   2.093  14.968 -0.3711  0.6724  0.8622
 3169SOL    HW121143   3.519   2.016  14.963 -3.3553 -1.5766  2.0221
 3169SOL    HW221144   3.452   2.119  14.876  0.1761 -1.7444  0.1155
 3170SOL     OW21145   2.876   1.746   8.465 -0.2423 -0.0999 -0.2972
 3170SOL    HW121146   2.874   1.841   8.476  0.5075  0.0054 -1.0477
 3170SOL    HW221147   2.968   1.733   8.487 -0.2125  1.3710  0.4469
 3171SOL     OW21148   1.448   3.282  17.005 -0.3697 -0.1995 -0.1205
 3171SOL    HW121149   1.385   3.302  17.074  0.0612  0.2087  0.1562
 3171SOL    HW221150   1.467   3.189  17.011 -2.3571 -0.6309 -0.5344
 3172SOL     OW21151   3.702   0.281   4.018  0.4126  0.5797 -0.4716
 3172SOL    HW121152   3.737   0.346   3.958  0.3326  2.5691  1.6553
 3172SOL    HW221153   3.716   0.325   4.102  3.1719  1.3555 -1.3434
 3173SOL     OW21154   2.502   1.808   7.735  0.0691 -0.5593  0.3981
 3173SOL    HW121155   2.561   1.737   7.760  1.6175  0.2377 -0.9992
 3173SOL    HW221156   2.523   1.879   7.796 -0.5392 -0.2712  0.2807
 3174SOL     OW21157   2.328   0.796   7.807  0.0607  0.6028  0.3121
 3174SOL    HW121158   2.395   0.833   7.750  1.0153 -0.3624  0.7982
 3174SOL    HW221159   2.347   0.839   7.890  0.2533 -1.3114  1.2643
 3175SOL     OW21160   1.518   0.535   5.387  0.0551  0.1024 -0.0119
 3175SOL    HW121161   1.429   0.501   5.375  0.2628 -1.6848  3.6022
 3175SOL    HW221162   1.566   0.518   5.305  0.7730 -1.3201  0.6997
 3176SOL     OW21163   3.751   1.239  11.337 -0.0767 -0.4027  0.3062
 3176SOL    HW121164   3.717   1.328  11.350  2.6580  0.7834 -0.7665
 3176SOL    HW221165   3.750   1.243  11.242  2.1287 -1.2228  0.2379
 3177SOL     OW21166   3.993   3.412   2.563  0.5024 -0.0484 -0.0869
 3177SOL    HW121167   4.063   3.458   2.515  0.1923 -0.3772 -0.8608
 3177SOL    HW221168   4.003   3.320   2.539  0.2988  0.5729 -2.6092
 3178SOL     OW21169   3.555   4.105   5.574  0.4679 -0.7681 -0.2411
 3178SOL    HW121170   3.552   4.019   5.532  3.4232  0.0657 -2.1127
 3178SOL    HW221171   3.464   4.131   5.556  0.6441 -0.1032 -0.1624
 3179SOL     OW21172   3.651   1.077  15.496  0.4605  0.2483 -0.0479
 3179SOL    HW121173   3.729   1.056  15.444  0.9359  1.9778 -0.0102
 3179SOL    HW221174   3.682   1.165  15.517  0.5991  0.2968 -0.4549
 3180SOL     OW21175   2.232   0.810  13.315 -0.4955 -0.0941  0.5899
 3180SOL    HW121176   2.321   0.776  13.309 -0.1398  1.1861 -1.6553
 3180SOL    HW221177   2.249   0.904  13.320 -0.2917 -0.1757  1.4173
 3181SOL     OW21178   2.424   0.400   2.324  0.1899  0.5410 -0.0124
 3181SOL    HW121179   2.334   0.384   2.351 -0.6789  3.8230 -1.0189
 3181SOL    HW221180   2.473   0.384   2.405  1.0935  0.7387 -0.5127
 3182SOL     OW21181   3.814   0.931   6.937  0.6315 -0.1786  0.3103
 3182SOL    HW121182   3.773   1.013   6.964 -0.4445 -1.3034  2.1311
 3182SOL    HW221183   3.788   0.881   7.014  0.1884 -1.6339 -0.7726
 3183SOL     OW21184   2.017   1.698   3.544  0.0650  0.2686  0.3442
 3183SOL    HW121185   2.018   1.767   3.611 -0.1351  2.6319 -2.0850
 3183SOL    HW221186   2.034   1.628   3.607  1.0617 -0.6794 -0.9936
 3184SOL     OW21187   1.764   1.681   4.917  0.2002 -0.3462 -0.5505
 3184SOL    HW121188   1.747   1.661   5.009  1.3875 -0.0212 -0.2515
 3184SOL    HW221189   1.710   1.612   4.878 -0.1282  1.2863 -2.9239
 3185SOL     OW21190   4.585   2.780   3.492  0.2024  0.1514 -0.3447
 3185SOL    HW121191   4.616   2.699   3.531  0.9120  0.8422  0.5344
 3185SOL    HW221192   4.518   2.806   3.556  1.9875  0.7390  1.2703
 3186SOL     OW21193   1.942   1.091   4.105  0.2739  0.1736 -0.7058
 3186SOL    HW121194   1.972   1.047   4.026 -0.9773 -2.4890  0.2647
 3186SOL    HW221195   1.884   1.019   4.131  0.5244  0.7724  1.4894
 3187SOL     OW21196   1.851   2.537   4.060 -0.1840 -0.1173  0.0470
 3187SOL    HW121197   1.925   2.552   4.000 -0.1998  1.2204  0.3730
 3187SOL    HW221198   1.837   2.445   4.038 -1.3784 -0.0820  0.6595
 3188SOL     OW21199   2.661   2.705   5.496  0.4649 -0.2848 -0.0913
 3188SOL    HW121200   2.701   2.634   5.446  1.4554 -1.0925  1.8391
 3188SOL    HW221201   2.716   2.706   5.574  2.7080 -0.5739 -1.6501
 3189SOL     OW21202   3.966   1.595   9.515 -0.0855  0.0442  0.2159
 3189SOL    HW121203   3.970   1.520   9.456  0.6437 -0.4389  0.8977
 3189SOL    HW221204   4.058   1.606   9.540  0.3093 -0.0751 -1.1576
 3190SOL     OW21205   0.254   4.349   8.235  0.2480  0.3583 -0.0555
 3190SOL    HW121206   0.247   4.399   8.316  0.7998 -0.0171  0.2218
 3190SOL    HW221207   0.263   4.258   8.266 -2.1888  0.0237 -0.3164
 3191SOL     OW21208   3.881   2.274   2.989  0.2985 -0.1414  0.4071
 3191SOL    HW121209   3.803   2.230   3.024  1.7274 -1.9352  1.2731
 3191SOL    HW221210   3.864   2.368   3.001  3.9170  0.4422  0.7308
 3192SOL     OW21211   4.260   3.872   2.006  0.2134 -0.7113  0.4717
 3192SOL    HW121212   4.335   3.815   1.984 -0.3547 -1.3104  0.0887
 3192SOL    HW221213   4.235   3.906   1.921 -0.3619  1.2311  1.4260
 3193SOL     OW21214   4.483   2.349   2.583 -0.1226  0.4109 -0.0794
 3193SOL    HW121215   4.456   2.307   2.664 -1.8528  1.9282  0.1343
 3193SOL    HW221216   4.561   2.395   2.615 -1.3589  1.8236  0.8956
 3194SOL     OW21217   0.109   1.650   4.007  0.1790  0.0066  0.0228
 3194SOL    HW121218   0.187   1.702   3.990  0.4017 -0.8238 -1.5491
 3194SOL    HW221219   0.047   1.695   3.950 -1.0800 -0.8919  0.6789
 3195SOL     OW21220   2.983   3.062  16.303 -0.1305 -0.7014  0.1681
 3195SOL    HW121221   2.981   3.076  16.208  0.9358 -0.1827  0.2256
 3195SOL    HW221222   3.078   3.053  16.312 -0.1137 -0.0037  0.7350
 3196SOL     OW21223   3.099   2.737   6.990 -0.1423  0.2839  0.4170
 3196SOL    HW121224   3.033   2.765   6.927  2.0576 -0.4452 -2.2390
 3196SOL    HW221225   3.088   2.797   7.063 -0.4828  1.1375 -0.3303
 3197SOL     OW21226   3.045   2.337   5.586 -0.2115  0.0636  0.4413
 3197SOL    HW121227   3.037   2.424   5.625 -0.1652  1.0623 -1.8049
 3197SOL    HW221228   3.087   2.284   5.654 -1.9763 -1.2097  0.5600
 3198SOL     OW21229   1.490   0.360   2.570  0.3712  0.2366  0.1120
 3198SOL    HW121230   1.441   0.388   2.492 -2.4240 -1.3280  1.3405
 3198SOL    HW221231   1.440   0.285   2.601  2.4580  0.3032  3.6158
 3199SOL     OW21232   3.083   0.583  16.287  0.3545 -0.7956  0.1552
 3199SOL    HW121233   3.089   0.643  16.361 -1.5638  0.6381 -0.8380
 3199SOL    HW221234   3.134   0.518  16.335  1.3438 -0.3810 -0.3273
 3200SOL     OW21235   1.628   3.670   3.979  0.3333 -0.0114  0.3639
 3200SOL    HW121236   1.680   3.700   4.054  1.1201  0.3084 -0.3163
 3200SOL    HW221237   1.686   3.704   3.911 -2.6108 -1.4390 -2.7977
 3201SOL     OW21238   4.225   0.838   0.782  0.0068  0.3550  0.0346
 3201SOL    HW121239   4.251   0.772   0.718 -0.7083  0.6184 -0.5280
 3201SOL    HW221240   4.298   0.844   0.844  0.4536 -0.4491 -0.4206
 3202SOL     OW21241   4.206   0.001  12.727  0.0603  0.0336 -0.0183
 3202SOL    HW121242   4.280   4.699  12.682  0.3167  0.1896  0.2640
 3202SOL    HW221243   4.213   4.708  12.817  1.3067 -0.5892 -0.3345
 3203SOL     OW21244   4.167   2.868   7.203  0.3079  0.0809  0.0076
 3203SOL    HW121245   4.185   2.786   7.157  0.0156 -0.7189  1.3145
 3203SOL    HW221246   4.073   2.871   7.185  0.1005 -0.7271  0.9077
 3204SOL     OW21247   2.661   4.138   9.382 -0.0540 -0.1145  0.1070
 3204SOL    HW121248   2.736   4.078   9.380  0.1969  0.1646  1.4843
 3204SOL    HW221249   2.650   4.154   9.475 -0.4077 -0.8265  0.1885
 3205SOL     OW21250   4.167   0.351   8.397  0.2212 -0.1942 -0.6281
 3205SOL    HW121251   4.242   0.391   8.352 -0.7733  1.4615 -0.8281
 3205SOL    HW221252   4.091   0.395   8.358 -0.2641 -1.3914 -1.0408
 3206SOL     OW21253   0.623   0.364   5.049  0.0513  0.8400  0.1999
 3206SOL    HW121254   0.620   0.457   5.070  1.4419  0.3848  2.4658
 3206SOL    HW221255   0.564   0.335   5.119  0.2158  0.3616  0.1443
 3207SOL     OW21256   2.873   3.023   8.207  0.3972 -0.0423 -0.3225
 3207SOL    HW121257   2.870   3.111   8.244 -1.9569  1.1334 -3.3008
 3207SOL    HW221258   2.923   3.034   8.126  0.5488 -1.0266 -0.3585
 3208SOL     OW21259   1.690   3.153  17.542  0.0099 -0.2622  0.4852
 3208SOL    HW121260   1.697   3.079  17.602 -0.6063 -1.9207 -1.4873
 3208SOL    HW221261   1.599   3.148  17.514  0.2914 -3.0794  0.1145
 3209SOL     OW21262   3.586   1.264  10.915  0.6215 -0.1114 -0.3629
 3209SOL    HW121263   3.632   1.299  10.839 -0.1102  3.4418  0.7924
 3209SOL    HW221264   3.514   1.327  10.920 -0.5668 -1.5956  1.5319
 3210SOL     OW21265   2.544   0.953   4.642 -0.2700  0.3354 -0.1066
 3210SOL    HW121266   2.569   1.044   4.632 -2.3100  0.6726 -2.0620
 3210SOL    HW221267   2.449   0.956   4.628 -0.4804 -2.1053  0.6978
 3211SOL     OW21268   1.034   1.633   4.628  0.4907 -0.2002  0.3515
 3211SOL    HW121269   1.004   1.661   4.715 -1.3875 -0.1655 -0.3079
 3211SOL    HW221270   0.996   1.547   4.611  3.6358 -1.1754 -1.6948
 3212SOL     OW21271   0.002   3.319   0.521  0.6407 -0.2992  0.6405
 3212SOL    HW121272   0.057   3.273   0.459  0.1906  0.4915 -0.3456
 3212SOL    HW221273   0.011   3.410   0.492  0.0832 -0.9174 -1.4470
 3213SOL     OW21274   3.099   1.071   6.461 -0.7366 -0.6094  0.5720
 3213SOL    HW121275   3.073   1.065   6.553 -2.2886 -1.0488  0.1100
 3213SOL    HW221276   3.051   1.147   6.428 -2.7760 -1.3587  1.7812
 3214SOL     OW21277   3.677   0.092  11.540  0.3579 -0.2463 -0.0212
 3214SOL    HW121278   3.637   0.012  11.507  3.8343 -1.5341 -1.0641
 3214SOL    HW221279   3.614   0.149  11.494 -0.1334  0.0984  1.0941
 3215SOL     OW21280   4.537   4.133   0.609  0.1050  0.0612 -0.0324
 3215SOL    HW121281   4.483   4.206   0.640  0.9723  0.1891  1.1579
 3215SOL    HW221282   4.620   4.174   0.588  0.7987 -0.9668  0.7005
 3216SOL     OW21283   2.011   1.429   6.188  0.1627 -0.2778  0.2856
 3216SOL    HW121284   2.000   1.349   6.241  1.9161 -0.3651  0.5214
 3216SOL    HW221285   2.079   1.398   6.129  0.5614 -0.4929  0.8633
 3217SOL     OW21286   0.313   2.442  17.689  0.2973  0.0604  0.3043
 3217SOL    HW121287   0.389   2.383  17.687 -0.1513 -0.5296  0.7727
 3217SOL    HW221288   0.354   2.528  17.701 -0.1042  0.4014 -0.7345
 3218SOL     OW21289   0.421   1.036  11.910 -0.7118 -0.9770 -0.0497
 3218SOL    HW121290   0.454   0.999  11.991  0.1970 -1.1977 -0.5108
 3218SOL    HW221291   0.492   1.001  11.855  0.7706  1.7586  0.1353
 3219SOL     OW21292   1.690   1.615   4.214 -0.3445  0.4202 -0.0346
 3219SOL    HW121293   1.611   1.601   4.162 -0.5050  0.8675  0.0903
 3219SOL    HW221294   1.654   1.563   4.286  1.8403  1.9850  2.1593
 3220SOL     OW21295   4.693   1.381   9.056 -0.0343 -0.3762  0.1659
 3220SOL    HW121296   4.734   1.456   9.099 -0.0360  0.7032 -1.7096
 3220SOL    HW221297   4.620   1.376   9.118 -0.5213  0.1560 -0.3649
 3221SOL     OW21298   0.621   3.912   4.786  0.6353 -0.4683  0.1667
 3221SOL    HW121299   0.542   3.927   4.838 -0.3665 -1.0224 -1.1973
 3221SOL    HW221300   0.573   3.879   4.710  0.6135  1.1924 -0.5440
 3222SOL     OW21301   4.556   0.468   2.532  0.1297 -0.4538 -0.2972
 3222SOL    HW121302   4.477   0.422   2.503 -2.5261  1.2747  4.0413
 3222SOL    HW221303   4.551   0.433   2.621 -1.0215  2.3927  0.7469
 3223SOL     OW21304   0.362   1.932   3.088 -0.2333  0.0280 -0.1769
 3223SOL    HW121305   0.403   1.898   3.009 -0.1469  1.0685 -0.5761
 3223SOL    HW221306   0.347   2.024   3.066 -0.0045 -0.3553 -1.9374
 3224SOL     OW21307   3.938   3.223   8.596  0.3228 -0.2353 -0.4897
 3224SOL    HW121308   4.013   3.283   8.590 -1.6650  2.3177 -0.0940
 3224SOL    HW221309   3.898   3.242   8.680 -1.4223 -1.7685 -0.9796
 3225SOL     OW21310   0.409   4.507  11.172 -0.3794 -0.5640  0.0741
 3225SOL    HW121311   0.331   4.562  11.175 -1.6261 -2.2959 -0.4941
 3225SOL    HW221312   0.376   4.424  11.205  1.1545  0.1521  3.3643
 3226SOL     OW21313   3.342   1.142  13.728  0.1399 -0.1531  0.3592
 3226SOL    HW121314   3.406   1.207  13.755 -0.1407 -0.5642  1.9704
 3226SOL    HW221315   3.362   1.066  13.781  0.3416 -1.0458 -0.9849
 3227SOL     OW21316   3.943   2.041   8.369 -0.4815 -0.1605  0.7438
 3227SOL    HW121317   3.856   2.079   8.387 -0.7807 -0.3545 -0.2978
 3227SOL    HW221318   3.980   2.112   8.316  3.3973 -2.3057  0.6538
 3228SOL     OW21319   2.815   2.686   6.673  0.3693  0.4404  0.1045
 3228SOL    HW121320   2.811   2.781   6.666  0.5563  0.2823 -2.2195
 3228SOL    HW221321   2.907   2.671   6.649  0.1198  0.2003 -0.6900
 3229SOL     OW21322   4.225   4.127   4.371  0.0608 -0.0624  0.4992
 3229SOL    HW121323   4.148   4.161   4.327 -0.8708 -0.7453  1.6048
 3229SOL    HW221324   4.186   4.079   4.445  2.0216  0.9619  2.2217
 3230SOL     OW21325   3.182   1.513   9.139  0.1287 -0.0741  0.0260
 3230SOL    HW121326   3.194   1.508   9.044  0.8722 -1.6805  0.2102
 3230SOL    HW221327   3.195   1.423   9.169 -1.3996 -0.1134  0.6071
 3231SOL     OW21328   0.336   4.230   6.809 -0.7510  0.4163  0.0242
 3231SOL    HW121329   0.384   4.234   6.727  1.3448 -0.5388  1.1920
 3231SOL    HW221330   0.297   4.317   6.809 -0.3640  0.5883 -1.3328
 3232SOL     OW21331   3.864   1.915   1.716  0.0411  0.3985 -0.4024
 3232SOL    HW121332   3.828   1.968   1.788  1.6328  1.2411 -0.2379
 3232SOL    HW221333   3.862   1.983   1.649 -0.6165  0.9523  0.1702
 3233SOL     OW21334   0.722   4.202   0.872  0.3097 -0.1169  0.0570
 3233SOL    HW121335   0.779   4.279   0.878  1.8150 -1.1808 -0.5856
 3233SOL    HW221336   0.651   4.241   0.822  0.8207  0.7619  0.0086
 3234SOL     OW21337   0.741   0.482   6.083 -0.3915  0.0286  0.0535
 3234SOL    HW121338   0.818   0.440   6.046 -0.6634 -0.4446  0.0286
 3234SOL    HW221339   0.703   0.422   6.148 -0.0556 -0.9622 -0.6707
 3235SOL     OW21340   3.081   0.642   9.009  0.1047  0.1672 -0.1483
 3235SOL    HW121341   3.039   0.702   8.948  0.7831  0.4573 -0.3326
 3235SOL    HW221342   3.167   0.634   8.967  0.7330  1.2876  0.9226
 3236SOL     OW21343   2.195   4.258   2.207  0.0637  0.5004  0.0544
 3236SOL    HW121344   2.203   4.193   2.277  2.1521  0.6751 -0.0012
 3236SOL    HW221345   2.122   4.312   2.236 -0.0908  0.2470  0.1286
 3237SOL     OW21346   4.701   0.079   6.394 -0.0026 -0.3420  0.1485
 3237SOL    HW121347   0.009   0.156   6.425  2.2126 -2.3293  1.7673
 3237SOL    HW221348   4.669   0.041   6.476 -0.6268 -0.1599 -0.0159
 3238SOL     OW21349   0.912   2.789   6.474 -0.4148 -0.0484  0.2377
 3238SOL    HW121350   0.904   2.698   6.501  0.0776 -1.6413 -4.9010
 3238SOL    HW221351   0.975   2.816   6.540  0.8474 -2.6331  0.0877
 3239SOL     OW21352   4.287   1.776   8.400  0.0054  0.0467  0.3060
 3239SOL    HW121353   4.380   1.774   8.378 -0.8441 -3.5760 -2.9341
 3239SOL    HW221354   4.276   1.868   8.423 -1.5249 -0.1366  0.3302
 3240SOL     OW21355   1.726   3.054   2.294  0.2498 -0.4511 -0.3428
 3240SOL    HW121356   1.692   2.965   2.287 -0.9167 -0.0042 -0.2559
 3240SOL    HW221357   1.807   3.032   2.341 -0.5088  0.1969  1.2576
 3241SOL     OW21358   3.645   2.535   4.990  0.1831  0.1222 -0.6172
 3241SOL    HW121359   3.587   2.590   5.044  2.1611  3.1467 -1.5789
 3241SOL    HW221360   3.654   2.456   5.043  0.6588  0.2679 -0.4831
 3242SOL     OW21361   1.132   2.161   8.553 -0.2982  0.2720  0.0149
 3242SOL    HW121362   1.094   2.142   8.638  0.8663  1.7892  0.8639
 3242SOL    HW221363   1.209   2.209   8.584  1.4823 -1.4743 -1.7206
 3243SOL     OW21364   0.966   2.718   8.058  0.0403  0.3698 -0.4628
 3243SOL    HW121365   0.881   2.679   8.079 -0.3718  0.7802 -1.3667
 3243SOL    HW221366   1.022   2.648   8.091  0.3294  2.2796  3.1154
 3244SOL     OW21367   2.430   1.879   5.116  0.1330 -0.6251 -0.3129
 3244SOL    HW121368   2.392   1.839   5.038 -0.1410 -0.4769 -0.2563
 3244SOL    HW221369   2.515   1.917   5.092 -0.3870  1.1549  0.6305
 3245SOL     OW21370   4.662   1.538  17.272  0.2375 -0.2177  0.0585
 3245SOL    HW121371   0.014   1.562  17.256  0.2142 -2.6461 -3.7519
 3245SOL    HW221372   4.615   1.621  17.270  0.5669 -0.0527 -0.8672
 3246SOL     OW21373   1.148   1.203   8.763 -0.0794 -0.3894  0.2579
 3246SOL    HW121374   1.189   1.149   8.694  0.3164  0.6305 -0.3002
 3246SOL    HW221375   1.162   1.296   8.751 -1.3968 -0.7632 -4.4319
 3247SOL     OW21376   2.966   2.654  16.686  0.2208 -0.2389 -0.5602
 3247SOL    HW121377   2.931   2.720  16.627 -0.2477  0.0680  0.0588
 3247SOL    HW221378   3.020   2.604  16.625 -0.5184 -0.9081 -0.6757
 3248SOL     OW21379   1.976   1.660   9.023 -0.0231  0.0873  0.1491
 3248SOL    HW121380   1.917   1.691   8.954  0.6283  1.3614  0.1761
 3248SOL    HW221381   1.915   1.611   9.079  0.8957 -0.1395  0.9416
 3249SOL     OW21382   3.032   4.050  16.470  0.1527 -0.1339  0.0247
 3249SOL    HW121383   3.040   3.955  16.470  1.0028 -0.0676 -0.0381
 3249SOL    HW221384   2.938   4.053  16.456  0.4034  0.4690 -1.5539
 3250SOL     OW21385   4.306   3.320   4.845  0.0362 -0.0384 -0.3777
 3250SOL    HW121386   4.395   3.317   4.881  0.3076 -1.5334 -1.1669
 3250SOL    HW221387   4.292   3.226   4.835  3.1934 -0.3419 -2.0147
 3251SOL     OW21388   3.437   1.600   4.025  0.0563 -0.2042  0.3348
 3251SOL    HW121389   3.384   1.659   4.079 -2.1070 -0.5705 -1.3950
 3251SOL    HW221390   3.458   1.533   4.090  0.2335 -0.3068  0.1702
 3252SOL     OW21391   1.366   0.700  10.645 -0.0903  0.0038  0.2479
 3252SOL    HW121392   1.349   0.624  10.590  0.0374 -1.4537  2.2458
 3252SOL    HW221393   1.280   0.694  10.687 -1.1919  0.7252 -1.9113
 3253SOL     OW21394   2.130   4.147   0.630 -0.7477 -0.8545  0.5775
 3253SOL    HW121395   2.189   4.107   0.695  2.1027  1.1476 -0.7597
 3253SOL    HW221396   2.105   4.230   0.670  0.4781 -1.1916  2.0352
 3254SOL     OW21397   3.929   3.519   3.682  0.4149 -0.2115  0.4951
 3254SOL    HW121398   3.895   3.583   3.619 -0.5405 -1.0602  0.1471
 3254SOL    HW221399   3.986   3.571   3.738 -0.6724  0.8567  0.5996
 3255SOL     OW21400   0.594   2.921   3.405 -0.1645  0.0953  0.2211
 3255SOL    HW121401   0.580   2.960   3.319 -1.1283 -1.5461 -0.3661
 3255SOL    HW221402   0.587   2.829   3.379  1.0006  0.5245 -1.6314
 3256SOL     OW21403   0.010   2.310   5.104  0.2641  0.2025 -0.2424
 3256SOL    HW121404   0.003   2.380   5.039 -0.9831 -0.7209 -1.0917
 3256SOL    HW221405   0.044   2.238   5.052  2.3149 -0.6581  2.3102
 3257SOL     OW21406   3.552   1.070   6.456  0.6440  0.2104  0.3267
 3257SOL    HW121407   3.473   1.092   6.407  1.0554 -0.0366 -0.4526
 3257SOL    HW221408   3.601   1.037   6.380 -0.9403  0.5115 -0.8199
 3258SOL     OW21409   4.186   3.584   7.233  0.2795  0.0431 -0.2326
 3258SOL    HW121410   4.194   3.677   7.210 -0.1027  0.2170  0.3336
 3258SOL    HW221411   4.247   3.588   7.306 -0.2663 -0.1387  0.2315
 3259SOL     OW21412   4.012   4.509   3.816  0.0228  0.0381 -0.0165
 3259SOL    HW121413   3.983   4.420   3.797 -0.5750  0.2761 -0.2018
 3259SOL    HW221414   3.936   4.538   3.865  0.1193  0.9595 -0.4065
 3260SOL     OW21415   3.230   2.209   5.742 -0.4468  0.2117 -0.2802
 3260SOL    HW121416   3.233   2.114   5.744  1.7044  0.3407  2.4259
 3260SOL    HW221417   3.301   2.228   5.680 -0.5927 -0.9730 -0.8026
 3261SOL     OW21418   3.036   0.203   9.554 -0.3059  0.5585  0.3241
 3261SOL    HW121419   3.002   0.114   9.547  1.5739 -0.2237  1.1719
 3261SOL    HW221420   3.121   0.190   9.511 -0.2359  1.3762  0.2154
 3262SOL     OW21421   1.438   3.604   2.716 -0.2289 -0.6194  0.5440
 3262SOL    HW121422   1.524   3.579   2.681 -1.7755 -1.1407 -2.8567
 3262SOL    HW221423   1.401   3.633   2.633  0.5217 -0.3196  0.3137
 3263SOL     OW21424   1.749   4.294   5.909  0.5161 -0.5627  0.1241
 3263SOL    HW121425   1.687   4.259   5.973  1.4539 -0.7903  0.9137
 3263SOL    HW221426   1.698   4.299   5.828  0.8053  2.5437  0.1377
 3264SOL     OW21427   4.075   0.944   8.557 -0.0246 -0.1226 -0.3982
 3264SOL    HW121428   4.087   1.004   8.630 -3.6780 -2.3334  2.0662
 3264SOL    HW221429   4.140   0.976   8.495  1.3101 -1.8367  0.0952
 3265SOL     OW21430   0.832   1.997   8.726  0.4607  0.4410  0.1275
 3265SOL    HW121431   0.808   2.054   8.799 -0.1481  0.2407  0.0837
 3265SOL    HW221432   0.818   1.913   8.768 -1.5573  0.2795 -0.9049
 3266SOL     OW21433   1.543   4.566  11.614 -0.1101  0.3517 -0.3324
 3266SOL    HW121434   1.633   4.598  11.610 -0.3554  0.8844 -1.5793
 3266SOL    HW221435   1.501   4.603  11.691  0.2015 -1.5935  0.7634
 3267SOL     OW21436   4.374   2.558   5.919 -0.1784 -0.6505 -0.3095
 3267SOL    HW121437   4.428   2.583   5.844 -0.4504 -0.6404 -0.5001
 3267SOL    HW221438   4.366   2.647   5.953 -1.2486 -1.5231  1.7262
 3268SOL     OW21439   0.973   0.554   7.981 -0.6383 -0.2836  0.0350
 3268SOL    HW121440   0.972   0.629   7.921  1.3785 -0.7384 -0.5632
 3268SOL    HW221441   1.020   0.599   8.051  0.3360 -0.4321 -0.5295
 3269SOL     OW21442   3.828   0.679   6.198 -0.3516  0.0476 -0.2034
 3269SOL    HW121443   3.857   0.760   6.239 -0.2344 -1.1731  2.0830
 3269SOL    HW221444   3.759   0.651   6.258 -0.1740 -1.0512 -0.5110
 3270SOL     OW21445   0.100   0.743   4.566 -0.1153 -0.2984  0.3656
 3270SOL    HW121446   0.150   0.806   4.618  0.0138  0.2240 -0.3878
 3270SOL    HW221447   0.024   0.719   4.619 -2.3043 -1.2634 -3.2078
 3271SOL     OW21448   3.764   4.658   9.636  0.0557 -0.1506  0.2435
 3271SOL    HW121449   3.705   4.646   9.710 -1.0831 -0.7290 -0.7466
 3271SOL    HW221450   3.749   0.009   9.608 -2.6835 -0.6767  0.0146
 3272SOL     OW21451   2.467   0.571   3.103  0.3475 -0.2470 -0.5770
 3272SOL    HW121452   2.511   0.631   3.164 -0.3990  0.3387 -0.6142
 3272SOL    HW221453   2.542   0.545   3.050 -0.1654 -2.4403 -0.1946
 3273SOL     OW21454   4.254   3.005   7.662  0.1883 -0.3763 -0.0151
 3273SOL    HW121455   4.310   3.078   7.689 -1.3228  1.0524 -0.7312
 3273SOL    HW221456   4.319   2.935   7.672  1.7576  0.9691 -0.6962
 3274SOL     OW21457   3.873   0.093   9.068  0.6821 -0.1301  0.8227
 3274SOL    HW121458   3.939   0.067   9.004 -0.3437 -0.1054 -0.2495
 3274SOL    HW221459   3.826   0.151   9.009 -0.8602 -3.0069 -0.7695
 3275SOL     OW21460   0.531   0.931   6.794 -0.2985 -0.3458  0.6289
 3275SOL    HW121461   0.502   0.977   6.715 -1.1872 -0.1663  1.0515
 3275SOL    HW221462   0.508   0.997   6.860  1.5422  0.8711  0.0590
 3276SOL     OW21463   0.671   0.232   6.057 -0.5653  0.4105  0.7380
 3276SOL    HW121464   0.600   0.168   6.057 -0.7594  0.6241  0.0630
 3276SOL    HW221465   0.728   0.187   6.120  0.4512 -0.7444 -1.0218
 3277SOL     OW21466   3.061   3.125   6.038 -0.3542 -0.0262 -0.0336
 3277SOL    HW121467   2.973   3.158   6.017 -0.0294  0.7780 -0.1257
 3277SOL    HW221468   3.106   3.209   6.037 -1.0394  0.3503  0.5963
 3278SOL     OW21469   3.202   1.726   6.879  0.5904 -0.1908 -0.2580
 3278SOL    HW121470   3.219   1.707   6.971  4.2683  0.3973 -0.8471
 3278SOL    HW221471   3.169   1.639   6.856  0.8843 -0.1713 -0.7561
 3279SOL     OW21472   1.159   3.845   5.268  0.1852 -0.3879  0.2076
 3279SOL    HW121473   1.238   3.825   5.219  0.7115  1.4312  0.3075
 3279SOL    HW221474   1.103   3.870   5.194  1.3362 -1.5137 -1.0364
 3280SOL     OW21475   1.161   3.635   2.461  0.4737  0.1730  0.2732
 3280SOL    HW121476   1.233   3.697   2.459  1.6520 -1.1860  0.9759
 3280SOL    HW221477   1.092   3.674   2.407 -1.8841 -1.1116  2.3376
 3281SOL     OW21478   1.146   1.163  15.652 -0.2549  0.1885 -0.2073
 3281SOL    HW121479   1.146   1.139  15.559 -1.7152 -0.0449 -0.1391
 3281SOL    HW221480   1.112   1.251  15.634  1.0732  0.6282 -0.6444
 3282SOL     OW21481   0.427   1.287   3.319 -0.2250 -0.5004  0.2569
 3282SOL    HW121482   0.384   1.256   3.399 -0.3352  0.1127  0.4358
 3282SOL    HW221483   0.481   1.358   3.354  0.4883  0.2668 -2.4451
 3283SOL     OW21484   0.186   3.193   1.504 -0.2715 -0.1860  0.3597
 3283SOL    HW121485   0.236   3.116   1.531  0.1900  0.6363  1.8614
 3283SOL    HW221486   0.247   3.250   1.553  0.9090  0.5316 -1.9326
 3284SOL     OW21487   2.316   4.117   4.589  0.0251  0.2504  0.6388
 3284SOL    HW121488   2.304   4.030   4.550  2.3353 -0.3848  1.3316
 3284SOL    HW221489   2.325   4.098   4.682 -0.7555  0.0205  0.6677
 3285SOL     OW21490   4.108   3.865   8.313 -0.1199 -0.5644  0.2556
 3285SOL    HW121491   4.041   3.932   8.326  0.5766  0.3585 -0.9262
 3285SOL    HW221492   4.181   3.925   8.299 -0.8691  0.0938 -0.8328
 3286SOL     OW21493   4.424   0.464  16.781  0.4823 -0.3643  0.0205
 3286SOL    HW121494   4.333   0.438  16.776  0.5291  0.0123 -2.4863
 3286SOL    HW221495   4.418   0.513  16.864 -0.3666 -0.6478  0.1161
 3287SOL     OW21496   2.398   3.274  10.323 -0.6052  0.3463  0.7196
 3287SOL    HW121497   2.395   3.183  10.295 -1.0263  1.1822 -1.9655
 3287SOL    HW221498   2.306   3.300  10.312 -1.0091 -1.3343  0.0846
 3288SOL     OW21499   1.425   2.806   7.818  0.0480 -0.4881 -0.3837
 3288SOL    HW121500   1.441   2.718   7.783  2.0287 -0.3474  0.1374
 3288SOL    HW221501   1.354   2.841   7.764 -0.5512  0.0248  0.7413
 3289SOL     OW21502   3.359   0.093   6.929 -0.3222  0.4799 -0.1408
 3289SOL    HW121503   3.271   0.112   6.899  0.2209 -1.1555 -2.7166
 3289SOL    HW221504   3.396   0.089   6.841  0.4270 -1.6864  0.2566
 3290SOL     OW21505   3.706   3.280   9.843  0.6698  0.3664  0.5998
 3290SOL    HW121506   3.767   3.271   9.916 -1.7156  0.2632  2.6011
 3290SOL    HW221507   3.743   3.361   9.807 -1.3963  0.0145 -2.3592
 3291SOL     OW21508   1.997   0.769   3.326  0.5644  0.4192 -0.9576
 3291SOL    HW121509   1.991   0.719   3.408 -0.9748 -1.6728 -2.3507
 3291SOL    HW221510   2.086   0.804   3.336  0.4962  0.2925  0.1141
 3292SOL     OW21511   1.137   3.572   8.275  0.5228  0.2471 -0.7162
 3292SOL    HW121512   1.103   3.501   8.328 -1.2851  0.3493 -1.7407
 3292SOL    HW221513   1.178   3.616   8.349  0.4027  0.0764 -0.5503
 3293SOL     OW21514   0.534   1.762  16.464 -0.4456 -0.2815  0.5612
 3293SOL    HW121515   0.501   1.771  16.554  0.4182 -0.9481  0.9492
 3293SOL    HW221516   0.589   1.685  16.481 -2.6145 -1.6386  1.4615
 3294SOL     OW21517   2.177   3.845   5.490 -0.2857 -0.2653  0.1210
 3294SOL    HW121518   2.154   3.752   5.482 -0.3434 -0.2552  0.1706
 3294SOL    HW221519   2.188   3.858   5.395  2.8735 -0.6720  0.4202
 3295SOL     OW21520   3.973   0.722   6.524 -0.5787 -0.1244  0.1658
 3295SOL    HW121521   3.951   0.752   6.436  2.6375 -1.4560 -1.0975
 3295SOL    HW221522   3.945   0.630   6.530  0.9088 -0.5678  0.3901
 3296SOL     OW21523   0.666   0.299   7.184 -0.2519  0.1817  0.2234
 3296SOL    HW121524   0.637   0.383   7.219  1.7025  1.2774 -0.8319
 3296SOL    HW221525   0.581   0.256   7.185  0.1085 -0.5954 -2.0088
 3297SOL     OW21526   1.619   3.752   7.019  0.2571 -0.5682  0.1474
 3297SOL    HW121527   1.616   3.705   6.935 -0.6306 -2.2812  1.1306
 3297SOL    HW221528   1.701   3.726   7.060  0.5165 -1.6728 -1.0452
 3298SOL     OW21529   2.885   4.102   6.771 -0.0970  0.2923  0.9807
 3298SOL    HW121530   2.793   4.090   6.747  0.2140 -0.4294  0.1643
 3298SOL    HW221531   2.893   4.192   6.738 -0.3814 -0.5615 -1.4226
 3299SOL     OW21532   4.053   2.584   9.396  0.1808 -0.4683  0.2859
 3299SOL    HW121533   4.118   2.525   9.434 -0.2435  0.0737  1.8163
 3299SOL    HW221534   4.065   2.661   9.450 -0.6633  0.7875 -1.3131
 3300SOL     OW21535   0.018   2.007  11.249  0.0631 -0.0758  0.1250
 3300SOL    HW121536   4.729   2.025  11.159  0.6040  3.5301  0.6843
 3300SOL    HW221537   0.113   2.018  11.242  0.3297 -1.6507  1.1371
 3301SOL     OW21538   1.302   4.145   4.950  0.2003 -1.1266  0.6976
 3301SOL    HW121539   1.258   4.063   4.927 -0.0833 -1.0330  0.9055
 3301SOL    HW221540   1.373   4.112   5.006 -0.3929 -1.7059  1.1085
 3302SOL     OW21541   1.967   3.930   1.739 -0.2047  0.6594 -0.3056
 3302SOL    HW121542   1.950   3.837   1.719 -0.2305  0.6213 -0.1108
 3302SOL    HW221543   1.929   3.938   1.827  0.5179  1.3155 -0.0599
 3303SOL     OW21544   1.570   2.870   3.919  0.3280 -0.1591 -0.4659
 3303SOL    HW121545   1.590   2.916   4.000  2.1635  0.2374 -1.1338
 3303SOL    HW221546   1.547   2.784   3.955 -0.5621  1.3986  2.6873
 3304SOL     OW21547   0.117   3.473   1.434  0.3991 -0.0198  0.3226
 3304SOL    HW121548   0.151   3.532   1.502 -1.4613  1.2708  0.1327
 3304SOL    HW221549   0.178   3.402   1.453  0.2211 -0.5228 -1.0032
 3305SOL     OW21550   2.749   0.058   4.470 -0.5773 -0.5818  0.5325
 3305SOL    HW121551   2.675   0.113   4.495 -0.8670 -0.3021 -0.9545
 3305SOL    HW221552   2.704   4.728   4.421  0.0680  0.0770 -0.9720
 3306SOL     OW21553   3.160   0.890   2.164  0.5482 -0.8195 -0.7646
 3306SOL    HW121554   3.232   0.850   2.116  0.5759  0.4797 -1.7890
 3306SOL    HW221555   3.159   0.844   2.248 -0.4766  0.2736 -0.1758
 3307SOL     OW21556   1.135   4.629   3.894  0.2631 -0.0985 -0.2285
 3307SOL    HW121557   1.207   4.591   3.944  1.2221  2.2243  0.1343
 3307SOL    HW221558   1.124   4.710   3.944  1.4297 -0.4670  0.6267
 3308SOL     OW21559   2.541   4.718   3.212  0.3728  0.4593 -0.2323
 3308SOL    HW121560   2.453   4.711   3.177  0.1038 -2.4080  1.0334
 3308SOL    HW221561   2.594   4.662   3.155  2.3686  1.2876  0.8140
 3309SOL     OW21562   1.716   3.722   1.842 -0.1861  0.2437 -0.1574
 3309SOL    HW121563   1.783   3.656   1.828 -0.9471 -0.4056 -0.7848
 3309SOL    HW221564   1.674   3.722   1.756  0.0579  1.0616 -0.2750
 3310SOL     OW21565   0.236   3.282   4.282 -0.3361 -0.1558  0.1589
 3310SOL    HW121566   0.275   3.275   4.369 -1.9373  1.9801  1.0573
 3310SOL    HW221567   0.155   3.328   4.306  0.2053  0.4267  0.9011
 3311SOL     OW21568   0.789   2.094   6.192  0.1834  0.0335  0.0493
 3311SOL    HW121569   0.759   2.004   6.183  1.5456 -0.4635  0.4551
 3311SOL    HW221570   0.749   2.129   6.112  1.0526 -0.3592 -0.5555
 3312SOL     OW21571   3.482   3.924  16.468 -0.0995  0.3346 -0.1085
 3312SOL    HW121572   3.414   3.894  16.528  1.5832 -0.9534  1.1604
 3312SOL    HW221573   3.524   3.846  16.432 -2.3303 -1.1988  0.6579
 3313SOL     OW21574   4.426   4.662  11.511 -0.4504 -0.0105  0.5673
 3313SOL    HW121575   4.482   4.595  11.550 -3.0311 -1.7761  1.2530
 3313SOL    HW221576   4.449   4.656  11.418 -1.4288  1.0894  0.2625
 3314SOL     OW21577   2.124   3.461   6.524 -0.1342  0.0778 -0.3881
 3314SOL    HW121578   2.118   3.537   6.582  0.7558 -1.0982  1.2347
 3314SOL    HW221579   2.034   3.443   6.498  0.1711 -1.8643 -0.1275
 3315SOL     OW21580   1.852   3.776   6.136  0.1772  0.1713  0.4985
 3315SOL    HW121581   1.921   3.735   6.187 -0.3104  0.4652  1.4091
 3315SOL    HW221582   1.830   3.709   6.071 -0.5811  0.2717  0.6522
 3316SOL     OW21583   0.642   0.052   5.353 -0.3019  0.1755  0.1268
 3316SOL    HW121584   0.674   0.142   5.362 -0.2942 -0.0367  2.3390
 3316SOL    HW221585   0.656   0.029   5.445 -0.3734 -0.4565 -0.0224
 3317SOL     OW21586   0.693   4.012   4.025  0.4764 -0.0785 -0.1920
 3317SOL    HW121587   0.783   4.029   4.055 -0.5480  2.2473  1.6070
 3317SOL    HW221588   0.642   4.010   4.106  1.1693  1.9416  0.3038
 3318SOL     OW21589   4.434   4.349   8.801  0.1383 -0.4744 -0.0016
 3318SOL    HW121590   4.344   4.324   8.819  0.2700  0.4130  1.8023
 3318SOL    HW221591   4.414   4.439   8.825  0.3991 -0.6305  0.7912
 3319SOL     OW21592   2.688   0.488   1.599 -0.2003 -0.2058 -0.0469
 3319SOL    HW121593   2.664   0.401   1.630  0.2970 -0.4723 -0.4080
 3319SOL    HW221594   2.664   0.541   1.675  0.9762 -0.2039  0.3237
 3320SOL     OW21595   2.094   1.539   4.309 -0.6193  0.3667 -0.0352
 3320SOL    HW121596   2.070   1.501   4.224 -0.8084  0.7012 -0.1275
 3320SOL    HW221597   2.036   1.614   4.307  0.0204  0.8359 -0.7946
 3321SOL     OW21598   0.233   2.092   8.749 -0.0006 -0.2463  0.0414
 3321SOL    HW121599   0.252   1.999   8.734  1.6831  0.1131  0.0077
 3321SOL    HW221600   0.218   2.118   8.659  0.0925  0.7355  0.3128
 3322SOL     OW21601   3.370   4.126   2.586  0.1729 -0.6050 -0.4646
 3322SOL    HW121602   3.441   4.190   2.589  1.0054 -1.4689 -1.7852
 3322SOL    HW221603   3.409   4.058   2.531  1.2516 -1.4620  1.3673
 3323SOL     OW21604   0.082   4.469   2.582  0.0822  0.4691 -0.4011
 3323SOL    HW121605   0.138   4.519   2.640  0.4482 -0.5704  0.1416
 3323SOL    HW221606   0.140   4.478   2.506  1.8303 -0.0381  0.8943
 3324SOL     OW21607   1.507   0.833   7.839 -0.1741  0.5339  0.0037
 3324SOL    HW121608   1.487   0.741   7.824  0.9765  0.0212  1.5826
 3324SOL    HW221609   1.585   0.831   7.895  0.5791 -1.0302 -1.1158
 3325SOL     OW21610   2.635   1.702   2.634  0.2627 -0.3847  0.5767
 3325SOL    HW121611   2.550   1.674   2.600 -0.1269 -0.0811  1.3105
 3325SOL    HW221612   2.652   1.781   2.583  0.9773 -1.3345 -0.6681
 3326SOL     OW21613   3.766   1.625   7.347 -0.2643 -0.3185  0.3338
 3326SOL    HW121614   3.685   1.632   7.398  1.2152 -2.1873  2.9805
 3326SOL    HW221615   3.757   1.708   7.300 -2.1690 -0.3994  0.5548
 3327SOL     OW21616   0.471   4.731   3.855 -0.5251  0.3597  0.3799
 3327SOL    HW121617   0.502   0.030   3.773 -0.9114  1.7115  0.8412
 3327SOL    HW221618   0.535   0.032   3.915 -1.1542 -0.2361  1.4605
 3328SOL     OW21619   4.565   2.138  15.452  0.6473  0.1311  0.1757
 3328SOL    HW121620   4.482   2.183  15.467  0.6286  0.9479 -2.2909
 3328SOL    HW221621   4.582   2.104  15.540 -1.3210  1.9053  1.2396
 3329SOL     OW21622   0.100   3.252   4.716 -0.1087  0.1256  0.6918
 3329SOL    HW121623   0.048   3.214   4.786  2.5747  0.5272  2.8991
 3329SOL    HW221624   0.079   3.342   4.741 -2.7319 -0.2605 -0.1276
 3330SOL     OW21625   0.650   1.236   1.350  0.3087 -0.5323  0.1515
 3330SOL    HW121626   0.684   1.215   1.437  0.0519  1.2052  0.6579
 3330SOL    HW221627   0.683   1.325   1.341  0.1918 -0.3177  1.8593
 3331SOL     OW21628   3.839   2.142   1.884  0.4449  0.0255 -0.0637
 3331SOL    HW121629   3.911   2.180   1.833  0.9595 -0.5160  0.2535
 3331SOL    HW221630   3.878   2.157   1.970 -0.3136 -1.3756  0.5195
 3332SOL     OW21631   2.408   2.048  13.693 -0.0652 -0.5050 -0.3167
 3332SOL    HW121632   2.402   2.086  13.781 -1.8064 -2.8499  0.5727
 3332SOL    HW221633   2.396   2.131  13.646 -1.0475 -0.0276  0.7625
 3333SOL     OW21634   2.075   3.695   4.782 -0.0387 -0.3256  0.1890
 3333SOL    HW121635   2.071   3.771   4.724  1.6478  0.5914  1.2662
 3333SOL    HW221636   1.986   3.662   4.785 -0.4421  0.7569  0.3839
 3334SOL     OW21637   1.964   2.952   4.948 -0.0552 -0.3605  0.1624
 3334SOL    HW121638   1.951   2.887   5.017 -0.7730 -0.7716 -0.3601
 3334SOL    HW221639   2.052   2.985   4.966  0.2269 -0.3171 -1.3199
 3335SOL     OW21640   4.686   0.116  16.984  0.2482  0.1951  0.2319
 3335SOL    HW121641   4.686   0.162  16.900 -0.7095 -0.5795 -0.1846
 3335SOL    HW221642   0.029   0.152  17.020  2.5724 -3.5752 -1.2772
 3336SOL     OW21643   1.616   4.094   0.367 -0.2936 -0.4653 -0.0997
 3336SOL    HW121644   1.567   4.150   0.429  1.5819 -0.0837  1.0463
 3336SOL    HW221645   1.595   4.007   0.401 -0.6210  1.0208  3.5099
 3337SOL     OW21646   1.822   1.971   4.907 -0.4557  0.2442  0.5368
 3337SOL    HW121647   1.763   2.017   4.847 -0.1576  0.4500  0.4032
 3337SOL    HW221648   1.828   1.888   4.861 -3.0299  0.5045 -0.2980
 3338SOL     OW21649   0.722   0.162   9.532  0.1216 -0.5498  0.2509
 3338SOL    HW121650   0.744   0.100   9.462 -1.7872 -1.3654  0.3613
 3338SOL    HW221651   0.634   0.179   9.499 -1.0110 -0.4201  3.3445
 3339SOL     OW21652   0.791   2.237   2.865  0.1228 -0.9254  0.3400
 3339SOL    HW121653   0.861   2.224   2.801 -0.5069  1.2289 -0.7760
 3339SOL    HW221654   0.840   2.291   2.927 -0.1214  0.5801 -0.7900
 3340SOL     OW21655   3.935   0.550   0.858  0.4004 -0.3212 -0.7639
 3340SOL    HW121656   3.986   0.563   0.938  1.6282 -1.8337 -1.2934
 3340SOL    HW221657   3.916   0.456   0.868 -0.8296 -0.1702 -1.7175
 3341SOL     OW21658   0.613   4.328   7.606  0.2315  0.3364 -0.0497
 3341SOL    HW121659   0.559   4.347   7.529 -0.1619 -0.2599  0.0833
 3341SOL    HW221660   0.560   4.376   7.670 -1.0888 -0.8105 -0.2847
 3342SOL     OW21661   0.248   1.898  11.534 -0.2065  0.4161 -0.7485
 3342SOL    HW121662   0.266   1.992  11.542  0.3354  0.1013  1.7810
 3342SOL    HW221663   0.305   1.866  11.464 -0.6571 -2.1768  0.0763
 3343SOL     OW21664   1.418   4.415   3.083  0.4430 -0.1402 -0.7620
 3343SOL    HW121665   1.465   4.361   3.147  0.2445 -0.7239 -1.1102
 3343SOL    HW221666   1.497   4.452   3.044 -0.5120 -0.2000 -2.7296
 3344SOL     OW21667   3.258   0.761   7.336  0.1105  0.4449  0.4857
 3344SOL    HW121668   3.317   0.693   7.303 -2.1041 -0.5412 -1.4576
 3344SOL    HW221669   3.239   0.721   7.421  0.4157 -0.3049  0.1991
 3345SOL     OW21670   0.588   0.635   8.724 -0.1294  0.6414 -0.1287
 3345SOL    HW121671   0.637   0.709   8.759  0.7019 -0.5588  1.2486
 3345SOL    HW221672   0.598   0.570   8.793  2.2627  2.1331  0.9079
 3346SOL     OW21673   3.661   4.058  16.624 -0.4996  0.2488  0.0153
 3346SOL    HW121674   3.614   4.010  16.556  1.3010 -3.0054  1.0607
 3346SOL    HW221675   3.585   4.083  16.677 -0.9834 -1.0911 -0.0699
 3347SOL     OW21676   0.568   2.050   3.732 -0.2189 -0.0032 -0.3539
 3347SOL    HW121677   0.509   2.115   3.694  2.1517  1.8222 -0.9465
 3347SOL    HW221678   0.533   1.965   3.705  0.0162 -0.1126 -0.3187
 3348SOL     OW21679   1.589   0.302   6.542 -0.1628 -0.3549  0.5119
 3348SOL    HW121680   1.529   0.298   6.468 -0.6286 -1.6402  0.9723
 3348SOL    HW221681   1.531   0.283   6.616 -0.0950  0.6564  0.8297
 3349SOL     OW21682   0.010   2.199   3.194 -0.1904 -1.2737 -0.2406
 3349SOL    HW121683   0.100   2.214   3.163 -0.9234  3.4492 -0.0578
 3349SOL    HW221684   4.735   2.270   3.257  0.3608 -0.3587 -1.1586
 3350SOL     OW21685   3.609   3.833   5.451  0.1668 -0.2029 -0.0861
 3350SOL    HW121686   3.664   3.766   5.491 -1.7654 -1.9562 -0.3281
 3350SOL    HW221687   3.639   3.834   5.360  1.8590 -1.9796  0.4642
 3351SOL     OW21688   0.471   2.536   0.294 -0.0448  0.4977 -0.0699
 3351SOL    HW121689   0.517   2.522   0.378  0.1193 -0.4350 -0.3106
 3351SOL    HW221690   0.484   2.455   0.244 -1.2241  0.3854 -0.1830
 3352SOL     OW21691   3.927   2.942   3.875  0.7148  0.1815  0.8015
 3352SOL    HW121692   3.945   2.996   3.798 -0.5819 -0.2698  0.1886
 3352SOL    HW221693   3.963   2.858   3.849 -0.2353 -0.5474  1.8327
 3353SOL     OW21694   1.404   3.744   9.367 -0.2922  0.5195 -0.0499
 3353SOL    HW121695   1.430   3.804   9.297  0.5724  0.6559  0.3905
 3353SOL    HW221696   1.482   3.691   9.382 -0.6875  0.5860  2.2143
 3354SOL     OW21697   3.978   3.952   5.202 -0.4575  0.0307  0.1638
 3354SOL    HW121698   3.952   3.865   5.171 -1.1809  0.4898 -0.5253
 3354SOL    HW221699   3.977   3.993   5.115 -1.3258  0.1670  0.2410
 3355SOL     OW21700   3.996   2.017  12.456  0.3021 -0.2806  0.4225
 3355SOL    HW121701   3.906   2.017  12.488  0.4334  1.0574  0.7609
 3355SOL    HW221702   3.987   1.947  12.390  0.2616 -1.0288  1.2235
 3356SOL     OW21703   3.053   1.179   3.220  0.2550 -0.4530 -0.5939
 3356SOL    HW121704   3.133   1.156   3.174 -1.3882 -3.4522 -1.8946
 3356SOL    HW221705   3.047   1.117   3.293 -0.4741  0.4424  0.1145
 3357SOL     OW21706   1.298   4.716   8.080  0.2909  0.2973 -0.2649
 3357SOL    HW121707   1.306   0.070   8.057  1.0185  0.6023  1.2758
 3357SOL    HW221708   1.360   4.673   8.021  0.0125  0.8793 -0.9830
 3358SOL     OW21709   1.071   1.083  11.082 -0.3512 -0.1253  0.0830
 3358SOL    HW121710   0.982   1.050  11.067 -0.6033  1.2891 -1.5580
 3358SOL    HW221711   1.090   1.132  11.002 -0.7001  0.2199  0.2114
 3359SOL     OW21712   1.868   3.552  15.461  0.0261  0.0027  0.1365
 3359SOL    HW121713   1.888   3.523  15.372 -0.8134  0.0875 -0.0836
 3359SOL    HW221714   1.798   3.492  15.488  0.6698 -1.3752 -1.2484
 3360SOL     OW21715   2.986   3.284   7.207  0.7894 -0.2608 -0.4250
 3360SOL    HW121716   2.961   3.301   7.117  0.7133  1.7836 -0.0183
 3360SOL    HW221717   2.941   3.200   7.209 -0.8249  0.5603 -3.3838
 3361SOL     OW21718   2.979   1.733   8.117 -0.4661 -0.3307  0.2822
 3361SOL    HW121719   2.952   1.669   8.183 -1.3855  2.4655  2.5617
 3361SOL    HW221720   2.932   1.710   8.036  1.2048  1.7080 -1.2777
 3362SOL     OW21721   1.917   4.236   2.034 -0.1048  0.1678  0.3078
 3362SOL    HW121722   1.993   4.259   2.086 -0.0479  3.0064 -1.0497
 3362SOL    HW221723   1.910   4.140   2.032 -0.3566  0.1238  3.4692
 3363SOL     OW21724   2.126   2.721  11.084 -0.1663 -0.0798 -0.5894
 3363SOL    HW121725   2.107   2.811  11.057  1.3197  0.5084  0.3581
 3363SOL    HW221726   2.177   2.697  11.007 -1.2386 -1.6971 -0.7922
 3364SOL     OW21727   1.042   4.177   8.204  0.3640  0.4941  0.3943
 3364SOL    HW121728   1.045   4.205   8.296 -1.6837  2.2957 -0.0831
 3364SOL    HW221729   1.118   4.224   8.170  0.3011  0.6989  0.5365
 3365SOL     OW21730   2.145   3.708   5.934 -0.3694 -0.2586  0.2016
 3365SOL    HW121731   2.100   3.713   5.850  0.4011 -1.5069 -0.2793
 3365SOL    HW221732   2.172   3.617   5.943 -1.4886 -0.8365 -2.3417
 3366SOL     OW21733   3.522   1.052   8.782  0.0740 -0.2787 -0.2124
 3366SOL    HW121734   3.441   1.070   8.735  0.2045 -0.5218 -0.5318
 3366SOL    HW221735   3.559   0.977   8.735  0.8782  1.2624 -2.0405
 3367SOL     OW21736   3.892   1.596   3.329  0.8515 -0.3705  0.3009
 3367SOL    HW121737   3.878   1.626   3.239  0.0754  1.2699  0.9604
 3367SOL    HW221738   3.907   1.682   3.368 -2.7021  1.2522 -1.9060
 3368SOL     OW21739   1.825   2.137   3.594 -0.1921 -0.2628 -0.6050
 3368SOL    HW121740   1.757   2.140   3.528  0.1206 -1.2628 -0.9621
 3368SOL    HW221741   1.905   2.125   3.544  1.1593  0.4721  1.3594
 3369SOL     OW21742   2.760   4.334   3.495 -0.0629 -0.1336 -0.0413
 3369SOL    HW121743   2.733   4.413   3.449 -0.6968 -0.8218 -0.8661
 3369SOL    HW221744   2.714   4.353   3.576  0.5311 -0.7311  0.4348
 3370SOL     OW21745   2.999   0.676   5.450  0.0351  0.5662 -0.7375
 3370SOL    HW121746   3.085   0.637   5.435 -0.8276 -0.8261 -1.9604
 3370SOL    HW221747   2.945   0.599   5.436 -0.3564  0.8601 -0.8295
 3371SOL     OW21748   3.582   3.450   1.220 -0.0602 -0.1778 -0.0836
 3371SOL    HW121749   3.659   3.447   1.162  1.1290 -1.1594  1.5317
 3371SOL    HW221750   3.610   3.384   1.284  2.2638  1.0943  0.2389
 3372SOL     OW21751   2.861   2.092   8.133  0.4928  0.0030 -0.1621
 3372SOL    HW121752   2.837   2.176   8.093  0.2669 -0.3219 -0.7075
 3372SOL    HW221753   2.928   2.065   8.070  0.6515  1.0424 -0.4319
 3373SOL     OW21754   3.137   4.201   9.292 -0.1089  0.0286 -0.1609
 3373SOL    HW121755   3.215   4.251   9.270  0.6039 -0.3884  1.4166
 3373SOL    HW221756   3.171   4.125   9.340 -1.9531  0.7204  2.2151
 3374SOL     OW21757   1.975   3.197   6.284  0.2236  0.4221 -0.4838
 3374SOL    HW121758   2.064   3.204   6.318 -0.3890 -0.0394  1.2032
 3374SOL    HW221759   1.970   3.278   6.234  0.9189  0.4983 -0.4363
 3375SOL     OW21760   3.997   2.306   2.019 -0.2031  0.4678  0.0294
 3375SOL    HW121761   4.074   2.308   1.962 -0.9849  0.0508 -1.0338
 3375SOL    HW221762   4.038   2.332   2.102  1.6475 -1.7566 -0.2136
 3376SOL     OW21763   3.445   4.046  17.357  0.3031 -0.3761 -0.3764
 3376SOL    HW121764   3.450   4.141  17.365  0.6544 -0.0347 -4.4001
 3376SOL    HW221765   3.387   4.020  17.429 -0.5821  0.9897 -0.5956
 3377SOL     OW21766   3.776   3.867   8.773 -0.2354 -0.3912  0.6078
 3377SOL    HW121767   3.772   3.778   8.738 -3.8179  0.5442 -1.3975
 3377SOL    HW221768   3.757   3.845   8.864  1.5955 -0.4326  0.9746
 3378SOL     OW21769   4.092   0.904   4.683  0.5415 -0.3497  0.4309
 3378SOL    HW121770   4.041   0.969   4.732 -0.2972 -0.5337 -0.2139
 3378SOL    HW221771   4.030   0.834   4.662 -1.7898  1.1523  2.3039
 3379SOL     OW21772   2.449   1.229   8.065  0.0350 -0.3350 -0.7218
 3379SOL    HW121773   2.449   1.204   8.157  0.8597 -1.5446 -1.0552
 3379SOL    HW221774   2.382   1.171   8.029 -0.8893 -0.4169  1.1220
 3380SOL     OW21775   4.491   1.311   1.404  0.0015 -0.5038  0.3428
 3380SOL    HW121776   4.567   1.299   1.346 -0.0814 -0.9800  0.3343
 3380SOL    HW221777   4.486   1.217   1.423  1.9375 -0.4459  1.2018
 3381SOL     OW21778   4.538   3.500   9.810  0.1243  0.0342  0.5639
 3381SOL    HW121779   4.486   3.554   9.868  0.2660  0.3176  0.4300
 3381SOL    HW221780   4.586   3.452   9.877 -0.2721 -3.0195 -1.3553
 3382SOL     OW21781   4.342   2.317  16.779 -0.4932 -0.2128  0.0474
 3382SOL    HW121782   4.389   2.399  16.766 -2.8916  1.4056  1.6243
 3382SOL    HW221783   4.280   2.308  16.707 -0.6808 -1.3221  0.3427
 3383SOL     OW21784   3.778   0.287   8.912  0.3152 -0.3143  0.2837
 3383SOL    HW121785   3.720   0.287   8.836  1.2409  0.6232 -0.4125
 3383SOL    HW221786   3.851   0.341   8.882  0.9932 -1.8462 -0.7817
 3384SOL     OW21787   1.648   4.699   2.336 -0.1135 -0.5601 -0.5524
 3384SOL    HW121788   1.692   4.640   2.398 -0.6559 -0.1665  0.1935
 3384SOL    HW221789   1.559   4.665   2.337 -0.5094  0.3989 -2.3933
 3385SOL     OW21790   2.307   0.640  12.145  0.3717  0.2008  0.4751
 3385SOL    HW121791   2.329   0.547  12.148 -2.2838 -0.4953 -1.1000
 3385SOL    HW221792   2.299   0.664  12.237 -1.9211  1.1680  0.0295
 3386SOL     OW21793   3.784   3.325   3.101 -0.0567  0.2338  0.7041
 3386SOL    HW121794   3.811   3.383   3.173 -1.0238  2.6410 -0.8522
 3386SOL    HW221795   3.757   3.401   3.049 -0.5638 -1.3222 -1.2724
 3387SOL     OW21796   2.210   4.020   1.801 -0.5642  0.0382 -0.1499
 3387SOL    HW121797   2.119   3.994   1.784 -0.9935  2.6135 -1.8401
 3387SOL    HW221798   2.205   4.108   1.764  0.2223  0.2737  0.3335
 3388SOL     OW21799   1.943   4.613  15.952 -0.2866 -0.5966 -0.0295
 3388SOL    HW121800   1.958   4.536  15.898  1.6280  0.0817 -0.4454
 3388SOL    HW221801   1.932   4.567  16.036 -1.0118 -1.5491 -0.6416
 3389SOL     OW21802   4.208   1.010  17.703 -0.1070  0.7099 -0.3658
 3389SOL    HW121803   4.135   0.967  17.748 -0.4863  1.0367 -0.6730
 3389SOL    HW221804   4.198   1.102  17.727 -4.3499  0.2193 -0.2364
 3390SOL     OW21805   1.767   2.252   6.108 -1.0933 -0.3592 -0.9876
 3390SOL    HW121806   1.854   2.267   6.145 -0.6986 -0.6538 -1.8019
 3390SOL    HW221807   1.717   2.201   6.172 -1.4452 -0.0923 -1.0478
 3391SOL     OW21808   1.098   0.035   4.466 -0.5536  0.1645  0.6068
 3391SOL    HW121809   1.077   4.727   4.546 -0.9497  0.5236  0.7140
 3391SOL    HW221810   1.105   4.703   4.402 -0.8572 -0.6418  1.4647
 3392SOL     OW21811   3.862   0.313   1.446  0.0016  0.1600  0.6339
 3392SOL    HW121812   3.849   0.407   1.435  0.1248 -0.0173 -1.1054
 3392SOL    HW221813   3.770   0.285   1.446 -0.9586  3.3539 -2.5039
 3393SOL     OW21814   4.296   4.080   1.800  0.6237 -0.2467  0.4709
 3393SOL    HW121815   4.299   4.172   1.771  3.6763 -0.2697  0.7564
 3393SOL    HW221816   4.202   4.062   1.799  0.1723  2.1085 -2.6142
 3394SOL     OW21817   4.540   4.353   3.264  0.1024  0.5369  0.5651
 3394SOL    HW121818   4.455   4.376   3.227  1.2513  0.1685 -2.3135
 3394SOL    HW221819   4.565   4.289   3.198  0.6930  0.6182  0.7117
 3395SOL     OW21820   1.382   2.082   7.918  0.3776  0.0593  0.2149
 3395SOL    HW121821   1.340   1.998   7.897 -0.3561  0.1515  1.3340
 3395SOL    HW221822   1.419   2.096   7.831  0.5450  0.3321  0.3302
 3396SOL     OW21823   2.878   0.095  10.503 -0.1933  0.0262 -0.0705
 3396SOL    HW121824   2.787   0.125  10.504 -0.4057 -0.6798  1.5784
 3396SOL    HW221825   2.922   0.180  10.512 -0.5620 -0.1049  2.9664
 3397SOL     OW21826   1.750   2.978  10.230 -0.1309  1.0235  0.2842
 3397SOL    HW121827   1.728   2.979  10.323  2.4438  3.7166  0.8816
 3397SOL    HW221828   1.759   2.885  10.210  0.2749  1.0288  0.4343
 3398SOL     OW21829   4.305   3.798   2.367  0.9251  0.0003  0.1541
 3398SOL    HW121830   4.378   3.833   2.316 -0.7156  1.9093 -0.8521
 3398SOL    HW221831   4.230   3.845   2.331  0.2226 -0.5802  0.8546
 3399SOL     OW21832   3.302   1.367  14.368 -0.5070  0.4632  0.4713
 3399SOL    HW121833   3.247   1.316  14.309  1.0174 -1.2597  0.5495
 3399SOL    HW221834   3.241   1.398  14.435  0.2078  1.7083  0.5644
 3400SOL     OW21835   4.075   3.582  17.678 -0.4845 -0.5573 -0.1663
 3400SOL    HW121836   4.017   3.656  17.698 -1.1426 -0.6321 -1.7764
 3400SOL    HW221837   4.012   3.515  17.705 -1.0450  1.0538  2.5343
 3401SOL     OW21838   1.435   2.667   2.538  0.1893  0.6124  0.5862
 3401SOL    HW121839   1.427   2.729   2.611 -2.5049 -0.8430  1.5198
 3401SOL    HW221840   1.456   2.584   2.581 -0.4610 -1.0128 -2.2957
 3402SOL     OW21841   4.531   1.587   9.518  0.4080  0.4075  0.2657
 3402SOL    HW121842   4.546   1.573   9.612  0.3879 -0.9627  0.0604
 3402SOL    HW221843   4.613   1.633   9.498  0.9375 -0.2551  0.8878
 3403SOL     OW21844   2.756   1.662   5.828 -0.2539  0.3978 -0.0313
 3403SOL    HW121845   2.693   1.649   5.757  0.5087 -1.2955 -0.3986
 3403SOL    HW221846   2.758   1.758   5.832  0.9126  0.4173 -1.1509
 3404SOL     OW21847   2.851   2.340   5.153 -0.3960  0.0209 -0.2574
 3404SOL    HW121848   2.818   2.297   5.074  1.5758  1.2511 -1.7198
 3404SOL    HW221849   2.915   2.271   5.170 -0.2268  0.3365  0.3549
 3405SOL     OW21850   2.352   2.582   1.836  0.3370 -0.2186 -0.6274
 3405SOL    HW121851   2.258   2.564   1.838  0.8091 -2.3683  1.8390
 3405SOL    HW221852   2.384   2.522   1.769  2.2011  0.2304 -0.1332
 3406SOL     OW21853   3.476   1.653   3.039  0.6788  0.2159  0.5575
 3406SOL    HW121854   3.480   1.738   2.995 -1.5308 -0.6297 -1.3124
 3406SOL    HW221855   3.390   1.619   3.013  1.5809 -0.6349 -1.3121
 3407SOL     OW21856   3.565   3.447   4.349  0.2082 -0.4273 -1.2042
 3407SOL    HW121857   3.540   3.359   4.323 -1.9446  0.0892 -0.8206
 3407SOL    HW221858   3.623   3.439   4.425  1.9346  2.1699 -2.2436
 3408SOL     OW21859   2.111   2.344   4.125 -0.8832 -0.1844  0.3693
 3408SOL    HW121860   2.132   2.401   4.052  2.4748 -2.0973 -0.1613
 3408SOL    HW221861   2.029   2.306   4.094  0.8451 -2.4827 -1.4847
 3409SOL     OW21862   4.710   1.068   8.083  0.1326 -0.5211 -0.1715
 3409SOL    HW121863   4.674   1.128   8.017 -2.5200 -2.8097 -0.7983
 3409SOL    HW221864   0.053   1.110   8.111 -0.2975  0.4878 -0.4345
 3410SOL     OW21865   0.388   4.082   2.682  0.5480 -0.0547 -0.4398
 3410SOL    HW121866   0.353   4.100   2.595  1.4805  1.2265 -0.5359
 3410SOL    HW221867   0.465   4.028   2.664  0.8285 -1.0513  3.8348
 3411SOL     OW21868   3.352   3.609   2.309 -0.2074  0.6322  0.1314
 3411SOL    HW121869   3.316   3.581   2.394  0.9307  0.7079  0.6298
 3411SOL    HW221870   3.429   3.553   2.306  0.8893  2.1672 -0.4595
 3412SOL     OW21871   1.111   1.319   7.230 -0.1267 -0.4961 -0.4069
 3412SOL    HW121872   1.020   1.346   7.217 -0.3772 -1.3844 -0.4873
 3412SOL    HW221873   1.117   1.241   7.175  1.1995  0.4171 -1.5510
 3413SOL     OW21874   2.281   1.126   2.973  0.0581  0.2000  1.1117
 3413SOL    HW121875   2.190   1.133   3.002  0.0994  1.4364  0.9368
 3413SOL    HW221876   2.279   1.217   2.943 -1.3103 -0.1852  0.0451
 3414SOL     OW21877   2.477   1.096   1.529  0.1250  0.9118 -0.5295
 3414SOL    HW121878   2.449   1.029   1.592  1.8027 -1.0844 -1.8899
 3414SOL    HW221879   2.392   1.094   1.485 -0.1697  2.6558 -0.0195
 3415SOL     OW21880   4.096   0.247   2.697 -0.0312  0.1991 -0.7216
 3415SOL    HW121881   4.140   0.294   2.626 -0.8918  1.9058 -0.1362
 3415SOL    HW221882   4.157   0.179   2.726  0.0158  0.4239 -0.2961
 3416SOL     OW21883   2.822   2.156  12.331 -0.0606  0.8550  0.4308
 3416SOL    HW121884   2.882   2.122  12.398  0.3298  0.0218 -0.3437
 3416SOL    HW221885   2.870   2.127  12.254 -2.0742 -1.0211 -0.1147
 3417SOL     OW21886   4.593   0.372   6.140 -0.0455  0.1812  0.3746
 3417SOL    HW121887   4.594   0.277   6.128 -0.7728 -0.0458  2.0589
 3417SOL    HW221888   4.625   0.398   6.054  1.3959  0.5528  1.0288
 3418SOL     OW21889   1.584   3.110   5.177 -0.2976 -0.1325  0.0808
 3418SOL    HW121890   1.621   3.163   5.106 -1.4005 -0.1084 -0.4728
 3418SOL    HW221891   1.534   3.040   5.135 -2.3482  1.1497  0.3834
 3419SOL     OW21892   0.851   0.393   7.428  0.5620  0.0682  0.8387
 3419SOL    HW121893   0.809   0.340   7.361 -0.2917 -1.0263  2.2637
 3419SOL    HW221894   0.867   0.478   7.385 -0.1423 -0.8722 -1.2991
 3420SOL     OW21895   3.794   0.119   7.309 -0.0246  0.7509 -0.1329
 3420SOL    HW121896   3.801   0.046   7.247 -0.1436 -0.5068  1.3466
 3420SOL    HW221897   3.751   0.182   7.251  2.9043  1.9439 -1.0047
 3421SOL     OW21898   4.396   1.933   2.350 -0.1788  0.7437 -0.1662
 3421SOL    HW121899   4.424   2.007   2.297  2.3426 -1.1414 -1.4730
 3421SOL    HW221900   4.471   1.875   2.337 -0.8607  0.3564 -2.4302
 3422SOL     OW21901   2.278   4.222  15.968  0.2896  0.2303 -0.1038
 3422SOL    HW121902   2.258   4.194  16.057 -0.6419  3.4091  0.7057
 3422SOL    HW221903   2.315   4.310  15.974 -0.5375  0.5702 -0.0252
 3423SOL     OW21904   0.208   4.284   4.370  0.1343  0.0377  0.0883
 3423SOL    HW121905   0.267   4.339   4.421 -2.3306  2.3497  0.4829
 3423SOL    HW221906   0.170   4.350   4.312 -1.7030 -1.3329 -0.2579
 3424SOL     OW21907   1.636   0.397  16.275  0.2995  0.5833  0.1156
 3424SOL    HW121908   1.657   0.427  16.186 -1.0058 -0.9146 -0.6890
 3424SOL    HW221909   1.592   0.474  16.312 -1.9365 -0.9429  0.6192
 3425SOL     OW21910   0.872   0.488   3.477  0.1357  0.4345  0.2882
 3425SOL    HW121911   0.840   0.400   3.499  1.8562 -0.2483  0.0509
 3425SOL    HW221912   0.920   0.469   3.396 -1.1926 -0.4005 -0.3080
 3426SOL     OW21913   4.472   4.663  11.256  0.2722 -0.3043 -0.5686
 3426SOL    HW121914   4.547   4.637  11.203 -0.0816 -0.1969 -1.1242
 3426SOL    HW221915   4.425   4.579  11.255 -0.0653 -0.0716 -2.8357
 3427SOL     OW21916   0.834   3.800   5.520  0.1996 -0.1274 -0.0586
 3427SOL    HW121917   0.851   3.878   5.572  0.1461  0.1625 -0.4817
 3427SOL    HW221918   0.748   3.821   5.484 -0.1091 -2.1394 -0.5469
 3428SOL     OW21919   0.807   2.913   6.256  0.0258 -0.0898 -0.1055
 3428SOL    HW121920   0.832   2.877   6.341 -0.0814  0.5872  0.2137
 3428SOL    HW221921   0.827   3.006   6.269 -4.5239  0.9909 -0.5705
 3429SOL     OW21922   2.316   3.224   6.604  0.1085 -0.4982  0.4363
 3429SOL    HW121923   2.255   3.285   6.563  0.9639  0.3885  0.4924
 3429SOL    HW221924   2.401   3.241   6.565  0.1763  2.4442  1.8019
 3430SOL     OW21925   0.060   2.217   4.834 -0.1130 -0.0982 -0.3770
 3430SOL    HW121926   0.005   2.152   4.790 -0.4322  1.0429 -1.6564
 3430SOL    HW221927   0.145   2.183   4.803  0.7235  2.0970 -0.4838
 3431SOL     OW21928   2.982   2.526   7.598  0.3733 -0.1205 -0.3369
 3431SOL    HW121929   2.887   2.518   7.591  0.2874 -1.0054  1.7399
 3431SOL    HW221930   2.995   2.477   7.517  0.9938  0.5400 -0.6373
 3432SOL     OW21931   0.772   1.287   1.612 -0.1178 -0.4920 -0.3479
 3432SOL    HW121932   0.767   1.374   1.652 -0.0077 -0.4024 -0.5252
 3432SOL    HW221933   0.866   1.285   1.592 -0.4369  1.2344 -2.0566
 3433SOL     OW21934   1.827   4.611  15.276  0.6687 -0.0020  0.3692
 3433SOL    HW121935   1.820   4.613  15.371  2.2551  2.8477  0.4199
 3433SOL    HW221936   1.803   4.520  15.256 -0.6981  0.3099  0.5896
 3434SOL     OW21937   1.702   0.966   2.248  0.2061 -0.2887 -0.2395
 3434SOL    HW121938   1.668   0.960   2.159  1.3535 -1.2331 -0.6082
 3434SOL    HW221939   1.764   0.894   2.251  1.0422  0.4018 -0.9819
 3435SOL     OW21940   1.031   1.673   2.243  0.2906  0.3575  0.1725
 3435SOL    HW121941   0.995   1.682   2.155  1.5912 -0.8340 -0.4811
 3435SOL    HW221942   1.098   1.742   2.249 -0.9981  1.6340 -0.2588
 3436SOL     OW21943   3.042   1.905   4.345 -0.2218 -0.0515  0.0002
 3436SOL    HW121944   2.976   1.894   4.277 -0.5914 -1.3962  0.5642
 3436SOL    HW221945   2.992   1.955   4.409 -0.2290  1.3893 -1.1399
 3437SOL     OW21946   1.240   2.584   8.899 -0.0325  0.2293  0.2926
 3437SOL    HW121947   1.240   2.572   8.994  0.3162  2.0324  0.5079
 3437SOL    HW221948   1.186   2.510   8.872 -1.1755  1.1105  0.1425
 3438SOL     OW21949   3.579   4.515  16.920 -0.7030 -0.1245  0.4478
 3438SOL    HW121950   3.519   4.551  16.986  0.2453 -0.9098  1.7335
 3438SOL    HW221951   3.664   4.545  16.951 -1.6315  1.6675  1.2435
 3439SOL     OW21952   2.525   3.428   6.243  0.6454 -0.2475  0.2615
 3439SOL    HW121953   2.587   3.464   6.179  1.5577  0.5037  1.5574
 3439SOL    HW221954   2.449   3.486   6.252  0.3500 -0.3996 -1.2472
 3440SOL     OW21955   2.227   4.624   3.507  0.1231  0.2495  0.1505
 3440SOL    HW121956   2.287   4.662   3.571  0.3849  0.1905 -0.0604
 3440SOL    HW221957   2.222   4.693   3.441  1.7087 -0.3988 -0.6417
 3441SOL     OW21958   3.531   0.935  13.983 -0.3231  0.2768 -0.0717
 3441SOL    HW121959   3.470   1.008  13.969 -1.9971 -1.8500 -3.8503
 3441SOL    HW221960   3.479   0.869  14.030 -0.8265 -0.0969 -1.1573
 3442SOL     OW21961   0.535   0.456   5.367 -0.5859  0.3271 -0.1935
 3442SOL    HW121962   0.628   0.438   5.382 -0.7227 -0.5737 -0.4185
 3442SOL    HW221963   0.496   0.371   5.388 -0.7636  0.8569  1.6502
 3443SOL     OW21964   3.226   0.022   9.456 -0.1621  0.2446 -0.3019
 3443SOL    HW121965   3.232   4.723   9.544  1.3262 -1.5948 -1.1817
 3443SOL    HW221966   3.317   0.018   9.427 -0.1556 -3.3816  0.2215
 3444SOL     OW21967   2.010   3.485  15.234 -0.3584  0.1986 -0.0897
 3444SOL    HW121968   2.031   3.394  15.252 -0.1645  0.7700  2.6311
 3444SOL    HW221969   2.011   3.478  15.139  1.0378  1.1778 -0.1480
 3445SOL     OW21970   3.688   1.594  13.017  0.3285  0.4832 -0.6997
 3445SOL    HW121971   3.608   1.548  13.044  0.8211 -0.4646 -0.8491
 3445SOL    HW221972   3.685   1.592  12.922  1.7492  0.2482 -0.7364
 3446SOL     OW21973   0.188   0.128  11.422 -0.0661 -0.5143  0.1599
 3446SOL    HW121974   0.166   0.093  11.336  1.2004 -0.7373 -0.0789
 3446SOL    HW221975   0.261   0.188  11.407 -0.7218  0.5993  1.4620
 3447SOL     OW21976   4.257   1.742   2.497 -0.2803 -0.5481 -0.3010
 3447SOL    HW121977   4.300   1.672   2.448  1.2015  0.6414 -0.7204
 3447SOL    HW221978   4.306   1.809   2.450 -2.5556  1.0687 -0.3195
 3448SOL     OW21979   2.217   1.627  15.464  0.3894  0.1226 -0.3923
 3448SOL    HW121980   2.298   1.577  15.448 -0.7402 -1.9735  0.4104
 3448SOL    HW221981   2.210   1.595  15.554  1.5215 -1.6828 -0.9379
 3449SOL     OW21982   1.936   2.754  11.679 -0.2661 -0.0903  0.3899
 3449SOL    HW121983   1.846   2.721  11.685 -0.0354 -0.7264  0.3203
 3449SOL    HW221984   1.943   2.787  11.769 -0.2269 -0.2438  0.4435
 3450SOL     OW21985   2.262   3.914   4.790  0.0007 -0.0739 -0.2547
 3450SOL    HW121986   2.331   3.857   4.756 -1.0069 -1.4653  0.0487
 3450SOL    HW221987   2.300   3.964   4.863 -0.5515  2.0467 -1.4269
 3451SOL     OW21988   1.224   0.984   5.792  0.2746  0.1047  0.1344
 3451SOL    HW121989   1.179   0.900   5.790  1.3005 -0.4761  1.1536
 3451SOL    HW221990   1.316   0.959   5.801 -0.1280 -0.7152  2.0023
 3452SOL     OW21991   4.192   1.182   3.161  0.2855 -0.1906 -0.2795
 3452SOL    HW121992   4.116   1.240   3.169  0.9207  0.7731 -1.2432
 3452SOL    HW221993   4.256   1.240   3.121  0.9038  1.3602  2.9109
 3453SOL     OW21994   0.857   1.662   7.690 -0.1267  0.4917  0.2177
 3453SOL    HW121995   0.866   1.674   7.596 -0.3505 -0.4680  0.0754
 3453SOL    HW221996   0.858   1.566   7.690  1.9582  0.5105  0.3882
 3454SOL     OW21997   2.674   1.623   5.545  0.2436 -0.1630 -0.0874
 3454SOL    HW121998   2.733   1.588   5.478  0.1532  0.6480 -0.6002
 3454SOL    HW221999   2.603   1.655   5.489 -0.0543  0.2083  0.5014
 3455SOL     OW22000   4.587   3.541   5.572  0.1949 -0.1207 -0.5789
 3455SOL    HW122001   4.512   3.599   5.558 -0.2640 -0.3077  1.0855
 3455SOL    HW222002   4.553   3.487   5.643  0.8521 -1.6563 -1.4287
 3456SOL     OW22003   0.834   0.125   2.983  0.7869  0.3893  0.0783
 3456SOL    HW122004   0.927   0.104   2.986  0.7133  0.0210 -0.2530
 3456SOL    HW222005   0.827   0.203   3.038  2.4355  1.9700 -1.9564
 3457SOL     OW22006   2.659   1.990   3.337 -0.4941  0.0661 -0.3694
 3457SOL    HW122007   2.579   1.939   3.343 -0.0436 -0.5463  0.4224
 3457SOL    HW222008   2.630   2.073   3.375 -0.3972  0.0189 -0.1905
 3458SOL     OW22009   3.140   1.657   1.976  0.1191 -0.2837 -0.6695
 3458SOL    HW122010   3.181   1.596   1.915  0.1197 -2.4951  1.5500
 3458SOL    HW222011   3.064   1.690   1.927 -0.5284  1.9663  1.8700
 3459SOL     OW22012   4.025   1.804   3.498  0.5280 -0.2201  0.4638
 3459SOL    HW122013   4.105   1.773   3.539 -0.3368 -1.2225  1.4140
 3459SOL    HW222014   4.060   1.849   3.421  1.2026  1.1220  1.5751
 3460SOL     OW22015   1.007   0.874   6.096 -0.1955 -0.1227 -0.1595
 3460SOL    HW122016   0.931   0.824   6.069 -0.5560 -0.4417  1.4226
 3460SOL    HW222017   0.968   0.958   6.121 -1.0812 -0.4695 -0.3982
 3461SOL     OW22018   1.825   2.172   8.417 -0.1801 -0.1333 -0.4503
 3461SOL    HW122019   1.882   2.249   8.424  0.3569 -0.5907  0.1545
 3461SOL    HW222020   1.793   2.167   8.507 -1.6063  2.7679 -0.7917
 3462SOL     OW22021   3.982   0.754  10.352  0.0091 -0.2630  0.3221
 3462SOL    HW122022   3.887   0.753  10.357  0.1526 -1.2945  2.8016
 3462SOL    HW222023   3.990   0.811  10.276  1.3424 -0.5081  0.2736
 3463SOL     OW22024   2.932   0.514   7.034  0.3578  0.3129  0.2115
 3463SOL    HW122025   3.021   0.487   7.057  0.6297  0.6674 -0.4216
 3463SOL    HW222026   2.920   0.474   6.947 -0.7277  2.6610 -0.7320
 3464SOL     OW22027   4.556   1.540   9.795  0.3361  0.0121  0.6656
 3464SOL    HW122028   4.488   1.473   9.795  1.3688 -1.0259 -0.5170
 3464SOL    HW222029   4.521   1.598   9.863 -1.5939  0.1993 -0.4735
 3465SOL     OW22030   0.381   3.670   2.391  1.1552 -0.1541 -0.2561
 3465SOL    HW122031   0.408   3.638   2.306  0.1925 -0.9228 -0.2741
 3465SOL    HW222032   0.410   3.610   2.460 -1.0883  1.0376  1.7565
 3466SOL     OW22033   1.106   3.400   9.996  0.0115 -0.0813  0.4072
 3466SOL    HW122034   1.137   3.485  10.025  1.9814 -1.1223  1.3349
 3466SOL    HW222035   1.115   3.406   9.901  1.5468  0.5766  0.6070
 3467SOL     OW22036   3.770   0.645  16.416 -0.5481 -0.1226 -0.5237
 3467SOL    HW122037   3.729   0.694  16.486  2.9849 -1.9005  2.7900
 3467SOL    HW222038   3.762   0.702  16.339  0.3598  0.8870  0.1309
 3468SOL     OW22039   4.111   4.702   7.453 -0.1578 -0.0202 -0.3910
 3468SOL    HW122040   4.176   4.672   7.390 -0.2231 -0.5901 -0.1881
 3468SOL    HW222041   4.118   0.058   7.439 -1.3015  0.4117  1.8965
 3469SOL     OW22042   3.220   2.957  16.249  0.1697 -0.5543  0.3278
 3469SOL    HW122043   3.304   2.922  16.218  0.6682  0.2991  0.7076
 3469SOL    HW222044   3.166   2.880  16.231 -1.0332  0.7511 -1.6894
 3470SOL     OW22045   3.356   1.873  11.546  0.0807  0.3248 -0.0236
 3470SOL    HW122046   3.447   1.877  11.516  0.2233  0.0020  0.3680
 3470SOL    HW222047   3.360   1.888  11.640 -1.9421  2.1870 -0.2055
 3471SOL     OW22048   1.428   3.865   4.318  0.0400  0.0196 -0.4002
 3471SOL    HW122049   1.335   3.869   4.340  0.2670 -1.8639  0.8739
 3471SOL    HW222050   1.445   3.771   4.314  1.0769  0.1399  1.2877
 3472SOL     OW22051   2.760   4.626   7.221  0.2966 -0.1794  0.0992
 3472SOL    HW122052   2.783   4.539   7.254  3.0317  0.3772 -0.3320
 3472SOL    HW222053   2.709   4.596   7.145 -1.8703 -0.5263  1.7099
 3473SOL     OW22054   2.505   2.267   1.913  0.0715 -0.6005  0.1755
 3473SOL    HW122055   2.466   2.312   1.988 -0.2834  0.4950 -0.6585
 3473SOL    HW222056   2.431   2.208   1.897 -1.7356  2.0239 -1.1509
 3474SOL     OW22057   3.111   1.628   4.955  0.1896 -0.1067  0.1205
 3474SOL    HW122058   3.140   1.704   4.906  0.8072 -1.0010 -0.9022
 3474SOL    HW222059   3.186   1.616   5.012 -0.8471  1.0963  1.7372
 3475SOL     OW22060   0.372   1.189   5.512 -0.2934  0.2682 -0.5412
 3475SOL    HW122061   0.415   1.160   5.592  1.1248 -1.0908 -1.8006
 3475SOL    HW222062   0.342   1.103   5.483  3.9562 -0.8049 -1.7389
 3476SOL     OW22063   0.187   3.821   7.259  0.1442 -0.1121 -0.3691
 3476SOL    HW122064   0.155   3.822   7.169 -2.2786 -1.3766  0.4907
 3476SOL    HW222065   0.253   3.751   7.256 -0.4197 -0.6546 -0.0934
 3477SOL     OW22066   4.650   1.376  17.471  0.1046 -0.0872 -0.3033
 3477SOL    HW122067   4.558   1.389  17.493 -0.0768  1.1354 -1.7877
 3477SOL    HW222068   4.658   1.411  17.382 -1.2149 -0.4040 -0.5489
 3478SOL     OW22069   1.289   3.554   1.671 -0.3790  0.3602 -0.9731
 3478SOL    HW122070   1.308   3.648   1.682  2.2669 -0.5657  2.0883
 3478SOL    HW222071   1.378   3.521   1.657  0.0438  0.8018  0.7041
 3479SOL     OW22072   2.461   0.408   4.347  0.4339  0.2957  0.1294
 3479SOL    HW122073   2.542   0.458   4.340  0.1889  1.1531  3.6907
 3479SOL    HW222074   2.422   0.465   4.413 -0.2756 -0.0636  0.0216
 3480SOL     OW22075   2.975   1.904  11.033 -0.0879  0.4018  0.1132
 3480SOL    HW122076   2.902   1.962  11.054 -1.3805 -1.4714  0.8006
 3480SOL    HW222077   2.914   1.834  11.010 -0.1402 -0.0593  1.6510
 3481SOL     OW22078   2.391   1.280   4.829 -0.5647 -0.3067 -0.0451
 3481SOL    HW122079   2.334   1.357   4.825  0.1954  0.3213  1.0804
 3481SOL    HW222080   2.355   1.224   4.761  0.7669 -0.0272 -0.9712
 3482SOL     OW22081   3.384   2.282  13.935 -0.1888  0.4276  0.0022
 3482SOL    HW122082   3.427   2.321  13.858  2.0609 -1.5740  0.2135
 3482SOL    HW222083   3.464   2.257  13.982  0.3539 -0.7396 -1.5190
 3483SOL     OW22084   2.764   4.365   6.338 -0.0940 -0.1186 -0.4534
 3483SOL    HW122085   2.839   4.420   6.313  0.9235 -0.0528  2.7535
 3483SOL    HW222086   2.820   4.288   6.340 -0.5685 -0.4460 -0.0571
 3484SOL     OW22087   3.151   0.113   2.397  0.4215  0.0167  0.1228
 3484SOL    HW122088   3.207   0.187   2.372  0.1420  0.0648 -0.3800
 3484SOL    HW222089   3.065   0.154   2.393 -0.0013 -0.8160  0.7638
 3485SOL     OW22090   4.117   1.846   1.648  0.2799  0.1722  0.2774
 3485SOL    HW122091   4.026   1.872   1.660 -0.3576 -2.2108  0.5252
 3485SOL    HW222092   4.140   1.837   1.740  0.9028  3.3053  0.4540
 3486SOL     OW22093   4.331   0.273   4.143  0.4824 -0.3040  0.0472
 3486SOL    HW122094   4.365   0.212   4.077 -2.2348 -0.8673 -0.8269
 3486SOL    HW222095   4.284   0.340   4.094 -2.3669 -2.1741  0.1899
 3487SOL     OW22096   2.067   2.525   3.890 -0.0839 -0.1358 -0.0415
 3487SOL    HW122097   2.046   2.468   3.816 -0.1749  1.5092 -1.2904
 3487SOL    HW222098   2.154   2.552   3.861 -0.5810 -0.5628 -1.9327
 3488SOL     OW22099   1.375   0.984  15.823  0.3008  0.2654  0.1968
 3488SOL    HW122100   1.338   1.072  15.815 -0.2914 -0.0158 -0.1772
 3488SOL    HW222101   1.293   0.937  15.838  0.0805  0.5244 -0.2196
 3489SOL     OW22102   1.588   1.775   8.062 -0.1141 -0.0545  0.1631
 3489SOL    HW122103   1.522   1.832   8.102 -0.2674  0.6686 -1.1187
 3489SOL    HW222104   1.631   1.839   8.006  2.3624 -1.9749 -0.1245
 3490SOL     OW22105   0.971   0.698   4.500 -0.1961 -0.5790 -0.3432
 3490SOL    HW122106   0.911   0.767   4.527 -0.7741 -1.8695  1.6964
 3490SOL    HW222107   0.915   0.623   4.521  1.4497 -1.5203  0.8053
 3491SOL     OW22108   2.575   2.510  10.020  0.0103 -0.8818  0.0049
 3491SOL    HW122109   2.524   2.577   9.975 -0.5247 -1.3873 -0.1373
 3491SOL    HW222110   2.663   2.547  10.026  0.0783 -0.9280 -0.7496
 3492SOL     OW22111   2.383   4.702   2.605 -0.3643  0.2233  0.2125
 3492SOL    HW122112   2.414   4.719   2.516 -0.3293 -0.1575  0.1518
 3492SOL    HW222113   2.463   4.672   2.648  0.0377  2.7398  1.1712
 3493SOL     OW22114   0.821   1.830  13.740  0.0638  0.6908  0.2336
 3493SOL    HW122115   0.902   1.801  13.782 -0.6288 -0.4040  0.8113
 3493SOL    HW222116   0.838   1.816  13.647  2.7971  3.4394  0.2937
 3494SOL     OW22117   1.916   2.740   4.364 -0.1208 -0.3213  0.7034
 3494SOL    HW122118   1.962   2.824   4.356  0.5325 -0.7915 -0.4743
 3494SOL    HW222119   1.970   2.695   4.299  1.6611 -0.2129  2.1111
 3495SOL     OW22120   0.673   2.996   5.404 -0.1462 -0.2151  0.0903
 3495SOL    HW122121   0.634   3.056   5.340 -0.8311 -0.1239  0.5969
 3495SOL    HW222122   0.623   3.020   5.482 -0.6102  1.0684 -0.5986
 3496SOL     OW22123   3.184   0.243   3.723  0.7109  0.6466  0.2629
 3496SOL    HW122124   3.269   0.205   3.702  0.8437  2.6125 -2.8811
 3496SOL    HW222125   3.204   0.328   3.683 -0.8941  0.6665 -0.5266
 3497SOL     OW22126   3.355   3.973   1.888 -0.3570 -0.7076  0.1072
 3497SOL    HW122127   3.436   3.968   1.940 -0.7699  2.9699  1.1419
 3497SOL    HW222128   3.298   3.959   1.964  0.9947 -1.5308  0.9818
 3498SOL     OW22129   1.016   2.660   3.070  0.2861 -0.1157 -0.5202
 3498SOL    HW122130   0.971   2.721   3.128 -1.7656 -0.8487 -1.3258
 3498SOL    HW222131   1.054   2.724   3.010  0.0263  0.4128 -0.1190
 3499SOL     OW22132   2.280   1.991  16.197 -0.6022 -0.0457 -0.2649
 3499SOL    HW122133   2.244   1.910  16.162  0.3396 -0.3653 -0.4718
 3499SOL    HW222134   2.358   2.000  16.143 -0.0623 -0.3760  0.4500
 3500SOL     OW22135   4.635   3.151   3.953 -0.3132 -0.1430 -0.0305
 3500SOL    HW122136   4.679   3.066   3.953  0.5688  0.3236  0.7872
 3500SOL    HW222137   4.541   3.133   3.954 -0.3652  0.2072  0.9709
 3501SOL     OW22138   3.679   1.033   2.972 -0.3501  0.2956  0.2373
 3501SOL    HW122139   3.680   0.937   2.964 -1.3534  0.2450  0.7108
 3501SOL    HW222140   3.756   1.039   2.916 -0.5818  2.8614  0.2157
 3502SOL     OW22141   0.900   2.287   5.399 -0.0604 -0.5369 -0.0435
 3502SOL    HW122142   0.954   2.338   5.460 -0.2173 -1.3486  0.7676
 3502SOL    HW222143   0.909   2.345   5.323  1.3714  0.9032  1.2194
 3503SOL     OW22144   0.949   3.504   2.183 -0.0507 -0.3760  0.4033
 3503SOL    HW122145   0.973   3.589   2.146 -0.0432 -1.4323 -2.0602
 3503SOL    HW222146   0.882   3.540   2.241  0.1211  1.1247 -0.3407
 3504SOL     OW22147   1.658   3.655   1.568 -0.3214 -0.5762 -0.6656
 3504SOL    HW122148   1.587   3.681   1.509 -1.2624 -1.4209  0.0918
 3504SOL    HW222149   1.736   3.672   1.515 -0.5361  2.0872 -0.1103
 3505SOL     OW22150   0.112   4.549  16.974 -0.2495 -0.2360  0.0047
 3505SOL    HW122151   0.055   4.609  16.927 -2.4172 -1.8082  0.6049
 3505SOL    HW222152   0.198   4.571  16.940 -0.3071 -1.7405 -1.0811
 3506SOL     OW22153   2.179   0.081   5.239 -0.4346 -0.4089 -0.2106
 3506SOL    HW122154   2.207   0.004   5.289 -1.0743 -1.6324 -1.7524
 3506SOL    HW222155   2.131   0.038   5.168  0.8862 -1.3283 -0.5299
 3507SOL     OW22156   4.602   0.242  17.247  0.3470 -0.1968 -0.1631
 3507SOL    HW122157   4.554   0.172  17.203 -0.4154 -0.3824  0.9726
 3507SOL    HW222158   4.676   0.268  17.191  0.4049 -0.2503 -0.1106
 3508SOL     OW22159   3.099   1.206   2.333  0.0186 -0.2758  0.0217
 3508SOL    HW122160   3.176   1.154   2.309  0.2344 -1.0004  2.2235
 3508SOL    HW222161   3.030   1.175   2.274 -0.9301  2.0096 -0.0336
 3509SOL     OW22162   2.838   1.014   8.845  0.0308  0.5590  0.1686
 3509SOL    HW122163   2.880   0.928   8.846 -1.9768 -0.4388 -1.5519
 3509SOL    HW222164   2.821   1.032   8.753 -1.3473 -2.4388 -0.1430
 3510SOL     OW22165   3.219   4.155  16.133  0.0917 -0.0225  0.3200
 3510SOL    HW122166   3.186   4.072  16.166  2.3587 -0.9697  0.1655
 3510SOL    HW222167   3.146   4.190  16.081  0.3759 -0.1426 -0.1584
 3511SOL     OW22168   3.997   0.907  11.670 -0.6540 -0.0645 -0.0135
 3511SOL    HW122169   4.003   0.859  11.588  1.9808  0.6592 -0.2471
 3511SOL    HW222170   3.933   0.974  11.645  0.1479  0.8680  0.4169
 3512SOL     OW22171   1.954   2.873  10.938  0.0278  0.4778  0.4274
 3512SOL    HW122172   1.859   2.873  10.928 -0.0790  0.2552  1.4661
 3512SOL    HW222173   1.979   2.845  10.850  0.3043  0.7066  0.4322
 3513SOL     OW22174   3.866   0.595  12.689 -0.1934 -0.2188  0.9280
 3513SOL    HW122175   3.838   0.607  12.780 -0.6065 -0.4905  0.8351
 3513SOL    HW222176   3.869   0.500  12.676 -0.1222  0.0945 -1.3412
 3514SOL     OW22177   0.869   2.615   5.491 -0.2456 -0.5308 -0.3727
 3514SOL    HW122178   0.943   2.673   5.470  0.9277 -1.6861  0.5135
 3514SOL    HW222179   0.904   2.564   5.564 -1.8406 -0.3492  0.5182
 3515SOL     OW22180   3.643   2.541   3.892 -0.3572 -0.3317 -0.3411
 3515SOL    HW122181   3.556   2.578   3.880  0.9032  2.6934 -0.2582
 3515SOL    HW222182   3.679   2.597   3.961  0.6040 -2.5079  0.9129
 3516SOL     OW22183   0.880   2.406   8.401 -0.3166 -0.0058  0.3494
 3516SOL    HW122184   0.846   2.495   8.391  2.9127  0.8141 -3.2670
 3516SOL    HW222185   0.860   2.395   8.494  1.3215 -0.4963  0.6479
 3517SOL     OW22186   1.608   3.290   7.722 -0.1785 -0.2876 -0.3003
 3517SOL    HW122187   1.616   3.196   7.739 -0.7335 -0.1801  0.5523
 3517SOL    HW222188   1.517   3.306   7.749  0.4841  0.3935  1.5328
 3518SOL     OW22189   1.011   3.664  17.474 -0.0051 -0.6583  0.0413
 3518SOL    HW122190   1.031   3.753  17.446 -0.9782 -1.5346 -3.3722
 3518SOL    HW222191   1.014   3.613  17.393 -2.1140 -1.6837  0.5957
 3519SOL     OW22192   2.361   2.250   4.241 -0.9027  0.2661 -0.2602
 3519SOL    HW122193   2.335   2.341   4.258 -3.9178 -0.6720  0.1301
 3519SOL    HW222194   2.276   2.221   4.209 -0.7768 -0.1389 -0.2241
 3520SOL     OW22195   3.544   2.308   9.104  0.3516  0.4451  0.0587
 3520SOL    HW122196   3.455   2.342   9.114 -0.0241 -0.4147 -0.3025
 3520SOL    HW222197   3.546   2.233   9.163  0.9740 -0.5846 -1.2708
 3521SOL     OW22198   0.891   0.293   5.052  0.0165  0.0083 -0.3189
 3521SOL    HW122199   0.936   0.370   5.017 -1.5865  1.1340  0.1212
 3521SOL    HW222200   0.800   0.310   5.027  0.3165  0.3470 -1.1918
 3522SOL     OW22201   4.000   2.479   8.488  1.2682  0.4067  0.0294
 3522SOL    HW122202   4.045   2.400   8.515  2.6892  1.3492  0.4370
 3522SOL    HW222203   3.943   2.489   8.565 -1.9110  3.0446 -2.6480
 3523SOL     OW22204   1.107   1.149   3.539 -0.1560  0.1408  0.0709
 3523SOL    HW122205   1.088   1.200   3.460  4.0025  1.9408  0.2335
 3523SOL    HW222206   1.186   1.100   3.514 -0.1327  0.7681 -1.0915
 3524SOL     OW22207   0.749   2.307   7.302 -0.5263  0.2038 -0.0862
 3524SOL    HW122208   0.790   2.382   7.258 -1.1234  0.0384 -0.9316
 3524SOL    HW222209   0.709   2.341   7.382  0.1651 -3.3567  1.7181
 3525SOL     OW22210   2.602   4.402  11.266 -0.2722 -0.1969 -0.7824
 3525SOL    HW122211   2.679   4.387  11.211  0.2083 -0.3748 -0.0653
 3525SOL    HW222212   2.568   4.478  11.219 -0.9907  0.3243  0.5736
 3526SOL     OW22213   3.045   4.691  17.334  0.7585 -0.4507  0.2535
 3526SOL    HW122214   2.973   4.646  17.289  2.2009 -0.7662 -1.7387
 3526SOL    HW222215   3.109   4.704  17.264 -0.3439 -0.0990 -0.6840
 3527SOL     OW22216   0.318   2.281   6.236  0.7411 -0.8241  0.0815
 3527SOL    HW122217   0.322   2.237   6.321 -1.8227  0.8393  1.0774
 3527SOL    HW222218   0.388   2.345   6.245  0.4307 -0.5250  0.3630
 3528SOL     OW22219   1.690   0.477   1.544  0.2521 -0.0345 -0.4016
 3528SOL    HW122220   1.710   0.401   1.489  0.7741 -1.1264  1.2942
 3528SOL    HW222221   1.654   0.445   1.627  0.0756  3.1026  0.7470
 3529SOL     OW22222   3.020   4.058  15.498 -0.0876 -0.1153  0.1609
 3529SOL    HW122223   2.934   4.064  15.457 -0.5822 -1.5073  1.0186
 3529SOL    HW222224   3.025   3.963  15.510  3.2746  0.0541  0.0565
 3530SOL     OW22225   4.150   3.655   2.176 -0.2173  0.3928  0.3553
 3530SOL    HW122226   4.206   3.724   2.141  0.6132  1.4064  3.6989
 3530SOL    HW222227   4.081   3.645   2.111  1.9595  0.6622 -1.9790
 3531SOL     OW22228   3.881   1.489   5.901  0.6547  0.5102 -0.1734
 3531SOL    HW122229   3.823   1.564   5.915 -0.1415 -0.1677  0.1779
 3531SOL    HW222230   3.883   1.431   5.977  2.1514  0.2599 -0.3973
 3532SOL     OW22231   0.842   4.117   6.842  0.2876  0.2372  0.0450
 3532SOL    HW122232   0.811   4.154   6.925 -0.5163  0.9946 -0.5885
 3532SOL    HW222233   0.784   4.042   6.850  0.4826  0.0659 -0.1531
 3533SOL     OW22234   4.732   0.478   5.917  0.6361 -1.0528  1.1426
 3533SOL    HW122235   0.001   0.430   5.834 -1.5322  1.9020 -0.7386
 3533SOL    HW222236   0.079   0.520   5.914  0.4451 -0.8557 -1.1519
 3534SOL     OW22237   1.782   3.523   4.327 -0.2970 -0.1836  0.0751
 3534SOL    HW122238   1.856   3.469   4.299  0.3727  1.0840 -0.6132
 3534SOL    HW222239   1.799   3.536   4.420 -0.9926 -0.3764  0.2294
 3535SOL     OW22240   3.036   1.132  13.407 -0.7648 -0.2415  0.1198
 3535SOL    HW122241   3.099   1.116  13.477  2.6108 -0.6063 -2.9676
 3535SOL    HW222242   3.094   1.128  13.330 -0.3149 -0.1155  0.4493
 3536SOL     OW22243   1.940   0.007   7.722  0.3836 -0.3534 -0.2253
 3536SOL    HW122244   1.871   0.074   7.721  1.9677  1.2309 -1.9578
 3536SOL    HW222245   1.884   4.672   7.751 -0.1923  0.7604  1.5062
 3537SOL     OW22246   2.311   3.459   8.323  0.2004  0.1196  0.0198
 3537SOL    HW122247   2.227   3.467   8.279  0.0944 -0.1003  0.1800
 3537SOL    HW222248   2.374   3.482   8.255  0.3146  2.5762  0.9589
 3538SOL     OW22249   2.958   3.890   3.416  0.2291 -0.4046  0.3754
 3538SOL    HW122250   2.945   3.954   3.485  2.4173 -1.0918  1.4187
 3538SOL    HW222251   2.908   3.934   3.347  0.0871  0.0964  0.7998
 3539SOL     OW22252   0.409   1.645   9.435 -0.5575  0.1805  0.3230
 3539SOL    HW122253   0.319   1.632   9.466  0.7569 -1.7505  3.3874
 3539SOL    HW222254   0.426   1.738   9.447  0.9123  0.0169 -0.5840
 3540SOL     OW22255   2.169   1.483   7.525 -0.0933  0.4863 -0.0275
 3540SOL    HW122256   2.076   1.497   7.541  0.3280  3.1122  0.1641
 3540SOL    HW222257   2.153   1.412   7.464 -0.3236  2.4288 -2.2311
 3541SOL     OW22258   0.301   1.572  14.733 -0.0828  0.0911  0.1190
 3541SOL    HW122259   0.367   1.621  14.683 -0.3052  0.2889  0.0162
 3541SOL    HW222260   0.235   1.566  14.663  0.4843 -1.3294 -0.2866
 3542SOL     OW22261   3.980   2.071   2.253 -0.0591  0.3225  0.1828
 3542SOL    HW122262   4.006   2.050   2.343 -1.2615  0.3994  0.5488
 3542SOL    HW222263   4.070   2.082   2.222 -0.8872  2.3295 -1.4868
 3543SOL     OW22264   2.039   2.701   9.831  0.2205  0.3941 -0.1497
 3543SOL    HW122265   2.109   2.723   9.893 -1.2733  1.1483  1.2685
 3543SOL    HW222266   2.078   2.731   9.748  1.8949 -0.6336  0.2738
 3544SOL     OW22267   1.412   0.954  17.391  0.2372 -0.2126 -0.0683
 3544SOL    HW122268   1.368   1.036  17.413  0.9832 -0.3743  2.0523
 3544SOL    HW222269   1.430   0.922  17.479  0.0188 -1.3677 -0.4473
 3545SOL     OW22270   4.266   4.352   1.717  0.0093  0.9355 -0.7157
 3545SOL    HW122271   4.275   4.435   1.672  0.0510  1.2062 -0.2022
 3545SOL    HW222272   4.175   4.357   1.747 -0.2214  0.1009 -1.2529
 3546SOL     OW22273   2.664   3.986  14.419 -0.6367 -0.5567 -0.0787
 3546SOL    HW122274   2.758   3.979  14.436 -0.5447 -0.0740 -0.3870
 3546SOL    HW222275   2.660   3.961  14.327  0.8343 -2.4780  0.3947
 3547SOL     OW22276   2.719   2.277  13.222  0.4556  0.2124  0.0352
 3547SOL    HW122277   2.655   2.211  13.194 -0.8944  2.1544 -1.5374
 3547SOL    HW222278   2.719   2.347  13.156 -1.0915  0.2525  0.0819
 3548SOL     OW22279   0.707   1.244   3.988 -0.0337 -0.6157  0.2318
 3548SOL    HW122280   0.676   1.313   4.047  1.8050  0.6087 -0.2459
 3548SOL    HW222281   0.629   1.192   3.969 -0.5463  0.5395 -0.8604
 3549SOL     OW22282   1.676   3.952  10.860 -0.1730  0.1585 -0.5814
 3549SOL    HW122283   1.697   3.955  10.767 -0.1429  1.7384 -0.5224
 3549SOL    HW222284   1.703   4.037  10.895  1.6064 -0.3392 -0.7280
 3550SOL     OW22285   4.647   0.958   4.063  0.1185  0.7987 -0.5219
 3550SOL    HW122286   4.567   0.906   4.055  1.4123 -1.3030  0.3848
 3550SOL    HW222287   4.665   0.933   4.153  0.5491  2.1227 -0.2425
 3551SOL     OW22288   1.385   3.806   2.547  0.6930  0.1259 -0.0948
 3551SOL    HW122289   1.473   3.841   2.557  0.2226  0.5382  2.6240
 3551SOL    HW222290   1.337   3.847   2.618 -0.3112 -0.2155 -0.5668
 3552SOL     OW22291   2.237   4.576  14.743  0.2367  0.2640  0.2205
 3552SOL    HW122292   2.152   4.613  14.720  0.1443 -1.1423 -1.6804
 3552SOL    HW222293   2.289   4.622  14.677 -0.5495  1.2875  0.3082
 3553SOL     OW22294   4.555   0.201  13.352 -0.0445  0.0738 -0.5056
 3553SOL    HW122295   4.594   0.185  13.266 -0.1397  0.2549 -0.5829
 3553SOL    HW222296   4.469   0.164  13.331 -1.2549  1.8632  1.3034
 3554SOL     OW22297   1.811   2.898   8.634 -0.2223 -0.1046 -0.1933
 3554SOL    HW122298   1.812   2.989   8.605  0.8259  0.0598  0.3482
 3554SOL    HW222299   1.742   2.860   8.580  0.9816 -0.7033 -1.3045
 3555SOL     OW22300   3.263   0.734   5.132 -0.2335 -0.7025 -0.4554
 3555SOL    HW122301   3.258   0.805   5.069  1.4372  1.1855  1.5687
 3555SOL    HW222302   3.316   0.783   5.194  0.8197 -3.4162  0.7791
 3556SOL     OW22303   4.095   0.775   6.046 -0.2359 -0.5228 -0.2351
 3556SOL    HW122304   4.187   0.788   6.023 -0.3090 -0.7423 -0.6602
 3556SOL    HW222305   4.085   0.833   6.122  0.4354  1.6982 -1.8290
 3557SOL     OW22306   1.810   1.871   4.512  0.5343  0.3185  0.3376
 3557SOL    HW122307   1.749   1.882   4.439  0.5431  1.0011  0.4256
 3557SOL    HW222308   1.759   1.801   4.552 -1.3254  0.7438 -1.2852
 3558SOL     OW22309   1.375   3.509   9.160  0.5218  0.6046  0.4329
 3558SOL    HW122310   1.461   3.535   9.191  0.5487  0.1033  0.7792
 3558SOL    HW222311   1.337   3.595   9.144  0.6594  0.7178  0.7172
 3559SOL     OW22312   4.521   0.097   4.372 -0.4323 -0.1374 -0.2959
 3559SOL    HW122313   4.533   0.031   4.441 -2.4265  1.3919  1.5143
 3559SOL    HW222314   4.435   0.068   4.340 -0.5913 -0.0931  0.0801
 3560SOL     OW22315   0.683   2.164  15.325  0.0587  0.4228  0.0300
 3560SOL    HW122316   0.671   2.100  15.396  0.0141  0.7495  0.3175
 3560SOL    HW222317   0.620   2.230  15.355  1.8306  2.5375 -0.9369
 3561SOL     OW22318   1.524   3.212   0.082 -0.0936  0.6818 -0.2547
 3561SOL    HW122319   1.445   3.267   0.091 -0.4010  0.1139  0.5047
 3561SOL    HW222320   1.588   3.278   0.109 -0.4833 -0.5191  3.5437
 3562SOL     OW22321   4.622   2.060   3.942  0.2483 -0.5349  0.3382
 3562SOL    HW122322   4.649   2.099   4.025 -1.7176 -1.3582  1.3821
 3562SOL    HW222323   4.547   2.113   3.916  0.2942  0.6168  2.6113
 3563SOL     OW22324   2.991   0.877   2.802  0.0300  0.5109  0.5243
 3563SOL    HW122325   2.956   0.872   2.713  1.6409  1.4630 -0.1606
 3563SOL    HW222326   2.974   0.968   2.828 -1.7024  0.7547 -1.4242
 3564SOL     OW22327   0.884   2.925  15.535  0.4006 -0.0309  0.3598
 3564SOL    HW122328   0.826   2.937  15.461 -0.6494  1.2138  1.3908
 3564SOL    HW222329   0.838   2.967  15.608  0.2542 -0.7580  0.6942
 3565SOL     OW22330   0.681   2.276   5.701  0.3748 -0.0558 -0.2488
 3565SOL    HW122331   0.672   2.346   5.765 -1.8300 -0.5749  0.0122
 3565SOL    HW222332   0.594   2.281   5.661  0.2222 -1.7771 -0.1549
 3566SOL     OW22333   2.788   1.054   8.589 -0.3692 -0.0235 -1.1171
 3566SOL    HW122334   2.783   1.094   8.502 -1.0429  0.7445 -0.7191
 3566SOL    HW222335   2.699   1.028   8.612  0.1991 -1.1032 -0.1333
 3567SOL     OW22336   4.092   1.351  14.709 -0.0322 -0.2561 -0.0618
 3567SOL    HW122337   4.023   1.331  14.646  0.5828  0.5367 -1.0122
 3567SOL    HW222338   4.108   1.444  14.690  1.9645 -0.7532 -0.9027
 3568SOL     OW22339   3.633   0.796   8.668 -0.4546  0.1662 -0.7931
 3568SOL    HW122340   3.698   0.834   8.608 -1.6810 -0.2683 -2.3805
 3568SOL    HW222341   3.684   0.766   8.744 -0.7082  2.6262  0.3625
 3569SOL     OW22342   2.325   0.127   9.554  0.1146 -0.1635  0.0007
 3569SOL    HW122343   2.320   0.125   9.459  2.1949 -0.9364 -0.1077
 3569SOL    HW222344   2.266   0.056   9.578  0.3708 -0.3807 -0.0082
 3570SOL     OW22345   1.505   1.099   7.279 -0.2420  0.2014  0.4777
 3570SOL    HW122346   1.478   1.177   7.231 -0.3809  0.1777  0.5164
 3570SOL    HW222347   1.560   1.137   7.348 -0.4697 -0.7731  1.1981
 3571SOL     OW22348   4.166   2.894   4.304 -0.2841  0.4888 -0.5628
 3571SOL    HW122349   4.210   2.973   4.338 -0.3665  1.0181 -1.6862
 3571SOL    HW222350   4.167   2.832   4.377 -0.8570  0.3542 -0.6738
 3572SOL     OW22351   2.229   4.420   2.557 -0.9141  0.6504 -0.5383
 3572SOL    HW122352   2.298   4.450   2.498  0.0755  2.4172  1.5241
 3572SOL    HW222353   2.153   4.478   2.551  0.6943  2.9703  1.8064
 3573SOL     OW22354   1.929   3.650   2.112 -0.0355 -0.2056  0.4124
 3573SOL    HW122355   1.895   3.623   2.197  0.3219 -1.4241  0.1590
 3573SOL    HW222356   1.887   3.587   2.053 -0.8925  1.3841 -0.6954
 3574SOL     OW22357   3.733   3.366   4.550 -0.1181 -0.2485 -0.4031
 3574SOL    HW122358   3.827   3.350   4.542 -0.0396  1.5765 -3.4172
 3574SOL    HW222359   3.710   3.304   4.619  1.5778 -2.7592 -2.0865
 3575SOL     OW22360   3.686   1.299   9.426 -0.3191 -0.3329  0.1242
 3575SOL    HW122361   3.622   1.342   9.370 -2.5016 -1.9569  1.3463
 3575SOL    HW222362   3.640   1.303   9.510 -2.5721 -0.3289 -1.0949
 3576SOL     OW22363   2.983   1.960   1.627 -0.1817  0.1442  0.5535
 3576SOL    HW122364   3.053   2.019   1.599 -0.8468  0.4242 -0.4926
 3576SOL    HW222365   2.969   1.935   1.536 -2.8201 -0.6588  1.1738
 3577SOL     OW22366   3.501   2.426  14.303 -0.3477 -0.1838 -0.6157
 3577SOL    HW122367   3.488   2.391  14.391  1.7458 -0.3803 -0.3772
 3577SOL    HW222368   3.414   2.447  14.270 -1.1081 -0.6728  1.0510
 3578SOL     OW22369   3.122   3.977   8.288  0.0967  0.0146  0.5631
 3578SOL    HW122370   3.180   4.030   8.343  0.0478 -0.0144  0.6427
 3578SOL    HW222371   3.050   4.039   8.278 -0.1612 -0.4393 -0.3404
 3579SOL     OW22372   1.752   0.813   7.961  0.0534  0.4651 -0.2111
 3579SOL    HW122373   1.784   0.763   7.885 -1.7821  2.2381 -2.1642
 3579SOL    HW222374   1.727   0.742   8.020  0.3767  0.6229  0.1160
 3580SOL     OW22375   3.043   3.425   6.601 -0.1596  0.2958  0.1082
 3580SOL    HW122376   3.131   3.429   6.639  0.2933  1.2728 -1.0360
 3580SOL    HW222377   3.007   3.506   6.636 -0.3406  0.4788 -0.4889
 3581SOL     OW22378   0.543   3.839  10.196 -0.6492 -0.6484  0.0383
 3581SOL    HW122379   0.587   3.838  10.111  1.2597  1.2711  1.0071
 3581SOL    HW222380   0.457   3.810  10.166 -0.4738 -1.1975  0.0685
 3582SOL     OW22381   0.583   0.921   2.467  0.3645 -0.2746 -0.5972
 3582SOL    HW122382   0.640   0.921   2.544 -1.4430 -0.9656  0.7637
 3582SOL    HW222383   0.652   0.913   2.402  0.4834 -2.0804 -0.2665
 3583SOL     OW22384   4.455   1.737   0.126  0.4551 -0.3924 -0.6602
 3583SOL    HW122385   4.465   1.645   0.148  1.1904  0.2112  1.6216
 3583SOL    HW222386   4.380   1.726   0.068  0.2770 -0.2702 -0.4560
 3584SOL     OW22387   3.464   2.149   6.630 -0.2698 -0.3994 -0.4901
 3584SOL    HW122388   3.463   2.071   6.575  1.0721 -0.8115  0.0740
 3584SOL    HW222389   3.446   2.107   6.713 -0.1273  0.2305 -0.1389
 3585SOL     OW22390   1.930   0.416   8.155  0.0730  0.2551 -0.1829
 3585SOL    HW122391   1.877   0.412   8.075 -0.5967 -0.1999  0.2782
 3585SOL    HW222392   2.009   0.372   8.125 -0.5834 -0.7975 -0.3761
 3586SOL     OW22393   3.935   3.201   3.737  0.2474 -0.0231 -0.0385
 3586SOL    HW122394   3.893   3.215   3.822  3.1141  0.9964  1.2112
 3586SOL    HW222395   3.948   3.291   3.706 -2.1081  0.0853 -0.7291
 3587SOL     OW22396   1.952   2.335   4.481  0.0438  0.4915  0.1678
 3587SOL    HW122397   1.881   2.399   4.488  0.3241  0.9437 -0.9802
 3587SOL    HW222398   1.971   2.319   4.573  1.5897  0.1733 -0.2125
 3588SOL     OW22399   0.973   1.513   8.471  0.5374  0.1644 -0.0989
 3588SOL    HW122400   0.943   1.546   8.387  2.2366 -0.1172 -0.8281
 3588SOL    HW222401   1.030   1.438   8.452  0.1775 -0.4513  1.2243
 3589SOL     OW22402   3.481   1.482   1.829  0.4834 -0.6466  0.0711
 3589SOL    HW122403   3.499   1.575   1.821 -1.2708 -0.2923  0.1946
 3589SOL    HW222404   3.572   1.459   1.846  0.5820 -0.4683 -0.2291
 3590SOL     OW22405   3.348   1.548   5.086 -0.1124 -0.1500  0.0454
 3590SOL    HW122406   3.289   1.500   5.144 -1.2000  1.1894  0.0476
 3590SOL    HW222407   3.373   1.482   5.022  0.6469  1.4995 -1.3501
 3591SOL     OW22408   3.199   2.202   2.656 -0.7090  0.2025  0.0956
 3591SOL    HW122409   3.227   2.266   2.721 -2.5325 -0.8579  1.9109
 3591SOL    HW222410   3.172   2.127   2.709  0.0104 -1.4458 -1.8668
 3592SOL     OW22411   2.391   4.428   9.192 -0.9658 -0.1269 -0.9207
 3592SOL    HW122412   2.335   4.500   9.219 -2.9456 -0.5481 -3.9395
 3592SOL    HW222413   2.465   4.428   9.254 -1.1856  0.1219 -0.6579
 3593SOL     OW22414   0.447   1.399  12.522  0.1866  0.1979  0.8356
 3593SOL    HW122415   0.538   1.385  12.498  0.7683  4.1506  0.7857
 3593SOL    HW222416   0.443   1.434  12.611  0.1317  0.8831  0.5614
 3594SOL     OW22417   4.413   4.334   4.084  0.7709 -0.2312  0.0759
 3594SOL    HW122418   4.356   4.410   4.092  1.2966  0.0192  1.5258
 3594SOL    HW222419   4.359   4.279   4.028 -0.4023  1.0058 -0.0103
 3595SOL     OW22420   2.087   1.839   5.992 -0.3417  0.7310  0.4523
 3595SOL    HW122421   2.060   1.839   6.084  0.8743  2.1311  0.8075
 3595SOL    HW222422   2.005   1.861   5.947  0.6121  0.7647 -1.2723
 3596SOL     OW22423   3.189   3.237   9.964 -0.1762 -0.2770 -0.0171
 3596SOL    HW122424   3.254   3.208   9.899  1.0146  0.7884  0.6914
 3596SOL    HW222425   3.238   3.276  10.037 -0.7777  0.6054 -0.0843
 3597SOL     OW22426   3.826   3.710   0.956  0.1770 -0.4989 -0.0510
 3597SOL    HW122427   3.918   3.702   0.978  0.2004 -1.1053 -0.3620
 3597SOL    HW222428   3.819   3.716   0.860 -1.7674 -0.5112  0.0777
 3598SOL     OW22429   2.594   2.200  13.984  0.1015  0.0620 -0.2106
 3598SOL    HW122430   2.499   2.209  13.979  0.0298 -1.4437 -1.4255
 3598SOL    HW222431   2.615   2.128  14.044  2.7535  1.2761  0.3245
 3599SOL     OW22432   0.477   3.380  17.733  0.4439  0.5185 -0.4084
 3599SOL    HW122433   0.478   3.468  17.697  1.7057  1.3612  1.6450
 3599SOL    HW222434   0.384   3.360  17.740  0.3605  0.4116 -1.8256
 3600SOL     OW22435   0.265   0.028   0.952  0.0048  0.2818  0.5941
 3600SOL    HW122436   0.276   0.051   0.860  0.1052  0.0891  0.5577
 3600SOL    HW222437   0.318   4.688   0.964 -0.8821 -0.5471 -0.8757
 3601SOL     OW22438   0.258   1.938   4.207  0.4915  0.0948 -0.2738
 3601SOL    HW122439   0.303   2.019   4.183  1.3147 -1.0535 -2.5706
 3601SOL    HW222440   0.174   1.976   4.233 -0.1799  0.0076 -2.2847
 3602SOL     OW22441   4.198   4.524   3.494 -0.0545 -0.2086 -0.0877
 3602SOL    HW122442   4.157   4.515   3.580  0.6764  0.8291  0.3638
 3602SOL    HW222443   4.127   4.536   3.431  0.1174  3.1770  0.3715
 3603SOL     OW22444   1.157   1.616  17.295 -0.2946 -0.0666  0.0348
 3603SOL    HW122445   1.153   1.698  17.246 -0.7583 -0.7076 -1.0044
 3603SOL    HW222446   1.091   1.627  17.363  0.9781 -1.7143  1.5513
 3604SOL     OW22447   3.083   2.059  16.355 -0.3572 -0.1007 -0.1804
 3604SOL    HW122448   3.121   2.040  16.441  0.2345 -0.3554 -0.4928
 3604SOL    HW222449   3.146   2.034  16.287 -0.7641 -0.7825 -0.3123
 3605SOL     OW22450   4.695   4.609   7.418  0.5321  0.1874  0.0501
 3605SOL    HW122451   4.611   4.638   7.452  0.0235 -0.6178 -0.5296
 3605SOL    HW222452   4.679   4.601   7.324  0.4313 -0.8792  0.1542
 3606SOL     OW22453   3.059   3.818   4.354  0.1158  0.2667  0.3980
 3606SOL    HW122454   3.121   3.876   4.310 -2.0597  1.3000 -1.3056
 3606SOL    HW222455   3.111   3.775   4.422  0.3604  0.7965  0.5509
 3607SOL     OW22456   0.109   4.183   6.178  0.3758  0.0410 -0.1169
 3607SOL    HW122457   0.052   4.150   6.248  2.6608 -0.4618  1.5131
 3607SOL    HW222458   0.132   4.268   6.214 -1.8412 -0.3956  2.3203
 3608SOL     OW22459   4.511   0.378  17.589  0.2286  0.1616  0.0465
 3608SOL    HW122460   4.513   0.426  17.672 -0.6852  3.6111 -1.9206
 3608SOL    HW222461   4.490   0.450  17.529 -0.4008 -0.7815 -0.8547
 3609SOL     OW22462   1.092   1.334   4.940  0.1559 -0.2608 -0.2670
 3609SOL    HW122463   1.173   1.376   4.910  0.1862  0.9841  1.6034
 3609SOL    HW222464   1.108   1.301   5.028 -1.0986 -1.6566 -0.5584
 3610SOL     OW22465   0.763   2.557  15.384 -0.3833 -0.4139  0.4333
 3610SOL    HW122466   0.833   2.529  15.443 -0.5685  0.3733  1.0230
 3610SOL    HW222467   0.788   2.641  15.346  0.0738 -1.2076 -1.0494
 3611SOL     OW22468   3.764   1.903   7.443 -0.3173  0.2144 -1.0740
 3611SOL    HW122469   3.793   1.984   7.485 -3.3666  1.4013 -1.2305
 3611SOL    HW222470   3.843   1.850   7.443  1.5829  3.0568  1.7545
 3612SOL     OW22471   3.474   2.439   2.825  0.2861  0.4872  0.1349
 3612SOL    HW122472   3.535   2.412   2.757 -0.8507 -0.5768 -0.4659
 3612SOL    HW222473   3.537   2.466   2.891 -2.0945  1.8499  1.8521
 3613SOL     OW22474   4.336   2.922  10.255 -0.2603  0.9223 -0.2057
 3613SOL    HW122475   4.272   2.957  10.318  1.1556  0.5021  1.4680
 3613SOL    HW222476   4.418   2.939  10.301 -0.9980  1.7038  0.8463
 3614SOL     OW22477   1.024   1.016  15.856 -0.4982  0.1959  0.2587
 3614SOL    HW122478   1.056   0.932  15.822 -2.1116 -0.1607 -0.3613
 3614SOL    HW222479   1.057   1.076  15.789  3.9589  0.4819  2.7181
 3615SOL     OW22480   3.633   3.906   7.073  0.4591  0.2816 -0.0096
 3615SOL    HW122481   3.576   3.892   7.149  2.9013  0.5776  1.9034
 3615SOL    HW222482   3.637   3.814   7.046 -0.4317  0.4873 -0.8363
 3616SOL     OW22483   3.268   2.512   9.960  0.0138  0.7038  0.0157
 3616SOL    HW122484   3.210   2.524   9.884 -0.1487  0.9683  0.1812
 3616SOL    HW222485   3.219   2.565  10.023 -0.2007  0.3112  0.1787
 3617SOL     OW22486   3.020   2.872   7.929  0.1377 -0.3473 -0.4288
 3617SOL    HW122487   3.003   2.966   7.932  2.3551  0.0086  0.5854
 3617SOL    HW222488   2.940   2.832   7.964  1.3006 -1.2183  1.2285
 3618SOL     OW22489   4.090   2.087   0.347  0.0012  0.3624 -0.4614
 3618SOL    HW122490   4.176   2.113   0.379 -0.4364  0.8769  0.2864
 3618SOL    HW222491   4.088   1.995   0.375 -0.5824  0.8654  1.1242
 3619SOL     OW22492   2.793   4.673   5.270 -0.3780  0.3311  0.2286
 3619SOL    HW122493   2.806   0.007   5.331 -0.9208  0.8609 -0.2842
 3619SOL    HW222494   2.761   4.721   5.194  1.5632  0.5482 -0.4541
 3620SOL     OW22495   1.794   3.760   7.352 -0.6799 -0.2749  0.4249
 3620SOL    HW122496   1.856   3.730   7.418 -0.4040  2.0536  1.2455
 3620SOL    HW222497   1.722   3.780   7.411 -1.0439  0.6902 -0.3402
 3621SOL     OW22498   2.293   0.552   5.198  0.3846  0.0160 -0.4912
 3621SOL    HW122499   2.212   0.573   5.151  0.7649  2.1855 -0.1895
 3621SOL    HW222500   2.340   0.516   5.123  1.1414  1.3986 -0.6869
 3622SOL     OW22501   0.192   3.797  17.500  0.2969 -0.3063  0.3956
 3622SOL    HW122502   0.173   3.758  17.585  0.6242 -0.5040  0.3766
 3622SOL    HW222503   0.110   3.789  17.451  1.8984  0.7356 -2.4664
 3623SOL     OW22504   0.710   2.911   8.553  0.0316  0.2224 -0.6734
 3623SOL    HW122505   0.619   2.933   8.536 -0.7989 -0.0679  3.3529
 3623SOL    HW222506   0.752   2.925   8.468  1.1494 -0.9901 -0.3192
 3624SOL     OW22507   3.302   1.093  14.010  0.6282  0.2425 -0.3692
 3624SOL    HW122508   3.209   1.093  13.987  0.4333 -0.9293  0.4060
 3624SOL    HW222509   3.305   1.082  14.105 -1.2507  0.8299 -0.2408
 3625SOL     OW22510   2.942   4.362   6.664  0.5295  1.1859 -0.2748
 3625SOL    HW122511   3.024   4.359   6.614  2.3440  1.2149  2.7159
 3625SOL    HW222512   2.960   4.451   6.696  2.4784  1.3854 -1.8947
 3626SOL     OW22513   0.037   1.017   2.047 -0.3271 -0.3393 -0.6376
 3626SOL    HW122514   0.012   1.106   2.021  1.1464 -0.2573 -1.8085
 3626SOL    HW222515   0.129   1.009   2.021 -0.0952 -0.0732  0.1063
 3627SOL     OW22516   4.054   1.040   7.093  0.1289  0.1573 -0.1088
 3627SOL    HW122517   4.038   0.959   7.043 -2.0172  0.3062  0.3414
 3627SOL    HW222518   3.968   1.047   7.134  0.7383  1.0031  1.0145
 3628SOL     OW22519   2.128   2.905   4.013 -0.3235 -0.2779  0.6058
 3628SOL    HW122520   2.188   2.907   3.938  0.2039 -2.2006  0.9898
 3628SOL    HW222521   2.168   2.842   4.072 -1.7921 -1.4054  0.4094
 3629SOL     OW22522   4.681   0.759   1.589 -0.2669  0.5271 -0.0142
 3629SOL    HW122523   4.718   0.712   1.514  0.4243 -0.7863  1.1447
 3629SOL    HW222524   4.602   0.706   1.601  0.0820 -0.4041 -1.6799
 3630SOL     OW22525   2.752   3.182  12.243 -0.0334 -0.5128 -0.4464
 3630SOL    HW122526   2.711   3.118  12.185 -0.7267  0.5322 -1.1114
 3630SOL    HW222527   2.687   3.172  12.313  0.4743 -1.4608 -0.1093
 3631SOL     OW22528   1.375   3.811   6.455  0.0184 -0.0132  0.3594
 3631SOL    HW122529   1.442   3.817   6.387  0.7155 -0.1431  1.0348
 3631SOL    HW222530   1.319   3.744   6.417  0.9089 -0.3555 -0.3560
 3632SOL     OW22531   1.253   2.570   3.103  0.6981 -0.0355 -0.4985
 3632SOL    HW122532   1.272   2.585   3.195  1.6075  0.3481 -0.7535
 3632SOL    HW222533   1.169   2.615   3.094  0.5674 -0.1829 -0.0088
 3633SOL     OW22534   2.550   2.045   9.459 -0.2826 -0.4236 -0.5911
 3633SOL    HW122535   2.504   2.091   9.389 -0.3155  3.9144  2.2811
 3633SOL    HW222536   2.506   2.080   9.537  1.9082  2.3860 -0.6270
 3634SOL     OW22537   1.422   3.184   4.129 -1.1197  0.1487  0.1624
 3634SOL    HW122538   1.486   3.241   4.087 -1.4071  0.9940  0.8691
 3634SOL    HW222539   1.477   3.126   4.182  0.1908  0.2876 -1.0655
 3635SOL     OW22540   2.212   1.709   8.183  0.3455  0.1505 -0.2024
 3635SOL    HW122541   2.258   1.775   8.132 -0.8040  1.9467  1.1036
 3635SOL    HW222542   2.233   1.738   8.271 -1.4716 -0.2963  0.3922
 3636SOL     OW22543   1.729   3.910  15.041  0.6107 -0.1457 -0.2349
 3636SOL    HW122544   1.824   3.900  15.044  0.8395  1.6945 -0.8184
 3636SOL    HW222545   1.720   3.889  14.948  0.0109 -1.8510  0.2283
 3637SOL     OW22546   0.934   1.732   2.003 -0.1322 -0.0240  0.5752
 3637SOL    HW122547   0.959   1.817   1.964  0.2112 -1.0291 -1.4007
 3637SOL    HW222548   0.963   1.681   1.928 -1.3382  2.1643 -1.3989
 3638SOL     OW22549   3.533   0.564   7.435  0.1220  0.1182  0.0420
 3638SOL    HW122550   3.490   0.639   7.475 -0.2227 -0.5531  0.9192
 3638SOL    HW222551   3.546   0.608   7.351  0.2838 -1.3809 -0.7166
 3639SOL     OW22552   4.241   1.112   1.394  0.2654  0.1012 -0.3141
 3639SOL    HW122553   4.170   1.102   1.456 -0.2266  2.7977 -0.4538
 3639SOL    HW222554   4.318   1.130   1.448 -0.7150 -1.2810  1.5185
 3640SOL     OW22555   3.687   4.423  16.065 -0.0860 -0.2418  0.2402
 3640SOL    HW122556   3.598   4.404  16.095 -0.5385  1.0663 -0.2864
 3640SOL    HW222557   3.674   4.431  15.971  1.0414  1.4245  0.2198
 3641SOL     OW22558   2.178   2.587   9.444  0.1834  0.7087  0.0064
 3641SOL    HW122559   2.189   2.537   9.363 -0.4199  0.3811  0.1273
 3641SOL    HW222560   2.084   2.595   9.456 -0.3665 -2.7467 -1.8112
 3642SOL     OW22561   4.717   1.909  13.017 -1.1691 -0.2072 -0.4873
 3642SOL    HW122562   4.717   1.982  12.955 -0.7104  0.2471  0.0424
 3642SOL    HW222563   4.643   1.939  13.070  1.1878  1.0996  2.0732
 3643SOL     OW22564   2.232   2.449  12.160  0.0226 -0.1534  0.0629
 3643SOL    HW122565   2.149   2.492  12.144 -0.2052 -0.5964  0.0407
 3643SOL    HW222566   2.251   2.415  12.072  0.8546  0.7122 -0.0876
 3644SOL     OW22567   0.886   3.159  12.425 -0.2493 -0.1437 -0.2473
 3644SOL    HW122568   0.961   3.208  12.458  0.0219  0.4040 -1.6842
 3644SOL    HW222569   0.813   3.191  12.478 -1.1093 -1.2771 -0.7585
 3645SOL     OW22570   4.517   2.957  12.963  0.2038 -0.0766 -0.5103
 3645SOL    HW122571   4.516   2.987  13.053 -0.0070  2.3180 -1.3026
 3645SOL    HW222572   4.601   2.913  12.956  0.4897  0.6695 -1.8453
 3646SOL     OW22573   0.729   3.807   8.966  0.2231 -0.0673 -0.3552
 3646SOL    HW122574   0.675   3.747   9.018  0.7469 -0.5019 -0.3202
 3646SOL    HW222575   0.817   3.778   8.987 -0.4129 -0.8795  1.2184
 3647SOL     OW22576   1.965   0.369   5.743 -0.0718  0.3879 -0.4093
 3647SOL    HW122577   1.976   0.432   5.672 -1.2239  1.5979  0.4906
 3647SOL    HW222578   1.876   0.382   5.775 -0.6442 -1.1154 -1.4224
 3648SOL     OW22579   0.812   1.663  16.265 -0.0480  0.0508  0.1914
 3648SOL    HW122580   0.741   1.706  16.216 -1.9776 -1.8514  1.3244
 3648SOL    HW222581   0.764   1.658  16.347 -0.3632  0.7945  0.0569
 3649SOL     OW22582   3.586   4.585  10.035  0.0542  0.0461  0.0227
 3649SOL    HW122583   3.571   4.663  10.089  3.4348  0.3433  0.5361
 3649SOL    HW222584   3.555   4.617   9.950 -2.4737 -2.6999 -0.0892
 3650SOL     OW22585   3.570   1.393   4.149 -0.3501  0.1661 -0.1510
 3650SOL    HW122586   3.517   1.314   4.162 -1.6759  1.0271 -0.3166
 3650SOL    HW222587   3.607   1.373   4.063 -0.4055 -1.6116  0.2435
 3651SOL     OW22588   3.611   0.986   3.489 -0.1125 -0.0736 -0.1829
 3651SOL    HW122589   3.609   1.063   3.432 -0.5219 -1.1348 -1.6025
 3651SOL    HW222590   3.618   0.916   3.424 -3.7947 -0.4814 -0.1391
 3652SOL     OW22591   3.203   1.829   4.792  0.3091  0.7470 -0.1349
 3652SOL    HW122592   3.190   1.790   4.705 -2.6038  1.9738 -0.2585
 3652SOL    HW222593   3.277   1.886   4.773  0.7711 -0.0634 -0.7786
 3653SOL     OW22594   1.519   1.274   6.617  0.3149  0.4665 -0.5993
 3653SOL    HW122595   1.475   1.339   6.561 -2.0143 -1.6319 -1.2082
 3653SOL    HW222596   1.512   1.197   6.561 -1.6480  0.4539 -0.3693
 3654SOL     OW22597   0.664   0.947  10.047  0.9012 -0.7239 -0.7983
 3654SOL    HW122598   0.728   0.895  10.096 -0.3028 -0.4330  1.0392
 3654SOL    HW222599   0.606   0.879  10.013  0.6754  0.6255 -3.1099
 3655SOL     OW22600   0.548   2.613   1.611 -0.1033 -0.1674 -0.5049
 3655SOL    HW122601   0.508   2.633   1.696 -0.5052 -2.3035 -0.1899
 3655SOL    HW222602   0.502   2.678   1.557  0.3847  0.4632 -0.1626
 3656SOL     OW22603   3.227   3.027   5.859  0.4826  0.0671 -0.5956
 3656SOL    HW122604   3.285   3.053   5.931 -0.4645 -0.4455  0.3644
 3656SOL    HW222605   3.143   3.038   5.905 -0.0393 -1.9202 -1.0933
 3657SOL     OW22606   0.371   0.283   6.473 -0.5094  0.3159  1.1181
 3657SOL    HW122607   0.327   0.228   6.408 -2.2576 -0.3961  2.8948
 3657SOL    HW222608   0.345   0.241   6.555 -1.1190  0.6820  1.1174
 3658SOL     OW22609   1.261   4.132   7.688 -0.6211 -0.3584 -0.0478
 3658SOL    HW122610   1.262   4.116   7.594  1.9091 -0.1338 -0.0458
 3658SOL    HW222611   1.276   4.046   7.729 -2.1881  0.2630  1.8333
 3659SOL     OW22612   0.472   4.529   2.571  0.2382 -0.0929 -0.0138
 3659SOL    HW122613   0.431   4.613   2.548 -1.0256 -0.3869  1.1987
 3659SOL    HW222614   0.470   4.526   2.666 -0.8567  1.1681  0.0055
 3660SOL     OW22615   1.085   1.708   7.206 -0.1635  0.3029 -0.0056
 3660SOL    HW122616   1.113   1.634   7.152 -1.1567  0.9431 -1.3920
 3660SOL    HW222617   1.123   1.776   7.150  0.5931  1.8162  2.3480
 3661SOL     OW22618   0.423   4.030   2.287 -0.0153  0.1369 -0.1080
 3661SOL    HW122619   0.349   4.045   2.345 -0.2176 -0.4142 -0.2283
 3661SOL    HW222620   0.498   4.003   2.341 -0.2065  2.8918  1.5232
 3662SOL     OW22621   3.315   2.912   7.535 -0.0845  0.4529 -0.0015
 3662SOL    HW122622   3.350   2.859   7.463 -0.2116  3.0911 -2.0195
 3662SOL    HW222623   3.301   2.858   7.613 -1.6415 -1.1113 -1.3643
 3663SOL     OW22624   0.958   3.366  16.626  0.0654  0.0535  0.4150
 3663SOL    HW122625   1.033   3.310  16.647  1.0308  0.7278 -1.1670
 3663SOL    HW222626   0.912   3.332  16.549 -0.7508  2.2134 -0.0785
 3664SOL     OW22627   4.577   2.998   9.387  0.0142  0.5309  0.1872
 3664SOL    HW122628   4.617   3.056   9.322 -0.1630 -0.6775 -1.0027
 3664SOL    HW222629   4.639   2.998   9.460 -0.5716 -1.4287  0.6892
 3665SOL     OW22630   2.155   2.484   7.207 -0.3801 -0.3549  0.7134
 3665SOL    HW122631   2.210   2.444   7.140 -1.0113  2.8089 -1.6885
 3665SOL    HW222632   2.194   2.455   7.289 -1.1552 -2.4173  0.3470
 3666SOL     OW22633   0.155   0.502  12.258  0.1180 -0.1253 -0.4206
 3666SOL    HW122634   0.171   0.578  12.314  1.3729 -1.1485  0.6060
 3666SOL    HW222635   0.155   0.436  12.329 -1.2933 -0.0166 -0.3183
 3667SOL     OW22636   2.580   1.562   7.411  0.2139  0.3709 -0.0800
 3667SOL    HW122637   2.568   1.608   7.328  0.9158 -0.0375 -0.4148
 3667SOL    HW222638   2.523   1.613   7.468 -0.8836  1.3249 -2.0519
 3668SOL     OW22639   0.982   4.390  12.852 -0.2210  0.1352 -0.4551
 3668SOL    HW122640   1.018   4.411  12.765 -0.4537  1.7237 -0.1706
 3668SOL    HW222641   1.000   4.296  12.852  2.4421  0.6470  0.7174
 3669SOL     OW22642   4.259   0.110   8.882 -0.2814  0.2883 -0.0291
 3669SOL    HW122643   4.276   0.166   8.807  2.7018  1.0642  1.2106
 3669SOL    HW222644   4.314   0.162   8.941 -2.4890 -0.9240  3.1283
 3670SOL     OW22645   1.000   4.386   1.055 -0.0071 -0.5195 -0.1441
 3670SOL    HW122646   1.013   4.374   1.149 -0.5591  1.3685  0.1889
 3670SOL    HW222647   1.089   4.372   1.022  1.3645  3.8550  1.7090
 3671SOL     OW22648   3.939   2.286   9.350  0.4108 -0.1247  0.9064
 3671SOL    HW122649   3.981   2.366   9.381 -0.1813  0.8690 -0.8711
 3671SOL    HW222650   3.964   2.219   9.414 -0.5969 -1.9100 -0.5651
 3672SOL     OW22651   0.869   4.484   7.391  0.0908  0.1157  0.3483
 3672SOL    HW122652   0.853   4.506   7.483 -0.9263 -0.3938  0.2911
 3672SOL    HW222653   0.962   4.505   7.387 -0.1287  0.6730 -1.9966
 3673SOL     OW22654   1.074   2.920  11.773 -0.0406 -0.1034 -0.2510
 3673SOL    HW122655   1.100   2.839  11.818  2.8152  0.2915 -1.2042
 3673SOL    HW222656   1.159   2.945  11.737 -0.7786 -0.5427 -2.3451
 3674SOL     OW22657   0.316   1.138   8.769 -0.3741  0.2053  0.2051
 3674SOL    HW122658   0.292   1.051   8.801 -0.6641 -0.4523 -1.7579
 3674SOL    HW222659   0.244   1.150   8.706 -0.1048 -0.0550 -0.1490
 3675SOL     OW22660   2.221   3.455  17.706  0.4924  0.2449  0.7848
 3675SOL    HW122661   2.164   3.381  17.725 -0.1402  0.8038  1.0840
 3675SOL    HW222662   2.301   3.435   0.001  0.7823  0.8065  0.5311
 3676SOL     OW22663   0.266   3.951   6.120  0.3743 -0.3616 -0.0657
 3676SOL    HW122664   0.202   4.020   6.137 -0.7460 -1.4750  0.2456
 3676SOL    HW222665   0.311   3.951   6.205  1.0126 -0.2989 -0.3968
 3677SOL     OW22666   4.266   3.324   1.385  0.2183  0.5066 -0.1330
 3677SOL    HW122667   4.195   3.381   1.358 -1.5913 -0.8942  1.6819
 3677SOL    HW222668   4.224   3.247   1.423 -0.2694 -0.3642 -2.4039
 3678SOL     OW22669   3.392   3.324   3.834 -0.0526 -0.1621  0.5564
 3678SOL    HW122670   3.451   3.286   3.899  0.6732  0.6573  0.3764
 3678SOL    HW222671   3.369   3.408   3.873 -1.7266 -0.8433  1.0730
 3679SOL     OW22672   4.197   1.435   0.978 -0.1233 -1.3232 -0.1862
 3679SOL    HW122673   4.215   1.456   1.069 -2.2880 -0.6482  0.1075
 3679SOL    HW222674   4.178   1.342   0.987  0.3929 -1.4935 -0.8730
 3680SOL     OW22675   3.085   2.686  10.080 -0.4277 -0.0726  0.1739
 3680SOL    HW122676   3.107   2.771  10.042  0.4152  0.0420  0.9359
 3680SOL    HW222677   2.989   2.685  10.070 -0.4157  1.8685 -0.2247
 3681SOL     OW22678   2.000   2.738   1.820  0.8108  0.1690  0.0093
 3681SOL    HW122679   2.009   2.645   1.840 -0.0968  0.5893  2.3562
 3681SOL    HW222680   1.977   2.772   1.907  1.1824 -0.6910  0.4316
 3682SOL     OW22681   3.073   1.008   8.531  0.5438  0.5746 -0.4450
 3682SOL    HW122682   3.044   0.940   8.469 -2.8504  0.0112  1.7180
 3682SOL    HW222683   2.986   1.022   8.570 -0.9991  0.1013 -3.6925
 3683SOL     OW22684   4.393   2.765  13.572  0.3735 -0.4176 -0.1255
 3683SOL    HW122685   4.390   2.759  13.668  1.0736  0.1721 -0.0622
 3683SOL    HW222686   4.441   2.848  13.563 -1.8201  0.7614 -0.9290
 3684SOL     OW22687   4.624   3.481  11.968 -0.3590 -0.5471  0.2698
 3684SOL    HW122688   4.672   3.438  12.040 -1.1498  1.1182  1.7963
 3684SOL    HW222689   4.555   3.421  11.939  0.3541 -1.7674  1.1032
 3685SOL     OW22690   2.886   2.466  15.166 -0.5093 -0.1399  0.3589
 3685SOL    HW122691   2.832   2.392  15.137 -1.2603 -0.6177  2.9777
 3685SOL    HW222692   2.910   2.506  15.083 -1.1542  1.2178  0.8246
 3686SOL     OW22693   3.470   2.689   9.467  0.5410 -0.0559  0.1525
 3686SOL    HW122694   3.464   2.769   9.518 -0.8971  0.7159 -1.2365
 3686SOL    HW222695   3.563   2.667   9.475  0.8065  0.1669 -2.4179
 3687SOL     OW22696   3.886   1.444   5.063  0.0247 -0.5933  0.2560
 3687SOL    HW122697   3.929   1.443   5.149 -0.4542  2.7400  0.5179
 3687SOL    HW222698   3.813   1.384   5.078 -0.7442  0.4035  0.4312
 3688SOL     OW22699   1.057   2.095   6.014 -0.4438 -0.0317  0.1089
 3688SOL    HW122700   0.981   2.081   6.070 -1.7927 -2.5006 -2.3461
 3688SOL    HW222701   1.061   2.012   5.966 -2.2540 -0.1709  0.2339
 3689SOL     OW22702   2.215   2.174   3.166 -0.4079  0.2673  0.0342
 3689SOL    HW122703   2.138   2.118   3.173  0.9111 -1.4403  0.7480
 3689SOL    HW222704   2.274   2.112   3.123 -2.6624 -1.3492 -0.7700
 3690SOL     OW22705   3.914   1.539   3.714  0.5774  0.1276  0.1645
 3690SOL    HW122706   3.991   1.527   3.659 -0.0787  0.5773 -0.8507
 3690SOL    HW222707   3.858   1.461   3.715 -0.0874  0.5937 -0.3787
 3691SOL     OW22708   3.823   1.446   0.080  0.3869 -0.1512  0.3431
 3691SOL    HW122709   3.904   1.473   0.122  0.4379  0.7357 -0.3445
 3691SOL    HW222710   3.828   1.354   0.107 -0.8220 -0.9422 -2.1472
 3692SOL     OW22711   4.315   1.260   8.591  0.2860  0.0528 -0.2132
 3692SOL    HW122712   4.230   1.270   8.549  0.0239 -1.0063  0.0640
 3692SOL    HW222713   4.347   1.350   8.581 -0.1838  0.5307  2.6871
 3693SOL     OW22714   4.020   1.081   6.453 -0.5975  0.4398 -0.3166
 3693SOL    HW122715   4.011   1.044   6.541  0.3743 -0.8367 -0.7429
 3693SOL    HW222716   4.017   1.175   6.466  1.6405  0.6184 -1.0721
 3694SOL     OW22717   1.117   2.240  10.966 -0.6597  0.0718 -0.3137
 3694SOL    HW122718   1.038   2.198  10.933 -0.4027 -1.4212  0.9597
 3694SOL    HW222719   1.084   2.328  10.984 -1.7128 -0.2145 -0.8122
 3695SOL     OW22720   0.788   4.225  14.010  0.4806  0.0639  0.3538
 3695SOL    HW122721   0.748   4.169  13.943  0.1117 -2.1499  2.4327
 3695SOL    HW222722   0.879   4.196  13.998  0.2688 -0.4941  0.1055
 3696SOL     OW22723   0.758   1.885   5.825 -0.4537  0.0715 -0.7875
 3696SOL    HW122724   0.732   1.968   5.864  1.3542  1.2806 -2.1476
 3696SOL    HW222725   0.841   1.913   5.787 -0.0089 -1.6867 -1.1076
 3697SOL     OW22726   0.232   2.308   2.824  0.3580  0.0655 -0.6497
 3697SOL    HW122727   0.172   2.272   2.760 -1.3733  2.6326 -0.4809
 3697SOL    HW222728   0.212   2.402   2.824  0.6031  0.1170 -1.1746
 3698SOL     OW22729   1.025   4.179  10.718  0.0890 -0.2764  0.1357
 3698SOL    HW122730   0.966   4.104  10.720 -1.2411  0.7775 -0.0069
 3698SOL    HW222731   1.086   4.154  10.788  0.5287 -0.5517 -0.3430
 3699SOL     OW22732   0.442   1.243   8.324 -0.2628  0.1638  0.7080
 3699SOL    HW122733   0.416   1.265   8.234  2.1586 -0.6048 -0.1645
 3699SOL    HW222734   0.442   1.331   8.361  1.5853  0.2692  0.4455
 3700SOL     OW22735   4.150   4.113   5.648  0.0162  0.8113  0.4461
 3700SOL    HW122736   4.117   4.106   5.558  1.8497 -0.9663 -0.0826
 3700SOL    HW222737   4.088   4.177   5.682  0.6091  1.6043  0.0238
 3701SOL     OW22738   3.382   0.215   9.809 -0.4873  0.3610 -0.2617
 3701SOL    HW122739   3.352   0.242   9.722  0.6195  0.9513 -0.4562
 3701SOL    HW222740   3.450   0.281   9.820 -0.0820 -0.6117  3.1720
 3702SOL     OW22741   4.454   2.904   2.056 -0.2548  0.1438  0.2157
 3702SOL    HW122742   4.509   2.973   2.020 -1.6323 -0.1069 -2.3551
 3702SOL    HW222743   4.465   2.923   2.149 -0.8069  2.2438 -0.1515
 3703SOL     OW22744   0.934   2.528   9.122  0.2591 -0.0021 -0.8969
 3703SOL    HW122745   0.894   2.561   9.042 -1.1597  2.1893  0.7306
 3703SOL    HW222746   0.888   2.586   9.183 -0.0868 -0.6297 -0.5582
 3704SOL     OW22747   4.271   4.549   6.627 -0.6767  0.8765  0.3019
 3704SOL    HW122748   4.199   4.581   6.681 -1.6786  0.8073 -0.9656
 3704SOL    HW222749   4.256   4.455   6.627  0.5511  0.6886  0.5183
 3705SOL     OW22750   1.515   0.889   3.603  0.0751  0.2117 -0.4955
 3705SOL    HW122751   1.602   0.907   3.566  0.3870 -0.7085 -0.2112
 3705SOL    HW222752   1.496   0.804   3.564  1.3143 -0.7365  0.9498
 3706SOL     OW22753   1.072   2.440   8.066  0.3126 -0.2675  0.6008
 3706SOL    HW122754   1.084   2.455   7.972  0.5832  1.4449  0.8982
 3706SOL    HW222755   1.148   2.383   8.073 -0.8473 -1.6301  2.1675
 3707SOL     OW22756   1.008   2.983   8.142  0.4204  0.0451 -0.5423
 3707SOL    HW122757   0.953   2.908   8.161  0.3074  0.3598  0.4124
 3707SOL    HW222758   1.078   2.940   8.093 -0.6490 -0.7737 -1.3388
 3708SOL     OW22759   4.320   1.019   4.627 -0.4141  0.0764  0.5982
 3708SOL    HW122760   4.362   1.001   4.711 -0.7481 -0.5733  0.6293
 3708SOL    HW222761   4.228   0.994   4.640 -1.3763  3.5869  0.5744
 3709SOL     OW22762   0.835   2.144  16.563  0.0697 -0.4025  0.3960
 3709SOL    HW122763   0.887   2.199  16.504 -1.4046  0.4735 -0.0978
 3709SOL    HW222764   0.753   2.191  16.580 -0.4031 -0.8375 -0.7343
 3710SOL     OW22765   0.758   0.035   2.730 -0.6934 -0.3238  0.0197
 3710SOL    HW122766   0.842   0.061   2.693 -0.3566 -1.2262  0.1626
 3710SOL    HW222767   0.747   0.083   2.812  0.7116  0.7590 -0.4154
 3711SOL     OW22768   3.071   1.108   1.577 -0.8658 -0.3443  0.1638
 3711SOL    HW122769   3.043   1.199   1.570  2.2026  0.4919 -1.0353
 3711SOL    HW222770   3.135   1.099   1.507 -0.8234 -0.9042  0.2741
 3712SOL     OW22771   2.861   1.535  13.480 -0.1604 -0.2999 -0.0307
 3712SOL    HW122772   2.952   1.566  13.477 -0.5240  0.7959  0.2487
 3712SOL    HW222773   2.817   1.568  13.402  0.6020  1.9770  0.5148
 3713SOL     OW22774   2.409   0.085  10.627  0.0120  0.2370 -0.3876
 3713SOL    HW122775   2.359   0.167  10.630 -2.4719 -1.2167 -1.9996
 3713SOL    HW222776   2.444   0.102  10.540 -2.6700  1.4442 -1.2341
 3714SOL     OW22777   2.954   0.497   8.733  0.0163  0.3304 -0.0129
 3714SOL    HW122778   2.977   0.526   8.644 -0.1817  1.2118  0.2283
 3714SOL    HW222779   3.005   0.416   8.746 -1.2099 -0.6405 -1.2004
 3715SOL     OW22780   0.301   4.450   9.149 -0.4937 -0.1452 -0.6148
 3715SOL    HW122781   0.299   4.366   9.103 -0.0469 -0.1142 -0.6907
 3715SOL    HW222782   0.393   4.463   9.170 -0.2940  0.1800 -1.7159
 3716SOL     OW22783   0.083   2.575   8.801 -0.4793  0.3653 -0.2945
 3716SOL    HW122784   0.083   2.545   8.710 -1.0763  1.3044 -0.5997
 3716SOL    HW222785   0.137   2.513   8.850 -1.0080  1.0617  1.1712
 3717SOL     OW22786   3.663   3.730  16.408  0.6583 -0.2477  0.1573
 3717SOL    HW122787   3.690   3.705  16.497  0.4839 -3.2031 -0.6305
 3717SOL    HW222788   3.731   3.684  16.358  1.6378  0.7682  0.5540
 3718SOL     OW22789   1.137   4.167   0.684  0.0059 -0.0936 -0.0382
 3718SOL    HW122790   1.158   4.225   0.758 -4.3800  0.2319  0.9981
 3718SOL    HW222791   1.221   4.127   0.662  0.7029  1.4622 -0.1867
 3719SOL     OW22792   4.713   1.530   1.218 -0.1377  0.0084 -0.1454
 3719SOL    HW122793   4.661   1.481   1.155 -1.4113  1.1150  0.0493
 3719SOL    HW222794   0.064   1.514   1.187 -0.6263 -0.7782 -1.1386
 3720SOL     OW22795   3.293   3.881   2.357  0.2080  0.0488  0.2286
 3720SOL    HW122796   3.224   3.842   2.410  1.5789 -2.3086  0.2682
 3720SOL    HW222797   3.330   3.795   2.336  0.2641  0.5164 -1.5630
 3721SOL     OW22798   2.571   3.244   9.148  0.4152 -0.6602 -0.2320
 3721SOL    HW122799   2.666   3.238   9.153  0.3987  1.5769  2.5842
 3721SOL    HW222800   2.546   3.184   9.078 -2.9337  1.2335 -0.6768
 3722SOL     OW22801   2.726   3.587   8.365 -0.0444 -1.1183 -0.1295
 3722SOL    HW122802   2.716   3.650   8.437 -1.9539  0.2506 -1.5848
 3722SOL    HW222803   2.672   3.514   8.395 -0.7807 -0.7071 -0.4587
 3723SOL     OW22804   3.261   4.206  16.537 -0.2163 -0.6464  0.4586
 3723SOL    HW122805   3.185   4.153  16.511 -4.2671  4.7368  1.2913
 3723SOL    HW222806   3.318   4.207  16.461 -0.2319 -1.3003  0.4371
 3724SOL     OW22807   4.130   1.552  12.850  0.2121  0.1278  0.1062
 3724SOL    HW122808   4.178   1.495  12.790  0.4104  0.2192  0.1772
 3724SOL    HW222809   4.087   1.478  12.893 -0.2296  1.4422  1.8880
 3725SOL     OW22810   0.265   1.119   0.703 -0.3021 -0.3236  0.7111
 3725SOL    HW122811   0.215   1.104   0.623 -0.9037 -0.9469  1.2008
 3725SOL    HW222812   0.348   1.078   0.678  0.5862  0.3436  2.5204
 3726SOL     OW22813   0.226   3.915  10.623  0.4685 -0.3188  0.3390
 3726SOL    HW122814   0.257   3.947  10.708 -1.0571 -1.5345  1.3334
 3726SOL    HW222815   0.311   3.899  10.582  1.5481  2.7320  1.3886
 3727SOL     OW22816   1.989   3.656   5.447  0.3571  0.6345 -0.0014
 3727SOL    HW122817   1.919   3.594   5.427  3.0789 -2.1441 -1.0902
 3727SOL    HW222818   1.934   3.734   5.449 -0.8691 -0.2319  0.2715
 3728SOL     OW22819   0.071   4.697   8.277 -0.0980 -0.3500 -0.0969
 3728SOL    HW122820   4.718   4.709   8.254 -0.6186 -3.4510  0.3496
 3728SOL    HW222821   0.078   4.611   8.320 -2.2431 -0.3884  0.1827
 3729SOL     OW22822   4.535   2.471  13.462  0.2192 -0.6045  0.0750
 3729SOL    HW122823   4.463   2.534  13.455  0.0963 -0.6935  0.5457
 3729SOL    HW222824   4.559   2.460  13.370  0.6162 -0.7919  0.1999
 3730SOL     OW22825   0.778   2.812   7.395 -0.0000  0.9069  0.3076
 3730SOL    HW122826   0.722   2.851   7.327 -0.9050  1.3254  1.3035
 3730SOL    HW222827   0.727   2.752   7.449 -3.7714  2.7822 -1.1531
 3731SOL     OW22828   3.708   0.624   9.636  0.0083 -0.0121  0.0403
 3731SOL    HW122829   3.765   0.644   9.561  0.0755 -0.1845  0.0465
 3731SOL    HW222830   3.765   0.636   9.712  0.7471 -1.8465 -0.2455
 3732SOL     OW22831   0.128   2.990   5.139 -0.4317  0.5757  0.0903
 3732SOL    HW122832   0.209   2.939   5.148 -2.3298 -2.3124  0.9601
 3732SOL    HW222833   0.153   3.076   5.171  1.0544 -0.2346  1.1041
 3733SOL     OW22834   2.703   3.933   9.966 -0.1066  0.4901  0.3740
 3733SOL    HW122835   2.717   3.936   9.871 -2.1854  2.5189  0.1287
 3733SOL    HW222836   2.609   3.914   9.967 -0.6086  2.8045 -1.8577
 3734SOL     OW22837   2.067   1.137  10.146  0.8254  0.2231  0.2989
 3734SOL    HW122838   2.094   1.143  10.055  2.4497 -0.6434  0.7265
 3734SOL    HW222839   2.058   1.228  10.176 -0.8895  0.3235 -0.4905
 3735SOL     OW22840   0.132   3.406  10.586  0.0206  0.0951  0.6342
 3735SOL    HW122841   0.177   3.488  10.566 -2.0052  1.0896  0.0658
 3735SOL    HW222842   0.201   3.341  10.572 -0.3718 -0.3488  0.7521
 3736SOL     OW22843   2.691   2.664   8.613 -0.5377  0.2934  0.4389
 3736SOL    HW122844   2.670   2.573   8.634  1.8054 -0.5324 -0.8497
 3736SOL    HW222845   2.621   2.704   8.666  0.0900 -0.6949  2.0334
 3737SOL     OW22846   4.254   1.656   9.530  0.6038  0.0734 -0.2537
 3737SOL    HW122847   4.271   1.736   9.580  1.5731  0.2436 -0.8470
 3737SOL    HW222848   4.342   1.639   9.495  0.9959 -1.2677  1.4380
 3738SOL     OW22849   4.342   4.033   8.232  0.7805 -0.1591 -0.1696
 3738SOL    HW122850   4.393   4.089   8.290  1.2728 -1.5789  0.7515
 3738SOL    HW222851   4.420   3.985   8.207  1.9683  2.0208 -0.6790
 3739SOL     OW22852   2.963   2.681   8.740  0.0813  0.3875 -0.3068
 3739SOL    HW122853   2.959   2.585   8.747  0.5268  0.4810  1.2234
 3739SOL    HW222854   2.881   2.699   8.694  0.0573 -1.2014 -0.8989
 3740SOL     OW22855   0.480   1.476   7.574  0.3232  0.2222 -0.2164
 3740SOL    HW122856   0.502   1.549   7.516 -1.3567 -1.2616 -2.6813
 3740SOL    HW222857   0.385   1.481   7.579  0.2961 -0.1775 -0.3832
 3741SOL     OW22858   2.956   3.030   5.347 -0.0238 -0.3698 -0.0753
 3741SOL    HW122859   3.023   2.979   5.303 -1.0531 -1.5066 -0.3185
 3741SOL    HW222860   2.960   3.113   5.299 -1.0348 -0.5659 -0.4855
 3742SOL     OW22861   3.244   0.373  16.114  0.1018  0.3271  0.2199
 3742SOL    HW122862   3.224   0.442  16.051 -0.6746 -0.2485 -0.1560
 3742SOL    HW222863   3.336   0.358  16.091  0.5845  1.1375  1.6096
 3743SOL     OW22864   1.933   3.856  12.725 -0.0080  0.0970  0.3850
 3743SOL    HW122865   1.860   3.833  12.782  0.2939 -0.0341  0.7131
 3743SOL    HW222866   2.005   3.875  12.785 -0.6288 -1.3852  1.5979
 3744SOL     OW22867   2.996   0.799   3.592 -0.0281 -0.5171 -0.1050
 3744SOL    HW122868   2.989   0.769   3.501 -2.9910  1.9259 -0.6366
 3744SOL    HW222869   3.051   0.729   3.629  1.1301 -0.2059 -1.2321
 3745SOL     OW22870   2.812   3.568   6.821 -0.2063  0.0694  0.9705
 3745SOL    HW122871   2.874   3.560   6.893  0.0490 -1.2529  0.6077
 3745SOL    HW222872   2.794   3.662   6.823  0.1888  0.1520  0.6755
 3746SOL     OW22873   2.455   2.370   2.363 -0.0782 -0.4526  0.1148
 3746SOL    HW122874   2.443   2.400   2.273 -0.2856 -1.3449 -0.1577
 3746SOL    HW222875   2.457   2.276   2.347  0.0252 -0.7065  1.6404
 3747SOL     OW22876   1.225   1.863   7.008 -0.5154 -0.5994  0.3581
 3747SOL    HW122877   1.239   1.936   7.069 -0.6339 -1.8595  1.9054
 3747SOL    HW222878   1.302   1.808   7.025 -0.1691  0.6993  3.0196
 3748SOL     OW22879   4.047   2.119   7.537 -0.5608 -0.3027  0.5425
 3748SOL    HW122880   3.985   2.158   7.475 -2.6718 -2.3719  1.3558
 3748SOL    HW222881   3.989   2.072   7.597 -2.2344  1.3959  0.2569
 3749SOL     OW22882   1.697   1.794  11.934 -0.4903  0.9636 -0.1742
 3749SOL    HW122883   1.656   1.751  11.859  0.1208  0.5305 -0.2577
 3749SOL    HW222884   1.786   1.813  11.906 -0.3035 -0.3765 -0.4984
 3750SOL     OW22885   1.907   1.849  10.397 -0.2008 -0.2246 -0.0340
 3750SOL    HW122886   1.873   1.775  10.347  0.3065 -0.7757  0.4271
 3750SOL    HW222887   1.976   1.809  10.451  0.1151  0.1035 -0.1926
 3751SOL     OW22888   2.812   0.464   5.174  0.4394  0.0128 -0.0251
 3751SOL    HW122889   2.876   0.533   5.156 -2.0744  2.2930 -0.1693
 3751SOL    HW222890   2.796   0.472   5.268  0.4423 -0.0359 -0.0204
 3752SOL     OW22891   2.966   4.189   3.801  0.8011 -0.3913  0.0860
 3752SOL    HW122892   3.050   4.234   3.808 -0.0186  0.8511  1.8873
 3752SOL    HW222893   2.955   4.176   3.706  0.2414 -1.2077  0.2620
 3753SOL     OW22894   4.547   1.905   1.320  0.4253  0.2710  0.0274
 3753SOL    HW122895   4.456   1.911   1.291  1.2407  0.2486 -2.5114
 3753SOL    HW222896   4.533   1.830   1.378 -1.9556  1.5540  1.1408
 3754SOL     OW22897   0.596   1.316   2.461 -0.2492 -0.2814 -0.3539
 3754SOL    HW122898   0.597   1.411   2.465  0.6637 -0.3211  0.2980
 3754SOL    HW222899   0.522   1.301   2.519 -0.7834 -0.9563 -1.2013
 3755SOL     OW22900   1.965   2.451   0.243  0.2971 -0.1995 -0.2024
 3755SOL    HW122901   1.934   2.376   0.193  2.0730 -2.3737  1.9202
 3755SOL    HW222902   1.981   2.401   0.324  0.7713  1.6332  0.8389
 3756SOL     OW22903   0.719   4.735  10.983 -0.1832  0.3381 -0.1596
 3756SOL    HW122904   0.659   0.011  10.909 -0.1540 -0.0734 -0.2655
 3756SOL    HW222905   0.749   4.647  10.959 -1.5149  0.2264 -1.4474
 3757SOL     OW22906   0.737   3.853   5.129  0.1014  0.1238  0.0398
 3757SOL    HW122907   0.661   3.800   5.153 -0.8674  1.3482 -0.3219
 3757SOL    HW222908   0.711   3.935   5.171 -1.9335 -0.1367 -0.6838
 3758SOL     OW22909   2.853   4.148   5.294 -0.5207 -0.2247 -0.0761
 3758SOL    HW122910   2.851   4.240   5.322 -3.6772 -0.4066  0.2881
 3758SOL    HW222911   2.949   4.145   5.288 -0.5311 -2.9556  1.1511
 3759SOL     OW22912   3.413   3.174   0.496 -0.3160 -0.1695  0.0055
 3759SOL    HW122913   3.454   3.152   0.580 -3.3838 -2.4560  0.8954
 3759SOL    HW222914   3.483   3.154   0.433 -1.2802 -0.3509 -1.0051
 3760SOL     OW22915   3.670   1.310   8.210 -0.0985  0.4168  0.0276
 3760SOL    HW122916   3.680   1.405   8.218  0.3067  0.3513  0.3014
 3760SOL    HW222917   3.761   1.282   8.196 -0.3477 -0.8112  0.9174
 3761SOL     OW22918   2.568   1.032   5.200  0.3413 -0.3142  0.2709
 3761SOL    HW122919   2.551   0.939   5.215 -2.1274  0.3189  1.4702
 3761SOL    HW222920   2.489   1.066   5.157  0.1212 -1.6333 -0.3600
 3762SOL     OW22921   4.587   1.081   2.859  0.4045  0.5439  0.2735
 3762SOL    HW122922   4.612   0.993   2.832  0.9472  1.3220 -1.7698
 3762SOL    HW222923   4.618   1.078   2.950  1.3661  1.0185 -0.0395
 3763SOL     OW22924   2.590   3.704   2.047 -0.2093 -0.1960  0.2360
 3763SOL    HW122925   2.661   3.744   2.097 -1.5755 -0.2961  2.2779
 3763SOL    HW222926   2.557   3.774   1.990 -0.7459 -0.3201  0.3928
 3764SOL     OW22927   4.165   0.280   4.892 -0.6445  0.6320 -0.2694
 3764SOL    HW122928   4.114   0.344   4.942  0.4126  0.6980  0.7277
 3764SOL    HW222929   4.098   0.213   4.908 -0.2292 -0.1811 -1.8961
 3765SOL     OW22930   3.230   2.687   1.009 -0.3419  0.1528 -0.4918
 3765SOL    HW122931   3.227   2.597   1.039  2.3803  0.5560  0.9759
 3765SOL    HW222932   3.182   2.734   1.078  0.6529 -1.1773  1.0890
 3766SOL     OW22933   2.033   3.532   7.206  0.0152  0.2570  0.3294
 3766SOL    HW122934   1.970   3.466   7.237  0.1244  0.5564  1.1975
 3766SOL    HW222935   1.978   3.605   7.179  0.5329 -0.0037 -1.4223
 3767SOL     OW22936   1.098   2.310   9.132  0.2663  0.6397  0.5740
 3767SOL    HW122937   1.145   2.356   9.062  1.1074  0.7890  1.2276
 3767SOL    HW222938   1.027   2.374   9.134  0.8152  1.3217 -1.5149
 3768SOL     OW22939   3.275   1.273   9.454 -0.0809 -0.3492  0.9437
 3768SOL    HW122940   3.322   1.190   9.452 -1.4168 -1.0997  1.1464
 3768SOL    HW222941   3.274   1.311   9.366  1.4070  0.3499  1.2364
 3769SOL     OW22942   2.357   4.513   4.327  0.0159 -0.7877  0.0524
 3769SOL    HW122943   2.262   4.508   4.312 -0.1274  0.0349  0.6969
 3769SOL    HW222944   2.373   4.436   4.381 -0.2347 -0.9647 -0.1253
 3770SOL     OW22945   0.249   3.409   5.013 -0.1810 -0.0865  0.3737
 3770SOL    HW122946   0.184   3.395   4.944 -1.8025 -2.1818  2.3127
 3770SOL    HW222947   0.210   3.357   5.083 -2.3208  1.9678  0.7033
 3771SOL     OW22948   3.600   3.514   7.288  0.4345  0.2744 -0.3319
 3771SOL    HW122949   3.661   3.504   7.361  2.7985  2.0209 -2.0282
 3771SOL    HW222950   3.516   3.537   7.327 -0.2485 -0.8047 -1.1763
 3772SOL     OW22951   0.738   4.493  14.847  0.0866  0.6089  0.0272
 3772SOL    HW122952   0.781   4.560  14.794 -1.2010  0.1492 -1.5845
 3772SOL    HW222953   0.779   4.480  14.933 -1.9389  1.5005  1.1340
 3773SOL     OW22954   3.387   2.405   2.352  0.3391  0.6934 -0.1324
 3773SOL    HW122955   3.388   2.419   2.257  5.2164 -2.0982 -0.4822
 3773SOL    HW222956   3.470   2.445   2.378  0.4675  1.9938 -2.4932
 3774SOL     OW22957   4.454   2.712   2.411 -0.6974 -1.0645  0.2293
 3774SOL    HW122958   4.409   2.785   2.368  1.7242  0.4767  0.2737
 3774SOL    HW222959   4.467   2.741   2.502 -0.2351  0.8280 -0.4447
 3775SOL     OW22960   2.604   1.271   3.759 -0.5439  0.5420  0.6391
 3775SOL    HW122961   2.510   1.249   3.758 -0.5165  0.5663 -2.2374
 3775SOL    HW222962   2.643   1.206   3.818 -0.0785  1.4574  1.3304
 3776SOL     OW22963   0.488   0.927   3.458  0.0562 -0.4169  0.6692
 3776SOL    HW122964   0.545   0.865   3.411 -1.4106 -2.5457  1.7095
 3776SOL    HW222965   0.427   0.862   3.493 -0.5440 -0.3151 -0.1924
 3777SOL     OW22966   0.106   2.857   2.267 -0.3410  0.2086 -0.8026
 3777SOL    HW122967   0.083   2.869   2.359  1.2353  0.0594 -0.3975
 3777SOL    HW222968   0.079   2.770   2.240 -1.3494  1.0372 -2.4866
 3778SOL     OW22969   0.128   4.385  15.414 -0.1512 -0.3870  0.4590
 3778SOL    HW122970   0.136   4.362  15.507 -2.7547 -1.3892  0.4263
 3778SOL    HW222971   0.164   4.474  15.415 -2.0047  0.3682 -0.3275
 3779SOL     OW22972   2.205   4.187  10.051 -0.4292 -0.0257 -0.1247
 3779SOL    HW122973   2.250   4.182  10.134 -2.2066 -0.2443  0.8350
 3779SOL    HW222974   2.122   4.142  10.069  0.6357 -1.3317  1.4450
 3780SOL     OW22975   1.514   1.138  14.358  0.4322 -0.4252 -0.4010
 3780SOL    HW122976   1.507   1.060  14.412 -0.0718 -0.2819 -0.2629
 3780SOL    HW222977   1.535   1.092  14.277 -0.3710 -1.2877 -0.1204
 3781SOL     OW22978   0.198   1.542   7.548 -0.1263 -0.2593  0.0806
 3781SOL    HW122979   0.123   1.501   7.590  1.0564 -2.0911  0.4508
 3781SOL    HW222980   0.191   1.532   7.453 -0.9493  1.5749 -0.0384
 3782SOL     OW22981   1.519   1.307   5.781 -0.3826 -0.5842 -0.6330
 3782SOL    HW122982   1.450   1.248   5.812  0.6212 -1.2529  0.3475
 3782SOL    HW222983   1.483   1.393   5.804 -2.7135 -1.8676  0.5283
 3783SOL     OW22984   4.025   1.732  13.279 -0.1318 -0.1352 -0.2030
 3783SOL    HW122985   4.008   1.651  13.230 -1.6700  0.7269 -1.0785
 3783SOL    HW222986   4.025   1.701  13.369  0.3971  0.0557 -0.1338
 3784SOL     OW22987   0.969   0.691   7.736 -0.0677  0.6356  0.4958
 3784SOL    HW122988   0.990   0.753   7.666 -1.5671  0.2834 -0.2630
 3784SOL    HW222989   0.879   0.712   7.762  0.3694  3.7801 -0.4791
 3785SOL     OW22990   4.304   4.274   6.644  0.3097 -0.0225 -0.0813
 3785SOL    HW122991   4.274   4.299   6.731  0.4098 -0.9521  0.2230
 3785SOL    HW222992   4.398   4.286   6.659  0.3937  0.1230 -0.7363
 3786SOL     OW22993   4.551   0.640   4.258  0.3674 -0.9595 -0.0023
 3786SOL    HW122994   4.582   0.559   4.298  0.6618 -0.7110  0.2717
 3786SOL    HW222995   4.543   0.609   4.168  0.1426  0.0444 -0.3193
 3787SOL     OW22996   0.993   4.485   3.274  0.1599 -0.5288 -0.0714
 3787SOL    HW122997   0.901   4.512   3.280 -0.6441 -3.9701  2.6960
 3787SOL    HW222998   1.001   4.446   3.187 -0.5609  1.7520 -1.1686
 3788SOL     OW22999   2.022   3.952   2.903  0.0573 -0.4173  0.3290
 3788SOL    HW123000   2.022   3.949   2.998  1.1133  1.2717  0.3720
 3788SOL    HW223001   1.939   3.911   2.879  0.1683  1.0704 -2.5475
 3789SOL     OW23002   2.050   0.632   0.370  0.2079  0.5034 -0.0767
 3789SOL    HW123003   2.025   0.722   0.393 -1.8398  0.0529 -0.5265
 3789SOL    HW223004   2.140   0.641   0.339  0.5005  0.0708  0.6798
 3790SOL     OW23005   3.276   4.456   6.480  0.1487 -0.3975 -0.1540
 3790SOL    HW123006   3.280   4.442   6.386  0.4530  1.2885 -0.3934
 3790SOL    HW223007   3.226   4.538   6.488  0.8196  0.0010 -0.0177
 3791SOL     OW23008   2.066   4.497   9.073  0.1989  0.4671 -0.6661
 3791SOL    HW123009   2.133   4.510   9.140  1.6891 -1.6504 -1.7409
 3791SOL    HW223010   2.003   4.456   9.132 -0.4830  0.8951 -1.1039
 3792SOL     OW23011   0.003   2.855   5.693 -0.2089 -0.9189  0.1177
 3792SOL    HW123012   0.068   2.905   5.742 -2.0796  2.0003 -0.3750
 3792SOL    HW223013   0.007   2.905   5.611 -0.5255 -1.8954 -0.4952
 3793SOL     OW23014   4.686   4.336   6.923  0.7504 -0.4914  0.1273
 3793SOL    HW123015   4.624   4.268   6.896  1.4085 -1.1118  0.1802
 3793SOL    HW223016   4.686   4.343   7.018 -0.9106  0.0116  0.0901
 3794SOL     OW23017   4.551   1.207   4.916 -0.6121 -0.5311  0.0844
 3794SOL    HW123018   4.527   1.298   4.899  0.7964  0.0100  0.9528
 3794SOL    HW223019   4.645   1.225   4.909 -0.2489 -2.9301 -1.4065
 3795SOL     OW23020   0.697   1.273   5.685 -0.2517  0.2739 -0.9589
 3795SOL    HW123021   0.709   1.199   5.626  0.5800 -0.5724  0.2707
 3795SOL    HW223022   0.620   1.238   5.730  1.4208 -1.0824  0.8907
 3796SOL     OW23023   3.403   4.450   3.648  0.0196 -0.5341 -0.0447
 3796SOL    HW123024   3.449   4.513   3.593 -0.6423 -3.1711 -3.5887
 3796SOL    HW223025   3.472   4.437   3.713 -0.1516  0.5395  0.3495
 3797SOL     OW23026   1.487   1.318   5.472 -0.3697 -0.5960 -0.4341
 3797SOL    HW123027   1.460   1.355   5.556 -0.0065  3.0879 -1.9544
 3797SOL    HW223028   1.444   1.376   5.409  0.5349  1.8880  1.2154
 3798SOL     OW23029   4.193   3.255   7.561 -0.1183 -0.3227 -0.1346
 3798SOL    HW123030   4.267   3.259   7.621  0.6040 -1.9554 -0.9122
 3798SOL    HW223031   4.196   3.169   7.518 -1.8967 -0.6041  0.2722
 3799SOL     OW23032   3.061   0.248   8.804 -0.4665  0.5918  0.6550
 3799SOL    HW123033   3.080   0.265   8.896 -2.7768  2.5810  0.7491
 3799SOL    HW223034   3.058   0.153   8.800  0.2757  0.5159  1.7988
 3800SOL     OW23035   0.385   2.847   2.207 -0.4050  0.0231  0.2407
 3800SOL    HW123036   0.297   2.838   2.244  0.1173 -0.5085  1.3365
 3800SOL    HW223037   0.428   2.802   2.279 -1.8930  0.9209  1.6922
 3801SOL     OW23038   1.162   3.242   3.517  0.0599 -0.0020  0.3258
 3801SOL    HW123039   1.100   3.291   3.463  0.6612  1.1266  0.6493
 3801SOL    HW223040   1.175   3.302   3.591 -0.2556  1.7823 -1.0715
 3802SOL     OW23041   3.158   3.536   9.481  0.2284  0.3695 -0.0437
 3802SOL    HW123042   3.127   3.601   9.545  0.7006  0.0249  0.5314
 3802SOL    HW223043   3.080   3.511   9.432 -0.2231  0.6177  0.5535
 3803SOL     OW23044   2.807   0.040   6.719 -0.1462  0.6841 -0.4613
 3803SOL    HW123045   2.728   0.050   6.666  0.3472 -1.2214 -1.5698
 3803SOL    HW223046   2.771   0.006   6.801 -0.6926  0.6314 -0.7190
 3804SOL     OW23047   1.462   4.356  15.182  0.1673 -0.2950  0.2666
 3804SOL    HW123048   1.424   4.393  15.103  1.1880  2.2617  0.9752
 3804SOL    HW223049   1.496   4.434  15.225 -0.6609  0.1083  0.1687
 3805SOL     OW23050   2.385   4.262  11.359  0.3429  0.8487  0.1747
 3805SOL    HW123051   2.373   4.324  11.431  0.6366  0.4398  0.5747
 3805SOL    HW223052   2.463   4.294  11.313  0.3882  0.2732 -0.1582
 3806SOL     OW23053   1.502   2.140   6.191  0.7877 -0.0506  0.5875
 3806SOL    HW123054   1.428   2.186   6.152  1.1083  0.1461  0.2162
 3806SOL    HW223055   1.496   2.052   6.154 -2.2910  0.1407  0.5607
 3807SOL     OW23056   2.560   2.539   9.344  0.1047 -0.7289  0.0985
 3807SOL    HW123057   2.497   2.604   9.312  0.6510 -0.1901  0.1293
 3807SOL    HW223058   2.504   2.468   9.377 -1.6708  0.3098 -0.6663
 3808SOL     OW23059   2.214   1.704  10.781 -0.6211  0.4067  0.1461
 3808SOL    HW123060   2.131   1.660  10.763  0.4906 -1.0282 -1.5028
 3808SOL    HW223061   2.207   1.793  10.746 -0.9727  0.1613 -0.4196
 3809SOL     OW23062   4.572   3.623   4.349  0.4199 -0.3256 -0.5197
 3809SOL    HW123063   4.584   3.696   4.410 -0.1234 -0.8653  0.2297
 3809SOL    HW223064   4.570   3.657   4.260 -1.8806  1.4702  0.2147
 3810SOL     OW23065   0.156   4.452   6.799  0.5782  0.2428  0.7106
 3810SOL    HW123066   0.143   4.520   6.866  1.9123  0.9113  0.2840
 3810SOL    HW223067   0.088   4.391   6.825 -0.1689  1.1036  0.7925
 3811SOL     OW23068   1.258   3.312   6.834  0.1838 -0.3962  0.5893
 3811SOL    HW123069   1.245   3.220   6.810 -1.6249  0.0541 -0.2259
 3811SOL    HW223070   1.319   3.343   6.768 -0.8857 -0.1112 -0.2703
 3812SOL     OW23071   4.320   2.070   5.894 -0.0063  0.6562  0.8523
 3812SOL    HW123072   4.277   2.154   5.877 -1.1236 -0.5510 -2.1673
 3812SOL    HW223073   4.248   2.035   5.946  0.6926  0.6385  1.8109
 3813SOL     OW23074   1.717   3.875   6.478 -0.1121 -0.6456 -0.0480
 3813SOL    HW123075   1.754   3.808   6.535 -0.5322  0.1501  1.1585
 3813SOL    HW223076   1.709   3.824   6.397  1.3446  0.9392 -1.2013
 3814SOL     OW23077   2.004   3.199  17.288 -0.9692 -0.0060  0.1654
 3814SOL    HW123078   1.992   3.233  17.377  2.2546 -0.8968  0.9415
 3814SOL    HW223079   2.043   3.114  17.304 -0.6964  0.3011  1.1232
 3815SOL     OW23080   4.236   2.666   2.173  0.0122  0.3179  0.2192
 3815SOL    HW123081   4.292   2.644   2.098  0.4153 -0.6777  0.8099
 3815SOL    HW223082   4.211   2.577   2.198  0.4423 -0.5119 -2.3471
 3816SOL     OW23083   0.957   2.401   3.735  0.0466  0.5341  0.6496
 3816SOL    HW123084   0.864   2.415   3.721  0.5311  2.4258 -0.7455
 3816SOL    HW223085   0.968   2.383   3.829  0.0752  1.3057  0.7978
 3817SOL     OW23086   1.767   3.438   2.010  0.4704  0.0066  0.2998
 3817SOL    HW123087   1.761   3.428   1.915  0.9740 -2.3170  0.4992
 3817SOL    HW223088   1.812   3.359   2.040 -0.1143 -0.3322  0.2940
 3818SOL     OW23089   3.282   4.282   4.554 -0.0918 -0.0122  0.1418
 3818SOL    HW123090   3.243   4.351   4.608 -4.1758 -2.2801  0.0708
 3818SOL    HW223091   3.216   4.213   4.551  0.2752 -0.3056 -1.2809
 3819SOL     OW23092   0.798   1.464   3.683  0.3805  0.0284 -0.1412
 3819SOL    HW123093   0.821   1.432   3.596  2.6419  0.1528  0.4043
 3819SOL    HW223094   0.720   1.418   3.714 -0.0762  1.1062  0.2882
 3820SOL     OW23095   1.445   1.856  12.074 -0.5145 -0.0342 -0.0470
 3820SOL    HW123096   1.510   1.845  12.005 -0.4109  1.2409 -0.1498
 3820SOL    HW223097   1.370   1.808  12.037 -1.8396  0.4896  1.9359
 3821SOL     OW23098   3.871   3.624   8.370 -0.2178  0.3419 -0.7159
 3821SOL    HW123099   3.900   3.535   8.348  1.2013 -0.5814  5.1379
 3821SOL    HW223100   3.905   3.663   8.289 -0.5806 -0.6046 -1.3367
 3822SOL     OW23101   3.484   4.686   9.793  0.1373 -0.2781  0.2778
 3822SOL    HW123102   3.452   0.037   9.805 -0.7444 -0.5629  0.0671
 3822SOL    HW223103   3.435   4.662   9.714  0.2660  0.0549  0.0960
 3823SOL     OW23104   0.827   1.180  10.475  0.2173 -0.0382  0.0524
 3823SOL    HW123105   0.912   1.213  10.505 -0.9226  0.0494  3.2231
 3823SOL    HW223106   0.821   1.111  10.541 -0.2963 -1.0120 -1.0246
 3824SOL     OW23107   2.679   1.068   1.366  0.2798  0.4350  0.4153
 3824SOL    HW123108   2.672   1.053   1.271  1.4224  1.5362  0.1595
 3824SOL    HW223109   2.591   1.099   1.388 -0.0951 -0.0077 -0.4381
 3825SOL     OW23110   3.486   1.411  11.579  0.1718 -0.1290 -0.4710
 3825SOL    HW123111   3.572   1.388  11.614 -0.5295 -0.7361  0.8551
 3825SOL    HW223112   3.437   1.344  11.627 -2.1578  0.1442 -2.4435
 3826SOL     OW23113   4.478   4.175  14.840 -0.3415  0.5393 -0.2032
 3826SOL    HW123114   4.493   4.126  14.760 -2.6510  2.6022 -1.9090
 3826SOL    HW223115   4.511   4.116  14.908  2.5590 -0.3222 -2.4068
 3827SOL     OW23116   4.455   1.363   0.497 -0.2039  0.3520  0.5710
 3827SOL    HW123117   4.423   1.415   0.570  2.3370  0.8036  1.3643
 3827SOL    HW223118   4.406   1.282   0.513  1.1082 -0.1329  2.1973
 3828SOL     OW23119   3.073   2.908   2.142  0.1716 -0.3555  0.2562
 3828SOL    HW123120   3.100   2.956   2.221 -0.6878  1.8702 -0.8176
 3828SOL    HW223121   2.978   2.923   2.136  0.4634  1.2206 -0.4679
 3829SOL     OW23122   4.552   1.970   7.385 -0.0992  0.1980  0.6435
 3829SOL    HW123123   4.540   1.897   7.325  1.3704  1.9970 -1.8391
 3829SOL    HW223124   4.467   2.008   7.405 -0.3247 -0.2566  0.5390
 3830SOL     OW23125   0.543   1.199   0.402  0.6581  0.5101  0.0059
 3830SOL    HW123126   0.449   1.205   0.382  0.5668 -0.0423  0.2807
 3830SOL    HW223127   0.566   1.284   0.440 -1.6715  1.4957 -0.7845
 3831SOL     OW23128   0.049   0.651   3.908  0.1000 -0.1823 -0.0120
 3831SOL    HW123129   0.066   0.736   3.949  1.5248 -1.0395  1.2046
 3831SOL    HW223130   0.064   0.593   3.983  1.0469  2.6950  2.0328
 3832SOL     OW23131   1.588   1.028   5.423  0.0120  0.7357 -0.0465
 3832SOL    HW123132   1.586   0.945   5.470 -2.0570  1.2828  0.8149
 3832SOL    HW223133   1.575   1.093   5.492 -1.8061  1.8817 -1.4841
 3833SOL     OW23134   3.608   3.968   9.393  0.1121  0.0152 -0.6568
 3833SOL    HW123135   3.530   3.912   9.404  1.4393 -1.5742  0.5707
 3833SOL    HW223136   3.602   4.031   9.464  0.8065 -2.2582  1.4341
 3834SOL     OW23137   0.684   0.236   3.658 -0.6493 -0.0797  0.0895
 3834SOL    HW123138   0.759   0.203   3.708 -1.1453 -1.7964 -0.2698
 3834SOL    HW223139   0.653   0.307   3.714  0.1251 -1.4912  2.3124
 3835SOL     OW23140   2.190   1.357   6.021 -0.1134  0.3735 -0.4724
 3835SOL    HW123141   2.282   1.358   5.994  0.7362  2.0648  2.5136
 3835SOL    HW223142   2.153   1.348   5.933  1.3021  1.2202 -1.1430
 3836SOL     OW23143   1.498   1.493   5.014  0.6639 -0.0025 -0.3028
 3836SOL    HW123144   1.454   1.409   5.026 -1.2756  1.1065  0.3926
 3836SOL    HW223145   1.488   1.532   5.101 -0.8733  1.8208 -1.3208
 3837SOL     OW23146   4.538   3.881   8.095  0.2662 -0.0730 -1.1299
 3837SOL    HW123147   4.594   3.958   8.105  0.2679  0.0188 -1.7828
 3837SOL    HW223148   4.544   3.877   7.999 -1.5180  0.6465 -1.2817
 3838SOL     OW23149   0.306   2.409  10.063 -0.1490  0.6589  0.0502
 3838SOL    HW123150   0.345   2.438  10.146  0.1164 -1.8953  0.8148
 3838SOL    HW223151   0.218   2.449  10.065 -1.0773 -1.3375 -1.3611
 3839SOL     OW23152   3.898   0.693   0.238  0.1905  0.3008 -0.0137
 3839SOL    HW123153   3.989   0.686   0.209 -0.7290 -3.2300 -1.9625
 3839SOL    HW223154   3.902   0.621   0.301 -1.3534  0.9594  0.8568
 3840SOL     OW23155   2.469   0.743   2.482  0.0488  0.0527  0.6106
 3840SOL    HW123156   2.388   0.792   2.492 -0.4399 -0.6512  0.1443
 3840SOL    HW223157   2.531   0.797   2.433 -0.8235 -0.8366 -1.4977
 3841SOL     OW23158   1.862   0.352   7.391  0.2639  0.3574  0.0619
 3841SOL    HW123159   1.832   0.262   7.378  0.2259  0.2898  0.6322
 3841SOL    HW223160   1.780   0.400   7.390 -0.1918 -0.3915  0.9562
 3842SOL     OW23161   1.504   2.249   1.881 -0.0520 -0.0872  0.0847
 3842SOL    HW123162   1.595   2.264   1.855  0.6001 -2.6095  0.8983
 3842SOL    HW223163   1.493   2.154   1.873  1.3836 -0.3334  1.0141
 3843SOL     OW23164   3.655   4.389  16.430  0.2031  0.4857 -0.1979
 3843SOL    HW123165   3.580   4.420  16.481  1.0727  1.7798  0.3158
 3843SOL    HW223166   3.628   4.299  16.413 -0.1546  0.3445  1.1244
 3844SOL     OW23167   1.645   2.364   0.228  0.0723 -0.0707 -0.4466
 3844SOL    HW123168   1.725   2.317   0.203  1.0310  0.3763  1.7453
 3844SOL    HW223169   1.653   2.355   0.323 -0.5977  3.0137 -0.0953
 3845SOL     OW23170   0.774   1.480  12.076  0.2280  0.3934  0.3305
 3845SOL    HW123171   0.713   1.459  12.146 -0.0442 -1.3723 -0.4315
 3845SOL    HW223172   0.853   1.508  12.122  1.9303 -2.3209 -0.9456
 3846SOL     OW23173   2.957   0.286   4.990  0.2218 -0.4558  1.0844
 3846SOL    HW123174   2.890   0.231   4.951  1.0260 -1.3309  0.9271
 3846SOL    HW223175   2.906   0.332   5.056 -2.9552 -2.6114  0.1204
 3847SOL     OW23176   3.791   0.286   7.933  0.2633 -0.2222 -0.1712
 3847SOL    HW123177   3.861   0.345   7.960 -0.5066  0.2732  0.7249
 3847SOL    HW223178   3.783   0.315   7.842  0.0961 -1.2480 -0.4755
 3848SOL     OW23179   1.137   2.607   6.000  0.1871 -0.2589  0.5450
 3848SOL    HW123180   1.185   2.533   6.039  3.9956  1.5540 -0.7250
 3848SOL    HW223181   1.049   2.573   6.013  1.0254 -2.3602  0.7467
 3849SOL     OW23182   1.015   2.173   0.531 -0.3178  0.5835  0.1053
 3849SOL    HW123183   0.937   2.227   0.536 -0.0081  1.0025  0.4597
 3849SOL    HW223184   1.078   2.235   0.494 -0.3978 -0.2206 -1.3417
 3850SOL     OW23185   2.636   1.059   1.095 -0.1740 -0.0576 -0.4634
 3850SOL    HW123186   2.720   1.078   1.054 -1.0637 -1.9644 -3.2192
 3850SOL    HW223187   2.626   0.964   1.095  1.7174 -0.2568 -2.7456
 3851SOL     OW23188   0.001   1.013   7.506  0.2464  0.7366  0.7048
 3851SOL    HW123189   0.036   0.938   7.555  0.5302  0.6768  0.4122
 3851SOL    HW223190   4.652   0.983   7.483  0.7240  0.1410 -0.3453
 3852SOL     OW23191   3.641   2.725  10.444 -0.7107  0.0940  0.8068
 3852SOL    HW123192   3.570   2.770  10.399  1.9728  1.9542 -1.5606
 3852SOL    HW223193   3.684   2.783  10.507 -1.2268  1.2184  0.1152
 3853SOL     OW23194   0.027   0.271   5.734  0.1805 -0.0019 -0.2810
 3853SOL    HW123195   4.737   0.228   5.653 -0.9013  0.8578 -0.3579
 3853SOL    HW223196   0.063   0.199   5.786  1.1571 -0.4536 -1.5557
 3854SOL     OW23197   2.341   4.358   8.360  0.6962 -0.2389  0.4773
 3854SOL    HW123198   2.306   4.338   8.447  0.1918 -2.2619 -0.1773
 3854SOL    HW223199   2.360   4.452   8.359  2.2422 -0.5633 -0.5118
 3855SOL     OW23200   3.086   1.859   3.694 -0.6049 -0.1308 -0.2157
 3855SOL    HW123201   3.094   1.944   3.738  0.5824 -1.2035  1.6621
 3855SOL    HW223202   3.026   1.822   3.759  0.3313 -0.1508  0.6410
 3856SOL     OW23203   1.811   1.261   8.050  0.1761  0.0552 -0.0063
 3856SOL    HW123204   1.870   1.217   8.111  0.2761  0.6577  0.3283
 3856SOL    HW223205   1.865   1.261   7.970 -1.0614 -1.5815 -0.8353
 3857SOL     OW23206   0.095   0.336   3.748 -0.0834 -0.0566  0.0656
 3857SOL    HW123207   0.172   0.393   3.743 -1.3454  1.5732 -1.2138
 3857SOL    HW223208   0.118   0.282   3.823  0.8901  1.0212  0.5472
 3858SOL     OW23209   3.159   0.103   4.274 -0.0493 -0.4235 -0.0462
 3858SOL    HW123210   3.145   0.009   4.264 -0.8131 -0.3859  0.6774
 3858SOL    HW223211   3.172   0.132   4.183 -0.2605  0.8173  0.3140
 3859SOL     OW23212   0.275   3.117   5.547 -0.2595  0.1514  0.2468
 3859SOL    HW123213   0.250   3.192   5.601  0.5503  1.6596 -1.4888
 3859SOL    HW223214   0.342   3.156   5.491 -3.0521  1.4941 -2.2144
 3860SOL     OW23215   4.325   3.586   0.066 -0.0660  0.1549  0.2509
 3860SOL    HW123216   4.335   3.491   0.059  3.0154  0.4726  0.3684
 3860SOL    HW223217   4.240   3.588   0.024 -0.1369  0.0479  0.3874
 3861SOL     OW23218   4.367   0.816   5.975 -0.5194  1.0689  0.2138
 3861SOL    HW123219   4.438   0.761   5.941 -0.5864  0.4697  1.0576
 3861SOL    HW223220   4.416   0.879   6.028 -2.4448  1.5000  1.4595
 3862SOL     OW23221   4.153   3.434  14.500  0.2938 -0.0795  0.1165
 3862SOL    HW123222   4.075   3.419  14.445  1.7634  0.0558 -2.0073
 3862SOL    HW223223   4.194   3.515  14.471  0.2373  0.3566  1.2655
 3863SOL     OW23224   0.107   3.917   1.303  0.0585 -0.5083  0.4044
 3863SOL    HW123225   0.099   3.905   1.397 -1.3963  2.6264  0.6937
 3863SOL    HW223226   0.185   3.865   1.281 -0.0088 -1.0902  1.5613
 3864SOL     OW23227   0.227   3.298   6.159 -0.0372 -0.7856 -0.8064
 3864SOL    HW123228   0.318   3.325   6.147  0.2710 -1.6547 -0.4844
 3864SOL    HW223229   0.183   3.366   6.109 -0.0358  0.0490  0.3475
 3865SOL     OW23230   4.489   3.307  12.183  0.0580 -0.0762 -0.1325
 3865SOL    HW123231   4.421   3.306  12.116 -1.8619  0.5958  1.7909
 3865SOL    HW223232   4.440   3.281  12.262  2.0713 -0.2202  1.0692
 3866SOL     OW23233   0.410   2.451   7.045 -0.6152  0.2626  0.4759
 3866SOL    HW123234   0.360   2.473   6.966  1.1121 -0.3060 -0.7770
 3866SOL    HW223235   0.365   2.378   7.087 -1.3162  1.6604  2.1512
 3867SOL     OW23236   3.948   2.950   8.574 -0.4610  0.0764  0.2462
 3867SOL    HW123237   3.882   2.942   8.643 -0.4147  1.6879  0.4815
 3867SOL    HW223238   3.952   3.045   8.565  1.8504 -0.0910 -0.5325
 3868SOL     OW23239   3.435   0.604  17.697  0.0009  0.0528  0.6639
 3868SOL    HW123240   3.460   0.517  17.667  0.1484  0.7461 -1.2001
 3868SOL    HW223241   3.466   0.602   0.035 -2.1283  0.5616  1.4128
 3869SOL     OW23242   2.610   4.581  13.035  0.0832 -0.2969  0.0459
 3869SOL    HW123243   2.590   4.671  13.007  0.8727 -0.4262 -0.9619
 3869SOL    HW223244   2.537   4.564  13.094 -0.4895  3.8147  0.5141
 3870SOL     OW23245   1.695   0.938   8.248  0.0237  0.0662 -0.4788
 3870SOL    HW123246   1.702   0.910   8.157  0.9392  1.3589 -0.7962
 3870SOL    HW223247   1.723   1.029   8.247  1.6932 -0.4480  0.4110
 3871SOL     OW23248   0.611   3.641  13.452 -0.0088 -0.5945 -0.0644
 3871SOL    HW123249   0.519   3.637  13.429  0.4325 -1.9713 -1.6064
 3871SOL    HW223250   0.635   3.554  13.484  1.3746  0.0366  0.6513
 3872SOL     OW23251   3.980   1.465   5.316  0.0649  0.3246  0.1442
 3872SOL    HW123252   3.972   1.420   5.400  2.9167 -0.2223  0.1471
 3872SOL    HW223253   3.991   1.557   5.343  2.6135  0.4827 -1.4685
 3873SOL     OW23254   2.906   2.166   8.396  0.4087 -0.0953 -0.3717
 3873SOL    HW123255   2.889   2.122   8.314  0.4157 -0.5495 -0.1293
 3873SOL    HW223256   2.858   2.249   8.386 -1.3087 -0.8548  1.4215
 3874SOL     OW23257   1.288   0.568   3.081  0.3673 -0.2180 -0.1459
 3874SOL    HW123258   1.282   0.662   3.097 -1.7290 -0.6844  1.8944
 3874SOL    HW223259   1.279   0.568   2.986 -0.1625 -1.2994 -0.1013
 3875SOL     OW23260   1.019   2.544   4.883  0.2885 -1.2148  0.3682
 3875SOL    HW123261   1.017   2.598   4.962 -1.8890  0.0999 -0.5808
 3875SOL    HW223262   0.953   2.587   4.829  3.0684  0.6377 -1.5480
 3876SOL     OW23263   4.043   2.397  17.255 -0.0384  0.2249  0.6338
 3876SOL    HW123264   4.131   2.401  17.216  0.5956  0.8354  2.1263
 3876SOL    HW223265   4.064   2.355  17.338  1.7313 -1.7402 -0.8215
 3877SOL     OW23266   3.713   0.988   1.910 -0.3001 -0.0263  0.4725
 3877SOL    HW123267   3.806   1.004   1.926 -0.0680 -0.6091 -0.3353
 3877SOL    HW223268   3.671   1.029   1.986 -3.9468  0.4725 -1.7864
 3878SOL     OW23269   3.227   3.875   4.844 -0.3271  0.1968 -0.0223
 3878SOL    HW123270   3.137   3.907   4.845 -0.3465  0.1831 -1.6300
 3878SOL    HW223271   3.275   3.936   4.899 -0.7243 -0.9753  1.6497
 3879SOL     OW23272   3.635   3.932   1.453  0.6463 -0.0497  0.2065
 3879SOL    HW123273   3.594   3.881   1.383  0.9802  0.2734 -0.2268
 3879SOL    HW223274   3.595   3.894   1.531 -1.4544  0.7588 -0.4619
 3880SOL     OW23275   3.845   4.073   7.266 -0.3974  0.0125  0.4069
 3880SOL    HW123276   3.859   3.997   7.322 -0.6673  1.1639  2.0104
 3880SOL    HW223277   3.751   4.094   7.265 -0.4337 -0.1212  1.2872
 3881SOL     OW23278   0.528   0.202   8.628  0.0344 -0.4577 -0.5674
 3881SOL    HW123279   0.585   0.262   8.677 -1.8620  2.5901 -2.0916
 3881SOL    HW223280   0.542   0.218   8.535  3.2251 -1.5092 -0.2758
 3882SOL     OW23281   1.544   3.652   8.799  0.0894 -0.3826 -0.7198
 3882SOL    HW123282   1.606   3.661   8.726 -0.8551  0.8539 -1.3815
 3882SOL    HW223283   1.601   3.665   8.875  1.0615 -2.4160 -1.0982
 3883SOL     OW23284   1.097   0.425   4.118  0.4705 -0.2580 -0.3285
 3883SOL    HW123285   1.057   0.345   4.152 -1.9805  1.2688  0.3931
 3883SOL    HW223286   1.029   0.479   4.079 -0.6910 -0.7676  0.9622
 3884SOL     OW23287   4.399   1.901   1.044  0.1702 -0.5375  0.2229
 3884SOL    HW123288   4.418   1.816   1.004  1.2211  0.0069 -0.4179
 3884SOL    HW223289   4.357   1.872   1.126 -1.7635 -0.2123 -0.6583
 3885SOL     OW23290   2.122   0.494   1.347 -0.3310  0.4800  0.4003
 3885SOL    HW123291   2.156   0.550   1.278  1.2225 -1.4654 -0.4005
 3885SOL    HW223292   2.028   0.491   1.326 -0.1382 -1.0679 -0.2067
 3886SOL     OW23293   3.195   2.194  10.987  0.0410  0.2264 -0.1064
 3886SOL    HW123294   3.231   2.279  11.014  1.7038  0.1944 -2.1887
 3886SOL    HW223295   3.214   2.208  10.894 -0.4194 -0.9018 -0.3608
 3887SOL     OW23296   3.599   4.271   2.563 -0.3101  0.0382  0.0354
 3887SOL    HW123297   3.562   4.349   2.521 -0.4771  0.4545  0.9430
 3887SOL    HW223298   3.684   4.261   2.520  0.1855 -1.3171  1.3355
 3888SOL     OW23299   2.364   3.665   0.168 -0.1457 -0.3220 -0.0346
 3888SOL    HW123300   2.272   3.672   0.144 -0.0666  1.6793  0.2550
 3888SOL    HW223301   2.366   3.583   0.218  0.0262 -0.4000 -0.1712
 3889SOL     OW23302   3.368   3.584   8.882 -0.3752  0.8266  0.0497
 3889SOL    HW123303   3.355   3.534   8.962 -2.5644 -0.0755 -0.8705
 3889SOL    HW223304   3.368   3.516   8.815  2.4374  3.8194 -3.0166
 3890SOL     OW23305   0.055   1.062  12.052  0.5377 -0.7170  0.4494
 3890SOL    HW123306   0.057   1.050  11.957  1.4054  1.3965  0.2140
 3890SOL    HW223307   4.699   1.052  12.067  0.5913  1.0048  2.0304
 3891SOL     OW23308   3.206   0.993   6.018 -0.1313 -0.5906 -0.7371
 3891SOL    HW123309   3.235   1.040   5.940 -0.6594  0.6049 -0.2021
 3891SOL    HW223310   3.197   0.905   5.981 -0.4736 -0.6810 -0.4310
 3892SOL     OW23311   3.053   4.645   3.956 -0.0299  0.0419  0.1216
 3892SOL    HW123312   3.141   4.657   3.921 -0.1301  1.1174  0.2231
 3892SOL    HW223313   3.003   4.719   3.920  0.7169 -0.1151 -1.2371
 3893SOL     OW23314   4.461   2.410   8.310  0.3346  0.6659 -0.3067
 3893SOL    HW123315   4.392   2.476   8.310  0.1727  0.5439  4.6089
 3893SOL    HW223316   4.496   2.424   8.399 -1.6430  1.5188  0.3272
 3894SOL     OW23317   4.290   0.621   7.566 -0.0786 -0.0600 -0.1799
 3894SOL    HW123318   4.331   0.706   7.582 -0.8066  0.6603 -2.1072
 3894SOL    HW223319   4.222   0.645   7.502 -0.3362 -0.4579 -0.0528
 3895SOL     OW23320   3.913   3.230   7.183  0.1121 -0.4671 -0.2224
 3895SOL    HW123321   4.006   3.209   7.176  0.7911  1.7138  2.1132
 3895SOL    HW223322   3.894   3.164   7.249 -0.0510 -0.3713 -0.1736
 3896SOL     OW23323   3.567   3.618   2.090 -0.3879  0.2771 -0.3224
 3896SOL    HW123324   3.658   3.590   2.094  0.2166  2.5708  2.3520
 3896SOL    HW223325   3.525   3.547   2.138  1.8460 -0.9273 -0.1677
 3897SOL     OW23326   3.750   1.168   3.778  0.1091 -0.5114 -0.8947
 3897SOL    HW123327   3.744   1.139   3.869  1.8551  2.8092  0.2652
 3897SOL    HW223328   3.716   1.257   3.778 -0.8949 -0.8850  0.8321
 3898SOL     OW23329   3.829   1.851   2.199  0.4627 -0.0119  0.4939
 3898SOL    HW123330   3.861   1.939   2.221  0.2052  0.4008 -0.7926
 3898SOL    HW223331   3.915   1.809   2.197 -0.0864 -1.0643 -1.7803
 3899SOL     OW23332   1.556   4.707  15.251  0.1536 -0.5310 -0.5320
 3899SOL    HW123333   1.519   4.715  15.339  1.9567 -1.6727  0.3235
 3899SOL    HW223334   1.643   4.674  15.274 -0.2838 -0.8304  0.7032
 3900SOL     OW23335   0.686   1.714  12.948  0.3207  0.6992 -0.3737
 3900SOL    HW123336   0.708   1.796  12.905 -0.8730  0.4322 -1.5146
 3900SOL    HW223337   0.605   1.732  12.996  0.2805 -0.2122 -0.0979
 3901SOL     OW23338   1.481   4.395   5.895 -0.1743 -0.4096 -0.2153
 3901SOL    HW123339   1.500   4.400   5.802  2.5061 -1.0856  0.2919
 3901SOL    HW223340   1.441   4.480   5.914 -1.4882 -0.7382 -1.5711
 3902SOL     OW23341   3.318   1.928   9.496  0.5104  0.0986 -0.0348
 3902SOL    HW123342   3.289   2.006   9.544 -0.1769 -0.3008  0.2012
 3902SOL    HW223343   3.383   1.904   9.562  0.3983  0.3378  0.1676
 3903SOL     OW23344   2.208   4.154   3.886  0.5873 -0.3413 -0.4177
 3903SOL    HW123345   2.249   4.169   3.971  0.8004  2.7186 -1.0845
 3903SOL    HW223346   2.187   4.240   3.850  0.1337 -0.4507 -0.4183
 3904SOL     OW23347   2.981   2.455   3.355  0.0291  0.1567 -0.4720
 3904SOL    HW123348   3.012   2.512   3.284 -1.4485 -2.6952 -3.4238
 3904SOL    HW223349   3.027   2.372   3.343  1.7969  1.4222 -2.3417
 3905SOL     OW23350   2.582   4.501   5.873 -0.1050 -0.2604  0.0777
 3905SOL    HW123351   2.632   4.490   5.792  0.6312  0.9129  0.3813
 3905SOL    HW223352   2.657   4.520   5.930 -1.2100  0.0338  1.4383
 3906SOL     OW23353   3.737   0.456   4.252 -0.2440 -0.2548 -0.5995
 3906SOL    HW123354   3.661   0.432   4.305 -0.7427  0.4100 -1.0108
 3906SOL    HW223355   3.813   0.416   4.295 -0.5915  0.3543  0.6001
 3907SOL     OW23356   0.233   0.605   5.912 -0.0653 -0.0580 -0.3251
 3907SOL    HW123357   0.190   0.681   5.953  0.4977  0.6381 -1.0211
 3907SOL    HW223358   0.313   0.626   5.959  0.1448 -0.0519 -0.6869
 3908SOL     OW23359   2.090   3.648   3.868  0.5584  0.3443  0.0807
 3908SOL    HW123360   2.013   3.703   3.857 -0.3524 -0.7680  1.0219
 3908SOL    HW223361   2.141   3.704   3.926  0.8469  2.2404 -1.9724
 3909SOL     OW23362   1.676   3.466   2.630  0.1422 -0.3093  0.0558
 3909SOL    HW123363   1.654   3.408   2.558  0.2811 -1.4266  0.9090
 3909SOL    HW223364   1.709   3.546   2.590  0.5982 -1.3047 -1.5473
 3910SOL     OW23365   3.765   2.894   8.795  0.3085  0.1851  0.0677
 3910SOL    HW123366   3.773   2.827   8.864  1.7235  1.4006  1.0926
 3910SOL    HW223367   3.692   2.941   8.834  0.8035  1.4634 -0.5594
 3911SOL     OW23368   4.649   1.442   4.290  0.2027 -0.0252  0.5658
 3911SOL    HW123369   0.004   1.458   4.287  0.3113 -0.8658 -0.6217
 3911SOL    HW223370   4.639   1.405   4.378 -1.6554 -1.2422 -0.1412
 3912SOL     OW23371   4.379   1.428   6.804 -0.1838 -0.2883  0.6561
 3912SOL    HW123372   4.458   1.480   6.787 -2.7606  3.3838  0.0238
 3912SOL    HW223373   4.374   1.380   6.721  1.7427  0.4009  0.1240
 3913SOL     OW23374   4.494   1.170   0.919 -0.2014 -0.3950 -0.4529
 3913SOL    HW123375   4.421   1.135   0.868 -1.3467  0.5822  0.5024
 3913SOL    HW223376   4.532   1.095   0.965 -0.8425 -2.0299 -2.5775
 3914SOL     OW23377   1.073   1.241  10.580  0.5839 -0.1897  0.6737
 3914SOL    HW123378   1.142   1.187  10.542 -0.7848 -1.0160 -0.6009
 3914SOL    HW223379   1.119   1.324  10.588 -0.4279  0.2211  2.2807
 3915SOL     OW23380   1.527   1.441   1.479 -0.1341  0.3840  0.1200
 3915SOL    HW123381   1.555   1.402   1.396 -1.4191  0.3849 -0.3108
 3915SOL    HW223382   1.580   1.382   1.532  0.3472  0.9500  0.2741
 3916SOL     OW23383   2.845   2.395   5.899 -0.0265 -0.0605  0.0510
 3916SOL    HW123384   2.781   2.467   5.907 -1.3768 -0.9961 -2.4852
 3916SOL    HW223385   2.793   2.340   5.841  1.9348 -2.4812  0.6213
 3917SOL     OW23386   3.200   0.535   4.676 -0.3856 -0.1641  0.2432
 3917SOL    HW123387   3.111   0.533   4.642  0.7866  0.3592 -2.8899
 3917SOL    HW223388   3.243   0.585   4.606  1.4320 -1.3085  0.5570
 3918SOL     OW23389   3.393   3.901  10.051 -0.0628  0.7149  0.3024
 3918SOL    HW123390   3.425   3.975   9.999  0.1742  1.0769  0.9566
 3918SOL    HW223391   3.379   3.836   9.982 -1.8999  1.0703  0.3354
 3919SOL     OW23392   3.488   1.392  15.139  0.4068 -0.3111 -0.3262
 3919SOL    HW123393   3.479   1.334  15.216  0.0583  1.2391  0.7925
 3919SOL    HW223394   3.399   1.427  15.135  1.2561  1.5862 -2.1188
 3920SOL     OW23395   3.219   2.474   1.920  0.2065 -0.3718 -0.3320
 3920SOL    HW123396   3.200   2.538   1.988  0.3887  0.3080 -0.9145
 3920SOL    HW223397   3.172   2.522   1.852  1.0885  1.0758  0.0807
 3921SOL     OW23398   4.248   2.409  12.925 -0.1462  0.3562 -0.1532
 3921SOL    HW123399   4.173   2.412  12.866  2.1913  1.7388 -3.0232
 3921SOL    HW223400   4.208   2.376  13.006  0.2273  0.8871  0.2524
 3922SOL     OW23401   2.859   0.100   3.168 -0.4193 -0.3495 -0.0981
 3922SOL    HW123402   2.925   0.154   3.123 -1.0702 -0.9038 -1.7124
 3922SOL    HW223403   2.776   0.140   3.141 -0.4593 -0.8260 -0.6657
 3923SOL     OW23404   4.319   1.455  15.397 -0.8715  0.7564  0.0790
 3923SOL    HW123405   4.252   1.422  15.457 -0.7040  1.5460  0.6976
 3923SOL    HW223406   4.318   1.388  15.329 -1.1462 -1.9170  2.6995
 3924SOL     OW23407   1.248   3.011   2.580 -0.1060 -0.7587 -0.0145
 3924SOL    HW123408   1.164   3.057   2.574  0.7863  0.7150 -1.0379
 3924SOL    HW223409   1.316   3.073   2.557  0.3276 -1.2528 -0.0515
 3925SOL     OW23410   3.104   2.696  16.256  0.5929  0.5515 -0.4117
 3925SOL    HW123411   3.030   2.667  16.309  0.9490 -2.1656 -1.3974
 3925SOL    HW223412   3.173   2.632  16.271  0.4019 -0.0943 -2.3161
 3926SOL     OW23413   4.737   0.367   6.445 -0.2458  0.4171 -0.2475
 3926SOL    HW123414   4.727   0.363   6.540 -2.0942 -0.5270 -0.4723
 3926SOL    HW223415   4.647   0.350   6.416 -0.9852  2.1956  1.0216
 3927SOL     OW23416   1.248   1.025   8.563  0.2550  0.4048  0.2278
 3927SOL    HW123417   1.176   0.961   8.555 -0.4244  1.4295 -1.8523
 3927SOL    HW223418   1.309   1.004   8.492 -1.0349 -0.5485 -0.6030
 3928SOL     OW23419   2.312   2.898   3.802  0.1386 -0.3645  0.2484
 3928SOL    HW123420   2.303   2.842   3.725  1.0548  1.2716 -1.0509
 3928SOL    HW223421   2.386   2.954   3.779  0.0762 -0.5277 -0.3405
 3929SOL     OW23422   2.172   1.225   3.592 -0.3047 -0.1074 -0.2591
 3929SOL    HW123423   2.226   1.280   3.535 -2.3919  1.5855 -0.5609
 3929SOL    HW223424   2.232   1.189   3.658 -0.7716 -1.0388 -0.3315
 3930SOL     OW23425   1.841   3.779   3.830 -0.0458  0.1937 -0.0970
 3930SOL    HW123426   1.851   3.867   3.794 -1.4426  0.4626  0.1948
 3930SOL    HW223427   1.790   3.731   3.764 -3.1537  0.8465  1.8298
 3931SOL     OW23428   2.659   1.764  16.040 -0.6289 -0.4063 -0.1974
 3931SOL    HW123429   2.732   1.764  15.977 -2.4269  0.2019 -2.2802
 3931SOL    HW223430   2.590   1.737  15.980 -0.3847  2.1195 -1.6496
 3932SOL     OW23431   4.613   3.825   8.446  0.7509 -0.6788 -0.0881
 3932SOL    HW123432   4.692   3.783   8.411  0.6925 -1.3457  0.5794
 3932SOL    HW223433   4.598   3.781   8.530  1.0023  0.0207  0.3218
 3933SOL     OW23434   0.950   0.339   1.535  0.5264  1.0388  0.2539
 3933SOL    HW123435   0.888   0.401   1.495 -2.8432 -0.5778  2.9702
 3933SOL    HW223436   1.033   0.385   1.546  0.2203  1.4244  0.8974
 3934SOL     OW23437   0.835   0.881   0.845 -0.4335 -0.0362  0.3405
 3934SOL    HW123438   0.845   0.854   0.936 -1.5980  0.7210  0.6912
 3934SOL    HW223439   0.758   0.832   0.817 -0.2517  1.7741 -3.2830
 3935SOL     OW23440   2.942   0.860   8.360 -0.2445 -0.3071  0.1481
 3935SOL    HW123441   2.956   0.768   8.337 -0.1130 -0.2829  0.1308
 3935SOL    HW223442   2.937   0.898   8.272 -1.4083 -1.7802 -0.4279
 3936SOL     OW23443   4.323   0.776   4.990 -0.1369 -0.0938 -0.3719
 3936SOL    HW123444   4.370   0.855   4.963  2.4307 -1.0462  1.3016
 3936SOL    HW223445   4.358   0.726   4.916  0.5173 -1.4281  0.8484
 3937SOL     OW23446   4.101   4.201   7.906 -0.8913  0.1265 -0.1218
 3937SOL    HW123447   4.166   4.256   7.862 -0.7843 -0.2467 -0.4378
 3937SOL    HW223448   4.123   4.217   7.998 -2.5850  0.0594  0.2945
 3938SOL     OW23449   2.593   2.706  11.987 -0.5459  0.3346  0.6429
 3938SOL    HW123450   2.574   2.653  12.065 -0.9863  1.4351  1.2902
 3938SOL    HW223451   2.521   2.669  11.936  0.8901 -0.3420 -0.8819
 3939SOL     OW23452   4.213   0.761   1.344 -0.0623  0.2240 -0.1949
 3939SOL    HW123453   4.187   0.686   1.398 -0.9732  1.3951  0.9883
 3939SOL    HW223454   4.154   0.825   1.383 -1.0630 -1.3541  0.9215
 3940SOL     OW23455   1.331   3.897  17.320 -0.6984  0.4198  0.0961
 3940SOL    HW123456   1.302   3.960  17.254  2.3020  1.7131  0.0034
 3940SOL    HW223457   1.378   3.836  17.263 -1.2635 -2.6167  2.9035
 3941SOL     OW23458   2.561   1.046   4.332  0.0802  0.5111 -0.0491
 3941SOL    HW123459   2.468   1.059   4.352 -0.6096 -2.0894 -1.5195
 3941SOL    HW223460   2.598   1.062   4.418  1.9227 -0.7115 -0.6143
 3942SOL     OW23461   3.419   1.022   9.418  0.1076  0.2981 -0.2234
 3942SOL    HW123462   3.344   0.966   9.396 -0.6951  2.2129 -2.4441
 3942SOL    HW223463   3.485   0.995   9.354  0.4700  3.4528 -1.1832
 3943SOL     OW23464   3.291   1.899   7.496  0.3387 -0.1257  0.4360
 3943SOL    HW123465   3.237   1.873   7.421 -0.9660  0.3312  1.2278
 3943SOL    HW223466   3.258   1.983   7.527  1.0580  1.0672 -2.0246
 3944SOL     OW23467   0.894   3.948   8.229  0.1360  0.0168 -0.6893
 3944SOL    HW123468   0.913   4.042   8.236 -2.5065  0.5228 -0.1380
 3944SOL    HW223469   0.970   3.927   8.176  1.6840  1.3788  0.9935
 3945SOL     OW23470   2.478   0.163   5.622  0.1136 -0.0189  0.4664
 3945SOL    HW123471   2.548   0.109   5.585  0.2390  0.0640  0.5854
 3945SOL    HW223472   2.530   0.243   5.631  0.8652 -0.5735  1.0813
 3946SOL     OW23473   0.184   3.876  11.846  0.2331  0.7565  0.4813
 3946SOL    HW123474   0.226   3.867  11.931  2.2388  0.6114 -0.5114
 3946SOL    HW223475   0.094   3.884  11.877 -0.7399  0.8742 -2.3847
 3947SOL     OW23476   1.050   4.267   7.192 -0.2339  0.4031 -0.4163
 3947SOL    HW123477   1.082   4.279   7.282  1.3380 -1.2615 -0.7533
 3947SOL    HW223478   1.107   4.327   7.145 -2.2562  0.5767 -2.6573
 3948SOL     OW23479   0.206   3.697  14.434  0.1524  0.0317  0.5798
 3948SOL    HW123480   0.198   3.716  14.528  0.8965 -2.8100  1.2146
 3948SOL    HW223481   0.143   3.760  14.397 -1.2982 -0.8759  1.5025
 3949SOL     OW23482   1.421   3.935   2.011 -0.2658  0.6665  0.3502
 3949SOL    HW123483   1.517   3.929   2.019 -0.2005  1.4586  0.2011
 3949SOL    HW223484   1.428   4.012   1.954 -2.0073  0.7734  0.3092
 3950SOL     OW23485   3.886   2.161  17.140  0.0476 -0.5251 -0.0169
 3950SOL    HW123486   3.921   2.248  17.158 -1.1354  0.0133 -0.3048
 3950SOL    HW223487   3.841   2.148  17.223 -0.4292  1.4761  0.0370
 3951SOL     OW23488   0.127   1.773   1.209 -0.0503  0.2554 -0.5866
 3951SOL    HW123489   0.210   1.726   1.211 -0.5727 -0.5623  2.1059
 3951SOL    HW223490   0.062   1.723   1.159 -0.4418 -0.8893  1.0425
 3952SOL     OW23491   2.668   1.024   2.736 -0.4937 -0.4021  0.9933
 3952SOL    HW123492   2.625   0.964   2.798  0.8390 -2.5908 -0.2049
 3952SOL    HW223493   2.590   1.072   2.709  0.1375  0.6870  1.1247
 3953SOL     OW23494   2.750   0.440   0.346 -0.5322  0.0818 -0.4723
 3953SOL    HW123495   2.695   0.518   0.340  1.3146  1.2709 -1.9657
 3953SOL    HW223496   2.765   0.432   0.440 -3.6720  2.3432  0.1979
 3954SOL     OW23497   1.768   0.360   4.091  0.0557 -0.3768 -0.0200
 3954SOL    HW123498   1.726   0.289   4.140  0.5517 -0.7923 -0.2010
 3954SOL    HW223499   1.695   0.391   4.037  3.4817  3.1289 -2.5521
 3955SOL     OW23500   0.720   1.826   4.221 -0.2541 -0.4729 -0.3595
 3955SOL    HW123501   0.631   1.790   4.217 -0.7718  0.8502 -0.9643
 3955SOL    HW223502   0.750   1.793   4.306 -1.9565 -0.8271  0.1118
 3956SOL     OW23503   4.573   3.790  17.013  0.6438 -0.7880  0.2955
 3956SOL    HW123504   4.552   3.802  16.920 -0.2587 -3.9496  0.1200
 3956SOL    HW223505   4.668   3.801  17.019  1.0312 -2.9157 -1.7742
 3957SOL     OW23506   4.501   3.775   7.067  0.6446  0.8991 -0.4394
 3957SOL    HW123507   4.543   3.741   7.146 -2.3894  0.6511  1.0635
 3957SOL    HW223508   4.475   3.862   7.097  0.2679  0.9225 -0.8491
 3958SOL     OW23509   0.472   2.335   1.669  0.5054 -0.4403  0.5455
 3958SOL    HW123510   0.388   2.345   1.625 -0.1144 -1.7402  1.4242
 3958SOL    HW223511   0.522   2.415   1.654  0.1627 -0.5625 -1.2335
 3959SOL     OW23512   0.948   1.525   5.433 -0.3605 -0.3250  0.0906
 3959SOL    HW123513   0.898   1.583   5.490 -0.8944  1.5267 -2.2662
 3959SOL    HW223514   1.035   1.565   5.444  0.5148 -2.2105  0.1203
 3960SOL     OW23515   1.514   2.246   3.698 -0.5562  0.0254 -0.3439
 3960SOL    HW123516   1.443   2.310   3.708 -0.5595 -0.2522  1.3460
 3960SOL    HW223517   1.572   2.307   3.652 -0.8785 -0.6768 -1.6601
 3961SOL     OW23518   1.907   2.916   5.795 -0.2415 -0.0027 -0.3484
 3961SOL    HW123519   1.987   2.884   5.754 -0.6957 -1.8161  0.1893
 3961SOL    HW223520   1.847   2.876   5.732  0.8290  0.2078 -1.5046
 3962SOL     OW23521   2.726   2.661   4.726 -0.7946  0.5370 -0.3920
 3962SOL    HW123522   2.690   2.573   4.713 -0.6695  0.6543 -1.5154
 3962SOL    HW223523   2.722   2.690   4.635 -0.3500  2.0625  0.0804
 3963SOL     OW23524   3.486   3.799   6.727  0.1131 -0.0604  0.1135
 3963SOL    HW123525   3.467   3.815   6.635  0.1629 -1.1137 -0.0802
 3963SOL    HW223526   3.402   3.755   6.743  0.2558 -0.3860 -0.0504
 3964SOL     OW23527   2.161   2.611  16.675  0.2832  0.5250  0.1214
 3964SOL    HW123528   2.184   2.612  16.583  1.9745  0.3395  0.5376
 3964SOL    HW223529   2.107   2.531  16.675  0.4919  0.3853 -0.9887
 3965SOL     OW23530   2.469   3.353   4.416 -0.4637  0.3022 -0.3654
 3965SOL    HW123531   2.562   3.337   4.433 -0.4515  3.7742  2.8245
 3965SOL    HW223532   2.451   3.285   4.351  2.0699 -0.2681 -0.4744
 3966SOL     OW23533   4.249   1.770   6.717  0.4530 -0.3486  0.5099
 3966SOL    HW123534   4.218   1.735   6.633  1.2645 -0.0199  0.0788
 3966SOL    HW223535   4.302   1.845   6.690 -1.8891  0.8000 -0.9008
 3967SOL     OW23536   4.388   3.877  15.772 -0.3894 -0.0055 -0.2630
 3967SOL    HW123537   4.459   3.813  15.786 -1.5350 -0.8392  1.7190
 3967SOL    HW223538   4.433   3.952  15.732 -0.9733  0.4985  0.0318
 3968SOL     OW23539   2.746   1.988   8.565  0.1510 -0.4132  0.1028
 3968SOL    HW123540   2.814   2.054   8.577  3.3532 -3.8881  0.9951
 3968SOL    HW223541   2.727   1.955   8.653 -3.3771  1.7128  0.1131
 3969SOL     OW23542   2.285   4.158   0.882  0.0352  0.1306  0.1631
 3969SOL    HW123543   2.294   4.063   0.876 -2.9594 -0.2092  1.2514
 3969SOL    HW223544   2.319   4.173   0.970 -0.3131  2.1756 -0.0622
 3970SOL     OW23545   0.059   2.382   7.053 -0.7993 -0.0486 -0.3906
 3970SOL    HW123546   0.059   2.391   7.148  0.6902 -0.5403 -0.3336
 3970SOL    HW223547   0.054   2.473   7.024  2.9029  0.3699  0.2871
 3971SOL     OW23548   2.200   0.534   5.616  0.3965  0.1275 -0.7218
 3971SOL    HW123549   2.276   0.476   5.617 -0.0784 -0.4929 -1.0774
 3971SOL    HW223550   2.212   0.583   5.697 -0.1610  0.1617 -0.6595
 3972SOL     OW23551   1.887   4.607   5.683  0.2589  0.0239  0.2924
 3972SOL    HW123552   1.943   4.683   5.665 -0.8342  0.5844 -0.7067
 3972SOL    HW223553   1.922   4.583   5.769 -0.2691  0.7456  0.7107
 3973SOL     OW23554   1.632   0.899  15.800 -0.3726 -0.1895  0.0390
 3973SOL    HW123555   1.540   0.925  15.809  0.4479  2.4736  0.5836
 3973SOL    HW223556   1.634   0.805  15.816 -1.4528 -0.3100 -0.5034
 3974SOL     OW23557   2.627   4.518   3.646  0.3193 -0.1657 -0.3577
 3974SOL    HW123558   2.658   4.565   3.723 -1.4369 -1.5304  1.2112
 3974SOL    HW223559   2.571   4.582   3.602 -0.9743 -0.6376  0.5769
 3975SOL     OW23560   0.320   0.080   6.650 -0.0837 -0.4715  0.4040
 3975SOL    HW123561   0.394   0.020   6.641  1.2964  1.7291 -2.9621
 3975SOL    HW223562   0.318   0.090   6.745 -1.1007 -1.3285  0.4672
 3976SOL     OW23563   0.481   2.584   7.266 -0.0483 -0.0072  0.2076
 3976SOL    HW123564   0.442   2.525   7.202 -0.9669  1.5164 -0.6494
 3976SOL    HW223565   0.415   2.575   7.335  1.3213  3.6739  2.0143
 3977SOL     OW23566   2.293   1.004   6.729  0.1091  0.1413 -0.3730
 3977SOL    HW123567   2.349   1.051   6.791 -3.0851  0.9502  1.8999
 3977SOL    HW223568   2.352   0.962   6.666 -1.6851 -0.5656 -1.5929
 3978SOL     OW23569   3.113   1.952   5.066  0.2852 -0.1639  0.6697
 3978SOL    HW123570   3.180   1.937   5.133 -0.1004 -0.8206  0.9088
 3978SOL    HW223571   3.148   1.886   5.006 -1.6856 -1.0926  0.5645
 3979SOL     OW23572   2.502   2.532  12.182 -0.8054  0.1179 -0.2698
 3979SOL    HW123573   2.408   2.515  12.178 -0.8021 -0.2020  0.8975
 3979SOL    HW223574   2.532   2.467  12.245 -2.0877 -0.7370 -0.5608
 3980SOL     OW23575   2.206   1.642  10.012 -0.0047  0.0024  0.4151
 3980SOL    HW123576   2.119   1.657  10.050  0.5304  1.0178  1.2405
 3980SOL    HW223577   2.222   1.554  10.045  1.0269  1.7412  4.5980
 3981SOL     OW23578   3.067   2.185  15.629  0.3432  0.2304 -0.6750
 3981SOL    HW123579   3.075   2.263  15.574  2.8561 -0.9267 -1.9612
 3981SOL    HW223580   3.049   2.224  15.715 -0.8557 -1.1344 -0.3175
 3982SOL     OW23581   1.019   1.043   7.174  0.0622 -0.5595  0.2392
 3982SOL    HW123582   0.959   1.042   7.100  1.6120 -3.1168 -0.9530
 3982SOL    HW223583   0.952   1.037   7.243  1.2767  0.9444  1.5536
 3983SOL     OW23584   0.248   3.111   3.818  0.9817  0.0037 -0.2296
 3983SOL    HW123585   0.332   3.153   3.801  1.5022 -1.5105 -1.3456
 3983SOL    HW223586   0.264   3.078   3.907  1.2854 -0.1202 -0.3316
 3984SOL     OW23587   3.652   4.649   3.768 -0.3781 -0.2661 -1.0359
 3984SOL    HW123588   3.691   4.586   3.829  0.1280  2.2663  1.2389
 3984SOL    HW223589   3.717   4.716   3.788  1.7837 -2.0025 -2.2193
 3985SOL     OW23590   2.903   3.964   4.123 -0.2417 -0.2231  0.1445
 3985SOL    HW123591   2.881   3.913   4.045  1.8092 -2.2984  0.9203
 3985SOL    HW223592   2.983   3.919   4.151  0.4030  0.5595 -0.4176
 3986SOL     OW23593   4.088   2.847   5.922 -0.4024  0.3705  0.2487
 3986SOL    HW123594   4.081   2.860   5.827 -2.4091 -0.6807  0.2609
 3986SOL    HW223595   4.044   2.929   5.945  2.5612  1.6824  1.3102
 3987SOL     OW23596   1.940   1.449   1.058  0.4317  0.3599 -0.0265
 3987SOL    HW123597   2.032   1.471   1.046  0.7261  0.1916  1.9318
 3987SOL    HW223598   1.950   1.357   1.081  0.5943  0.4512  0.2543
 3988SOL     OW23599   4.273   3.235   2.285  0.4280  0.1883 -0.5114
 3988SOL    HW123600   4.357   3.263   2.250 -0.2317 -0.0348 -2.3248
 3988SOL    HW223601   4.215   3.310   2.274  0.0821  0.1041  0.8130
 3989SOL     OW23602   3.294   1.128  10.861 -0.5918  0.9485  0.4045
 3989SOL    HW123603   3.332   1.216  10.863  2.1748 -0.2482 -0.2060
 3989SOL    HW223604   3.277   1.108  10.953 -2.2359  2.7865  0.4974
 3990SOL     OW23605   2.968   3.233   8.352 -0.1533 -0.4621 -0.1184
 3990SOL    HW123606   3.060   3.210   8.346 -0.0668 -0.6699  1.7330
 3990SOL    HW223607   2.959   3.214   8.446  0.2974  0.0636  0.0321
 3991SOL     OW23608   1.496   3.415   7.069 -0.4882 -0.0939  0.2477
 3991SOL    HW123609   1.461   3.337   7.111 -2.1345  0.3679 -0.2857
 3991SOL    HW223610   1.414   3.463   7.073 -1.1295 -1.3201  1.6855
 3992SOL     OW23611   1.136   1.984   6.590  0.0942  0.3670  0.3215
 3992SOL    HW123612   1.110   2.012   6.677  0.8226  1.7726  0.0849
 3992SOL    HW223613   1.165   1.898   6.621 -0.2233  0.2433  0.2773
 3993SOL     OW23614   1.842   3.126   8.489  0.5212  0.0146  0.0701
 3993SOL    HW123615   1.808   3.154   8.404 -1.0425 -1.5643  0.1750
 3993SOL    HW223616   1.924   3.084   8.465 -0.0304  0.0445 -1.8382
 3994SOL     OW23617   0.125   2.240   2.578 -0.1600 -0.1678  0.3331
 3994SOL    HW123618   0.166   2.154   2.584 -2.1471 -1.0741  1.0099
 3994SOL    HW223619   0.046   2.215   2.531  0.4323 -0.0775 -0.7004
 3995SOL     OW23620   2.610   4.049  14.704 -0.2517 -0.4500  0.3072
 3995SOL    HW123621   2.636   4.019  14.617  1.4450  1.6044  0.0918
 3995SOL    HW223622   2.550   4.120  14.682  1.4894  0.3588 -1.8311
 3996SOL     OW23623   3.971   1.021   3.912  0.2003 -0.4107 -0.2946
 3996SOL    HW123624   4.037   1.081   3.947 -0.1934  0.0176 -0.2910
 3996SOL    HW223625   3.942   1.066   3.833 -0.8226 -2.0989 -0.8787
 3997SOL     OW23626   3.729   2.736   9.025  0.6522  0.2464 -0.6664
 3997SOL    HW123627   3.746   2.813   9.080 -2.0947 -0.0420  0.6322
 3997SOL    HW223628   3.778   2.669   9.073 -1.4056  0.2335  1.4567
 3998SOL     OW23629   4.636   3.770  14.512 -0.0105 -0.1943 -0.3207
 3998SOL    HW123630   4.726   3.763  14.543  0.1488 -0.7379 -0.9117
 3998SOL    HW223631   4.648   3.766  14.417  3.5622  0.4423  0.1021
 3999SOL     OW23632   2.406   3.974   2.718 -0.2030 -0.3633 -0.5622
 3999SOL    HW123633   2.495   3.975   2.754 -0.5210 -1.3857  0.2592
 3999SOL    HW223634   2.409   4.050   2.659 -1.7759  1.0187  1.1293
 4000SOL     OW23635   3.564   1.952   8.334 -0.1681  0.6894 -0.3716
 4000SOL    HW123636   3.541   1.879   8.278 -1.8386  1.0301 -0.1151
 4000SOL    HW223637   3.593   1.910   8.415 -3.1133 -0.0440  0.2898
 4001SOL     OW23638   1.723   4.028   0.116  0.7042  0.1907 -0.0571
 4001SOL    HW123639   1.650   4.063   0.066 -0.7248 -1.1458  1.1264
 4001SOL    HW223640   1.689   4.024   0.205 -0.7422  2.4956 -0.5004
 4002SOL     OW23641   0.672   4.394  10.356  0.2561  0.6481 -0.1754
 4002SOL    HW123642   0.638   4.401  10.267  0.8995  0.9740 -0.3894
 4002SOL    HW223643   0.743   4.458  10.355  1.4981 -0.6656  4.6405
 4003SOL     OW23644   2.808   2.126  11.102 -0.3385  0.8049 -0.1989
 4003SOL    HW123645   2.752   2.193  11.062  2.7015  2.7486 -1.1662
 4003SOL    HW223646   2.886   2.176  11.124 -0.8041  2.0273 -1.2939
 4004SOL     OW23647   3.741   1.846  16.166 -0.0802 -0.2652 -0.4241
 4004SOL    HW123648   3.748   1.790  16.089 -1.0387  0.1539 -0.8278
 4004SOL    HW223649   3.661   1.822  16.213  0.5769  1.5383  1.6310
 4005SOL     OW23650   0.714   1.132   2.329 -0.2191  0.1360 -0.2332
 4005SOL    HW123651   0.772   1.185   2.275 -1.0604  0.4780 -0.7981
 4005SOL    HW223652   0.678   1.201   2.383 -2.4051 -0.5173 -0.8184
 4006SOL     OW23653   1.135   3.769   7.819 -0.4126  0.6431  0.1834
 4006SOL    HW123654   1.223   3.804   7.828 -1.0738  1.4922  3.0911
 4006SOL    HW223655   1.110   3.801   7.732  0.9549 -1.5209 -1.0257
 4007SOL     OW23656   2.184   2.195   9.596  0.4160  0.2852  0.3122
 4007SOL    HW123657   2.117   2.149   9.545  0.9088 -1.1677  1.0008
 4007SOL    HW223658   2.121   2.254   9.638  0.8395  0.0140  1.3376
 4008SOL     OW23659   0.993   2.908   6.895 -0.5484 -0.2336  0.1856
 4008SOL    HW123660   0.924   2.843   6.881 -1.4129  1.0827 -1.7268
 4008SOL    HW223661   1.030   2.912   6.807  0.0413  2.1220  0.5453
 4009SOL     OW23662   0.806   1.807   3.711  0.1492 -0.3295  0.0805
 4009SOL    HW123663   0.890   1.803   3.665 -0.9512 -1.6364 -1.8347
 4009SOL    HW223664   0.830   1.832   3.800  1.4884  0.6432 -0.5673
 4010SOL     OW23665   3.273   0.844   8.792 -0.3005  0.2653  0.2757
 4010SOL    HW123666   3.328   0.901   8.738  1.3658 -2.3037 -0.7449
 4010SOL    HW223667   3.314   0.759   8.774 -2.3347 -0.7013  0.1613
 4011SOL     OW23668   3.647   0.081   6.069 -0.1242 -0.0072 -0.0581
 4011SOL    HW123669   3.701   0.157   6.049  0.0982 -0.2359 -0.3377
 4011SOL    HW223670   3.714   0.019   6.097 -0.9395 -1.7038 -1.8352
 4012SOL     OW23671   4.413   0.982   0.398 -0.5021 -0.1859  0.1471
 4012SOL    HW123672   4.381   1.055   0.451  2.7166  2.0829 -1.0428
 4012SOL    HW223673   4.477   1.029   0.345  0.2690 -0.3863  0.9078
 4013SOL     OW23674   1.655   3.714   2.284  0.3775  0.3393 -0.5522
 4013SOL    HW123675   1.666   3.791   2.229 -1.5725  1.4229  0.5780
 4013SOL    HW223676   1.706   3.735   2.363  1.1920  1.3924 -1.3652
 4014SOL     OW23677   0.611   4.427  17.407  0.2941  0.6536  0.4517
 4014SOL    HW123678   0.633   4.341  17.370  1.2460  1.4650 -0.8685
 4014SOL    HW223679   0.594   4.477  17.327 -1.6224 -1.7254 -0.6230
 4015SOL     OW23680   0.959   4.542  11.292  0.0921  0.2417 -0.0564
 4015SOL    HW123681   0.864   4.530  11.296 -0.1230  1.5513 -0.9191
 4015SOL    HW223682   0.963   4.633  11.262  0.9674  0.0568 -0.5165
 4016SOL     OW23683   4.461   0.976   7.394 -0.1765  0.4603  0.8910
 4016SOL    HW123684   4.429   1.066   7.390 -2.2314 -0.2244  2.1220
 4016SOL    HW223685   4.395   0.931   7.343 -0.2128  1.5853 -0.0381
 4017SOL     OW23686   1.287   3.936   4.058  0.1248  0.8556 -0.0450
 4017SOL    HW123687   1.252   3.851   4.082 -0.4069  0.1919 -3.2567
 4017SOL    HW223688   1.349   3.908   3.991  0.7998 -1.0106  1.3435
 4018SOL     OW23689   3.924   1.394   2.643  0.0080 -0.0322 -0.6301
 4018SOL    HW123690   3.953   1.485   2.651  0.4724 -0.1942 -0.4579
 4018SOL    HW223691   3.927   1.385   2.547 -1.9538  3.5759 -1.0471
 4019SOL     OW23692   4.359   0.935   3.833  0.3150  0.3755 -0.3021
 4019SOL    HW123693   4.270   0.949   3.802  0.4879  1.5541 -0.2487
 4019SOL    HW223694   4.344   0.939   3.928 -2.7067 -0.6775 -0.7216
 4020SOL     OW23695   2.557   0.367   3.257  0.2853 -0.1791  0.0888
 4020SOL    HW123696   2.601   0.334   3.179 -0.7676  1.4275 -1.1860
 4020SOL    HW223697   2.514   0.439   3.211 -0.7452 -0.7405  0.1623
 4021SOL     OW23698   4.234   1.375   4.320 -0.2758 -0.0265  0.0949
 4021SOL    HW123699   4.163   1.431   4.289 -0.9902 -0.7132  0.4970
 4021SOL    HW223700   4.300   1.444   4.324  0.5731 -0.8920  1.0613
 4022SOL     OW23701   0.842   2.022   4.512  0.0674 -0.5494  0.2869
 4022SOL    HW123702   0.806   2.011   4.600  0.9027 -2.9227  0.3413
 4022SOL    HW223703   0.866   2.115   4.511  0.8009 -0.7315  1.0773
 4023SOL     OW23704   4.529   0.275   3.913  0.0329 -0.1277  0.0909
 4023SOL    HW123705   4.519   0.189   3.954 -1.7064  0.2065  0.3686
 4023SOL    HW223706   4.623   0.280   3.926 -0.1405 -0.8891  1.6733
 4024SOL     OW23707   3.957   3.702   2.848 -0.5995 -0.1658 -0.7050
 4024SOL    HW123708   4.006   3.703   2.766 -0.2042  1.7639 -0.4262
 4024SOL    HW223709   3.915   3.788   2.849  0.3123  0.3218 -2.7008
 4025SOL     OW23710   2.538   1.353   6.925  0.9158 -0.3453  0.2414
 4025SOL    HW123711   2.498   1.374   6.840 -0.3450 -2.5551  0.3052
 4025SOL    HW223712   2.551   1.259   6.913 -1.2084 -0.7774  1.5091
 4026SOL     OW23713   0.625   1.125  14.195  0.2232 -0.0560  0.1479
 4026SOL    HW123714   0.707   1.168  14.173  0.2884  0.1479  0.7825
 4026SOL    HW223715   0.628   1.060  14.124 -2.8453 -0.5682  0.4648
 4027SOL     OW23716   1.522   0.446  12.192 -0.4858  0.2500  0.3516
 4027SOL    HW123717   1.508   0.537  12.220  1.6051 -0.0513  2.3999
 4027SOL    HW223718   1.611   0.444  12.155 -0.0729 -1.8175  1.4526
 4028SOL     OW23719   4.057   1.883  16.881  0.5789 -0.2200 -0.1053
 4028SOL    HW123720   4.131   1.825  16.902  0.8874 -0.1425 -0.9921
 4028SOL    HW223721   4.027   1.857  16.794  2.2493  1.2134 -1.1238
 4029SOL     OW23722   2.613   2.372  13.482 -0.1232 -0.6564 -0.3539
 4029SOL    HW123723   2.649   2.339  13.400  0.3471  1.3100 -0.9445
 4029SOL    HW223724   2.650   2.306  13.541 -1.4874 -0.8811  0.2554
 4030SOL     OW23725   1.921   4.405   5.503 -0.4505 -0.7348  0.2285
 4030SOL    HW123726   1.928   4.314   5.533  0.7560 -1.2013 -1.4127
 4030SOL    HW223727   1.905   4.455   5.583 -1.7950  0.0310 -0.5256
 4031SOL     OW23728   1.565   4.295   3.266 -0.2695  0.4902  0.6274
 4031SOL    HW123729   1.508   4.314   3.341 -0.7087 -0.4243  0.5315
 4031SOL    HW223730   1.640   4.354   3.273  0.5408 -0.4807  0.1762
 4032SOL     OW23731   4.273   4.215  11.655  0.2196 -0.4934 -0.1325
 4032SOL    HW123732   4.257   4.310  11.658 -2.7408 -1.1072  3.1380
 4032SOL    HW223733   4.235   4.201  11.568  0.5560 -2.8933  0.1115
 4033SOL     OW23734   3.784   1.265   4.754  0.4886 -0.0303 -0.2145
 4033SOL    HW123735   3.818   1.262   4.665  1.7374 -1.6675  0.3270
 4033SOL    HW223736   3.853   1.211   4.790  0.4288  0.4184  0.5718
 4034SOL     OW23737   0.681   1.294   7.790 -0.0345 -0.1935  0.1870
 4034SOL    HW123738   0.612   1.228   7.790  0.6568 -0.9085 -0.6811
 4034SOL    HW223739   0.724   1.302   7.704  0.2654  0.6660  0.4194
 4035SOL     OW23740   1.259   1.278   7.796 -0.1745 -0.2526 -0.0427
 4035SOL    HW123741   1.269   1.202   7.739 -0.9516  0.2297 -0.8167
 4035SOL    HW223742   1.178   1.256   7.843  1.0727 -1.4433  1.5381
 4036SOL     OW23743   1.638   2.895   7.225 -0.4694  0.7133  0.5100
 4036SOL    HW123744   1.732   2.886   7.243 -0.4969 -0.7400 -0.1365
 4036SOL    HW223745   1.630   2.807   7.188  0.4551 -0.5306  3.3104
 4037SOL     OW23746   2.113   0.296   3.463  0.2257  0.2394  0.1845
 4037SOL    HW123747   2.141   0.239   3.535 -0.2390  1.5785  1.4220
 4037SOL    HW223748   2.114   0.379   3.510  1.3089 -0.0162  0.6291
 4038SOL     OW23749   2.530   0.938   5.520 -0.2771 -0.0511  0.1724
 4038SOL    HW123750   2.618   0.925   5.486 -1.5377 -2.9995 -1.8968
 4038SOL    HW223751   2.483   0.868   5.476 -1.4352  1.1790 -0.5356
 4039SOL     OW23752   2.344   3.774  10.571  0.1602 -0.4003  0.2616
 4039SOL    HW123753   2.260   3.762  10.616  0.2620  1.1337  0.8707
 4039SOL    HW223754   2.367   3.682  10.556 -0.2402 -0.3341 -0.8020
 4040SOL     OW23755   3.395   1.313   3.626  0.0515 -0.1222 -0.7382
 4040SOL    HW123756   3.315   1.304   3.573  0.3730 -0.9674 -1.0916
 4040SOL    HW223757   3.462   1.281   3.565  2.1783  0.7586  1.1486
 4041SOL     OW23758   4.085   0.405  16.299  0.5250  0.2512 -0.6249
 4041SOL    HW123759   4.071   0.500  16.299  1.0210  0.3362 -2.0597
 4041SOL    HW223760   4.000   0.369  16.322 -0.0574  0.4107 -2.4791
 4042SOL     OW23761   0.422   3.640   6.049 -1.1422  0.6620 -0.5969
 4042SOL    HW123762   0.386   3.658   6.136  0.0810 -0.7445  0.1984
 4042SOL    HW223763   0.350   3.629   5.986 -1.7816  0.9553  0.0790
 4043SOL     OW23764   0.279   1.388   9.156  0.0994  0.5092 -0.2596
 4043SOL    HW123765   0.259   1.467   9.107 -3.3453  0.2478  0.7455
 4043SOL    HW223766   0.215   1.378   9.226  2.3102 -1.3095  1.5160
 4044SOL     OW23767   4.305   3.523   7.477 -0.5541  0.1028  0.0555
 4044SOL    HW123768   4.280   3.437   7.510 -0.3694 -0.4824 -1.3170
 4044SOL    HW223769   4.397   3.522   7.502 -0.4344  0.7127 -0.3466
 4045SOL     OW23770   3.050   0.475  14.645  0.1259 -0.1351 -0.2073
 4045SOL    HW123771   3.001   0.524  14.579 -0.2299  0.3854  0.4470
 4045SOL    HW223772   3.096   0.415  14.587  0.0460  0.2312 -0.6486
 4046SOL     OW23773   2.173   2.832   4.598 -0.2964  0.1394 -0.0887
 4046SOL    HW123774   2.218   2.750   4.577 -0.4844 -0.1666  0.7277
 4046SOL    HW223775   2.095   2.803   4.645 -0.1629 -0.3987 -0.1999
 4047SOL     OW23776   2.100   1.596   5.360  0.1500 -0.0270 -0.6346
 4047SOL    HW123777   2.115   1.627   5.449  1.1757  0.2494 -0.9049
 4047SOL    HW223778   2.110   1.676   5.309 -0.0725  0.6825  0.4437
 4048SOL     OW23779   3.494   0.526  16.351  0.0204  0.3521 -0.1111
 4048SOL    HW123780   3.587   0.523  16.329  0.4374  3.7007  1.1669
 4048SOL    HW223781   3.461   0.591  16.289  0.0512  0.2426 -0.2421
 4049SOL     OW23782   3.256   4.132  17.575  0.0003 -0.1784  0.5113
 4049SOL    HW123783   3.259   4.203  17.511  1.4260 -0.4960  0.2461
 4049SOL    HW223784   3.315   4.171  17.640 -0.1984 -1.7893  1.6628
 4050SOL     OW23785   2.028   0.746   8.910 -0.5186  0.0634  0.1488
 4050SOL    HW123786   2.014   0.764   8.817 -0.2172 -1.9775 -0.3000
 4050SOL    HW223787   1.977   0.818   8.947  0.8094  1.8399 -1.5346
 4051SOL     OW23788   2.969   0.713  16.684 -0.3581 -0.9853  0.1664
 4051SOL    HW123789   2.988   0.620  16.667  0.4192 -1.0517  1.4158
 4051SOL    HW223790   2.984   0.737  16.593 -0.3016  1.7009  0.8989
 4052SOL     OW23791   2.458   2.013   8.533 -0.0472 -0.1827 -0.0279
 4052SOL    HW123792   2.551   2.016   8.554 -0.0140 -1.3808 -0.0014
 4052SOL    HW223793   2.455   2.096   8.485 -1.0017 -0.8652 -1.1455
 4053SOL     OW23794   1.060   2.292   7.093 -0.0204  0.5406 -0.2472
 4053SOL    HW123795   1.093   2.362   7.037  0.2474  1.4292  1.0229
 4053SOL    HW223796   1.090   2.320   7.179 -0.0499 -1.0698  0.2916
 4054SOL     OW23797   2.013   0.682   7.310 -0.1428 -0.3013 -0.2225
 4054SOL    HW123798   1.955   0.630   7.254 -1.7880  2.2242 -0.8732
 4054SOL    HW223799   1.989   0.773   7.290 -2.2262 -0.6880  0.5732
 4055SOL     OW23800   1.182   3.739   5.996 -0.2285  0.3841 -0.6113
 4055SOL    HW123801   1.236   3.783   5.930  1.4055  0.5952  0.8571
 4055SOL    HW223802   1.094   3.760   5.965 -0.4798  1.4035  0.8231
 4056SOL     OW23803   1.251   2.491   1.615 -0.4003 -0.0402  0.4480
 4056SOL    HW123804   1.232   2.564   1.557  2.5082 -0.3893 -0.9671
 4056SOL    HW223805   1.224   2.527   1.699 -2.4761  0.9555 -0.6707
 4057SOL     OW23806   3.116   1.983   2.808  0.4662  0.3735  0.1891
 4057SOL    HW123807   3.070   1.963   2.889 -0.4568 -1.6691 -0.8324
 4057SOL    HW223808   3.100   1.900   2.764 -0.9337  0.1554  1.1227
 4058SOL     OW23809   2.085   3.049   8.407  0.5690  0.0805 -0.4542
 4058SOL    HW123810   2.118   3.087   8.488 -0.3731  2.8311 -1.3303
 4058SOL    HW223811   2.150   3.083   8.346 -0.0846 -0.8052 -1.6438
 4059SOL     OW23812   2.153   3.181  16.161  0.0213  0.1103 -0.2504
 4059SOL    HW123813   2.087   3.236  16.202  1.2750 -0.1700  2.1499
 4059SOL    HW223814   2.200   3.252  16.118 -0.5003  0.7196  0.1729
 4060SOL     OW23815   3.596   1.295  10.630 -0.8619  0.0738  0.3348
 4060SOL    HW123816   3.517   1.335  10.665 -0.7612 -0.9544  1.7736
 4060SOL    HW223817   3.583   1.302  10.535  1.5762  1.1804  0.0895
 4061SOL     OW23818   2.773   3.707   5.003  0.0317  0.0336  0.4650
 4061SOL    HW123819   2.815   3.676   5.083 -0.8030  3.6541  2.3098
 4061SOL    HW223820   2.765   3.799   5.031  0.0406 -0.0479  0.7365
 4062SOL     OW23821   1.320   2.546   4.313  0.3177 -0.6597  0.2924
 4062SOL    HW123822   1.254   2.616   4.319 -0.0439 -0.9236 -0.6668
 4062SOL    HW223823   1.267   2.487   4.260  0.7426 -0.4540 -0.3530
 4063SOL     OW23824   0.605   0.284   3.376 -0.5831 -0.0022  0.2598
 4063SOL    HW123825   0.688   0.255   3.337  0.5445  0.2636  2.4942
 4063SOL    HW223826   0.615   0.259   3.467 -0.7910 -2.8353 -0.5114
 4064SOL     OW23827   2.040   0.368  14.160 -0.6073 -0.1324  0.5139
 4064SOL    HW123828   2.114   0.323  14.120 -0.0770  0.5203  0.7508
 4064SOL    HW223829   2.081   0.452  14.182 -1.9760  0.3076  1.4144
 4065SOL     OW23830   4.032   3.335   9.117 -0.3133 -0.0199 -0.8053
 4065SOL    HW123831   4.041   3.341   9.212  0.4743  0.4273 -0.9068
 4065SOL    HW223832   4.067   3.246   9.107 -0.5190  0.0114 -1.8021
 4066SOL     OW23833   0.357   3.579  13.395 -0.7840  0.4388  0.5613
 4066SOL    HW123834   0.337   3.664  13.357 -0.6738  0.8154  1.3437
 4066SOL    HW223835   0.322   3.582  13.484 -3.3947 -0.0832 -0.4433
 4067SOL     OW23836   0.768   2.366   5.080 -0.5365 -0.1637  0.2764
 4067SOL    HW123837   0.857   2.401   5.092 -0.3712 -0.9864  1.5015
 4067SOL    HW223838   0.793   2.273   5.077 -1.0168 -0.2720 -0.3869
 4068SOL     OW23839   2.379   2.757   8.281  0.5195  0.0858 -0.0566
 4068SOL    HW123840   2.422   2.796   8.205  1.7064 -0.2348  0.4474
 4068SOL    HW223841   2.290   2.791   8.274 -0.1434 -2.0329 -1.8087
 4069SOL     OW23842   1.659   4.634   6.673  0.1361  0.3548  0.5937
 4069SOL    HW123843   1.751   4.619   6.694  0.0868 -0.6811  0.0930
 4069SOL    HW223844   1.641   4.707   6.731 -1.2836  0.1401  0.4201
 4070SOL     OW23845   1.830   1.617   1.254  0.1609 -0.1695  0.2400
 4070SOL    HW123846   1.877   1.570   1.185  1.0843  0.3972  0.4964
 4070SOL    HW223847   1.768   1.661   1.195 -1.6377 -0.8100  1.6371
 4071SOL     OW23848   0.991   3.627   8.816  0.3794  0.1261 -0.1157
 4071SOL    HW123849   1.024   3.563   8.879  2.2947  1.4040  0.1885
 4071SOL    HW223850   1.067   3.637   8.760  0.3794 -1.2839 -0.3637
 4072SOL     OW23851   1.949   2.488   7.648  0.0157  0.0429 -0.0324
 4072SOL    HW123852   1.979   2.399   7.630  1.0307  1.1456 -3.8230
 4072SOL    HW223853   2.004   2.511   7.723  0.7123  0.6408 -0.7295
 4073SOL     OW23854   1.535   2.565   4.682 -0.6337 -0.4936 -0.1737
 4073SOL    HW123855   1.602   2.550   4.616 -0.5455 -1.7386  0.1982
 4073SOL    HW223856   1.581   2.580   4.765  2.0999  0.4908 -1.8782
 4074SOL     OW23857   1.462   1.787   5.536  0.2306  0.2487  0.4530
 4074SOL    HW123858   1.462   1.789   5.440 -1.3102 -0.2261  0.4486
 4074SOL    HW223859   1.557   1.778   5.550 -0.3322 -2.0531  2.7408
 4075SOL     OW23860   0.460   1.717   4.513  0.0082 -0.1529  0.3389
 4075SOL    HW123861   0.513   1.792   4.540  0.6117 -1.4591  2.7566
 4075SOL    HW223862   0.479   1.703   4.420  0.0583 -1.5151  0.5531
 4076SOL     OW23863   2.115   4.424  16.755  0.4986  0.1072 -0.0870
 4076SOL    HW123864   2.167   4.376  16.819 -0.1398 -0.5418 -0.0537
 4076SOL    HW223865   2.162   4.412  16.672  1.7518 -0.8543  0.7785
 4077SOL     OW23866   3.603   2.271  14.100  0.3509 -0.4044  0.2835
 4077SOL    HW123867   3.570   2.323  14.173  0.1069 -1.7630  1.1533
 4077SOL    HW223868   3.645   2.204  14.155  0.1526  0.4735  1.5048
 4078SOL     OW23869   2.391   1.642   3.726  0.6430 -0.0459  0.4218
 4078SOL    HW123870   2.448   1.596   3.787  0.5123  0.1230  0.6782
 4078SOL    HW223871   2.313   1.663   3.778 -1.2075  0.1769 -2.4332
 4079SOL     OW23872   2.194   1.326   0.232  0.6365  0.4593  0.3405
 4079SOL    HW123873   2.236   1.285   0.156 -1.4166  0.4114 -0.7825
 4079SOL    HW223874   2.126   1.260   0.245  0.8804  0.2134  0.3892
 4080SOL     OW23875   3.038   1.727   8.989 -0.0149 -0.1731 -0.0326
 4080SOL    HW123876   3.031   1.671   9.066 -2.1311  0.3901  0.1809
 4080SOL    HW223877   3.120   1.705   8.944 -1.0790 -0.8231 -1.6801
 4081SOL     OW23878   1.047   0.351  10.212  0.1211  0.1833 -0.3919
 4081SOL    HW123879   1.083   0.422  10.265 -0.9811 -0.7386  1.6217
 4081SOL    HW223880   0.957   0.386  10.211 -0.2512 -0.7073  1.0873
 4082SOL     OW23881   0.953   3.815   6.950  0.4044  0.5062  0.3166
 4082SOL    HW123882   0.975   3.877   7.020 -0.2473  1.9643 -0.7585
 4082SOL    HW223883   1.035   3.818   6.900  0.1271 -1.3636 -0.2271
 4083SOL     OW23884   2.229   1.292   5.528 -0.3980  0.9222  0.1121
 4083SOL    HW123885   2.142   1.290   5.487 -0.6233  0.9457  0.5946
 4083SOL    HW223886   2.291   1.343   5.475 -0.9070  0.5562 -0.8416
 4084SOL     OW23887   2.199   2.444   3.121  0.5458  0.2968  0.0711
 4084SOL    HW123888   2.221   2.414   3.033 -0.6555 -3.2440  0.9773
 4084SOL    HW223889   2.188   2.360   3.165  3.5784  0.2611  0.7668
 4085SOL     OW23890   4.244   4.645   9.880 -0.0957 -0.1882  0.5490
 4085SOL    HW123891   4.155   4.620   9.852  0.3881 -0.4793 -0.7387
 4085SOL    HW223892   4.258   4.730   9.840  0.7640  0.6612  2.6812
 4086SOL     OW23893   0.093   3.415   5.454  0.0783  0.5173 -0.0861
 4086SOL    HW123894   0.117   3.370   5.536 -2.1459  2.3222  1.5319
 4086SOL    HW223895   0.045   3.490   5.489 -1.3060 -1.0018  1.2674
 4087SOL     OW23896   3.329   0.799   6.188  0.2522  0.2680 -0.4895
 4087SOL    HW123897   3.314   0.870   6.126 -0.3073  1.1669  0.6806
 4087SOL    HW223898   3.424   0.794   6.185  0.1992  1.8170 -3.9385
 4088SOL     OW23899   1.871   3.527   2.384 -0.6122  0.0287  0.1194
 4088SOL    HW123900   1.808   3.458   2.366  0.3044 -1.0962  1.2316
 4088SOL    HW223901   1.918   3.481   2.454 -0.2163 -0.0776 -0.2156
 4089SOL     OW23902   2.232   0.731   6.171  0.2211 -0.0212  0.1238
 4089SOL    HW123903   2.228   0.651   6.223  1.0276 -0.2216 -0.1334
 4089SOL    HW223904   2.164   0.707   6.107  0.8215 -2.2105  0.3176
 4090SOL     OW23905   3.004   2.322   4.894  0.3191  0.0892 -0.1388
 4090SOL    HW123906   3.032   2.411   4.915  0.5927 -0.9834  3.9980
 4090SOL    HW223907   3.083   2.285   4.857 -0.7559 -1.4492 -0.9133
 4091SOL     OW23908   0.185   3.239   5.255 -0.5101 -0.0459  0.3985
 4091SOL    HW123909   0.121   3.289   5.306 -0.1531 -1.0610  1.8382
 4091SOL    HW223910   0.267   3.259   5.301 -0.5553 -0.2516  0.5678
 4092SOL     OW23911   1.571   0.181   4.186 -0.2732 -0.1189 -0.0739
 4092SOL    HW123912   1.615   0.170   4.271  0.7902 -1.5990 -0.8091
 4092SOL    HW223913   1.487   0.144   4.212  1.1952 -2.7143  0.8926
 4093SOL     OW23914   4.268   1.275   4.573  0.3627  0.0635 -0.3701
 4093SOL    HW123915   4.297   1.185   4.583  1.3802  0.5386  0.8594
 4093SOL    HW223916   4.261   1.275   4.477 -0.2117  0.1415 -0.3324
 4094SOL     OW23917   1.380   3.129   2.930  0.3527  0.2177 -0.3321
 4094SOL    HW123918   1.338   3.159   3.010  0.6762 -0.0422 -0.0653
 4094SOL    HW223919   1.339   3.192   2.870  0.8068 -0.6726 -1.5832
 4095SOL     OW23920   1.822   3.030   6.151  0.0617  0.1283  0.4802
 4095SOL    HW123921   1.747   3.028   6.211 -0.8076  1.8877 -0.5547
 4095SOL    HW223922   1.874   3.102   6.187 -0.1962 -0.5119  2.1606
 4096SOL     OW23923   0.382   2.529  10.307 -0.0840 -0.3642 -0.0413
 4096SOL    HW123924   0.309   2.553  10.363  0.8867  0.1744  0.9856
 4096SOL    HW223925   0.457   2.568  10.351 -0.1579 -2.4335  1.9413
 4097SOL     OW23926   0.497   3.996   8.282 -0.5713  0.3520  0.2668
 4097SOL    HW123927   0.544   3.912   8.282  0.2153  0.7803 -0.5661
 4097SOL    HW223928   0.452   3.978   8.199 -0.4627 -0.4798  0.3861
 4098SOL     OW23929   2.898   3.728  15.181 -0.0346 -0.4932  0.1102
 4098SOL    HW123930   2.832   3.797  15.181  0.2172 -0.2571  2.1119
 4098SOL    HW223931   2.853   3.644  15.173  0.5831 -1.0857  2.8703
 4099SOL     OW23932   2.197   2.359   2.449 -0.1881  0.2000  0.1713
 4099SOL    HW123933   2.284   2.334   2.417 -0.1118  0.1251  0.4294
 4099SOL    HW223934   2.141   2.330   2.378  1.1114 -0.9102 -0.4154
 4100SOL     OW23935   3.711   1.325   0.538 -0.1187 -0.4882  0.5601
 4100SOL    HW123936   3.735   1.248   0.589 -1.5441 -1.1353  0.2558
 4100SOL    HW223937   3.634   1.298   0.487  0.4561 -2.0072  0.4995
 4101SOL     OW23938   2.552   2.141   8.852 -0.6236  0.2341 -0.9439
 4101SOL    HW123939   2.600   2.114   8.930 -1.2940  1.4587 -0.1055
 4101SOL    HW223940   2.622   2.198   8.821  2.0398 -2.8448 -0.4721
 4102SOL     OW23941   2.940   4.578   2.352 -0.2766 -0.0108 -0.0019
 4102SOL    HW123942   2.947   4.482   2.352  2.5328  0.2021  0.0836
 4102SOL    HW223943   2.858   4.598   2.306  0.4509  2.0107 -0.3860
 4103SOL     OW23944   3.766   2.812   6.844  0.6428 -0.4383  0.9353
 4103SOL    HW123945   3.732   2.723   6.837  0.4866 -0.4260  1.5720
 4103SOL    HW223946   3.794   2.821   6.752  3.2292  3.4117  2.0790
 4104SOL     OW23947   4.272   1.060   2.361  0.6480  0.4087 -0.2412
 4104SOL    HW123948   4.278   0.966   2.376  1.2380  0.6280  0.8988
 4104SOL    HW223949   4.364   1.081   2.374  0.0452  2.3891  0.8740
 4105SOL     OW23950   2.045   2.565   3.537 -0.4610 -0.2717 -0.0951
 4105SOL    HW123951   2.011   2.514   3.610  0.4140  0.7785  1.0566
 4105SOL    HW223952   2.064   2.497   3.472  1.4296  0.6556 -0.5224
 4106SOL     OW23953   3.934   0.505   8.786  0.1241  0.5096 -0.2682
 4106SOL    HW123954   3.985   0.552   8.720 -0.5085  0.4929 -0.7635
 4106SOL    HW223955   3.886   0.574   8.832  1.6368  1.2879  0.1545
 4107SOL     OW23956   3.327   1.310   1.555  0.0374  0.5247 -0.1361
 4107SOL    HW123957   3.408   1.328   1.508 -1.1964  1.7232 -1.8148
 4107SOL    HW223958   3.361   1.310   1.644  0.8419 -1.6885 -0.4406
 4108SOL     OW23959   1.296   0.506  10.466  0.7584 -0.4636 -0.0551
 4108SOL    HW123960   1.373   0.490  10.410  0.5576 -1.0737 -0.1584
 4108SOL    HW223961   1.295   0.439  10.535  1.1177 -1.4278 -0.9808
 4109SOL     OW23962   1.900   2.751  16.807 -0.0489  0.3669 -0.0723
 4109SOL    HW123963   1.950   2.734  16.726  0.3611 -1.5660  0.5937
 4109SOL    HW223964   1.813   2.734  16.771  0.3510 -1.2827 -0.2836
 4110SOL     OW23965   1.595   3.144   8.141  0.2420 -0.0253 -0.2864
 4110SOL    HW123966   1.612   3.050   8.143  0.8412  0.0935  0.7184
 4110SOL    HW223967   1.676   3.177   8.181  0.0801  0.9266 -0.7354
 4111SOL     OW23968   3.082   2.552   9.734 -0.3920  0.5701  0.2109
 4111SOL    HW123969   2.998   2.520   9.767 -0.0730  0.4329  0.9027
 4111SOL    HW223970   3.056   2.634   9.692 -1.1040 -0.3525 -1.1193
 4112SOL     OW23971   3.176   3.224   7.686  0.1940  0.2675 -0.4349
 4112SOL    HW123972   3.259   3.181   7.667 -0.6110 -1.5794  0.2547
 4112SOL    HW223973   3.173   3.245   7.780  2.1793 -3.0441  0.3552
 4113SOL     OW23974   2.344   2.643  11.878 -0.2262  0.2050 -0.4438
 4113SOL    HW123975   2.252   2.669  11.882 -0.3504 -0.3713  0.5487
 4113SOL    HW223976   2.356   2.604  11.791 -0.7291  0.1506 -0.4914
 4114SOL     OW23977   3.394   3.317   2.519 -0.4211 -0.5017 -0.0814
 4114SOL    HW123978   3.435   3.231   2.513  1.9118  0.5926  0.3756
 4114SOL    HW223979   3.401   3.331   2.614  0.8900  0.9570 -0.4122
 4115SOL     OW23980   3.514   0.348  17.613  0.4651 -0.5852  0.3483
 4115SOL    HW123981   3.580   0.312  17.673  1.1072  0.7949  0.4979
 4115SOL    HW223982   3.560   0.354  17.530  0.2852  0.5860  0.3322
 4116SOL     OW23983   0.345   2.317   7.531  0.3940 -0.1819 -0.2352
 4116SOL    HW123984   0.345   2.413   7.521  1.6659  0.0606  2.0575
 4116SOL    HW223985   0.277   2.276   7.478  0.8724  1.0805 -1.8693
 4117SOL     OW23986   1.783   2.138   9.008  0.8526  0.0603  0.6970
 4117SOL    HW123987   1.747   2.175   9.088  1.1125  0.0162  0.8320
 4117SOL    HW223988   1.876   2.152   9.026  1.2559 -2.9848  0.8497
 4118SOL     OW23989   1.534   3.720   2.946  0.0983 -0.2560  0.0962
 4118SOL    HW123990   1.469   3.778   2.986  0.1732  0.3040 -0.6022
 4118SOL    HW223991   1.485   3.673   2.878 -1.7134  1.2576  0.3657
 4119SOL     OW23992   0.011   4.616   8.840  0.2872 -0.1291 -0.0493
 4119SOL    HW123993   0.078   4.675   8.806  0.4450  0.0010  0.4806
 4119SOL    HW223994   4.696   4.584   8.768 -0.1588 -0.7204  0.5471
 4120SOL     OW23995   3.100   1.265   8.800  0.5972 -0.0032  0.3539
 4120SOL    HW123996   3.156   1.206   8.851  0.2607  0.2439  1.0094
 4120SOL    HW223997   3.026   1.204   8.797  1.0844 -0.6676  1.7730
 4121SOL     OW23998   4.446   2.899   2.943  0.1149  0.0120 -0.1780
 4121SOL    HW123999   4.357   2.933   2.938  0.2506  0.5923  1.1664
 4121SOL    HW224000   4.418   2.812   2.973 -1.2319  0.0214 -1.3784
 4122SOL     OW24001   1.326   3.323   3.773 -0.0733 -0.3555  0.5924
 4122SOL    HW124002   1.374   3.397   3.737  0.1350 -0.5692  0.4313
 4122SOL    HW224003   1.392   3.282   3.829  1.2737 -1.5370 -1.8688
 4123SOL     OW24004   3.937   1.537   7.134 -0.2138  0.1589 -0.1879
 4123SOL    HW124005   3.911   1.604   7.197 -2.3574 -1.9575  1.1588
 4123SOL    HW224006   4.020   1.568   7.099  1.4772 -1.9969  1.9901
 4124SOL     OW24007   1.156   2.891   8.550 -0.2014  0.0294 -0.1450
 4124SOL    HW124008   1.162   2.953   8.477  0.8805 -1.4292 -1.2844
 4124SOL    HW224009   1.217   2.826   8.515  0.4979 -0.5852  2.2423
 4125SOL     OW24010   4.320   4.494   7.361  0.4033  0.0333  0.6979
 4125SOL    HW124011   4.341   4.569   7.417  1.5277 -0.6987  1.2567
 4125SOL    HW224012   4.394   4.440   7.387 -0.9117 -1.4255  1.3918
 4126SOL     OW24013   4.481   4.525  14.731  0.0242  0.3602 -0.1627
 4126SOL    HW124014   4.490   4.513  14.636  0.7323  3.6347 -0.5416
 4126SOL    HW224015   4.515   4.614  14.743  3.3027 -1.2327  2.4003
 4127SOL     OW24016   4.039   0.808   8.888 -0.4666 -0.2049 -0.1366
 4127SOL    HW124017   4.047   0.899   8.859 -2.3765  0.5600  1.7034
 4127SOL    HW224018   4.068   0.766   8.808  3.0733  1.0977  0.4611
 4128SOL     OW24019   2.650   4.730   8.148 -0.0788 -0.6892  0.6876
 4128SOL    HW124020   2.719   0.035   8.197  0.7207  0.4468 -1.4678
 4128SOL    HW224021   2.587   0.058   8.120  0.2178 -0.0697  1.5036
 4129SOL     OW24022   0.924   4.431   7.884 -0.1009 -0.1049 -0.0323
 4129SOL    HW124023   0.970   4.482   7.950 -2.5272 -0.6721  2.0839
 4129SOL    HW224024   0.918   4.486   7.806 -0.1953 -0.5909 -0.3707
 4130SOL     OW24025   0.243   4.007  15.262  0.1546  0.0283 -0.5375
 4130SOL    HW124026   0.229   4.021  15.355 -1.7390 -1.0669 -0.6682
 4130SOL    HW224027   0.306   3.936  15.251  2.1746  1.5631  1.2666
 4131SOL     OW24028   0.107   0.615   1.374 -0.1028  0.9904 -0.1368
 4131SOL    HW124029   0.068   0.633   1.288 -2.4623 -0.6607  0.5806
 4131SOL    HW224030   0.196   0.649   1.371  0.9717 -1.9924 -2.2835
 4132SOL     OW24031   3.313   3.095   5.555  0.0095  0.3074  0.0192
 4132SOL    HW124032   3.266   3.027   5.506  0.9226  0.3725 -0.9393
 4132SOL    HW224033   3.277   3.096   5.644 -1.9784  5.1522 -0.8512
 4133SOL     OW24034   2.552   0.701  11.470  0.4755  0.4045  0.1177
 4133SOL    HW124035   2.521   0.610  11.459  2.5772 -0.2102 -0.6760
 4133SOL    HW224036   2.502   0.723  11.549 -0.9254 -0.8713 -0.3991
 4134SOL     OW24037   2.709   2.417   3.928  0.0722  0.2786  0.6408
 4134SOL    HW124038   2.620   2.382   3.927 -0.0730  0.6776 -0.4844
 4134SOL    HW224039   2.765   2.347   3.894 -1.0613  0.2001 -1.0621
 4135SOL     OW24040   4.463   3.872   3.216  0.5385  0.0445 -0.1076
 4135SOL    HW124041   4.422   3.951   3.183 -0.3025  1.4278  4.2528
 4135SOL    HW224042   4.490   3.835   3.132 -0.4643 -1.0208  0.0348
 4136SOL     OW24043   0.507   2.886   5.639  0.1746 -0.1904 -0.5685
 4136SOL    HW124044   0.530   2.954   5.704  0.6131 -0.8964  0.0204
 4136SOL    HW224045   0.491   2.813   5.700 -0.8562  0.7375  0.2713
 4137SOL     OW24046   2.121   2.299   3.413 -0.4632 -0.2491  0.4362
 4137SOL    HW124047   2.145   2.256   3.495 -0.4813  0.2499  0.7031
 4137SOL    HW224048   2.131   2.221   3.359  0.8378  0.9965 -1.1359
 4138SOL     OW24049   3.450   3.998   5.018 -0.4804  0.1394  0.4704
 4138SOL    HW124050   3.444   4.061   5.089 -0.2969  0.7755 -0.0834
 4138SOL    HW224051   3.542   4.004   4.992 -0.6125 -1.8623 -0.5206
 4139SOL     OW24052   3.503   3.635   2.625  0.2966 -0.5424  0.3609
 4139SOL    HW124053   3.574   3.696   2.605  0.0630 -0.9468 -1.7164
 4139SOL    HW224054   3.553   3.560   2.658  1.3744  0.9783  2.1588
 4140SOL     OW24055   2.389   2.760  14.884  0.2130  0.5860 -0.4400
 4140SOL    HW124056   2.344   2.835  14.843 -2.1294 -0.1414  0.8045
 4140SOL    HW224057   2.399   2.694  14.815  2.1966 -0.5459  0.9477
 4141SOL     OW24058   1.664   1.466  14.235 -0.1357 -0.2719  0.8603
 4141SOL    HW124059   1.735   1.528  14.216  0.7707 -1.3037  0.8729
 4141SOL    HW224060   1.623   1.433  14.155 -1.1982 -0.2165  1.3903
 4142SOL     OW24061   1.013   4.197   6.214  0.5598  0.0058  0.3754
 4142SOL    HW124062   1.064   4.120   6.239 -2.1920 -1.9670 -0.0923
 4142SOL    HW224063   1.022   4.204   6.119 -2.0492 -0.0014  0.1121
 4143SOL     OW24064   2.642   0.550   9.118  1.1275  0.0301 -0.3263
 4143SOL    HW124065   2.601   0.637   9.117 -1.0915 -1.0110 -0.7349
 4143SOL    HW224066   2.563   0.496   9.118 -0.2198  1.9916 -1.9072
 4144SOL     OW24067   3.059   4.338  12.858  1.0445  0.0434  0.7586
 4144SOL    HW124068   2.990   4.337  12.924 -1.4454 -0.8021 -1.8404
 4144SOL    HW224069   3.139   4.339  12.911  0.0660  1.6805  2.1764
 4145SOL     OW24070   4.702   2.718   6.467  0.1471 -0.2072 -0.1135
 4145SOL    HW124071   4.606   2.716   6.473  0.3504  0.0013  2.8973
 4145SOL    HW224072   4.713   2.767   6.386  0.6051 -1.1250 -0.6062
 4146SOL     OW24073   0.058   2.830   6.197 -0.0718  0.2051  0.1818
 4146SOL    HW124074   0.027   2.906   6.148 -1.8237  0.0254  0.9995
 4146SOL    HW224075   0.152   2.823   6.180 -0.2161 -1.3985  0.0769
 4147SOL     OW24076   2.794   3.487   8.994 -0.2282  0.0104  0.0832
 4147SOL    HW124077   2.767   3.556   9.055 -2.9934  1.0412 -2.3467
 4147SOL    HW224078   2.877   3.522   8.963 -0.0395 -0.8371 -0.3767
 4148SOL     OW24079   0.429   0.308   0.935 -0.4314 -0.3600 -0.4880
 4148SOL    HW124080   0.404   0.377   0.875 -1.2682  1.2804  1.7278
 4148SOL    HW224081   0.445   0.232   0.879 -2.3838 -2.0522  1.1915
 4149SOL     OW24082   1.421   3.006  14.993 -0.2691  0.1923 -0.7549
 4149SOL    HW124083   1.348   2.957  15.030  0.2989  0.1347  0.2831
 4149SOL    HW224084   1.456   2.955  14.920 -2.0523  0.6798 -1.9461
 4150SOL     OW24085   0.892   0.220   9.830  0.1326 -0.1767 -0.5157
 4150SOL    HW124086   0.971   0.221   9.776 -0.3759 -0.1801 -1.2516
 4150SOL    HW224087   0.834   0.274   9.777 -0.1004  0.0631 -0.0204
 4151SOL     OW24088   4.731   4.190   2.598  0.4605  0.2323  0.0854
 4151SOL    HW124089   4.709   4.176   2.690  1.5275  0.2352  0.3421
 4151SOL    HW224090   4.729   4.285   2.582  1.7318  0.0562 -1.1284
 4152SOL     OW24091   4.190   2.905  13.263 -0.3270 -0.4021 -0.7135
 4152SOL    HW124092   4.164   2.823  13.221  0.3046 -0.5175 -0.8810
 4152SOL    HW224093   4.173   2.884  13.355  0.2078  1.7959 -0.1046
 4153SOL     OW24094   3.637   3.585   5.618  0.5039  0.2321 -0.2837
 4153SOL    HW124095   3.627   3.546   5.531 -2.2497  2.5592 -0.9874
 4153SOL    HW224096   3.554   3.623   5.643 -0.3726 -1.3772 -0.7370
 4154SOL     OW24097   1.749   1.310  13.734 -0.0184 -0.5718  0.1714
 4154SOL    HW124098   1.693   1.355  13.670 -1.2545 -1.5033  0.5912
 4154SOL    HW224099   1.816   1.261  13.687 -0.0961 -2.0775  1.6075
 4155SOL     OW24100   3.306   4.340   6.734  0.3634 -0.3683  0.0572
 4155SOL    HW124101   3.287   4.384   6.651  0.5637 -1.9162 -0.8038
 4155SOL    HW224102   3.293   4.251   6.702  0.2977  0.0241 -1.0085
 4156SOL     OW24103   3.271   3.558   7.921  0.2333 -0.1995 -0.6988
 4156SOL    HW124104   3.319   3.478   7.899  0.5213  0.1908 -1.4794
 4156SOL    HW224105   3.300   3.623   7.857  1.3336 -1.9021 -1.9250
 4157SOL     OW24106   4.595   2.231   3.598 -0.4177  0.0246  0.4860
 4157SOL    HW124107   4.569   2.139   3.587 -1.6071  0.6539 -1.8388
 4157SOL    HW224108   4.509   2.265   3.619 -0.0999  0.3223  1.3236
 4158SOL     OW24109   3.607   4.112   8.489 -0.0814 -0.5437 -0.1350
 4158SOL    HW124110   3.643   4.116   8.578 -0.5758  0.6007  0.0140
 4158SOL    HW224111   3.627   4.019   8.476  1.2653 -0.3132  0.2727
 4159SOL     OW24112   3.475   3.302   6.923 -0.0362 -0.9351 -0.3407
 4159SOL    HW124113   3.392   3.265   6.954 -1.4656  2.4018 -0.1562
 4159SOL    HW224114   3.540   3.276   6.988  2.2169  0.8199 -1.9136
 4160SOL     OW24115   2.891   3.288  10.198  0.4169  0.6697  0.6083
 4160SOL    HW124116   2.943   3.283  10.278 -0.7685  0.7501  1.3845
 4160SOL    HW224117   2.809   3.318  10.237 -0.9577 -1.0319 -0.9969
 4161SOL     OW24118   2.699   0.895   7.830 -0.0800 -0.8548  0.6399
 4161SOL    HW124119   2.694   0.990   7.819 -0.7619 -1.1703 -1.8705
 4161SOL    HW224120   2.660   0.868   7.747  1.4725  0.1578 -0.4207
 4162SOL     OW24121   0.583   1.061   6.226  0.0324 -1.0122  0.3784
 4162SOL    HW124122   0.556   1.150   6.246  0.3670 -0.8759  0.2232
 4162SOL    HW224123   0.509   1.008   6.257 -2.1331  1.3275 -0.7897
 4163SOL     OW24124   2.143   0.909   6.990  0.1060 -0.4254  0.1848
 4163SOL    HW124125   2.166   0.957   6.911 -1.6776 -1.6344 -1.0899
 4163SOL    HW224126   2.181   0.963   7.059 -0.2676 -1.1316  0.9546
 4164SOL     OW24127   2.906   2.605  11.213 -0.2122  0.3569 -0.9885
 4164SOL    HW124128   2.905   2.699  11.197 -1.5041  0.2186 -1.6754
 4164SOL    HW224129   2.987   2.601  11.264 -2.2423 -1.6418  2.0648
 4165SOL     OW24130   4.210   3.838   4.948 -0.1079 -0.1983 -0.8025
 4165SOL    HW124131   4.273   3.797   4.889 -0.9119 -0.3411 -1.5718
 4165SOL    HW224132   4.258   3.813   5.027 -0.7065 -0.0297 -0.3864
 4166SOL     OW24133   3.687   3.020  10.005 -0.0795  0.1767 -0.1734
 4166SOL    HW124134   3.600   2.993  10.031  0.4696 -1.2711  0.1726
 4166SOL    HW224135   3.692   3.101  10.056  2.8321 -0.3437  0.4100
 4167SOL     OW24136   2.339   4.248   3.456 -0.1275  0.0505 -0.2681
 4167SOL    HW124137   2.381   4.313   3.399 -1.1878 -0.4844 -1.6464
 4167SOL    HW224138   2.408   4.235   3.522  0.5570 -1.3587 -1.2737
 4168SOL     OW24139   1.389   1.827   4.437  0.3307 -0.2012  0.2885
 4168SOL    HW124140   1.425   1.807   4.351  0.0949 -2.1149  0.6446
 4168SOL    HW224141   1.341   1.909   4.423 -0.2708 -1.1460 -3.0987
 4169SOL     OW24142   4.672   1.282   0.724 -0.4670 -0.2886  0.2003
 4169SOL    HW124143   4.602   1.251   0.781 -1.3089 -2.9152 -2.2382
 4169SOL    HW224144   4.705   1.359   0.769  2.7198 -2.6155  1.8525
 4170SOL     OW24145   4.339   1.222  10.322 -0.0885  0.1848 -0.0604
 4170SOL    HW124146   4.382   1.140  10.345  1.7770  1.0133 -0.4950
 4170SOL    HW224147   4.254   1.206  10.361  0.0492 -2.4193 -0.8497
 4171SOL     OW24148   0.871   3.753  11.868 -0.3207  0.3108  0.2631
 4171SOL    HW124149   0.882   3.775  11.960  1.5139 -0.9944  0.3441
 4171SOL    HW224150   0.952   3.706  11.850 -1.4000 -1.3722 -0.1362
 4172SOL     OW24151   1.142   4.709   7.785  0.0441  0.0363 -0.4649
 4172SOL    HW124152   1.119   4.672   7.870 -0.1988  1.3681  0.0604
 4172SOL    HW224153   1.206   0.036   7.814 -0.8359  0.1035  1.3437
 4173SOL     OW24154   2.794   2.458   6.530 -0.5242 -0.3182  0.6526
 4173SOL    HW124155   2.799   2.543   6.574  0.3294 -1.3576  2.5663
 4173SOL    HW224156   2.823   2.399   6.600 -2.1917  0.5135  2.0646
 4174SOL     OW24157   3.797   3.436   1.052  0.0721  0.0710  0.0405
 4174SOL    HW124158   3.815   3.513   0.998 -0.9610  0.4555  0.2556
 4174SOL    HW224159   3.876   3.446   1.106 -0.7095  1.3247  0.9404
 4175SOL     OW24160   3.957   2.983  13.626 -0.5500  0.2287 -0.5635
 4175SOL    HW124161   3.941   3.076  13.616 -2.3554  0.0922  1.0493
 4175SOL    HW224162   4.050   2.984  13.650 -0.8590  0.9934  0.5907
 4176SOL     OW24163   1.409   2.136   8.790 -0.3100  0.1350  0.1649
 4176SOL    HW124164   1.372   2.123   8.877  0.8972 -1.9271  0.3651
 4176SOL    HW224165   1.396   2.052   8.747  3.0326 -0.4172  0.2789
 4177SOL     OW24166   4.489   3.969   3.503  0.3108  0.1323  0.4503
 4177SOL    HW124167   4.508   4.062   3.511 -0.4669  0.1705  1.9322
 4177SOL    HW224168   4.496   3.961   3.408  1.9733  0.2595  0.5556
 4178SOL     OW24169   0.971   3.563   5.519  0.1049 -0.4876 -0.3682
 4178SOL    HW124170   0.967   3.659   5.520  0.2755 -0.4744 -1.7306
 4178SOL    HW224171   1.060   3.552   5.552  0.8421  0.8105 -1.9121
 4179SOL     OW24172   2.584   3.225   5.204 -0.1026  0.3509  0.2873
 4179SOL    HW124173   2.549   3.161   5.142 -2.1115  1.7670 -0.0525
 4179SOL    HW224174   2.616   3.168   5.274  1.7090  2.3464  1.0866
 4180SOL     OW24175   1.654   3.126   4.334 -0.0729  0.0471 -0.2898
 4180SOL    HW124176   1.624   3.049   4.382  1.1789 -0.0890  0.2648
 4180SOL    HW224177   1.658   3.198   4.398 -0.6406  1.2447 -1.6016
 4181SOL     OW24178   3.191   3.898   1.690 -0.2329 -0.2575 -0.3286
 4181SOL    HW124179   3.222   3.954   1.761  0.3293  0.2664 -0.9876
 4181SOL    HW224180   3.114   3.860   1.732 -0.0205 -0.7776 -0.4071
 4182SOL     OW24181   4.010   2.667   6.109 -0.4452 -0.1447  0.1497
 4182SOL    HW124182   4.060   2.722   6.049 -0.3277 -1.3982 -0.9127
 4182SOL    HW224183   3.958   2.609   6.053 -0.9722  1.5704 -1.1159
 4183SOL     OW24184   0.113   0.058  11.671  0.3046 -0.3799  0.8019
 4183SOL    HW124185   0.150   0.083  11.586  1.0743  2.6706  2.0345
 4183SOL    HW224186   0.113   0.141  11.719  4.4947 -0.4585  0.9620
 4184SOL     OW24187   0.460   1.622   4.943  0.2895  0.0727  0.0125
 4184SOL    HW124188   0.480   1.713   4.919  0.6652  0.0257  0.1556
 4184SOL    HW224189   0.541   1.601   4.988 -0.2899 -1.9390  0.1227
 4185SOL     OW24190   1.029   2.319   5.851 -0.5685 -0.0083  1.0697
 4185SOL    HW124191   1.047   2.244   5.908 -1.2574 -2.1742 -1.6073
 4185SOL    HW224192   0.971   2.364   5.912 -1.2982  0.0774  0.3110
 4186SOL     OW24193   0.665   1.684   7.081  0.2834 -0.4661 -0.1368
 4186SOL    HW124194   0.698   1.728   7.160 -0.5324  1.3342 -0.8056
 4186SOL    HW224195   0.745   1.681   7.028  0.6162 -0.5298  0.3605
 4187SOL     OW24196   4.303   3.116   4.394  0.2215  0.3888 -0.1523
 4187SOL    HW124197   4.247   3.120   4.471 -0.4173  1.9186 -0.7019
 4187SOL    HW224198   4.390   3.142   4.424  0.2284  0.4435 -0.2186
 4188SOL     OW24199   3.698   3.517   5.132 -0.0229 -0.1204 -0.0057
 4188SOL    HW124200   3.629   3.492   5.071  0.2723 -1.3739  0.1563
 4188SOL    HW224201   3.700   3.612   5.143  0.1923  0.0406 -1.3846
 4189SOL     OW24202   1.398   3.877   7.801 -1.0237 -0.1600  0.2187
 4189SOL    HW124203   1.437   3.912   7.721  0.1989 -0.3320  0.7478
 4189SOL    HW224204   1.481   3.859   7.845 -0.0388  0.7658 -1.2512
 4190SOL     OW24205   1.279   1.432   6.008  0.4732 -0.2533 -0.0944
 4190SOL    HW124206   1.237   1.349   6.029 -1.1628  0.5932  0.0314
 4190SOL    HW224207   1.373   1.421   6.020  0.4428 -1.3510 -0.8695
 4191SOL     OW24208   4.265   0.240   6.932 -0.2544  0.2305 -0.1491
 4191SOL    HW124209   4.318   0.251   7.010  2.3644 -0.6031 -1.8066
 4191SOL    HW224210   4.327   0.203   6.869 -1.8580 -2.8617  0.0482
 4192SOL     OW24211   1.916   3.507   5.760 -0.1766 -0.1429 -0.2892
 4192SOL    HW124212   1.848   3.540   5.701 -0.2438 -1.3710 -0.9129
 4192SOL    HW224213   1.881   3.525   5.847 -0.7021  0.7413 -0.6867
 4193SOL     OW24214   1.751   1.473  17.042  0.0363 -0.3712  0.4208
 4193SOL    HW124215   1.701   1.396  17.013  1.4549 -1.4687  0.8901
 4193SOL    HW224216   1.763   1.509  16.955 -0.9781  0.6818  0.7261
 4194SOL     OW24217   3.101   3.477   4.492 -0.4421 -0.3516 -0.5361
 4194SOL    HW124218   3.057   3.500   4.574 -1.0064  1.8191 -1.4603
 4194SOL    HW224219   3.170   3.419   4.524  0.9665  1.8462  0.3353
 4195SOL     OW24220   4.279   4.227   4.905 -0.4574 -0.2869 -0.1213
 4195SOL    HW124221   4.213   4.173   4.862 -0.8064  1.4391 -1.7234
 4195SOL    HW224222   4.361   4.212   4.857 -0.5103  2.7404 -1.1191
 4196SOL     OW24223   1.914   1.238   7.636  0.4617 -0.2007 -0.4324
 4196SOL    HW124224   1.909   1.332   7.617  1.0497 -0.2256 -0.7063
 4196SOL    HW224225   1.955   1.240   7.722 -0.0875  1.7657 -0.2182
 4197SOL     OW24226   0.996   0.237  17.593 -0.2256  0.2867  0.0223
 4197SOL    HW124227   0.968   0.302  17.528 -1.2235 -1.1773 -0.9933
 4197SOL    HW224228   0.934   0.166  17.576  0.9226 -0.0923 -2.6359
 4198SOL     OW24229   4.216   0.045  17.525 -0.0715 -0.3087  0.1350
 4198SOL    HW124230   4.206   0.134  17.559  1.6898 -0.9858  2.3993
 4198SOL    HW224231   4.275   0.004  17.589 -0.1320  0.1816  0.5036
 4199SOL     OW24232   2.624   2.423   5.663 -0.4694 -0.2824 -0.0098
 4199SOL    HW124233   2.617   2.505   5.613 -0.9185 -0.1973  0.1920
 4199SOL    HW224234   2.542   2.434   5.711  0.0669 -1.1180  1.0785
 4200SOL     OW24235   2.282   3.167   4.491  0.1074  0.2020 -0.3833
 4200SOL    HW124236   2.321   3.084   4.464 -0.9860 -0.0903 -1.0653
 4200SOL    HW224237   2.357   3.225   4.480 -0.5573  1.0997 -0.2468
 4201SOL     OW24238   3.101   4.194   6.929  0.2674 -0.2375  0.0252
 4201SOL    HW124239   3.065   4.149   6.853 -0.4987 -1.5099  1.1433
 4201SOL    HW224240   3.160   4.256   6.886 -2.6896  1.7100 -1.2407
 4202SOL     OW24241   3.827   3.511   2.162 -0.2971 -0.2631 -0.0611
 4202SOL    HW124242   3.875   3.570   2.104 -1.1510 -1.2781 -1.8190
 4202SOL    HW224243   3.859   3.426   2.130 -1.4320 -0.5140 -0.5501
 4203SOL     OW24244   4.129   4.201   9.171  0.1397  0.4722 -0.2026
 4203SOL    HW124245   4.179   4.206   9.253  1.7847 -0.2408 -1.1714
 4203SOL    HW224246   4.208   4.212   9.119  0.0753 -1.2216 -0.6765
 4204SOL     OW24247   3.448   0.013   3.902  0.1919 -0.2313 -0.4539
 4204SOL    HW124248   3.523   4.725   3.848  2.0061  2.5559  0.6972
 4204SOL    HW224249   3.394   4.674   3.890  1.5290 -1.2566  0.1522
 4205SOL     OW24250   1.453   4.685   3.399 -0.6882 -0.4393  0.1445
 4205SOL    HW124251   1.489   0.016   3.453 -1.4177 -1.2087  1.6297
 4205SOL    HW224252   1.531   4.642   3.363 -0.5501 -1.0709  1.1942
 4206SOL     OW24253   2.195   0.945  10.303 -0.4085 -0.3784  0.2840
 4206SOL    HW124254   2.201   0.908  10.214 -0.7076  3.7167 -1.4378
 4206SOL    HW224255   2.157   1.030  10.280  0.5737  0.0321  0.1878
 4207SOL     OW24256   1.290   0.155   2.596 -0.9927  0.7867  0.3879
 4207SOL    HW124257   1.256   0.154   2.506  0.7305  2.4933 -0.2741
 4207SOL    HW224258   1.338   0.072   2.603 -1.4955  0.1984 -3.1991
 4208SOL     OW24259   0.562   2.372   3.419 -0.4264  0.0960 -0.1794
 4208SOL    HW124260   0.643   2.396   3.374 -1.3554  2.2429 -0.7198
 4208SOL    HW224261   0.578   2.280   3.399  0.8678  0.1559  0.6052
 4209SOL     OW24262   4.118   0.382   5.574  0.0071  0.1786  0.5383
 4209SOL    HW124263   4.154   0.426   5.651 -3.0274  0.4120  1.8707
 4209SOL    HW224264   4.047   0.445   5.562 -1.9205 -1.8845  1.0517
 4210SOL     OW24265   0.063   0.096  15.345 -0.7718  0.1020  0.0857
 4210SOL    HW124266   0.131   0.148  15.302 -0.3674  0.2870  0.9468
 4210SOL    HW224267   0.008   0.070  15.271  1.2233 -2.2544 -0.5687
 4211SOL     OW24268   2.405   1.104  10.587  0.6291  0.1745  0.1104
 4211SOL    HW124269   2.334   1.042  10.598  1.0694  0.1641  2.9134
 4211SOL    HW224270   2.454   1.071  10.663  0.9828  0.7114  0.1222
 4212SOL     OW24271   0.698   2.073   8.507  0.6843  0.3387 -0.2496
 4212SOL    HW124272   0.742   2.035   8.583 -0.5990 -0.6657  0.0149
 4212SOL    HW224273   0.772   2.070   8.447  1.2076  0.0252  0.4200
 4213SOL     OW24274   4.587   1.664   1.466  0.4373  0.5334  0.2500
 4213SOL    HW124275   4.616   1.611   1.391 -1.7693 -1.1260  0.5470
 4213SOL    HW224276   4.613   1.602   1.535  0.0450  0.4855  0.3540
 4214SOL     OW24277   0.707   4.636   4.316 -0.2927 -0.1398 -0.1115
 4214SOL    HW124278   0.625   4.593   4.293 -1.5995  1.8320  0.8854
 4214SOL    HW224279   0.693   4.651   4.409  1.6614 -1.7569  0.4549
 4215SOL     OW24280   3.655   3.542  11.754  0.5326 -0.1753 -0.0216
 4215SOL    HW124281   3.700   3.547  11.838  0.1490 -1.1080  0.2321
 4215SOL    HW224282   3.673   3.451  11.732  0.7529  0.1854 -1.3459
 4216SOL     OW24283   3.979   1.078   1.954  0.5530 -0.0804 -0.1259
 4216SOL    HW124284   4.059   1.086   2.006 -0.1784  0.5660  0.8914
 4216SOL    HW224285   3.963   1.163   1.914 -1.6397 -0.4763 -0.1130
 4217SOL     OW24286   1.491   2.045   6.729 -0.4268  0.7229  0.1840
 4217SOL    HW124287   1.451   2.077   6.809  1.3486  1.0828  0.9211
 4217SOL    HW224288   1.578   2.040   6.768  0.1165 -1.6707 -1.2874
 4218SOL     OW24289   2.832   3.467   3.743  0.2760  0.0409 -0.1514
 4218SOL    HW124290   2.792   3.533   3.686 -1.7056 -0.7550  0.3387
 4218SOL    HW224291   2.757   3.408   3.744  0.3938 -0.0625  3.5993
 4219SOL     OW24292   1.302   3.899   1.694  0.2279  0.1630  0.7357
 4219SOL    HW124293   1.225   3.951   1.713  0.5301  1.3384 -1.2298
 4219SOL    HW224294   1.312   3.850   1.776  2.1602 -0.2415  0.2665
 4220SOL     OW24295   0.479   2.137   9.062 -0.2632 -0.3829  0.1281
 4220SOL    HW124296   0.436   2.202   9.117  1.5595  0.8609  0.0939
 4220SOL    HW224297   0.481   2.188   8.981 -2.0857  0.1805  0.4441
 4221SOL     OW24298   0.036   3.846   4.885  0.3091  0.0343 -0.3198
 4221SOL    HW124299   0.123   3.859   4.849  0.1453 -0.8306 -1.0392
 4221SOL    HW224300   4.715   3.898   4.831  1.9218 -0.6386 -2.7290
 4222SOL     OW24301   3.489   0.350   6.740  0.5157  0.1632  0.3573
 4222SOL    HW124302   3.517   0.259   6.732 -0.8944 -0.1626 -1.0019
 4222SOL    HW224303   3.414   0.356   6.680 -1.2653  0.0799  2.5738
 4223SOL     OW24304   0.292   1.771   3.306 -0.3167  0.6608 -0.3105
 4223SOL    HW124305   0.319   1.806   3.220  2.0412  3.3752  1.5107
 4223SOL    HW224306   0.244   1.695   3.273 -1.4830  1.5490 -0.6364
 4224SOL     OW24307   4.592   3.574   2.671  0.3840 -1.0795 -0.0131
 4224SOL    HW124308   4.544   3.518   2.732 -2.2405 -0.1312 -1.1793
 4224SOL    HW224309   4.557   3.534   2.591  0.6663  0.3788 -0.8672
 4225SOL     OW24310   4.259   0.030   0.189  0.6130 -0.7045 -0.1119
 4225SOL    HW124311   4.239   0.114   0.149 -0.9883 -0.4995  1.1236
 4225SOL    HW224312   4.278   4.709   0.116 -0.7708 -0.2618 -0.8398
 4226SOL     OW24313   2.815   4.109   8.777  0.3320 -0.0788 -0.3185
 4226SOL    HW124314   2.840   4.089   8.687 -3.4163  0.0882 -1.3669
 4226SOL    HW224315   2.723   4.110   8.753  0.0461 -0.4220  0.7374
 4227SOL     OW24316   0.728   1.033  15.073  0.1091 -1.1500 -0.1284
 4227SOL    HW124317   0.681   1.008  15.153  3.0781  1.6620  2.5077
 4227SOL    HW224318   0.671   0.988  15.011  0.0222 -0.6442 -0.4169
 4228SOL     OW24319   2.933   4.615  10.342  0.2823  0.4919  0.3983
 4228SOL    HW124320   2.859   4.625  10.281  2.4857 -2.3184 -2.7423
 4228SOL    HW224321   2.918   4.682  10.409  0.4551  0.1378  0.7926
 4229SOL     OW24322   1.312   4.279  16.683 -0.7898  0.6708  0.1808
 4229SOL    HW124323   1.267   4.225  16.748  0.0455 -2.9977 -2.2571
 4229SOL    HW224324   1.362   4.219  16.628 -1.9219 -1.7562  1.8089
 4230SOL     OW24325   0.064   3.324   9.009  0.1725  0.7152 -0.4081
 4230SOL    HW124326   0.159   3.334   8.997  0.0292 -0.0961 -2.3122
 4230SOL    HW224327   0.062   3.231   9.029 -0.1324  0.6009 -0.9655
 4231SOL     OW24328   3.156   0.465  13.954  1.2910 -0.0978  0.5819
 4231SOL    HW124329   3.070   0.505  13.957  0.9623 -0.7845  0.4395
 4231SOL    HW224330   3.146   0.426  13.867  0.2808  0.1647  0.5835
 4232SOL     OW24331   2.136   2.177   3.710 -0.0948 -0.0609 -0.5299
 4232SOL    HW124332   2.215   2.139   3.671 -0.6735  0.6026 -2.3391
 4232SOL    HW224333   2.162   2.178   3.802  1.9261  0.8929 -1.1088
 4233SOL     OW24334   2.944   2.228  10.806 -0.5526 -0.7584 -0.3714
 4233SOL    HW124335   3.025   2.204  10.850 -0.6504 -0.3449  0.0385
 4233SOL    HW224336   2.916   2.307  10.853  4.4850 -0.5060  2.1573
 4234SOL     OW24337   3.694   2.183   8.381  0.2369  0.0929 -0.4717
 4234SOL    HW124338   3.654   2.227   8.456 -2.3255 -0.7199 -1.3596
 4234SOL    HW224339   3.632   2.112   8.362 -1.3581  1.9318 -2.1070
 4235SOL     OW24340   1.201   0.059   5.404  0.0540 -0.2323  0.0596
 4235SOL    HW124341   1.183   0.099   5.489  0.6229 -1.0376  0.5628
 4235SOL    HW224342   1.172   0.126   5.343  1.5567  0.3343 -0.0247
 4236SOL     OW24343   1.084   1.562   5.882  0.4526 -0.0090  0.4904
 4236SOL    HW124344   1.051   1.486   5.833 -0.9671  0.2427  1.0381
 4236SOL    HW224345   1.163   1.527   5.921  0.4270 -2.8644 -2.0303
 4237SOL     OW24346   4.633   0.310   2.757 -0.1448 -0.0990 -0.2788
 4237SOL    HW124347   4.632   0.343   2.847 -0.5726 -2.3817  0.5673
 4237SOL    HW224348   4.689   0.233   2.770 -0.7766 -0.3937  0.7304
 4238SOL     OW24349   3.498   4.262   5.952 -0.3104 -0.4143  0.2682
 4238SOL    HW124350   3.568   4.324   5.930  0.6747 -0.9780  1.7729
 4238SOL    HW224351   3.550   4.198   6.001  1.3016 -1.5442 -2.8973
 4239SOL     OW24352   0.675   1.074   4.821  1.0605 -0.6713  0.1957
 4239SOL    HW124353   0.610   1.135   4.786  1.9372  1.3895  2.1693
 4239SOL    HW224354   0.742   1.131   4.858  0.1516  0.9852 -0.7281
 4240SOL     OW24355   3.696   0.778   9.226 -0.1670  0.3371 -0.4980
 4240SOL    HW124356   3.677   0.852   9.284  1.0688  1.3298 -1.3599
 4240SOL    HW224357   3.781   0.809   9.197  0.4029 -1.2281 -0.4930
 4241SOL     OW24358   2.289   1.931  14.349 -0.2784 -0.3332 -0.0719
 4241SOL    HW124359   2.372   1.924  14.396  0.2353  2.8614 -0.4950
 4241SOL    HW224360   2.253   1.843  14.357 -1.0194  0.0517  1.0056
 4242SOL     OW24361   3.638   2.137   4.160  0.2187 -0.6078 -0.2284
 4242SOL    HW124362   3.635   2.109   4.068 -2.5250  0.0226 -0.3283
 4242SOL    HW224363   3.613   2.053   4.198 -1.9677  1.1774  2.2651
 4243SOL     OW24364   0.664   0.036   1.570  0.4707  0.6139  0.1114
 4243SOL    HW124365   0.611   0.042   1.650 -3.0096 -0.0079 -2.1145
 4243SOL    HW224366   0.618   4.700   1.530 -0.1770 -0.2674  2.5003
 4244SOL     OW24367   0.952   2.506  10.108 -0.8341 -0.0361  0.0371
 4244SOL    HW124368   1.024   2.533  10.166 -0.8190 -1.0341  0.4734
 4244SOL    HW224369   0.874   2.512  10.163 -1.0328  0.0975 -0.2604
 4245SOL     OW24370   4.176   0.330  11.444 -0.0412 -0.1244 -0.7576
 4245SOL    HW124371   4.201   0.378  11.523 -0.6969 -0.4976 -0.3200
 4245SOL    HW224372   4.145   0.249  11.485  3.8727 -1.8593 -1.2342
 4246SOL     OW24373   2.153   4.702   8.142 -0.2313 -0.2819 -0.1379
 4246SOL    HW124374   2.082   0.009   8.188  0.9982 -0.2019  1.6514
 4246SOL    HW224375   2.223   0.028   8.144 -1.7709  1.4664 -1.6727
 4247SOL     OW24376   1.679   4.568   7.697  0.2756  0.1734 -0.1320
 4247SOL    HW124377   1.694   4.624   7.621  0.5412 -0.1092 -0.2893
 4247SOL    HW224378   1.651   4.492   7.646 -0.8583  1.3371 -1.2491
 4248SOL     OW24379   0.738   3.296   8.478  0.2826  0.3414 -0.3057
 4248SOL    HW124380   0.761   3.289   8.385  1.1093 -0.3626 -0.0538
 4248SOL    HW224381   0.788   3.223   8.515 -0.9554 -0.3294  0.0456
 4249SOL     OW24382   3.874   0.218   6.331 -0.0322 -0.4985  0.1823
 4249SOL    HW124383   3.824   0.143   6.297 -2.2365  0.9805  0.1603
 4249SOL    HW224384   3.868   0.212   6.427 -2.4881 -3.8681 -0.1948
 4250SOL     OW24385   4.365   1.391   7.251 -0.4746 -0.2077 -0.9313
 4250SOL    HW124386   4.313   1.351   7.182 -0.5373 -1.2589 -0.2730
 4250SOL    HW224387   4.432   1.442   7.205 -1.5164 -0.1747 -2.4029
 4251SOL     OW24388   0.477   4.304  16.608 -0.3169  0.2260  0.0705
 4251SOL    HW124389   0.472   4.346  16.522 -2.8909 -0.3096 -0.0409
 4251SOL    HW224390   0.531   4.228  16.585 -2.2195 -1.3481  0.8013
 4252SOL     OW24391   0.091   1.607   9.421  0.4434 -0.8008  0.0498
 4252SOL    HW124392   0.091   1.512   9.413 -0.5316 -0.7766 -0.2877
 4252SOL    HW224393   0.101   1.643   9.332 -0.7283 -0.9196 -0.1312
 4253SOL     OW24394   4.378   3.224   0.798  0.1238  0.4959 -0.0854
 4253SOL    HW124395   4.457   3.184   0.834  0.2645 -0.2811 -1.2592
 4253SOL    HW224396   4.421   3.305   0.769  2.4445 -0.3109  1.1217
 4254SOL     OW24397   2.215   2.738   2.356 -0.2438 -0.1960 -0.1890
 4254SOL    HW124398   2.297   2.787   2.347 -0.6832  0.5272 -0.2726
 4254SOL    HW224399   2.230   2.671   2.289  2.1961  0.3039 -0.1517
 4255SOL     OW24400   2.247   2.411   9.998  0.3880 -0.2439  0.2207
 4255SOL    HW124401   2.314   2.411   9.930  1.2159  3.5701  1.0093
 4255SOL    HW224402   2.236   2.318  10.017 -1.4296  0.3070  1.8804
 4256SOL     OW24403   4.648   4.688  11.038  0.1474 -0.0930  0.5326
 4256SOL    HW124404   4.677   0.017  10.977 -2.2648  0.2970 -0.1884
 4256SOL    HW224405   4.674   4.612  10.986 -1.7679 -1.0433  0.9563
 4257SOL     OW24406   0.566   4.411   9.150  0.0235 -0.1887 -0.3523
 4257SOL    HW124407   0.607   4.383   9.232 -0.4443 -0.9560 -0.3741
 4257SOL    HW224408   0.607   4.354   9.085 -0.6230 -0.1153 -0.8281
 4258SOL     OW24409   1.513   3.051   2.495  0.1667  0.0509  0.3742
 4258SOL    HW124410   1.501   3.142   2.467 -0.6631 -0.2170 -0.1074
 4258SOL    HW224411   1.590   3.051   2.553  0.7798  0.8805 -0.4445
 4259SOL     OW24412   0.748   1.781   5.526 -0.4225 -0.1027  0.3292
 4259SOL    HW124413   0.690   1.706   5.512 -0.7730  0.5918 -1.9693
 4259SOL    HW224414   0.687   1.850   5.551  0.1312  1.2751 -2.0747
 4260SOL     OW24415   2.919   2.394  14.213  0.6999 -0.3291 -0.5634
 4260SOL    HW124416   2.959   2.329  14.271  0.3781  0.4958  0.5739
 4260SOL    HW224417   2.828   2.392  14.243  1.3235 -2.1049  1.2186
 4261SOL     OW24418   3.497   1.469   7.014 -0.7850 -0.2648 -0.5309
 4261SOL    HW124419   3.511   1.417   6.934  1.5562 -0.0595 -0.2377
 4261SOL    HW224420   3.573   1.434   7.060 -2.0803  0.5360  2.1805
 4262SOL     OW24421   2.260   0.950  10.981  0.2728  1.0116 -0.4386
 4262SOL    HW124422   2.344   0.952  10.935  0.1037 -0.1836 -0.8005
 4262SOL    HW224423   2.229   1.035  10.949 -0.2229  0.5824 -1.0926
 4263SOL     OW24424   0.465   4.496  12.792 -0.4725 -0.9427  0.4987
 4263SOL    HW124425   0.530   4.564  12.780 -0.0852 -0.9704  2.4831
 4263SOL    HW224426   0.469   4.457  12.705 -1.0226 -1.4920  0.7121
 4264SOL     OW24427   1.617   1.404   8.333  0.1472 -0.0830  0.0437
 4264SOL    HW124428   1.603   1.328   8.277 -0.0118  1.2606 -1.7208
 4264SOL    HW224429   1.660   1.460   8.269  1.3955 -1.5212 -0.3953
 4265SOL     OW24430   1.308   2.065   1.981  0.0336  0.3240  0.2318
 4265SOL    HW124431   1.385   2.051   2.035  0.8029 -0.6302 -1.1154
 4265SOL    HW224432   1.282   1.974   1.968 -0.2984  0.4419  0.0687
 4266SOL     OW24433   2.117   3.425   5.596  0.1946 -0.5807 -0.6920
 4266SOL    HW124434   2.101   3.488   5.525 -1.1867 -0.2507 -0.0918
 4266SOL    HW224435   2.052   3.446   5.662  0.7550 -0.1855 -0.2690
 4267SOL     OW24436   0.515   0.106  16.256  0.4057 -0.3129 -0.5239
 4267SOL    HW124437   0.601   0.140  16.283  0.0943  0.1258 -0.0938
 4267SOL    HW224438   0.487   0.177  16.198 -0.4391  0.5262  0.9191
 4268SOL     OW24439   0.593   4.328  17.675  0.3559 -0.1340 -0.4732
 4268SOL    HW124440   0.529   4.380  17.723 -0.7617 -2.9607  1.0772
 4268SOL    HW224441   0.612   4.376  17.594  0.8558 -1.9135 -1.4269
 4269SOL     OW24442   3.549   1.732   1.833 -0.0764 -0.2563 -0.3277
 4269SOL    HW124443   3.536   1.795   1.904  0.4821  0.5641 -0.9589
 4269SOL    HW224444   3.590   1.788   1.767 -1.0695 -1.1069 -1.6562
 4270SOL     OW24445   1.369   0.266  11.812 -0.1666 -0.3029 -0.6297
 4270SOL    HW124446   1.457   0.301  11.819  0.0256 -0.8426 -0.3957
 4270SOL    HW224447   1.357   0.284  11.718 -0.7720 -1.0479 -0.6951
 4271SOL     OW24448   1.959   1.314   4.991  0.8672  0.2582  0.0090
 4271SOL    HW124449   1.976   1.390   5.046 -0.3093 -1.6134  2.9655
 4271SOL    HW224450   1.903   1.349   4.921  0.8714  0.9131  0.3428
 4272SOL     OW24451   3.273   3.079   9.164 -0.4981  0.1224 -0.0887
 4272SOL    HW124452   3.366   3.056   9.162 -1.2068 -2.7615  0.1231
 4272SOL    HW224453   3.244   3.054   9.077  0.8222  0.5107 -0.6363
 4273SOL     OW24454   0.789   4.452   9.613 -0.8001  0.2810 -0.7019
 4273SOL    HW124455   0.773   4.543   9.639 -1.5302 -0.0744  0.0689
 4273SOL    HW224456   0.847   4.426   9.684 -2.3538  0.3841  0.6187
 4274SOL     OW24457   1.531   3.829   4.922  0.0411 -0.2048 -0.1614
 4274SOL    HW124458   1.502   3.917   4.947 -1.8759 -1.0069  0.4236
 4274SOL    HW224459   1.591   3.849   4.850 -1.3259 -0.4933 -1.3791
 4275SOL     OW24460   3.642   1.190  13.509 -0.1874  0.8302  0.0579
 4275SOL    HW124461   3.639   1.238  13.427 -1.1708  0.1041 -0.3304
 4275SOL    HW224462   3.584   1.240  13.566  2.8669  2.0761  2.0969
 4276SOL     OW24463   3.186   1.333  13.617 -0.0567 -0.4919  0.6493
 4276SOL    HW124464   3.248   1.267  13.647  0.9949 -0.3133 -1.1328
 4276SOL    HW224465   3.135   1.357  13.695 -0.9411  2.0627 -0.7165
 4277SOL     OW24466   2.474   1.858   9.210 -0.5493 -0.0465  0.3242
 4277SOL    HW124467   2.554   1.808   9.223 -0.8537 -0.6485 -0.1136
 4277SOL    HW224468   2.407   1.800   9.172 -0.0833 -0.4502  0.1178
 4278SOL     OW24469   4.098   2.000   4.831  0.0235 -0.3506  0.3584
 4278SOL    HW124470   4.007   2.004   4.803  0.7487 -2.8126 -2.3941
 4278SOL    HW224471   4.112   2.085   4.873  3.2588 -0.3971 -0.6412
 4279SOL     OW24472   3.858   4.176   1.943  0.1934 -0.4847  0.3033
 4279SOL    HW124473   3.856   4.227   1.862  1.7524 -1.4157 -0.3284
 4279SOL    HW224474   3.774   4.190   1.988  0.0069  1.4061 -0.6197
 4280SOL     OW24475   3.575   4.275   6.524 -0.3485  0.9600 -0.0241
 4280SOL    HW124476   3.537   4.362   6.535 -0.3597  1.2989 -2.5454
 4280SOL    HW224477   3.600   4.241   6.609 -0.5667 -0.1201 -0.3891
 4281SOL     OW24478   1.076   3.939   9.230 -0.1461  0.0650 -0.2482
 4281SOL    HW124479   0.994   3.983   9.252  0.1481  0.8017 -0.6215
 4281SOL    HW224480   1.101   3.979   9.147  0.1647  0.3015 -0.0393
 4282SOL     OW24481   2.491   1.266  10.993 -0.1227  0.3742 -0.3342
 4282SOL    HW124482   2.463   1.270  11.084  1.9899  1.4253  0.2510
 4282SOL    HW224483   2.426   1.323  10.951 -0.6051 -1.6627 -2.3964
 4283SOL     OW24484   0.286   3.169   6.412 -0.0228 -0.4468  0.4995
 4283SOL    HW124485   0.277   3.196   6.321  1.0881  0.9968  0.8185
 4283SOL    HW224486   0.376   3.135   6.409 -0.3594 -1.6442  4.4189
 4284SOL     OW24487   3.233   1.446   2.239  0.3559 -0.1865 -0.2462
 4284SOL    HW124488   3.295   1.392   2.287  0.1577  0.3496  0.6246
 4284SOL    HW224489   3.248   1.406   2.154  0.4764 -2.5704  0.8993
 4285SOL     OW24490   3.986   0.456   6.450 -0.1313 -0.0116  0.4370
 4285SOL    HW124491   4.062   0.428   6.399 -1.6257 -1.2766 -1.1355
 4285SOL    HW224492   3.929   0.388   6.412  0.0935  1.6780 -2.9615
 4286SOL     OW24493   4.652   3.735   7.292 -0.1358 -0.3478 -0.0763
 4286SOL    HW124494   4.605   3.775   7.365 -1.2835 -1.4266 -0.2335
 4286SOL    HW224495   0.003   3.767   7.305  0.3830 -1.9982  0.3544
 4287SOL     OW24496   4.152   0.266   6.635 -0.1461 -0.5670 -0.5543
 4287SOL    HW124497   4.058   0.253   6.644 -0.3069  0.5842 -0.5262
 4287SOL    HW224498   4.174   0.345   6.686  0.9112 -0.8357 -0.5970
 4288SOL     OW24499   2.368   0.936   1.723 -0.4096 -0.2567 -0.5085
 4288SOL    HW124500   2.353   0.882   1.801  0.7381 -0.5281 -0.4797
 4288SOL    HW224501   2.343   0.878   1.651 -1.0443  0.1037 -0.5808
 4289SOL     OW24502   4.150   2.187  10.434  0.4441 -0.2207 -0.3496
 4289SOL    HW124503   4.123   2.257  10.375  2.1704  1.3453  0.7250
 4289SOL    HW224504   4.065   2.142  10.430 -1.3990  3.2875 -1.0691
 4290SOL     OW24505   2.524   2.962   3.484  0.0470 -0.3306 -0.3325
 4290SOL    HW124506   2.447   2.954   3.427 -0.6801 -1.3628  0.7968
 4290SOL    HW224507   2.553   2.872   3.469  0.6264 -0.4027  1.1834
 4291SOL     OW24508   3.921   4.721   2.755 -0.2825  0.5473  0.1958
 4291SOL    HW124509   3.901   4.701   2.664  0.8048  1.3245 -0.2107
 4291SOL    HW224510   4.008   0.017   2.736  0.7756 -1.3276  1.6351
 4292SOL     OW24511   0.197   1.945   7.098 -0.0435 -0.4927 -0.1005
 4292SOL    HW124512   0.282   1.917   7.063  0.6228 -0.8256  1.7876
 4292SOL    HW224513   0.157   1.979   7.018  0.7727  1.6117  0.3726
 4293SOL     OW24514   3.571   3.841   5.858  0.3067  0.1714  0.0175
 4293SOL    HW124515   3.492   3.890   5.835  0.1876  0.5789  1.2722
 4293SOL    HW224516   3.606   3.910   5.915 -1.9537  0.5599  0.9254
 4294SOL     OW24517   4.081   1.577   6.164 -0.4319 -0.1491 -0.2184
 4294SOL    HW124518   4.071   1.601   6.072 -0.2451  2.2699  0.4002
 4294SOL    HW224519   4.175   1.568   6.176 -0.6435 -0.6727  1.0330
 4295SOL     OW24520   4.229   1.670   3.646 -0.3516 -0.0148 -0.2149
 4295SOL    HW124521   4.180   1.712   3.717  3.5930  1.3196  1.7526
 4295SOL    HW224522   4.233   1.578   3.674 -1.1976 -0.3357 -1.1763
 4296SOL     OW24523   3.876   1.295   4.473 -0.0936  0.2509 -0.2886
 4296SOL    HW124524   3.823   1.359   4.425 -0.2371 -0.4296 -1.0461
 4296SOL    HW224525   3.952   1.344   4.502 -0.7720  0.6327  0.8217
 4297SOL     OW24526   0.495   3.788  11.955 -1.0063  0.2968 -0.2166
 4297SOL    HW124527   0.512   3.763  11.864 -0.6209  1.4016 -0.4460
 4297SOL    HW224528   0.535   3.875  11.957 -0.8653  0.1798  1.6161
 4298SOL     OW24529   4.347   0.107   5.976 -0.3781 -0.3681  0.4066
 4298SOL    HW124530   4.373   0.015   5.964 -0.8538 -0.2400 -1.6927
 4298SOL    HW224531   4.257   0.086   5.998 -0.9196  1.7554  0.2383
 4299SOL     OW24532   3.889   1.027   2.700  0.4413  0.4189 -0.0330
 4299SOL    HW124533   3.926   1.057   2.783 -1.5894  2.1094  0.2436
 4299SOL    HW224534   3.827   1.098   2.684  0.3681  0.3899  0.1294
 4300SOL     OW24535   2.486   2.847   7.325 -0.7301 -0.6023  0.2148
 4300SOL    HW124536   2.553   2.794   7.282  0.7697 -0.2291  2.1134
 4300SOL    HW224537   2.547   2.899   7.378  1.7422 -2.3128 -0.9569
 4301SOL     OW24538   4.190   1.211   3.438 -0.2662 -0.2912 -0.8723
 4301SOL    HW124539   4.210   1.167   3.355  2.5460 -1.1123  0.2412
 4301SOL    HW224540   4.099   1.232   3.418 -0.1873  0.8117 -0.0866
 4302SOL     OW24541   4.060   3.282   5.222  0.5654 -0.3072 -0.0977
 4302SOL    HW124542   4.132   3.268   5.283 -1.4074 -1.6800  1.8661
 4302SOL    HW224543   4.012   3.352   5.266  1.7314 -0.3945  1.3047
 4303SOL     OW24544   1.208   4.194   4.176  0.6678 -0.0087  0.0195
 4303SOL    HW124545   1.240   4.111   4.141 -2.2919 -0.7126 -0.9680
 4303SOL    HW224546   1.284   4.251   4.190 -0.0494  0.7748  0.6621
 4304SOL     OW24547   3.155   0.629  13.676 -0.0479  0.0896 -0.4156
 4304SOL    HW124548   3.122   0.539  13.688  2.3616 -0.8011 -0.5035
 4304SOL    HW224549   3.176   0.621  13.583  3.2457  1.4575  0.2213
 4305SOL     OW24550   4.149   0.341   9.135 -0.0144  0.2625 -0.2207
 4305SOL    HW124551   4.226   0.294   9.104  1.0538  1.4725  0.6255
 4305SOL    HW224552   4.159   0.422   9.085  0.3139 -1.1336 -2.4298
 4306SOL     OW24553   1.614   2.215   8.235 -0.1476  0.5841  0.0388
 4306SOL    HW124554   1.685   2.240   8.294  0.6610 -1.8495  0.1243
 4306SOL    HW224555   1.537   2.224   8.291 -1.3930 -1.6081 -1.2784
 4307SOL     OW24556   2.979   0.162   6.224  0.0237  0.0631  0.3956
 4307SOL    HW124557   2.900   0.215   6.233  0.0468  0.1792 -0.0973
 4307SOL    HW224558   2.977   0.101   6.298 -1.2910  0.4328  0.6638
 4308SOL     OW24559   2.625   0.777   1.102 -0.1073  0.1352 -0.1669
 4308SOL    HW124560   2.681   0.712   1.145 -0.0747 -0.4249 -1.0403
 4308SOL    HW224561   2.585   0.729   1.029 -2.2500 -1.8687  2.3353
 4309SOL     OW24562   4.012   0.276  12.094 -0.4748  0.1166 -0.2051
 4309SOL    HW124563   4.086   0.248  12.148 -1.2480  0.2182  0.9067
 4309SOL    HW224564   4.042   0.354  12.047 -0.2725 -0.1691 -0.5614
 4310SOL     OW24565   1.912   3.785   9.359  0.2552  0.9725 -0.3725
 4310SOL    HW124566   1.965   3.711   9.390 -2.3953 -1.2939 -1.2935
 4310SOL    HW224567   1.972   3.823   9.295 -1.5294  2.8628 -0.9148
 4311SOL     OW24568   0.258   0.050   7.797  0.2621  0.1932 -0.8828
 4311SOL    HW124569   0.231   4.718   7.738  1.6973 -0.7804 -0.3779
 4311SOL    HW224570   0.343   0.019   7.828  0.6207  0.2851 -1.7634
 4312SOL     OW24571   3.816   2.560   8.708  0.4898  0.5338 -0.2675
 4312SOL    HW124572   3.818   2.516   8.793  3.6275  0.3097 -0.4658
 4312SOL    HW224573   3.734   2.610   8.710  1.2860  1.7553  1.2004
 4313SOL     OW24574   1.729   4.619  17.301  0.2441 -0.9814 -0.0168
 4313SOL    HW124575   1.711   4.656  17.387 -0.1463 -0.1628 -0.4508
 4313SOL    HW224576   1.767   4.693  17.254  0.8556 -1.3573 -0.1281
 4314SOL     OW24577   3.810   4.039   5.694  0.5330 -0.3382 -0.0988
 4314SOL    HW124578   3.817   4.111   5.757  0.5233 -1.6370  1.3976
 4314SOL    HW224579   3.718   4.054   5.670  0.4789  0.0805  0.3575
 4315SOL     OW24580   2.755   3.065   4.603 -0.3124  0.3656 -0.1910
 4315SOL    HW124581   2.727   2.974   4.591  0.7692  0.3289 -2.3235
 4315SOL    HW224582   2.719   3.080   4.690  0.4044  1.8104 -0.1383
 4316SOL     OW24583   4.011   1.124   9.291 -0.9468  0.0952 -0.2752
 4316SOL    HW124584   4.048   1.038   9.307  1.9430  1.1803 -1.0696
 4316SOL    HW224585   4.074   1.155   9.226 -0.7772  0.3867  0.0279
 4317SOL     OW24586   3.629   0.505   9.213 -0.4128 -0.3641 -0.8624
 4317SOL    HW124587   3.624   0.492   9.308 -0.2104 -0.5617 -0.8782
 4317SOL    HW224588   3.658   0.595   9.222 -1.1200 -0.3398  1.1035
 4318SOL     OW24589   4.487   1.489   0.216  0.5157  0.2084 -0.1873
 4318SOL    HW124590   4.480   1.448   0.302 -2.5053  0.5716 -0.2442
 4318SOL    HW224591   4.462   1.421   0.154  0.9073  0.4326 -0.5875
 4319SOL     OW24592   1.867   0.410  14.594 -0.4222  0.2306  0.0144
 4319SOL    HW124593   1.806   0.446  14.530 -0.9129 -0.0810  0.3057
 4319SOL    HW224594   1.799   0.381  14.655 -0.3537  2.0839  0.9694
 4320SOL     OW24595   3.769   2.907  10.639 -0.1776  0.0315 -0.1864
 4320SOL    HW124596   3.853   2.861  10.645 -1.0232 -1.3959  0.6845
 4320SOL    HW224597   3.807   2.995  10.643 -0.9744  0.3223  0.8655
 4321SOL     OW24598   2.055   2.984   3.615 -0.4649  0.1847  0.2297
 4321SOL    HW124599   2.121   2.920   3.642 -1.2033 -0.6358  0.1140
 4321SOL    HW224600   1.977   2.971   3.669 -0.6931 -0.5241 -0.2619
 4322SOL     OW24601   1.220   2.462  14.861 -0.6667 -0.3802  0.3792
 4322SOL    HW124602   1.286   2.489  14.926 -2.4441  0.7022  1.7166
 4322SOL    HW224603   1.244   2.502  14.777  0.4352  1.8392  1.7471
 4323SOL     OW24604   1.433   4.691  14.078  0.1328  0.3939 -0.1180
 4323SOL    HW124605   1.496   0.014  14.114 -1.4502  2.1898 -0.4496
 4323SOL    HW224606   1.376   4.685  14.154  1.0000  1.5460  0.6146
 4324SOL     OW24607   0.694   2.458   2.540  0.4176  0.2008  0.1221
 4324SOL    HW124608   0.679   2.365   2.554 -1.8656  0.6922  0.9266
 4324SOL    HW224609   0.720   2.459   2.448  3.5155 -0.0667  0.9977
 4325SOL     OW24610   1.842   2.224   4.021 -0.5641  0.1223 -0.0257
 4325SOL    HW124611   1.772   2.173   3.979 -0.6107 -0.5930  0.9162
 4325SOL    HW224612   1.832   2.213   4.115  0.6811 -2.2013 -0.1664
 4326SOL     OW24613   2.170   1.813   9.144  0.0234  0.0570 -0.2246
 4326SOL    HW124614   2.212   1.844   9.064 -2.2437 -0.8570 -1.7675
 4326SOL    HW224615   2.105   1.751   9.109 -1.9481  0.6612  2.3731
 4327SOL     OW24616   2.464   0.849   8.365  0.4679  0.0394  0.3212
 4327SOL    HW124617   2.507   0.934   8.357  0.2349 -0.0519 -2.1492
 4327SOL    HW224618   2.537   0.789   8.349 -0.3125 -0.5142 -1.2256
 4328SOL     OW24619   1.958   0.035   0.755 -0.5153 -1.0852  0.2001
 4328SOL    HW124620   1.877   0.023   0.706 -0.2202 -1.0608 -0.2930
 4328SOL    HW224621   2.015   0.027   0.678 -2.3560 -1.6749 -1.0918
 4329SOL     OW24622   1.827   2.426  12.330  0.1574 -0.0370  0.6086
 4329SOL    HW124623   1.840   2.413  12.424 -0.5813  1.2884  0.8817
 4329SOL    HW224624   1.821   2.333  12.307  1.5169 -0.4661  1.9621
 4330SOL     OW24625   4.474   3.438   5.803 -0.5116  0.1918  0.6000
 4330SOL    HW124626   4.396   3.404   5.760  0.3947 -0.5669 -0.4276
 4330SOL    HW224627   4.515   3.360   5.840  1.7245  1.0952  0.0463
 4331SOL     OW24628   2.851   0.215   9.275 -0.2694  0.1547  0.6914
 4331SOL    HW124629   2.885   0.202   9.363  2.9524  2.3882 -0.2159
 4331SOL    HW224630   2.848   0.119   9.268 -0.7056  0.2215 -0.0591
 4332SOL     OW24631   1.420   0.274   1.484 -0.2983 -0.2950  1.0299
 4332SOL    HW124632   1.410   0.179   1.470  1.9525 -0.3663 -0.0594
 4332SOL    HW224633   1.513   0.290   1.471 -1.0851  1.4574 -2.7187
 4333SOL     OW24634   0.413   2.321   3.914 -0.2890 -0.1704 -0.0640
 4333SOL    HW124635   0.458   2.405   3.905 -1.3121  0.4560  0.7783
 4333SOL    HW224636   0.416   2.281   3.827 -0.5625 -1.6489  0.6138
 4334SOL     OW24637   2.699   0.465   8.825 -0.4111 -0.3565 -0.2596
 4334SOL    HW124638   2.704   0.407   8.901 -1.5220  0.4298  0.4170
 4334SOL    HW224639   2.789   0.475   8.793 -0.6178  0.3400 -0.6236
 4335SOL     OW24640   4.697   2.146   9.589 -0.1035 -0.1506 -0.3997
 4335SOL    HW124641   0.001   2.145   9.675 -0.3795  1.4394 -0.2551
 4335SOL    HW224642   4.696   2.050   9.585 -2.3562 -0.1814  1.0565
 4336SOL     OW24643   4.053   1.680  13.552  0.5571  0.6354  0.3333
 4336SOL    HW124644   4.001   1.758  13.534 -0.4530  0.2868  1.7233
 4336SOL    HW224645   4.111   1.696  13.626 -0.5760 -0.1671  1.4029
 4337SOL     OW24646   0.997   4.429   2.986  0.0592 -0.3981  0.2194
 4337SOL    HW124647   1.077   4.441   2.937  0.7514  0.1514  1.4799
 4337SOL    HW224648   0.940   4.462   2.917 -0.8393 -1.8590  0.2529
 4338SOL     OW24649   2.711   3.179  10.807 -0.9781  0.5992 -0.0926
 4338SOL    HW124650   2.643   3.238  10.774 -1.3582  0.3070  0.1642
 4338SOL    HW224651   2.743   3.123  10.736  0.0726 -0.1669  0.9930
 4339SOL     OW24652   3.631   2.792   8.006 -0.0637  0.5013  0.2958
 4339SOL    HW124653   3.721   2.766   8.025 -0.8897 -1.0390  2.1535
 4339SOL    HW224654   3.626   2.851   8.081 -0.5825  1.9727 -0.9127
 4340SOL     OW24655   3.696   0.756   0.591  0.6369  0.2803  0.2208
 4340SOL    HW124656   3.671   0.710   0.671  2.2066  1.4249  1.3885
 4340SOL    HW224657   3.785   0.781   0.615  0.2283  2.5486 -0.5948
 4341SOL     OW24658   1.091   2.866   6.119 -0.2262 -0.6187  0.3927
 4341SOL    HW124659   1.117   2.777   6.092 -0.2319 -0.2388 -0.8794
 4341SOL    HW224660   1.076   2.902   6.032 -1.0396 -0.6858  0.5046
 4342SOL     OW24661   1.471   0.141   4.756  0.1549 -0.4556  0.3502
 4342SOL    HW124662   1.428   0.220   4.790 -0.3763 -0.4736 -0.2799
 4342SOL    HW224663   1.393   0.085   4.752 -0.1278  0.0395 -0.9844
 4343SOL     OW24664   1.877   4.124   4.555  0.2608 -0.3791  0.0582
 4343SOL    HW124665   1.838   4.149   4.471  2.0955  1.2747 -0.3173
 4343SOL    HW224666   1.809   4.064   4.585  1.8546 -1.9191  0.5365
 4344SOL     OW24667   2.982   2.816   7.563 -0.0769  0.2580 -0.1071
 4344SOL    HW124668   2.900   2.832   7.610  1.5163  4.4586  1.3610
 4344SOL    HW224669   3.033   2.762   7.624  0.2103 -0.2730 -0.8244
 4345SOL     OW24670   2.239   2.631   4.785  0.2039 -0.1286 -0.3080
 4345SOL    HW124671   2.286   2.573   4.726  2.5172 -0.2168  1.5913
 4345SOL    HW224672   2.310   2.647   4.848 -0.5812  3.8692 -0.4044
 4346SOL     OW24673   2.006   0.491   1.915 -0.1692  0.4802 -0.1945
 4346SOL    HW124674   1.921   0.525   1.944 -0.8374  0.0204 -1.6318
 4346SOL    HW224675   1.992   0.481   1.821  1.4023  0.1894 -0.3909
 4347SOL     OW24676   1.873   2.231   0.107  0.1765  0.5491 -0.1323
 4347SOL    HW124677   1.913   2.148   0.080  3.0114  2.1932 -0.9876
 4347SOL    HW224678   1.888   2.285   0.030 -0.8507  1.2405  0.1501
 4348SOL     OW24679   4.495   0.172   5.736  0.0772  0.1495  0.2842
 4348SOL    HW124680   4.519   0.081   5.724 -1.3406  0.1389 -2.4756
 4348SOL    HW224681   4.443   0.173   5.817 -0.1351 -0.4644  0.1495
 4349SOL     OW24682   2.324   2.083   7.665 -0.5364  0.3564  0.5684
 4349SOL    HW124683   2.234   2.056   7.646 -0.0336 -0.3165 -0.8552
 4349SOL    HW224684   2.373   2.041   7.594 -0.0610  1.6028  0.1712
 4350SOL     OW24685   0.085   0.340   8.812 -0.1665 -0.2250 -0.3601
 4350SOL    HW124686   0.087   0.380   8.726  1.4580 -0.3175 -0.3516
 4350SOL    HW224687   0.171   0.299   8.814  0.4744  1.0939 -1.0322
 4351SOL     OW24688   3.425   3.938   6.098 -0.0259  0.2802  0.2872
 4351SOL    HW124689   3.461   3.972   6.016 -3.8655  1.5669 -0.8635
 4351SOL    HW224690   3.482   3.872   6.137  0.8505  2.5032  2.7555
 4352SOL     OW24691   0.941   4.317  10.502  0.1103  0.1461  0.4326
 4352SOL    HW124692   0.975   4.272  10.580  0.8025  0.2573  0.2001
 4352SOL    HW224693   0.865   4.359  10.541 -0.6980  1.1594 -2.2559
 4353SOL     OW24694   3.944   4.422   5.331  0.4232  0.3498  0.3003
 4353SOL    HW124695   3.963   4.401   5.239 -1.6232  0.1622 -0.0799
 4353SOL    HW224696   4.006   4.491   5.355  1.6312 -0.6792  0.1519
 4354SOL     OW24697   3.962   2.392   2.755  0.0203 -0.4683  0.1501
 4354SOL    HW124698   4.000   2.330   2.817 -1.3621 -1.7962 -0.3287
 4354SOL    HW224699   3.976   2.477   2.797  2.6977 -1.2370  0.8316
 4355SOL     OW24700   4.628   3.674   5.917  0.2969  0.5999  0.1668
 4355SOL    HW124701   4.617   3.590   5.873 -2.0277  0.6732  0.6026
 4355SOL    HW224702   4.540   3.711   5.918  0.0166 -0.0842  0.5541
 4356SOL     OW24703   0.098   2.595   4.200 -0.5032  0.2508 -0.5923
 4356SOL    HW124704   0.051   2.668   4.240 -0.5708  0.3319 -0.8208
 4356SOL    HW224705   0.053   2.582   4.117  0.0508  1.6200 -1.1100
 4357SOL     OW24706   4.480   2.343  15.714 -0.2092  0.2048 -0.4234
 4357SOL    HW124707   4.408   2.308  15.660  0.2856  0.9682 -1.5804
 4357SOL    HW224708   4.531   2.398  15.655 -0.2116 -0.4212 -1.0077
 4358SOL     OW24709   0.017   4.691   5.139  0.1468  0.1189 -0.4144
 4358SOL    HW124710   0.100   4.711   5.095  0.0276  0.0364 -0.6784
 4358SOL    HW224711   4.696   0.026   5.124  1.0171  0.5631 -1.7696
 4359SOL     OW24712   4.329   3.383   3.561 -0.2332 -0.2659  0.1911
 4359SOL    HW124713   4.323   3.337   3.645  2.3008  0.0650  0.5381
 4359SOL    HW224714   4.354   3.473   3.581 -1.3703 -0.2108  1.3408
 4360SOL     OW24715   2.136   4.704   6.404  0.3664 -0.0783  0.1148
 4360SOL    HW124716   2.129   4.633   6.467 -3.9051  0.8140  0.6267
 4360SOL    HW224717   2.157   4.648   6.329 -3.5951  1.9424 -2.5434
 4361SOL     OW24718   1.633   2.829  17.412  0.0960  1.1666  0.1475
 4361SOL    HW124719   1.625   2.763  17.343  1.4803 -2.1246  3.1556
 4361SOL    HW224720   1.716   2.800  17.449  0.0781  0.4178 -0.4098
 4362SOL     OW24721   1.419   1.137  14.743  0.0665 -0.2840 -0.1988
 4362SOL    HW124722   1.335   1.142  14.696  0.4772  2.4151 -0.6410
 4362SOL    HW224723   1.453   1.061  14.695  0.2254 -1.3768  1.6649
 4363SOL     OW24724   2.170   2.561   2.122 -0.6485  0.1025 -0.7767
 4363SOL    HW124725   2.099   2.517   2.076  0.2374 -0.4883 -1.5895
 4363SOL    HW224726   2.133   2.647   2.138 -0.2309  0.0990  0.1974
 4364SOL     OW24727   0.890   0.086  13.464  0.2119 -0.3622 -0.0020
 4364SOL    HW124728   0.874   4.732  13.446  0.0046 -0.6712  1.7788
 4364SOL    HW224729   0.972   0.099  13.417  2.4214  0.3230  4.0004
 4365SOL     OW24730   3.955   3.554   6.796  0.0993  0.4473  0.7001
 4365SOL    HW124731   3.862   3.551   6.773  0.6157  1.1915 -1.4883
 4365SOL    HW224732   3.995   3.468   6.784 -3.5346 -1.4711  2.1203
 4366SOL     OW24733   1.887   2.974  12.759  0.5268  0.5407 -0.5236
 4366SOL    HW124734   1.909   2.972  12.852 -4.3919 -0.0631  0.6628
 4366SOL    HW224735   1.978   2.957  12.736  1.2496  1.8172  1.4915
 4367SOL     OW24736   3.206   2.257   6.627 -0.1294 -0.2848  0.1633
 4367SOL    HW124737   3.181   2.202   6.553  0.0943  1.7464 -1.4219
 4367SOL    HW224738   3.298   2.231   6.631 -0.3021 -0.5688  2.6548
 4368SOL     OW24739   0.936   1.068   7.747 -0.2780 -0.1420  0.2062
 4368SOL    HW124740   0.860   1.013   7.728  0.3655 -0.8366 -0.3614
 4368SOL    HW224741   0.905   1.116   7.823  0.1043  3.9988 -2.2440
 4369SOL     OW24742   1.246   4.707   6.664  0.0632  0.9372  0.0878
 4369SOL    HW124743   1.159   4.725   6.698  0.3270  1.8897  0.2574
 4369SOL    HW224744   1.290   0.033   6.719  1.7877  1.2155 -1.6357
 4370SOL     OW24745   4.540   0.420   5.603 -0.0880  0.5461 -0.1355
 4370SOL    HW124746   4.627   0.386   5.583  0.0833 -0.5389  2.4109
 4370SOL    HW224747   4.512   0.351   5.662 -1.0732  2.5029  1.7034
 4371SOL     OW24748   1.195   1.249   2.652 -0.0906 -0.1827 -0.1709
 4371SOL    HW124749   1.158   1.337   2.665  2.9357  1.3661 -2.0224
 4371SOL    HW224750   1.158   1.239   2.564 -2.1009  1.6410  0.4553
 4372SOL     OW24751   4.601   0.593   0.294  0.3488 -0.0628  0.1116
 4372SOL    HW124752   4.656   0.525   0.333 -0.0358 -0.7898 -0.6292
 4372SOL    HW224753   4.667   0.644   0.247 -0.9632  1.6322  0.0893
 4373SOL     OW24754   1.099   2.124  10.021 -0.2752  0.0385  0.6612
 4373SOL    HW124755   1.061   2.193   9.968 -0.0913 -1.0403 -0.9026
 4373SOL    HW224756   1.130   2.064   9.953 -0.0416 -1.1252  1.7898
 4374SOL     OW24757   1.508   0.576   0.329 -0.4585  0.5058  0.3081
 4374SOL    HW124758   1.468   0.600   0.413 -0.8184 -1.2734  0.6454
 4374SOL    HW224759   1.462   0.494   0.308  3.0633 -1.5148  0.4522
 4375SOL     OW24760   0.255   1.661  15.431  0.1582 -0.8246  0.4314
 4375SOL    HW124761   0.220   1.630  15.347  0.9286 -0.3933 -0.0482
 4375SOL    HW224762   0.192   1.731  15.447  1.3986  0.7500 -1.5621
 4376SOL     OW24763   1.346   1.207   8.318  0.2676 -0.0621 -0.1686
 4376SOL    HW124764   1.399   1.224   8.240  1.5293  0.3469  0.7797
 4376SOL    HW224765   1.377   1.122   8.347 -2.2458 -0.2047  2.1370
 4377SOL     OW24766   1.285   2.894   8.143 -0.3500  0.1051  0.5219
 4377SOL    HW124767   1.321   2.936   8.065 -1.5326 -1.1583 -0.7031
 4377SOL    HW224768   1.331   2.925   8.222  0.2970  1.5070 -0.3976
 4378SOL     OW24769   3.330   2.172   8.238  0.0312  0.1196 -0.4887
 4378SOL    HW124770   3.364   2.257   8.264  0.2483  0.0433 -0.5268
 4378SOL    HW224771   3.403   2.124   8.197 -0.9493 -0.9349 -1.0157
 4379SOL     OW24772   1.117   0.241   5.191 -0.5888  0.3674  0.3560
 4379SOL    HW124773   1.039   0.277   5.149  0.4689  3.7392  1.2658
 4379SOL    HW224774   1.155   0.183   5.125  0.1619  0.9766  0.2498
 4380SOL     OW24775   4.547   2.133   7.664  0.6280  0.0103  0.5220
 4380SOL    HW124776   4.593   2.074   7.605  0.8993  0.7652 -0.0238
 4380SOL    HW224777   4.484   2.074   7.707 -0.4019  0.8993  0.2387
 4381SOL     OW24778   1.098   2.613   4.099  0.1403 -0.3266  0.5008
 4381SOL    HW124779   1.077   2.695   4.055 -0.1812  0.0731  1.4019
 4381SOL    HW224780   1.159   2.577   4.035 -0.1715  1.6075 -0.8805
 4382SOL     OW24781   1.099   4.151   1.735  0.1461 -0.5524  0.2422
 4382SOL    HW124782   1.028   4.136   1.673  2.8428 -1.3673 -2.6552
 4382SOL    HW224783   1.132   4.231   1.696 -0.6512 -0.1087  0.4670
 4383SOL     OW24784   3.595   1.905   8.615  0.4873 -0.0737  0.0773
 4383SOL    HW124785   3.689   1.885   8.613  0.1133 -1.8215 -0.0655
 4383SOL    HW224786   3.588   1.972   8.683  0.4256  0.1114 -0.1122
 4384SOL     OW24787   1.133   1.341   2.055  0.3458 -0.0098 -0.0892
 4384SOL    HW124788   1.159   1.276   1.989  0.6100  0.2674 -0.2597
 4384SOL    HW224789   1.150   1.424   2.010 -0.1690  0.2134  0.1374
 4385SOL     OW24790   2.000   0.968   7.254  0.4798 -0.4544  0.1588
 4385SOL    HW124791   2.004   0.943   7.162  0.0817  1.0670 -0.2570
 4385SOL    HW224792   1.906   0.961   7.269  0.4710  0.8788  0.7370
 4386SOL     OW24793   3.010   3.547  16.962 -0.0013  0.2390 -0.5757
 4386SOL    HW124794   2.926   3.545  17.007  0.4272 -0.6698  0.1779
 4386SOL    HW224795   2.990   3.614  16.896 -0.5956  2.6314  2.0381
 4387SOL     OW24796   0.853   3.167   6.856 -0.4434 -0.0056  0.0985
 4387SOL    HW124797   0.926   3.115   6.821 -0.4468  0.0787 -0.0358
 4387SOL    HW224798   0.846   3.228   6.783  0.0930  0.2954  0.2967
 4388SOL     OW24799   4.661   2.759   9.109 -0.1951 -0.0374 -0.2450
 4388SOL    HW124800   4.737   2.779   9.054  0.5999 -0.4325  0.7055
 4388SOL    HW224801   4.608   2.832   9.077  0.3752  1.1005  1.3959
 4389SOL     OW24802   3.473   2.773   4.428 -0.1415  0.5357 -0.7833
 4389SOL    HW124803   3.557   2.764   4.472  0.4156 -0.0045 -1.9807
 4389SOL    HW224804   3.472   2.697   4.369  0.6069 -0.4919  0.5199
 4390SOL     OW24805   0.241   2.554   6.833 -0.6301  0.0005 -0.1794
 4390SOL    HW124806   0.255   2.505   6.752  0.1812  3.5742 -2.2224
 4390SOL    HW224807   0.284   2.636   6.807 -0.9585 -0.0698 -0.9495
 4391SOL     OW24808   0.938   2.707  15.775  0.4834  0.0768  0.3054
 4391SOL    HW124809   0.894   2.685  15.693  3.1725  0.1330 -1.1694
 4391SOL    HW224810   0.901   2.795  15.789 -0.7829 -0.3886 -0.1420
 4392SOL     OW24811   4.375   0.714   0.380 -0.3325  0.8731  0.2818
 4392SOL    HW124812   4.450   0.656   0.370 -1.3466 -0.1588 -1.2648
 4392SOL    HW224813   4.422   0.797   0.387  1.4453 -0.2972  2.3459
 4393SOL     OW24814   3.918   0.204   8.606 -0.0344  0.0715  0.1057
 4393SOL    HW124815   3.995   0.235   8.558 -0.4121  1.1716  0.1914
 4393SOL    HW224816   3.897   0.280   8.661 -1.5340 -0.9855  0.9832
 4394SOL     OW24817   0.267   2.586   2.140 -0.5076  0.1013  0.0280
 4394SOL    HW124818   0.260   2.582   2.236  1.2894  1.4570  0.2263
 4394SOL    HW224819   0.359   2.608   2.127 -0.2723 -0.9715 -0.1361
 4395SOL     OW24820   1.514   4.060   5.091 -0.1747 -0.0543  0.1367
 4395SOL    HW124821   1.502   4.129   5.156  1.2596 -1.2631  1.6771
 4395SOL    HW224822   1.582   4.004   5.128 -0.8417  0.1903  1.7298
 4396SOL     OW24823   1.544   4.518   4.954  0.2532  0.2148  0.3480
 4396SOL    HW124824   1.500   4.485   4.876 -1.9008 -0.7471  1.9943
 4396SOL    HW224825   1.485   4.489   5.023 -0.1017 -1.5125 -0.6835
 4397SOL     OW24826   2.914   1.679   9.960  0.7870 -0.6439  0.1289
 4397SOL    HW124827   2.884   1.701   9.872  0.8953 -2.5743 -0.3728
 4397SOL    HW224828   2.994   1.732   9.955 -0.2207  0.6203 -2.6496
 4398SOL     OW24829   2.581   0.934   4.104 -0.4117 -0.0899  0.2466
 4398SOL    HW124830   2.574   0.991   4.181 -1.1681  0.3272 -0.1292
 4398SOL    HW224831   2.627   0.864   4.149  0.4112 -0.6847 -1.5037
 4399SOL     OW24832   3.454   3.869   7.287  0.4316  0.2164  0.3801
 4399SOL    HW124833   3.433   3.914   7.369 -1.5529  1.6121 -0.8956
 4399SOL    HW224834   3.373   3.870   7.237  0.2466  1.6581  0.7153
 4400SOL     OW24835   4.385   2.401   4.146 -0.2919 -0.5778  0.3563
 4400SOL    HW124836   4.368   2.352   4.226 -1.2277  0.9403  1.0779
 4400SOL    HW224837   4.349   2.483   4.179 -0.5703 -0.4219 -0.3265
 4401SOL     OW24838   2.276   0.588   7.304 -0.4944  0.0496  0.4443
 4401SOL    HW124839   2.198   0.641   7.320 -0.6207  0.3324 -1.0556
 4401SOL    HW224840   2.242   0.499   7.294  2.2095 -0.6184 -3.0487
 4402SOL     OW24841   2.432   1.084   7.123  0.3826  0.0567  0.1446
 4402SOL    HW124842   2.399   1.000   7.154 -0.7907  0.4978  0.0894
 4402SOL    HW224843   2.489   1.052   7.053  2.5215  0.0812  1.8801
 4403SOL     OW24844   3.497   0.419   5.167 -0.2316 -0.8882  0.5396
 4403SOL    HW124845   3.582   0.411   5.124 -0.5864 -0.8260 -0.1764
 4403SOL    HW224846   3.494   0.343   5.226  0.3782 -0.7256  0.7835
 4404SOL     OW24847   4.248   2.991   1.724  0.4689 -0.0644 -0.5064
 4404SOL    HW124848   4.235   2.965   1.815  1.7847 -0.0931 -0.3253
 4404SOL    HW224849   4.300   2.916   1.694  2.7072  1.0166  0.7098
 4405SOL     OW24850   1.201   1.108   0.350  0.1436  0.2919 -0.0319
 4405SOL    HW124851   1.275   1.072   0.399  0.1859  0.3468 -0.0559
 4405SOL    HW224852   1.139   1.036   0.343 -0.2150  0.4359  1.6259
 4406SOL     OW24853   1.258   0.967   2.759 -0.4420  0.1149  0.7459
 4406SOL    HW124854   1.349   0.997   2.766 -0.4142  0.0478  0.6708
 4406SOL    HW224855   1.231   1.049   2.716 -0.3527 -0.0658  0.3532
 4407SOL     OW24856   1.405   4.564   2.367 -0.5506 -0.6158 -0.0833
 4407SOL    HW124857   1.322   4.592   2.328 -2.1751 -3.6700  1.1585
 4407SOL    HW224858   1.448   4.501   2.309 -0.4096 -0.7129  0.1261
 4408SOL     OW24859   4.488   1.650   5.726  0.4651 -0.9143  0.0439
 4408SOL    HW124860   4.575   1.688   5.727 -0.5382  1.3310  1.3851
 4408SOL    HW224861   4.453   1.683   5.809 -1.6865 -0.5709 -1.0083
 4409SOL     OW24862   0.997   2.037   4.782  0.3485  0.1998 -0.0782
 4409SOL    HW124863   1.026   2.128   4.793 -0.7165  0.6028 -0.6390
 4409SOL    HW224864   1.079   2.005   4.746  0.1268  1.4606 -1.7060
 4410SOL     OW24865   0.901   1.598  13.931 -1.1630 -0.1310  0.0868
 4410SOL    HW124866   0.819   1.552  13.944 -0.0860 -2.2050 -0.3507
 4410SOL    HW224867   0.921   1.642  14.014  0.4598  0.4522 -0.5924
 4411SOL     OW24868   0.422   3.548   4.519  0.0693 -0.3813 -0.0698
 4411SOL    HW124869   0.395   3.456   4.528 -0.7017 -0.1984 -0.5852
 4411SOL    HW224870   0.497   3.543   4.578  0.0418  2.6743  0.1917
 4412SOL     OW24871   0.044   1.398   3.207  0.1697 -0.2665  0.2991
 4412SOL    HW124872   0.108   1.333   3.178 -0.2359 -0.6928  0.3469
 4412SOL    HW224873   0.036   1.462   3.136  0.8352  0.2991  0.7368
 4413SOL     OW24874   0.637   3.239   6.554  0.4517  0.3503  0.5382
 4413SOL    HW124875   0.722   3.201   6.535  0.8654  0.5238  2.0904
 4413SOL    HW224876   0.580   3.199   6.488 -1.5163 -1.1804  3.1429
 4414SOL     OW24877   2.429   3.283   3.339  0.1144  0.1511 -0.1670
 4414SOL    HW124878   2.459   3.192   3.346 -2.5502 -0.6804  0.2947
 4414SOL    HW224879   2.419   3.298   3.433 -0.5737 -2.2352  0.1335
 4415SOL     OW24880   0.485   0.927  14.655 -0.4034 -0.1851  0.3453
 4415SOL    HW124881   0.394   0.947  14.680 -0.3218  0.0826  0.4304
 4415SOL    HW224882   0.481   0.953  14.563  4.8619  0.1421  0.2282
 4416SOL     OW24883   0.601   4.674   7.513 -0.8504  1.1222 -0.5732
 4416SOL    HW124884   0.636   4.641   7.596  0.3635  1.7279 -0.8467
 4416SOL    HW224885   0.665   0.002   7.488  2.2434 -1.4419  0.6426
 4417SOL     OW24886   2.927   1.629   8.761  0.0814  0.3198 -0.3445
 4417SOL    HW124887   2.905   1.701   8.702 -3.3643  0.1186  0.6891
 4417SOL    HW224888   2.967   1.674   8.835 -1.8426  0.2404  0.7425
 4418SOL     OW24889   3.322   3.018   2.046 -1.0386 -0.0798 -0.6451
 4418SOL    HW124890   3.245   2.962   2.056 -1.0974  0.1658  0.2883
 4418SOL    HW224891   3.276   3.101   2.029 -1.5142 -0.3190 -0.5198
 4419SOL     OW24892   1.237   4.177   5.229 -0.3150  0.0428 -0.1386
 4419SOL    HW124893   1.225   4.268   5.200 -0.2422  0.4083  0.9473
 4419SOL    HW224894   1.244   4.133   5.144  1.4447 -1.3029  0.6961
 4420SOL     OW24895   2.511   2.668   5.183 -0.2301 -0.3796  0.1794
 4420SOL    HW124896   2.522   2.713   5.099 -2.8933 -1.2561 -0.6635
 4420SOL    HW224897   2.424   2.698   5.208 -0.4044 -0.8245  0.1107
 4421SOL     OW24898   1.077   4.100   1.361 -0.4286  0.1748  0.0724
 4421SOL    HW124899   0.992   4.078   1.323 -0.2232 -1.4320  0.5638
 4421SOL    HW224900   1.065   4.065   1.449 -0.4495 -0.4598 -0.1860
 4422SOL     OW24901   2.851   2.189   5.440  0.3585 -0.4201  0.3530
 4422SOL    HW124902   2.910   2.115   5.428  0.8515  0.1730 -0.9346
 4422SOL    HW224903   2.900   2.256   5.488  1.0358 -0.4420 -0.3174
 4423SOL     OW24904   0.861   3.918  17.215 -0.5106 -0.1816 -0.1887
 4423SOL    HW124905   0.870   3.891  17.124 -0.7694  0.2812 -0.3531
 4423SOL    HW224906   0.812   3.845  17.251  2.1161 -1.5264  0.7015
 4424SOL     OW24907   3.061   4.713   8.883 -0.3149  0.4477  0.7144
 4424SOL    HW124908   3.113   4.651   8.933  0.6916  1.2284  0.6351
 4424SOL    HW224909   3.090   4.706   8.792 -1.3178  0.7402  0.3685
 4425SOL     OW24910   2.587   2.207   7.642 -0.1773 -0.0845  0.2199
 4425SOL    HW124911   2.619   2.147   7.709  2.0330  0.5864 -0.2006
 4425SOL    HW224912   2.495   2.185   7.627 -0.0922  0.5543 -1.2180
 4426SOL     OW24913   1.808   4.391   3.875  0.0717  0.3932 -0.1889
 4426SOL    HW124914   1.855   4.333   3.815  0.0016 -0.9349  1.0435
 4426SOL    HW224915   1.727   4.397   3.824 -0.1680  3.4925  0.5629
 4427SOL     OW24916   4.100   3.468   4.769 -0.1493  0.1807 -0.6252
 4427SOL    HW124917   4.168   3.421   4.817 -0.2294  2.2726  1.5276
 4427SOL    HW224918   4.083   3.413   4.693 -3.8141  1.2133 -0.5841
 4428SOL     OW24919   2.842   3.964   2.442 -0.8430 -0.0476  0.6114
 4428SOL    HW124920   2.807   3.896   2.500 -2.8491  0.3291 -0.1505
 4428SOL    HW224921   2.930   3.981   2.474 -0.5449  0.3940 -0.4326
 4429SOL     OW24922   1.855   1.924  17.536 -0.2204  0.0665 -0.0934
 4429SOL    HW124923   1.842   1.830  17.527 -0.8112  0.1860 -0.4620
 4429SOL    HW224924   1.874   1.920  17.630 -2.3028  3.1039  0.4519
 4430SOL     OW24925   1.411   0.350   5.048 -0.0894 -0.5233 -0.9255
 4430SOL    HW124926   1.458   0.317   5.124 -0.2784 -0.8008 -0.9302
 4430SOL    HW224927   1.364   0.270   5.027  0.4960 -0.7422 -1.4073
 4431SOL     OW24928   2.327   2.926   3.312 -0.1386  0.1268 -0.4676
 4431SOL    HW124929   2.281   2.989   3.258  0.2902 -0.0251 -1.0106
 4431SOL    HW224930   2.332   2.857   3.246 -4.0342 -0.6209  0.0382
 4432SOL     OW24931   1.789   0.801   3.608  0.3872 -0.0006  0.2183
 4432SOL    HW124932   1.870   0.848   3.587  0.2113  0.1296 -0.1660
 4432SOL    HW224933   1.784   0.799   3.703  1.8069  0.3761  0.3123
 4433SOL     OW24934   3.798   3.532  11.971  0.2695 -0.1551 -0.2341
 4433SOL    HW124935   3.855   3.608  11.956 -0.2452  0.2301 -0.2155
 4433SOL    HW224936   3.779   3.524  12.064  2.7176 -3.5549 -0.0230
 4434SOL     OW24937   2.314   2.314   5.477  0.4530 -0.3767  0.0724
 4434SOL    HW124938   2.372   2.269   5.539 -2.7251 -0.2925  3.1454
 4434SOL    HW224939   2.364   2.375   5.423 -0.7382  0.8946  0.4021
 4435SOL     OW24940   1.209   0.806   0.342 -0.3864  0.3282  0.2342
 4435SOL    HW124941   1.276   0.774   0.401 -0.8680 -0.5884  0.2885
 4435SOL    HW224942   1.140   0.778   0.402  0.0528 -0.7339  0.2464
 4436SOL     OW24943   1.529   3.579   2.073  0.1696 -0.3719  0.3439
 4436SOL    HW124944   1.612   3.535   2.059  0.0272  0.1389 -2.1228
 4436SOL    HW224945   1.536   3.638   2.148  0.8607  0.3338 -0.2679
 4437SOL     OW24946   1.301   3.630   4.943 -0.4877  0.6182 -0.0141
 4437SOL    HW124947   1.316   3.647   4.850 -0.1358 -1.5608 -0.3472
 4437SOL    HW224948   1.364   3.694   4.977  1.9619 -1.5612 -0.4788
 4438SOL     OW24949   0.861   4.649   5.769 -0.1405  0.2344  0.6878
 4438SOL    HW124950   0.837   4.650   5.862  2.1459  0.3653  1.2735
 4438SOL    HW224951   0.778   4.661   5.722  0.3017 -0.6358 -0.3311
 4439SOL     OW24952   2.799   3.477   7.347  0.4918 -0.1507 -0.8506
 4439SOL    HW124953   2.846   3.398   7.373 -1.0926 -0.6150  0.6341
 4439SOL    HW224954   2.850   3.538   7.401 -2.1914 -0.1685  1.7415
 4440SOL     OW24955   4.305   1.840   8.096  0.6548  0.0248  0.0614
 4440SOL    HW124956   4.252   1.888   8.032  1.0408  0.5317  0.1194
 4440SOL    HW224957   4.239   1.829   8.164 -0.9494  0.8609 -1.3614
 4441SOL     OW24958   2.581   0.099  17.280  0.3704 -0.4112 -0.4281
 4441SOL    HW124959   2.517   0.148  17.331 -1.4257 -1.8502 -1.2587
 4441SOL    HW224960   2.640   0.171  17.258  0.3726  0.1915  1.6041
 4442SOL     OW24961   3.995   1.372   6.834  0.4128  0.3318  0.3805
 4442SOL    HW124962   3.925   1.318   6.870  0.7085  0.4526  1.1444
 4442SOL    HW224963   4.056   1.370   6.907 -0.5048  0.9595  1.1750
 4443SOL     OW24964   2.635   1.299   4.918 -0.4696  0.1511 -0.3774
 4443SOL    HW124965   2.656   1.391   4.900  0.0222 -0.1213 -1.2002
 4443SOL    HW224966   2.542   1.297   4.893 -0.3268 -0.8283 -0.8303
 4444SOL     OW24967   4.529   4.031  14.614 -0.5342  0.5645  0.0623
 4444SOL    HW124968   4.595   3.965  14.594 -1.5686 -0.5613  0.3345
 4444SOL    HW224969   4.506   4.058  14.525  0.6735  0.9027 -0.1493
 4445SOL     OW24970   3.059   0.313   0.365  0.0336 -0.2995 -0.2113
 4445SOL    HW124971   2.974   0.303   0.321  0.1097 -1.8584  0.0024
 4445SOL    HW224972   3.119   0.313   0.291 -0.5919  1.8329 -0.7254
 4446SOL     OW24973   4.565   2.903   6.758 -0.4510  0.4486 -0.2288
 4446SOL    HW124974   4.511   2.976   6.727 -0.8939 -0.3102 -1.2091
 4446SOL    HW224975   4.511   2.826   6.739  0.1644 -0.0017 -0.1311
 4447SOL     OW24976   2.609   2.851   2.243 -0.0040  0.0153  0.7704
 4447SOL    HW124977   2.593   2.860   2.337 -2.1200 -0.1155  0.4082
 4447SOL    HW224978   2.521   2.832   2.212 -0.1124 -0.9108  1.6442
 4448SOL     OW24979   4.153   0.271   4.523  0.4278  0.5369 -0.3639
 4448SOL    HW124980   4.183   0.348   4.474 -1.2331  1.6541  0.3684
 4448SOL    HW224981   4.173   0.299   4.613 -0.5267  1.7824 -0.5330
 4449SOL     OW24982   0.132   3.252   9.337  0.2907  0.1209  0.1984
 4449SOL    HW124983   0.095   3.179   9.286 -2.0463  2.0536 -0.8813
 4449SOL    HW224984   0.223   3.225   9.330  0.0818 -1.1753  2.5510
 4450SOL     OW24985   1.229   3.527  17.234  0.3484 -0.1999  0.4890
 4450SOL    HW124986   1.245   3.434  17.218 -1.4593 -0.8701  2.5265
 4450SOL    HW224987   1.135   3.534  17.219  0.3819 -0.8639 -0.0265
 4451SOL     OW24988   1.946   1.592   7.611 -0.2986 -0.0443  0.7134
 4451SOL    HW124989   1.894   1.659   7.567 -2.3216 -1.2145  1.3247
 4451SOL    HW224990   1.924   1.600   7.704 -1.1125  1.6831  0.3805
 4452SOL     OW24991   2.481   2.195  15.421  0.0781 -0.5639 -0.0431
 4452SOL    HW124992   2.575   2.180  15.412  0.3958  1.2499  0.3107
 4452SOL    HW224993   2.441   2.205  15.334  2.5330  3.1957 -0.7261
 4453SOL     OW24994   3.481   2.078   8.019  0.2780  0.0726  0.4808
 4453SOL    HW124995   3.504   1.986   8.024  0.1836  0.0519  0.5532
 4453SOL    HW224996   3.391   2.066   7.989  0.7903 -3.4800  0.4476
 4454SOL     OW24997   2.226   4.640   9.274 -0.2450  0.1851  0.2452
 4454SOL    HW124998   2.177   4.655   9.355  0.0664 -1.9592  0.8406
 4454SOL    HW224999   2.267   4.726   9.265  0.9103  0.0305  4.2005
 4455SOL     OW25000   3.193   3.564   4.225 -0.2233 -0.0799  0.0428
 4455SOL    HW125001   3.116   3.620   4.236  0.0223  0.5175 -1.2321
 4455SOL    HW225002   3.207   3.530   4.313 -0.2411 -0.0400  0.0611
 4456SOL     OW25003   4.345   0.015   4.957  0.1039 -0.1107  0.6145
 4456SOL    HW125004   4.327   4.660   4.970 -1.3070  0.1264  0.3259
 4456SOL    HW225005   4.259   0.055   4.947  0.6523  0.5053 -1.7442
 4457SOL     OW25006   1.605   0.898   3.162  0.4276 -0.3201  0.4437
 4457SOL    HW125007   1.617   0.858   3.076  1.4708 -1.2277  1.0107
 4457SOL    HW225008   1.542   0.841   3.205  0.1576  0.4613  1.0824
 4458SOL     OW25009   1.294   2.245   6.072 -0.3949 -0.3717  0.3719
 4458SOL    HW125010   1.224   2.192   6.033 -1.0514  1.4314 -0.8819
 4458SOL    HW225011   1.254   2.286   6.148  1.6461  0.6705  0.8571
 4459SOL     OW25012   2.908   0.703   1.886 -0.2500 -0.3709  0.6522
 4459SOL    HW125013   2.878   0.764   1.953  3.1156 -1.2531  2.9453
 4459SOL    HW225014   2.928   0.760   1.812 -0.6570  1.4822  1.9723
 4460SOL     OW25015   2.463   0.046   7.574  0.3299 -0.0593 -0.5912
 4460SOL    HW125016   2.475   0.097   7.654 -1.5776  2.3847 -1.8293
 4460SOL    HW225017   2.522   4.712   7.592 -0.4945 -0.2026  1.4803
 4461SOL     OW25018   4.360   3.839  16.171  0.2780  0.3696 -0.0469
 4461SOL    HW125019   4.340   3.916  16.224  0.1274  1.6600 -1.9866
 4461SOL    HW225020   4.293   3.852  16.104  0.2421 -1.0715 -0.2891
 4462SOL     OW25021   4.698   2.985   3.113  0.3758  0.3056 -0.0541
 4462SOL    HW125022   4.684   2.892   3.133  2.8652 -0.4225 -1.5742
 4462SOL    HW225023   4.621   3.008   3.062  0.3965 -1.5338 -0.9186
 4463SOL     OW25024   2.285   0.920   8.673 -0.2530 -0.1947 -0.5157
 4463SOL    HW125025   2.319   0.894   8.758  1.1912  0.7532 -0.8127
 4463SOL    HW225026   2.192   0.928   8.696  0.5593  3.4077  1.4095
 4464SOL     OW25027   2.696   3.985   6.623  0.0349  0.5562 -0.4288
 4464SOL    HW125028   2.705   3.927   6.547  0.3717 -1.0996  0.8647
 4464SOL    HW225029   2.715   3.921   6.692 -1.0035 -0.5233 -1.1657
 4465SOL     OW25030   3.669   4.251   3.032 -0.3358 -0.2230 -0.6682
 4465SOL    HW125031   3.649   4.187   3.100 -1.6073  3.0735  2.0524
 4465SOL    HW225032   3.665   4.194   2.956  0.0751  0.1681 -0.9864
 4466SOL     OW25033   4.067   2.956   0.193  0.0522  0.5428 -0.3627
 4466SOL    HW125034   4.074   2.965   0.288  2.0287  1.1755 -0.5821
 4466SOL    HW225035   4.077   2.861   0.188 -0.1955  0.3382  2.6701
 4467SOL     OW25036   1.172   0.505   1.839  0.3775 -0.6202 -0.0489
 4467SOL    HW125037   1.180   0.467   1.752 -1.0754 -1.4440  0.1842
 4467SOL    HW225038   1.194   0.597   1.826  1.6746 -0.9422 -0.1249
 4468SOL     OW25039   4.046   1.705   5.375  0.8657  0.2000 -0.5839
 4468SOL    HW125040   4.139   1.729   5.376  1.5061 -2.2278 -0.3825
 4468SOL    HW225041   4.025   1.725   5.466  1.2559  1.3289 -0.7496
 4469SOL     OW25042   1.197   2.542   2.269 -0.1620 -0.0718 -0.4684
 4469SOL    HW125043   1.290   2.520   2.270 -0.2739 -0.4297  1.8694
 4469SOL    HW225044   1.171   2.532   2.360 -0.5385  0.6801 -0.4932
 4470SOL     OW25045   1.353   0.746  14.056  0.5422  0.0212 -0.6177
 4470SOL    HW125046   1.273   0.694  14.066  0.4275  0.1344 -0.9479
 4470SOL    HW225047   1.364   0.748  13.961  1.4222 -0.0204 -0.5133
 4471SOL     OW25048   1.753   3.566   5.986 -0.9821 -0.4814 -0.0692
 4471SOL    HW125049   1.721   3.476   5.999 -4.5027  0.8620  0.7377
 4471SOL    HW225050   1.688   3.604   6.045  1.6876  1.5330  1.5662
 4472SOL     OW25051   4.028   2.328   4.494  0.0397 -0.0613 -0.8247
 4472SOL    HW125052   4.008   2.278   4.414  2.8043 -1.2276 -0.7793
 4472SOL    HW225053   3.998   2.416   4.471  0.1225  0.0526 -0.4994
 4473SOL     OW25054   3.792   2.408   6.306 -0.5717 -0.2224  0.7169
 4473SOL    HW125055   3.703   2.431   6.334 -1.5769 -1.5138 -1.4360
 4473SOL    HW225056   3.765   2.367   6.224  0.5820  1.2003 -0.3649
 4474SOL     OW25057   2.092   2.906   5.510  0.2081  0.4373  0.6664
 4474SOL    HW125058   2.129   2.994   5.509 -1.0037  0.9120 -1.6624
 4474SOL    HW225059   2.013   2.924   5.459  0.6544 -0.1110 -0.2297
 4475SOL     OW25060   3.997   4.063   2.951  0.1033  0.0515 -0.0888
 4475SOL    HW125061   4.011   4.146   2.998  2.8089 -1.3737  1.5920
 4475SOL    HW225062   3.910   4.041   2.982  0.2849  0.1694  0.5071
 4476SOL     OW25063   1.688   2.327  15.514  0.3264 -0.5168 -0.3788
 4476SOL    HW125064   1.639   2.245  15.510  0.9018 -0.7697 -2.4543
 4476SOL    HW225065   1.694   2.351  15.421 -0.1862 -0.7335 -0.4660
 4477SOL     OW25066   4.679   3.952   5.524 -0.0529  0.4574 -0.0510
 4477SOL    HW125067   4.600   3.907   5.554  0.9705 -0.7078  0.8839
 4477SOL    HW225068   4.686   3.897   5.446 -0.0762  1.3876 -0.7064
 4478SOL     OW25069   1.899   3.749   7.117  0.0365 -0.6773 -0.2281
 4478SOL    HW125070   1.941   3.833   7.134 -1.8704  0.4483 -0.9881
 4478SOL    HW225071   1.844   3.754   7.195 -0.2195  0.7045 -0.4829
 4479SOL     OW25072   3.288   0.055  17.227 -0.6431  0.3043  0.1818
 4479SOL    HW125073   3.296   0.078  17.320  2.9752 -2.1818  0.4898
 4479SOL    HW225074   3.331   0.129  17.184 -0.1336  0.5026  1.0300
 4480SOL     OW25075   3.322   4.539   1.866 -0.1174 -0.4259  0.3312
 4480SOL    HW125076   3.290   4.590   1.791  0.9624 -2.0208 -1.2208
 4480SOL    HW225077   3.402   4.586   1.888 -1.0081  1.1966  0.0891
 4481SOL     OW25078   1.268   4.020   6.156  0.0099 -0.2817 -0.0408
 4481SOL    HW125079   1.323   4.043   6.081  0.6504 -1.6386  0.0100
 4481SOL    HW225080   1.236   3.936   6.125 -0.9260 -0.2579  0.8678
 4482SOL     OW25081   0.693   1.610   1.126  0.7096  0.4909  0.0826
 4482SOL    HW125082   0.669   1.596   1.035  0.8504 -1.1835  0.2999
 4482SOL    HW225083   0.658   1.698   1.140 -0.8756 -0.4083  1.7018
 4483SOL     OW25084   1.925   2.494   0.919 -0.3218  0.2303  0.4115
 4483SOL    HW125085   1.880   2.578   0.925  0.3718  0.8127 -2.7612
 4483SOL    HW225086   1.864   2.460   0.985  1.3364  2.5370  3.1348
 4484SOL     OW25087   0.094   2.226   3.771 -0.2210 -0.6664  0.4064
 4484SOL    HW125088   0.008   2.229   3.729  0.3389  0.3490 -0.6605
 4484SOL    HW225089   0.120   2.317   3.771  0.2987 -0.8149 -0.5839
 4485SOL     OW25090   3.954   0.150   9.323 -0.0377  0.1481  0.1274
 4485SOL    HW125091   3.953   0.055   9.334 -0.3574  0.1741  0.2972
 4485SOL    HW225092   3.924   0.149   9.232 -1.5185  0.5035  0.6259
 4486SOL     OW25093   1.409   2.929  11.937 -0.3271  0.4384  0.4849
 4486SOL    HW125094   1.318   2.908  11.959  0.4803 -1.8499  1.6706
 4486SOL    HW225095   1.466   2.859  11.969  3.0512  1.7843 -2.5525
 4487SOL     OW25096   1.883   2.535   3.128 -0.3594  0.2995  0.2169
 4487SOL    HW125097   1.976   2.523   3.111 -0.3696  0.2183  0.2172
 4487SOL    HW225098   1.846   2.500   3.046 -1.3957  0.3097  0.6779
 4488SOL     OW25099   3.312   3.000   9.781  0.0409 -0.2054  0.2545
 4488SOL    HW125100   3.356   2.944   9.717  2.0340 -0.7712  2.1167
 4488SOL    HW225101   3.377   3.070   9.773 -1.0056  0.4675 -2.3124
 4489SOL     OW25102   3.053   0.952   4.174 -0.6341  0.3185 -0.0997
 4489SOL    HW125103   3.081   0.950   4.083  3.0094 -1.2973  1.0426
 4489SOL    HW225104   3.011   1.037   4.162 -1.3868 -0.2351 -1.3620
 4490SOL     OW25105   2.322   0.311   1.394  0.4385  0.4472 -0.2298
 4490SOL    HW125106   2.271   0.383   1.357  0.0450 -0.0495 -0.6582
 4490SOL    HW225107   2.258   0.245   1.422  0.1963  0.2943 -1.1614
 4491SOL     OW25108   3.598   0.296  17.321 -0.1888  0.5864 -0.1082
 4491SOL    HW125109   3.623   0.267  17.233 -0.9562 -1.0536  0.2206
 4491SOL    HW225110   3.518   0.348  17.313 -0.5549 -0.2671 -2.0073
 4492SOL     OW25111   1.501   0.445   4.239 -0.1060  0.1460 -0.0012
 4492SOL    HW125112   1.419   0.482   4.206  0.0178  1.8932  1.6231
 4492SOL    HW225113   1.497   0.368   4.182  0.1332 -0.1998  0.4594
 4493SOL     OW25114   3.622   2.669   2.215  0.3755 -1.0161 -0.2980
 4493SOL    HW125115   3.676   2.612   2.159 -0.2432 -2.1865  0.3015
 4493SOL    HW225116   3.581   2.738   2.163 -3.0962 -3.9167 -1.3606
 4494SOL     OW25117   0.879   3.439  14.705  0.2624 -0.0416  0.0542
 4494SOL    HW125118   0.808   3.421  14.644 -0.6612  0.6159  0.9344
 4494SOL    HW225119   0.862   3.532  14.719  1.3440 -0.1678  2.3690
 4495SOL     OW25120   4.140   3.085   3.585 -0.0139 -0.9302  0.0840
 4495SOL    HW125121   4.175   3.167   3.551 -0.4096 -0.8279 -0.0865
 4495SOL    HW225122   4.078   3.116   3.651  1.7571  0.9006  0.8380
 4496SOL     OW25123   3.140   4.192   4.800  0.1584 -0.4821 -0.1937
 4496SOL    HW125124   3.113   4.167   4.711 -0.6168  1.3018 -0.4726
 4496SOL    HW225125   3.086   4.132   4.851  0.8936 -0.2525  0.8537
 4497SOL     OW25126   0.429   1.106   4.257  0.2775 -0.1854 -0.2066
 4497SOL    HW125127   0.421   1.101   4.162  1.7331 -0.7505 -0.3095
 4497SOL    HW225128   0.525   1.104   4.265  0.2052  1.2677  1.1846
 4498SOL     OW25129   2.902   1.686   5.150 -0.1607 -0.3701 -0.1042
 4498SOL    HW125130   2.973   1.693   5.087 -0.9116 -0.9990 -1.0076
 4498SOL    HW225131   2.935   1.626   5.217 -0.9257 -0.6270  0.0325
 4499SOL     OW25132   3.916   3.432   2.873  0.2083  0.1898 -0.3972
 4499SOL    HW125133   3.941   3.525   2.875 -0.2177  0.3068 -0.4383
 4499SOL    HW225134   3.845   3.433   2.809 -0.6320 -1.5788  0.5133
 4500SOL     OW25135   1.711   4.401   0.024  0.3727 -0.0013  0.2541
 4500SOL    HW125136   1.755   4.484   0.004 -0.7416  0.5671  0.1943
 4500SOL    HW225137   1.674   4.379  17.691  0.9194  0.1152 -0.0150
 4501SOL     OW25138   1.998   0.303  13.344 -0.1952 -0.2833 -0.9062
 4501SOL    HW125139   1.931   0.244  13.378  0.2839 -0.7904 -0.8470
 4501SOL    HW225140   1.965   0.391  13.362  2.3542  0.7556 -1.3363
 4502SOL     OW25141   2.183   1.540  14.714 -0.0445 -0.3048 -0.3273
 4502SOL    HW125142   2.273   1.528  14.682  0.3884  1.0787  0.3659
 4502SOL    HW225143   2.170   1.460  14.765  2.5486  0.8800  2.1867
 4503SOL     OW25144   2.372   2.842  16.413  0.1806  0.4804  0.2643
 4503SOL    HW125145   2.383   2.933  16.441  2.3480  0.0909  0.7084
 4503SOL    HW225146   2.280   2.821  16.424 -0.1339  1.8398  0.1751
 4504SOL     OW25147   2.356   3.379   8.594  0.5432  0.2913  0.5549
 4504SOL    HW125148   2.302   3.445   8.637  1.6121 -0.1287  2.5048
 4504SOL    HW225149   2.343   3.406   8.503  0.0876 -1.7457  0.0135
 4505SOL     OW25150   3.434   2.153  14.720  0.2210  0.0228  0.3812
 4505SOL    HW125151   3.447   2.193  14.634  0.0074 -1.5013 -0.3441
 4505SOL    HW225152   3.454   2.061  14.703  0.9515  0.0206  1.2446
 4506SOL     OW25153   3.768   1.536   4.755 -0.5316 -0.0939 -0.8792
 4506SOL    HW125154   3.763   1.452   4.801  2.5601 -0.2562 -0.8081
 4506SOL    HW225155   3.863   1.544   4.766 -0.9443  1.9001  1.2974
 4507SOL     OW25156   3.713   4.103   4.669  0.4481 -0.0978 -0.0829
 4507SOL    HW125157   3.690   4.040   4.601 -1.2351 -1.2254  1.5154
 4507SOL    HW225158   3.669   4.184   4.646  0.9205  0.0876 -0.3297
 4508SOL     OW25159   1.752   2.325   4.820 -0.0679  0.3420 -0.4439
 4508SOL    HW125160   1.720   2.237   4.802  1.0085 -0.5609  2.0759
 4508SOL    HW225161   1.845   2.328   4.797 -0.4468  0.9976 -1.9084
 4509SOL     OW25162   3.067   1.363  11.863 -0.0601 -0.1273  0.7032
 4509SOL    HW125163   3.002   1.432  11.876 -1.3141 -1.3601  1.0781
 4509SOL    HW225164   3.013   1.297  11.907  0.7202  1.0184  3.3301
 4510SOL     OW25165   4.410   0.117  14.462  0.0977  0.0641  0.2084
 4510SOL    HW125166   4.475   0.056  14.426  0.2247  0.1378  0.3095
 4510SOL    HW225167   4.444   0.199  14.426 -0.9197 -0.4823 -2.0012
 4511SOL     OW25168   2.297   3.269   5.277  0.1045 -0.2190 -0.6822
 4511SOL    HW125169   2.296   3.240   5.186  2.1974 -0.5815 -0.5909
 4511SOL    HW225170   2.374   3.325   5.279 -0.6839  0.8082  1.0217
 4512SOL     OW25171   2.383   2.284  13.138  0.4471  0.4980  0.2264
 4512SOL    HW125172   2.448   2.229  13.095  0.7334 -0.2431  1.6107
 4512SOL    HW225173   2.313   2.222  13.156  1.3765 -0.8007 -0.6077
 4513SOL     OW25174   2.763   1.437   9.102  0.2464 -0.3447 -0.8562
 4513SOL    HW125175   2.749   1.343   9.102  0.7908 -0.4271 -0.5208
 4513SOL    HW225176   2.841   1.443   9.158 -1.8876 -2.1495  2.3230
 4514SOL     OW25177   2.657   2.567   6.891  0.2664 -0.0241 -0.2794
 4514SOL    HW125178   2.594   2.559   6.819 -2.0706  0.3553  1.6914
 4514SOL    HW225179   2.717   2.629   6.850 -0.7947  0.4815 -1.0771
 4515SOL     OW25180   1.432   1.045   5.129  0.2001 -0.2066  0.3001
 4515SOL    HW125181   1.473   0.960   5.142 -2.2507 -1.4740 -0.2227
 4515SOL    HW225182   1.416   1.081   5.217 -0.5455 -3.2184  1.3729
 4516SOL     OW25183   3.100   0.650   7.558 -0.4032  0.1195 -0.3221
 4516SOL    HW125184   3.080   0.743   7.564  1.1834  0.3546  1.3890
 4516SOL    HW225185   3.015   0.621   7.525 -0.2812 -0.1773 -0.3749
 4517SOL     OW25186   0.339   0.466   3.016 -0.2906 -0.1346  0.4088
 4517SOL    HW125187   0.414   0.488   3.071 -0.4158 -0.6062  0.7652
 4517SOL    HW225188   0.271   0.452   3.082 -1.1111  0.4506 -0.3032
 4518SOL     OW25189   0.997   1.981   1.870  0.2356  0.0563 -0.5673
 4518SOL    HW125190   1.060   2.047   1.841  0.0746  0.8549  0.8686
 4518SOL    HW225191   0.918   2.034   1.882  0.2534  0.4291 -2.1992
 4519SOL     OW25192   0.853   3.104  10.675 -0.0199  0.2418 -0.3188
 4519SOL    HW125193   0.939   3.084  10.638  1.0254 -1.6424  3.1560
 4519SOL    HW225194   0.867   3.194  10.703 -3.8373  0.5287  0.6764
 4520SOL     OW25195   4.327   0.811   8.955  0.5377 -0.1084 -0.3238
 4520SOL    HW125196   4.381   0.806   9.034 -2.9627  1.0330  2.1404
 4520SOL    HW225197   4.392   0.824   8.886  1.5129 -1.2799  0.3757
 4521SOL     OW25198   1.837   3.188   2.081 -0.3960  0.4811  0.2525
 4521SOL    HW125199   1.781   3.139   2.141 -0.2307  2.4140  2.0005
 4521SOL    HW225200   1.870   3.114   2.030 -1.9371  0.2150 -0.3635
 4522SOL     OW25201   3.322   1.948  10.017  0.0976 -0.4827  0.4191
 4522SOL    HW125202   3.382   1.976   9.948 -0.7135  2.2770  0.8442
 4522SOL    HW225203   3.243   1.933   9.966  0.5203  0.8713 -0.6516
 4523SOL     OW25204   1.768   1.789   3.388 -0.3149 -0.2552 -0.0411
 4523SOL    HW125205   1.862   1.786   3.401 -0.9277  0.6882  4.7373
 4523SOL    HW225206   1.743   1.746   3.469 -1.4404 -0.4367 -0.4758
 4524SOL     OW25207   0.525   4.623   6.987 -0.1323  0.3373 -0.2381
 4524SOL    HW125208   0.453   4.608   7.048 -0.0100  0.3864 -0.0833
 4524SOL    HW225209   0.595   4.584   7.040  0.1572 -1.4488 -1.9304
 4525SOL     OW25210   4.443   2.749   9.470 -0.0521  0.4103  0.0090
 4525SOL    HW125211   4.497   2.801   9.412 -1.0673  2.4121  0.8596
 4525SOL    HW225212   4.505   2.687   9.508 -0.7370 -1.2492 -1.5784
 4526SOL     OW25213   4.436   1.573   8.131 -0.4715 -0.1914 -0.1350
 4526SOL    HW125214   4.501   1.609   8.192 -1.4432  0.4778  0.4967
 4526SOL    HW225215   4.401   1.648   8.083 -2.1629 -2.6008 -2.6638
 4527SOL     OW25216   0.441   3.290   5.444  0.7227 -0.6631  0.3957
 4527SOL    HW125217   0.514   3.311   5.502  1.0470 -0.6008 -0.0335
 4527SOL    HW225218   0.399   3.372   5.421  0.2514 -1.6258 -2.1573
 4528SOL     OW25219   3.116   4.029   8.597 -0.3214  0.2790  0.0338
 4528SOL    HW125220   3.175   4.059   8.528 -0.0130  0.8299  0.5474
 4528SOL    HW225221   3.089   4.117   8.624  1.3661  0.6659  0.4463
 4529SOL     OW25222   0.286   1.689   9.038  0.3116 -0.6034 -0.1321
 4529SOL    HW125223   0.346   1.705   9.111 -0.3043 -1.7382  0.6219
 4529SOL    HW225224   0.245   1.775   9.024  1.9295  0.4208  1.3339
 4530SOL     OW25225   0.921   3.160   7.307  0.2090 -0.5009  0.1213
 4530SOL    HW125226   0.865   3.169   7.230  0.5368  0.1979 -0.0388
 4530SOL    HW225227   0.982   3.097   7.269 -2.3366 -1.5245 -2.2406
 4531SOL     OW25228   1.892   4.064   6.053  0.2253 -0.0240  0.4812
 4531SOL    HW125229   1.853   3.978   6.070  0.8884 -0.4206 -0.0026
 4531SOL    HW225230   1.838   4.123   6.106 -0.2734 -1.5876  1.7370
 4532SOL     OW25231   3.802   0.476  16.125  0.3299  0.4056 -0.3699
 4532SOL    HW125232   3.855   0.405  16.091 -0.9718 -0.5409 -0.4470
 4532SOL    HW225233   3.870   0.543  16.130  0.3021  0.4503 -0.5826
 4533SOL     OW25234   2.919   0.259  12.146  0.6559 -0.4753 -0.7305
 4533SOL    HW125235   2.989   0.324  12.157  0.8446 -1.1658  2.0577
 4533SOL    HW225236   2.942   0.199  12.076  0.0735  0.6164 -1.8494
 4534SOL     OW25237   2.594   3.183   7.301  0.1080 -0.1653 -0.4545
 4534SOL    HW125238   2.599   3.245   7.374 -0.3378 -0.2252 -0.3729
 4534SOL    HW225239   2.600   3.103   7.354  0.4183 -0.7524 -1.3736
 4535SOL     OW25240   2.759   4.095   2.145  0.2945 -0.0106 -0.2592
 4535SOL    HW125241   2.665   4.091   2.127  0.5841  0.4159 -1.8229
 4535SOL    HW225242   2.771   4.009   2.185 -0.1588 -0.2866 -0.7206
 4536SOL     OW25243   3.376   3.451   9.882 -0.5002 -0.6284  0.8325
 4536SOL    HW125244   3.409   3.416   9.965  2.5003 -1.9189 -0.9230
 4536SOL    HW225245   3.290   3.484   9.909  1.2273  2.1047  3.0524
 4537SOL     OW25246   2.410   3.868   2.246 -0.0460 -0.2470  0.1428
 4537SOL    HW125247   2.467   3.922   2.302 -1.0230 -0.8846  1.7648
 4537SOL    HW225248   2.461   3.851   2.168 -2.0397 -2.0937 -0.7620
 4538SOL     OW25249   1.267   4.630   3.207  0.4904  0.1481  0.2120
 4538SOL    HW125250   1.323   4.645   3.283  0.2853  2.2418 -0.0711
 4538SOL    HW225251   1.331   4.578   3.158 -0.4153 -0.4920 -0.3053
 4539SOL     OW25252   0.601   1.418   9.734 -0.1354 -0.2858 -0.3646
 4539SOL    HW125253   0.666   1.422   9.804 -2.5801 -0.6093  1.9199
 4539SOL    HW225254   0.536   1.443   9.799  0.3248 -2.3009  0.8558
 4540SOL     OW25255   2.672   2.879   1.522 -0.0510  0.3207 -0.0067
 4540SOL    HW125256   2.583   2.895   1.554 -0.0545  0.4191 -0.0673
 4540SOL    HW225257   2.674   2.784   1.531 -2.2221  0.2808  0.1194
 4541SOL     OW25258   1.710   1.102   4.760  0.0039 -0.2835  0.0128
 4541SOL    HW125259   1.670   1.108   4.673 -0.0832 -0.0341  0.0727
 4541SOL    HW225260   1.745   1.012   4.760 -0.3584 -0.4245 -0.7094
 4542SOL     OW25261   1.009   4.689   5.074  0.5501 -0.3179 -0.0954
 4542SOL    HW125262   0.922   4.663   5.103 -0.2443  0.8955 -1.4223
 4542SOL    HW225263   0.993   0.038   5.038  0.7946 -0.5965 -0.8936
 4543SOL     OW25264   2.207   2.009   8.102  0.1337  0.4834  0.3492
 4543SOL    HW125265   2.223   1.953   8.026 -1.5326  2.8336 -1.7647
 4543SOL    HW225266   2.223   2.092   8.056 -1.3424  0.0355 -0.9537
 4544SOL     OW25267   3.115   2.147   0.627  0.0540 -0.0322 -0.3713
 4544SOL    HW125268   3.164   2.226   0.603 -0.8160  1.1934  1.8770
 4544SOL    HW225269   3.188   2.087   0.644 -0.1858 -0.2954 -0.2887
 4545SOL     OW25270   1.088   2.011   7.497 -0.1858 -0.3854 -0.0918
 4545SOL    HW125271   1.102   1.917   7.505  1.3459 -0.2742 -1.4038
 4545SOL    HW225272   1.020   2.022   7.431  2.1433 -0.1879 -2.4963
 4546SOL     OW25273   2.922   1.533   9.659  0.0098 -0.1075 -0.3637
 4546SOL    HW125274   2.847   1.593   9.664  1.7234  2.1647 -1.7942
 4546SOL    HW225275   2.894   1.472   9.591 -2.5231  1.1553 -0.4642
 4547SOL     OW25276   4.496   0.968  17.360 -0.5252 -0.2369  0.1104
 4547SOL    HW125277   4.556   1.024  17.409  0.7037 -0.2611 -1.3375
 4547SOL    HW225278   4.415   1.014  17.381 -0.4731  0.7720 -1.8549
 4548SOL     OW25279   4.207   4.251  10.043 -0.7798 -0.4340 -0.1854
 4548SOL    HW125280   4.288   4.201  10.036 -0.8726 -1.0542  3.3281
 4548SOL    HW225281   4.247   4.326   9.999 -1.4333 -0.4372 -0.7853
 4549SOL     OW25282   3.675   3.163  14.279 -0.0864 -0.2603  0.2719
 4549SOL    HW125283   3.747   3.179  14.218 -0.6254  0.3138 -0.2019
 4549SOL    HW225284   3.619   3.233  14.246 -0.1625 -1.0295 -1.2136
 4550SOL     OW25285   0.412   0.140   4.727 -0.0757 -0.5244  0.0934
 4550SOL    HW125286   0.388   0.210   4.667 -1.5500 -1.5935 -0.5710
 4550SOL    HW225287   0.496   0.169   4.761  0.8609 -0.8152 -1.9774
 4551SOL     OW25288   2.346   0.741   5.787 -0.4026  0.3197 -0.1649
 4551SOL    HW125289   2.270   0.752   5.844 -0.0279  2.6596 -0.1130
 4551SOL    HW225290   2.411   0.800   5.825  1.5409 -0.9356 -1.5152
 4552SOL     OW25291   2.317   0.389   1.725 -0.3196  0.3198 -0.6130
 4552SOL    HW125292   2.282   0.310   1.685 -0.0447  0.3529 -0.9214
 4552SOL    HW225293   2.410   0.376   1.706  0.3333  2.5502  1.0903
 4553SOL     OW25294   1.375   0.095   7.531 -0.2197 -0.0231  0.2090
 4553SOL    HW125295   1.353   0.087   7.624 -0.1879 -0.4167  0.1823
 4553SOL    HW225296   1.326   0.177   7.519  2.3832  1.3680 -0.8958
 4554SOL     OW25297   2.741   0.921   1.595  0.1453  0.2716  0.0817
 4554SOL    HW125298   2.707   0.835   1.571  1.3821  0.5056 -2.4246
 4554SOL    HW225299   2.687   0.975   1.537 -1.0465 -1.1558 -0.1271
 4555SOL     OW25300   1.539   1.193  15.622  0.5494  0.4734  0.6239
 4555SOL    HW125301   1.479   1.120  15.634  2.0471 -1.3935 -3.0310
 4555SOL    HW225302   1.483   1.271  15.625  2.1048  1.5687  1.2480
 4556SOL     OW25303   4.628   1.199   6.804  0.1521 -0.2127 -0.3199
 4556SOL    HW125304   4.712   1.204   6.850  0.3699  0.9772 -0.8432
 4556SOL    HW225305   4.626   1.104   6.796 -0.4485 -0.2032 -0.2563
 4557SOL     OW25306   2.451   4.595   8.307  0.1804 -0.0797 -0.1123
 4557SOL    HW125307   2.431   4.650   8.383 -0.5897 -0.6972  0.1209
 4557SOL    HW225308   2.513   4.645   8.254  0.2050 -1.2749 -1.2037
 4558SOL     OW25309   1.560   3.776  11.510  0.4328  0.0529 -0.1350
 4558SOL    HW125310   1.538   3.689  11.543  0.9362 -0.2317 -0.5507
 4558SOL    HW225311   1.598   3.756  11.424 -0.3180 -1.0761 -0.1988
 4559SOL     OW25312   2.666   0.690   8.250 -0.4527 -0.0740 -0.2116
 4559SOL    HW125313   2.671   0.670   8.157  1.6032 -2.9395  0.5096
 4559SOL    HW225314   2.754   0.659   8.272 -0.5100  1.1357  1.8136
 4560SOL     OW25315   2.835   3.211   0.072 -0.0062  0.6729 -0.1932
 4560SOL    HW125316   2.818   3.236  17.734 -0.2434 -0.0643 -0.3503
 4560SOL    HW225317   2.747   3.202   0.108 -0.9899  0.5000 -2.6323
 4561SOL     OW25318   1.911   4.217   8.752  0.2735  0.2801  0.4884
 4561SOL    HW125319   1.988   4.260   8.792 -0.4098 -1.0340  3.1953
 4561SOL    HW225320   1.850   4.223   8.825 -0.7757 -0.8516 -0.3154
 4562SOL     OW25321   0.191   1.094   6.267  0.2516 -0.3815 -0.0564
 4562SOL    HW125322   0.222   1.162   6.326  0.7611 -0.4549 -0.2414
 4562SOL    HW225323   0.130   1.131   6.203 -0.5401 -0.7205  0.4888
 4563SOL     OW25324   3.598   2.438   5.966 -0.2439 -0.2347 -0.1879
 4563SOL    HW125325   3.630   2.352   5.993  0.5081  0.1387  0.1217
 4563SOL    HW225326   3.506   2.422   5.948 -0.4711  1.2147 -0.3324
 4564SOL     OW25327   2.276   0.254  12.494 -0.2678 -0.6609  0.2213
 4564SOL    HW125328   2.215   0.190  12.530 -1.5401  0.7961  0.6314
 4564SOL    HW225329   2.270   0.317  12.565  0.4522  2.5798 -2.5776
 4565SOL     OW25330   2.618   2.349  12.343 -0.2434 -0.0536  0.2345
 4565SOL    HW125331   2.657   2.362  12.429 -0.8301 -1.1699  0.6764
 4565SOL    HW225332   2.683   2.283  12.321  1.0072  1.3196 -0.1835
 4566SOL     OW25333   1.408   4.688  16.785 -0.4429  0.0487  0.5252
 4566SOL    HW125334   1.312   4.698  16.786 -0.5612 -0.9281 -0.2609
 4566SOL    HW225335   1.434   0.041  16.795 -2.0800  0.8037 -1.9506
 4567SOL     OW25336   2.117   0.603   8.266 -0.4369  0.0203  0.0596
 4567SOL    HW125337   2.184   0.617   8.333 -0.5819 -0.5510  0.3277
 4567SOL    HW225338   2.069   0.526   8.297  0.0865  0.5880  2.2962
 4568SOL     OW25339   0.215   1.092  17.298 -0.3614 -0.0480  0.1267
 4568SOL    HW125340   0.134   1.106  17.249  0.7578  1.4287 -1.2947
 4568SOL    HW225341   0.274   1.137  17.237 -1.5733  0.1692 -0.8903
 4569SOL     OW25342   2.120   1.598   6.370  0.3997 -0.1920  0.0678
 4569SOL    HW125343   2.128   1.592   6.465  0.1934 -1.9639 -0.0424
 4569SOL    HW225344   2.077   1.519   6.337  0.9332 -1.4517  2.3966
 4570SOL     OW25345   4.541   3.023   5.172  0.3279 -0.1947  0.4996
 4570SOL    HW125346   4.515   2.938   5.137 -2.8548  1.4850 -1.1185
 4570SOL    HW225347   4.475   3.076   5.130  2.3962  1.5807 -0.5063
 4571SOL     OW25348   2.350   2.126   2.310 -0.0491 -0.0646 -0.5850
 4571SOL    HW125349   2.258   2.109   2.328 -0.0859 -1.6874 -2.2804
 4571SOL    HW225350   2.362   2.068   2.234 -0.4434  0.7546 -1.2750
 4572SOL     OW25351   0.292   4.474   3.047 -0.2565 -0.0803  0.1946
 4572SOL    HW125352   0.338   4.502   3.125  0.7761  1.4077 -0.9508
 4572SOL    HW225353   0.208   4.519   3.055  0.3658  1.1777 -0.4373
 4573SOL     OW25354   0.720   4.113   2.286 -0.4386  0.6736  0.5588
 4573SOL    HW125355   0.804   4.159   2.280  0.8151 -1.8832 -1.2618
 4573SOL    HW225356   0.663   4.177   2.330 -0.7270  1.3026 -0.7109
 4574SOL     OW25357   3.330   1.626  11.353 -0.1148 -0.1629 -0.1691
 4574SOL    HW125358   3.355   1.682  11.280  0.7652  2.5622  2.2061
 4574SOL    HW225359   3.244   1.590  11.334 -0.9617  1.1108  1.2229
 4575SOL     OW25360   1.825   3.565   3.382 -0.8297  0.8381  0.0189
 4575SOL    HW125361   1.759   3.584   3.316 -2.3669 -3.2444  0.3450
 4575SOL    HW225362   1.824   3.471   3.363  2.7241  0.5816  1.1193
 4576SOL     OW25363   0.197   2.584   8.347  0.4907 -0.6210  0.3546
 4576SOL    HW125364   0.178   2.524   8.419  0.0823  0.8957  1.4983
 4576SOL    HW225365   0.195   2.523   8.274 -0.6796 -0.9659  0.6693
 4577SOL     OW25366   1.072   3.855  10.308  0.5298  0.6133 -0.3054
 4577SOL    HW125367   1.102   3.942  10.336  1.5724  0.5707 -1.3297
 4577SOL    HW225368   0.980   3.852  10.335  0.6968  0.4144  0.2413
 4578SOL     OW25369   3.659   0.286   4.603 -0.3898  0.1554  0.2422
 4578SOL    HW125370   3.744   0.273   4.562 -0.0999 -0.6583  1.1018
 4578SOL    HW225371   3.686   0.317   4.689 -0.1358  0.5197  0.0265
 4579SOL     OW25372   3.167   1.266   7.643  0.0507 -0.8158 -0.1071
 4579SOL    HW125373   3.074   1.269   7.621  0.9317 -1.1031 -3.8313
 4579SOL    HW225374   3.195   1.179   7.613  3.4499 -0.3071  1.5987
 4580SOL     OW25375   0.401   3.940   5.072 -0.6566 -0.5382 -0.3821
 4580SOL    HW125376   0.459   3.982   5.136  2.0943 -0.1115 -3.1525
 4580SOL    HW225377   0.390   3.855   5.115  0.3110 -0.3175  0.2901
 4581SOL     OW25378   1.410   3.766   5.166  0.3941 -0.3451  0.3717
 4581SOL    HW125379   1.475   3.771   5.236  0.6263 -0.8154  0.1919
 4581SOL    HW225380   1.468   3.779   5.091  0.9666  1.9078  1.2172
 4582SOL     OW25381   2.704   3.019   7.837 -0.2549  0.2061 -0.1960
 4582SOL    HW125382   2.760   3.063   7.901  0.5536 -0.3721 -0.5019
 4582SOL    HW225383   2.620   3.064   7.846  0.3814  1.2647  0.3882
 4583SOL     OW25384   4.220   1.923   3.291 -0.6416  0.3829 -0.1240
 4583SOL    HW125385   4.263   1.993   3.242 -1.1563 -1.1349 -2.7140
 4583SOL    HW225386   4.287   1.854   3.288  0.7828  1.7557  0.1223
 4584SOL     OW25387   3.156   2.937   7.190 -0.2964 -0.0016  0.0024
 4584SOL    HW125388   3.166   2.855   7.238  2.2017  0.5662  0.4656
 4584SOL    HW225389   3.246   2.969   7.197 -0.5504  0.5400  0.8422
 4585SOL     OW25390   2.540   2.141   6.160 -0.5916  0.0947 -0.0893
 4585SOL    HW125391   2.467   2.178   6.208 -0.6931  0.1260 -0.2675
 4585SOL    HW225392   2.604   2.212   6.169  0.0389 -0.5486  0.5097
 4586SOL     OW25393   1.248   0.963   7.075  0.2713  0.5077  0.3241
 4586SOL    HW125394   1.185   1.034   7.088 -1.2033 -0.7311 -0.1280
 4586SOL    HW225395   1.184   0.892   7.074 -0.0739  0.7914  1.6771
 4587SOL     OW25396   1.271   1.025   7.668 -0.0506 -0.8560 -0.1190
 4587SOL    HW125397   1.251   1.014   7.575 -1.9319 -1.5219  0.3700
 4587SOL    HW225398   1.363   0.997   7.670 -0.4391 -2.1697 -0.8956
 4588SOL     OW25399   0.811   0.035   4.741 -0.1556 -0.5524  0.1775
 4588SOL    HW125400   0.775   4.700   4.790 -0.6797  0.9020  2.0031
 4588SOL    HW225401   0.768   0.113   4.776  1.7561  0.5580  0.0744
 4589SOL     OW25402   4.501   1.022   8.267  0.4830  0.3669 -0.6015
 4589SOL    HW125403   4.505   1.113   8.239  3.6735  0.2587 -0.5207
 4589SOL    HW225404   4.550   0.976   8.199  0.6252 -0.9552  0.4025
 4590SOL     OW25405   4.311   4.260   5.370 -0.1923  0.2760  0.2109
 4590SOL    HW125406   4.235   4.206   5.393 -2.2042  2.6452 -0.8318
 4590SOL    HW225407   4.336   4.283   5.459 -1.7260  0.9522  0.4702
 4591SOL     OW25408   4.113   3.086   4.622 -0.8528  0.0544  0.1215
 4591SOL    HW125409   4.040   3.030   4.649  0.1622 -1.4085 -0.1298
 4591SOL    HW225410   4.186   3.059   4.678  1.5977  0.7477 -2.7322
 4592SOL     OW25411   1.958   4.498   6.257 -0.4243 -0.4003 -0.5291
 4592SOL    HW125412   1.890   4.538   6.312  1.2628  2.2117 -0.3226
 4592SOL    HW225413   1.913   4.416   6.239 -1.2562 -0.1197  0.2211
 4593SOL     OW25414   1.688   3.577   8.201 -0.1548 -0.0182 -0.0994
 4593SOL    HW125415   1.728   3.652   8.245 -1.9396  0.2912  1.0210
 4593SOL    HW225416   1.608   3.572   8.254  0.9533 -0.7030  1.4938
 4594SOL     OW25417   1.239   3.764   9.092 -0.6431  0.0068 -0.0429
 4594SOL    HW125418   1.198   3.809   9.167  0.3418 -2.1534  1.7841
 4594SOL    HW225419   1.311   3.823   9.071 -0.7788  0.9671  2.1876
 4595SOL     OW25420   0.367   3.468   7.503 -0.5312 -0.3830  0.3305
 4595SOL    HW125421   0.375   3.494   7.411  0.1027 -1.5357  0.0581
 4595SOL    HW225422   0.417   3.544   7.532 -1.6942  1.3991 -2.3099
 4596SOL     OW25423   1.848   0.032   3.069  0.5252  0.7800 -0.1313
 4596SOL    HW125424   1.855   0.094   2.996  0.3617 -0.3247 -1.0847
 4596SOL    HW225425   1.753   0.029   3.078  0.8334  0.9846  3.0154
 4597SOL     OW25426   0.766   1.571   7.404 -0.1579  0.5994  0.0781
 4597SOL    HW125427   0.678   1.609   7.400  0.2047  1.2033 -2.5017
 4597SOL    HW225428   0.808   1.649   7.366 -0.4489  0.1188 -1.2297
 4598SOL     OW25429   4.324   2.580   3.737 -0.2885 -0.3055  0.2201
 4598SOL    HW125430   4.244   2.532   3.756  0.7886 -2.1586  0.1227
 4598SOL    HW225431   4.386   2.514   3.768  0.3628  0.2864  0.1834
 4599SOL     OW25432   0.619   0.597   5.683  0.2870 -0.1070  0.1009
 4599SOL    HW125433   0.662   0.585   5.598  1.3839 -1.3483  0.8273
 4599SOL    HW225434   0.536   0.550   5.673 -0.5751  1.1881  1.1258
 4600SOL     OW25435   0.816   3.025   9.525  0.2626 -0.4454  0.3230
 4600SOL    HW125436   0.904   3.011   9.490  0.6498 -1.2188  1.5997
 4600SOL    HW225437   0.830   3.114   9.558  1.6585 -0.8313  0.7704
 4601SOL     OW25438   1.299   1.276  14.396 -0.0164  0.2114 -0.0743
 4601SOL    HW125439   1.316   1.370  14.394 -1.7509  0.5635  1.4561
 4601SOL    HW225440   1.384   1.239  14.371 -1.4949 -3.2158 -0.0687
 4602SOL     OW25441   0.837   1.382   9.880  0.3739 -0.6466  0.2640
 4602SOL    HW125442   0.915   1.435   9.897  1.7601 -2.8721  0.7985
 4602SOL    HW225443   0.827   1.332   9.961  1.1546  1.5710  1.7382
 4603SOL     OW25444   0.057   1.774   1.895 -0.0606  0.3692 -0.3901
 4603SOL    HW125445   4.728   1.708   1.907  1.2995 -0.7209  1.3348
 4603SOL    HW225446   0.003   1.838   1.850 -2.3074  0.3287  2.2633
 4604SOL     OW25447   0.781   2.765   2.164  0.2616 -0.2529  0.1440
 4604SOL    HW125448   0.785   2.832   2.232 -0.1763  0.0426 -0.1190
 4604SOL    HW225449   0.687   2.752   2.149  0.8673 -3.5647 -0.8332
 4605SOL     OW25450   0.119   4.267  15.695  0.1713 -0.3677 -0.1787
 4605SOL    HW125451   0.029   4.300  15.691  0.2539  0.1127  1.9729
 4605SOL    HW225452   0.143   4.264  15.788  0.1788 -0.1213 -0.1733
 4606SOL     OW25453   3.060   0.554   2.405 -0.4744  0.0806 -0.1584
 4606SOL    HW125454   3.070   0.479   2.346 -0.6011 -0.2770  0.2688
 4606SOL    HW225455   2.969   0.542   2.431  0.6987 -1.5545  3.2615
 4607SOL     OW25456   0.023   0.408  11.358 -0.1880  0.3842  0.3553
 4607SOL    HW125457   4.707   0.474  11.401 -1.4103 -1.5749  1.8529
 4607SOL    HW225458   0.049   0.360  11.436 -0.9871 -0.0297  0.3745
 4608SOL     OW25459   3.365   0.376   1.313  0.0011 -0.4559  0.0918
 4608SOL    HW125460   3.279   0.371   1.354 -0.4668 -3.3265 -1.1687
 4608SOL    HW225461   3.348   0.419   1.230 -0.0109  1.4626  1.0924
 4609SOL     OW25462   2.157   4.365   5.121  0.3781  0.0072 -0.1679
 4609SOL    HW125463   2.142   4.292   5.181 -1.4643  0.9289  0.4870
 4609SOL    HW225464   2.076   4.416   5.119  0.6167  0.3564 -0.7936
 4610SOL     OW25465   3.016   2.149   5.958  0.1103 -0.3236  0.5646
 4610SOL    HW125466   3.039   2.192   5.876  0.0126 -1.3744 -0.0180
 4610SOL    HW225467   2.954   2.216   5.986  1.2078  0.9409 -0.0392
 4611SOL     OW25468   3.081   3.846   0.730 -0.4138 -0.4696 -0.5110
 4611SOL    HW125469   3.017   3.794   0.682  0.8380 -0.2397 -2.4227
 4611SOL    HW225470   3.099   3.780   0.797 -1.4778 -1.5181 -1.2774
 4612SOL     OW25471   2.262   4.474   8.608 -0.5645  0.5904 -0.7585
 4612SOL    HW125472   2.265   4.562   8.569  0.5185  0.2373 -1.4705
 4612SOL    HW225473   2.210   4.496   8.685 -0.2458 -0.2128 -0.3172
 4613SOL     OW25474   3.675   3.608   6.774 -0.2543  0.4536  0.0928
 4613SOL    HW125475   3.676   3.592   6.868 -0.1895 -0.2222 -0.0234
 4613SOL    HW225476   3.611   3.677   6.785 -0.2684  0.4009  0.3247
 4614SOL     OW25477   2.658   2.674   7.184 -0.0522  0.2093 -0.4379
 4614SOL    HW125478   2.739   2.685   7.135  1.4935  1.9554  2.4840
 4614SOL    HW225479   2.600   2.642   7.115 -1.0853  2.8897 -0.7801
 4615SOL     OW25480   1.459   0.808   7.310  0.7286 -0.0019 -0.4201
 4615SOL    HW125481   1.469   0.901   7.288 -1.3696 -0.1667 -2.0633
 4615SOL    HW225482   1.447   0.772   7.222  2.8527  0.9687 -1.1213
 4616SOL     OW25483   4.163   2.220  11.997  0.6166 -0.0040 -0.2628
 4616SOL    HW125484   4.198   2.307  12.016  1.0101  0.2118 -2.0438
 4616SOL    HW225485   4.122   2.206  12.083  0.7883  3.3563  0.3546
 4617SOL     OW25486   1.427   4.648   2.613 -0.3536  0.1897  0.4343
 4617SOL    HW125487   1.478   4.579   2.656 -0.0090  0.3560  0.2889
 4617SOL    HW225488   1.417   4.621   2.522 -0.5850  0.4888  0.3688
 4618SOL     OW25489   2.025   3.968   6.445 -0.0860 -0.0821  0.2873
 4618SOL    HW125490   2.046   4.032   6.377  0.7665  1.8194  2.3311
 4618SOL    HW225491   1.970   4.024   6.500  1.4281  0.9101  0.8106
 4619SOL     OW25492   3.250   1.575   8.839 -0.0957  0.2502  0.6206
 4619SOL    HW125493   3.225   1.533   8.757  2.6762 -0.0925 -0.0311
 4619SOL    HW225494   3.285   1.659   8.808  1.5291 -0.9067 -0.6484
 4620SOL     OW25495   4.152   2.913   5.190  0.4122 -0.2982 -0.2706
 4620SOL    HW125496   4.144   2.833   5.139  2.4304 -0.4970 -0.2610
 4620SOL    HW225497   4.066   2.918   5.232  0.7562  3.1043  0.0840
 4621SOL     OW25498   0.171   2.287   2.143 -0.4505  0.0545 -0.2007
 4621SOL    HW125499   0.211   2.316   2.225 -0.4572 -0.7094  0.0806
 4621SOL    HW225500   0.183   2.359   2.082  1.6535  1.0922  1.4421
 4622SOL     OW25501   2.745   3.196   6.253 -0.1867 -0.1191  0.1208
 4622SOL    HW125502   2.687   3.271   6.259 -2.5649 -1.9660  0.1353
 4622SOL    HW225503   2.827   3.245   6.247 -0.3071 -0.0232 -0.6993
 4623SOL     OW25504   2.664   3.863  12.509 -0.4678 -0.2670 -0.1746
 4623SOL    HW125505   2.670   3.897  12.419  0.8989 -3.8191 -1.3997
 4623SOL    HW225506   2.724   3.789  12.503  2.0277  1.5295  2.3409
 4624SOL     OW25507   4.631   0.273  16.764 -0.3078  0.4048 -0.0596
 4624SOL    HW125508   4.581   0.206  16.718 -0.0574  1.0352 -1.2397
 4624SOL    HW225509   4.562   0.328  16.802 -1.5780 -1.0288 -0.3244
 4625SOL     OW25510   4.094   0.995   0.492 -0.8753 -0.1607  0.1735
 4625SOL    HW125511   4.137   0.927   0.442 -1.6809 -0.7885  0.3210
 4625SOL    HW225512   4.033   1.033   0.429 -0.5662  0.1157  0.0455
 4626SOL     OW25513   2.754   1.831   2.073  0.0520 -0.2197  0.1959
 4626SOL    HW125514   2.820   1.860   2.011  0.1553 -2.4055 -0.7192
 4626SOL    HW225515   2.693   1.778   2.022  0.1379  0.7122 -0.8541
 4627SOL     OW25516   3.380   1.720   4.412 -0.2418 -0.1987 -0.7348
 4627SOL    HW125517   3.332   1.762   4.484  1.2785  2.1076 -1.0563
 4627SOL    HW225518   3.452   1.681   4.462  0.3611  1.6194 -0.1797
 4628SOL     OW25519   2.423   1.386   6.667 -0.3759 -0.3320 -0.5742
 4628SOL    HW125520   2.414   1.457   6.603  1.7075 -0.1582 -0.6865
 4628SOL    HW225521   2.447   1.318   6.605  0.6681 -0.6508  0.1719
 4629SOL     OW25522   1.783   0.512   0.569 -0.2897  0.6694  0.5112
 4629SOL    HW125523   1.720   0.443   0.552  0.4868 -0.2290  1.2911
 4629SOL    HW225524   1.769   0.573   0.496  5.4367  0.9848 -0.3495
 4630SOL     OW25525   0.002   2.229   1.125 -0.1905 -0.1502  0.3123
 4630SOL    HW125526   0.035   2.146   1.159 -0.3627  0.3328  1.6870
 4630SOL    HW225527   4.650   2.208   1.103  0.6324 -0.9123 -2.2753
 4631SOL     OW25528   0.737   4.462  13.146 -0.2457 -0.1931 -0.0683
 4631SOL    HW125529   0.699   4.444  13.060  0.0615 -2.3682  0.2435
 4631SOL    HW225530   0.755   4.371  13.171 -0.1776 -0.3731 -0.7725
 4632SOL     OW25531   1.290   2.109  14.158  0.2093  0.1360  0.0742
 4632SOL    HW125532   1.256   2.073  14.076  1.1344  0.1110 -0.3014
 4632SOL    HW225533   1.282   2.205  14.162  0.6475  0.1360  0.9599
 4633SOL     OW25534   3.202   0.203   1.970 -0.1605  0.2679 -0.0427
 4633SOL    HW125535   3.225   0.277   1.914 -0.0410  0.2161 -0.0639
 4633SOL    HW225536   3.149   0.249   2.034 -0.7653  1.0821 -1.1249
 4634SOL     OW25537   4.664   2.566   8.114 -0.1292 -0.5389  0.5667
 4634SOL    HW125538   4.595   2.622   8.078 -0.1416 -0.5183  0.6238
 4634SOL    HW225539   4.622   2.545   8.197 -0.1524 -2.4587  0.0849
 4635SOL     OW25540   0.401   0.920   2.665  0.0886  0.4847  0.6191
 4635SOL    HW125541   0.430   0.928   2.575 -1.7010 -0.7132 -0.0754
 4635SOL    HW225542   0.321   0.971   2.656 -1.2452 -1.3071  2.2115
 4636SOL     OW25543   3.177   2.317  14.912 -0.6258  0.6164 -0.1009
 4636SOL    HW125544   3.145   2.406  14.923 -2.5990 -0.0397 -0.6061
 4636SOL    HW225545   3.261   2.315  14.958 -0.4997  2.8223 -0.2327
 4637SOL     OW25546   2.071   4.545   7.142  0.4082 -0.1342 -0.2815
 4637SOL    HW125547   2.017   4.466   7.152 -1.3697  1.2776  1.1805
 4637SOL    HW225548   2.098   4.551   7.234 -0.1855 -0.0794 -0.1076
 4638SOL     OW25549   2.557   3.158   5.880  0.1952 -0.0767  0.1845
 4638SOL    HW125550   2.590   3.129   5.796  0.7641  0.2923  0.2871
 4638SOL    HW225551   2.516   3.079   5.915  1.5415 -1.8183 -2.2004
 4639SOL     OW25552   1.519   2.335   8.634  0.4319 -0.1885 -0.4210
 4639SOL    HW125553   1.470   2.268   8.681 -1.0352  1.0220 -0.2345
 4639SOL    HW225554   1.489   2.316   8.545 -0.4638  0.4706 -0.2496
 4640SOL     OW25555   1.821   4.253   6.253  0.3030 -0.1819  0.1934
 4640SOL    HW125556   1.725   4.259   6.261  0.3424 -0.7193  1.1492
 4640SOL    HW225557   1.842   4.234   6.345  2.2208  1.4326  0.0786
 4641SOL     OW25558   0.872   4.380   1.563  0.1903  0.1336 -0.4274
 4641SOL    HW125559   0.787   4.353   1.528 -0.0286  2.4807 -1.7522
 4641SOL    HW225560   0.844   4.434   1.637 -0.9485 -0.9475 -0.0804
 4642SOL     OW25561   0.200   0.957  12.530  0.4045 -0.0487  0.2068
 4642SOL    HW125562   0.141   0.989  12.599 -1.0039 -1.9093 -0.1398
 4642SOL    HW225563   0.245   0.887  12.577 -0.4161 -0.2565  0.6785
 4643SOL     OW25564   4.440   3.253   7.402  0.1259 -0.3642 -0.6619
 4643SOL    HW125565   4.512   3.189   7.407 -1.5641 -2.1500  0.7713
 4643SOL    HW225566   4.423   3.247   7.308 -0.1352  0.9610 -0.6949
 4644SOL     OW25567   1.409   4.024  10.902  0.2476  0.0912 -0.0816
 4644SOL    HW125568   1.486   3.988  10.946  0.8654  0.5394 -0.8030
 4644SOL    HW225569   1.432   4.107  10.860  0.7654 -0.3369 -0.6455
 4645SOL     OW25570   0.166   3.911  14.629 -0.1173 -0.2239 -0.6255
 4645SOL    HW125571   0.129   3.970  14.695 -1.0240  0.8737 -2.1053
 4645SOL    HW225572   0.252   3.893  14.666 -0.9110  0.1095  1.3653
 4646SOL     OW25573   0.119   0.349  12.491  0.0698 -0.0539  0.1692
 4646SOL    HW125574   0.040   0.404  12.491  1.9986  2.7317 -0.7498
 4646SOL    HW225575   0.076   0.264  12.499 -0.2134  0.0177 -0.6622
 4647SOL     OW25576   0.159   2.534   9.244  0.2974 -0.2676  0.0909
 4647SOL    HW125577   0.164   2.525   9.339  0.2823  2.1140  0.3217
 4647SOL    HW225578   0.072   2.572   9.230  0.1050 -0.5460  0.5471
 4648SOL     OW25579   4.611   3.976   6.616 -0.3079  0.4403 -0.2388
 4648SOL    HW125580   4.564   3.893   6.606  0.5883 -0.1502  0.4519
 4648SOL    HW225581   4.546   4.015   6.676  0.5838 -0.5182  1.3553
 4649SOL     OW25582   0.946   0.949   0.321 -0.3797  0.3603  0.1238
 4649SOL    HW125583   0.944   0.923   0.413  2.0197 -0.4467 -0.0488
 4649SOL    HW225584   0.853   0.962   0.303  0.0570  0.9786 -1.6876
 4650SOL     OW25585   2.436   4.272   4.439  0.1614 -0.6601 -0.2221
 4650SOL    HW125586   2.474   4.204   4.385 -0.0897 -2.0901  1.4185
 4650SOL    HW225587   2.381   4.223   4.499  0.8311 -1.1332 -0.0023
 4651SOL     OW25588   3.638   2.632  11.794  0.2242 -0.1822  0.6421
 4651SOL    HW125589   3.718   2.677  11.823  0.2966 -1.4038  2.3850
 4651SOL    HW225590   3.673   2.586  11.718  3.1275  1.5826  0.9156
 4652SOL     OW25591   3.123   1.663   1.516 -0.0515 -0.0194 -0.0137
 4652SOL    HW125592   3.210   1.683   1.482  0.3727 -0.3585  0.8612
 4652SOL    HW225593   3.142   1.645   1.608  0.6781  1.9371  0.2164
 4653SOL     OW25594   3.589   0.201  16.251  0.0243  0.2172  0.2302
 4653SOL    HW125595   3.517   0.254  16.218 -0.0677  0.4014  0.7191
 4653SOL    HW225596   3.564   0.117  16.211 -1.3126  1.5922 -1.8048
 4654SOL     OW25597   3.837   0.973  15.322 -0.0335 -0.0183  0.7641
 4654SOL    HW125598   3.847   0.919  15.244  0.1980  1.5016 -0.2703
 4654SOL    HW225599   3.901   0.938  15.383 -0.5022 -3.1106 -0.5173
 4655SOL     OW25600   1.941   0.316   4.480 -0.0083 -0.0488  0.1443
 4655SOL    HW125601   1.932   0.408   4.504  0.1793 -0.4958  1.9063
 4655SOL    HW225602   2.035   0.300   4.476 -0.0944 -1.4378  3.3967
 4656SOL     OW25603   1.018   3.390   4.355  0.0306  0.1371 -0.7755
 4656SOL    HW125604   1.005   3.308   4.403  3.2692 -0.3092 -0.6504
 4656SOL    HW225605   1.074   3.360   4.284 -1.3546  2.2930 -2.7607
 4657SOL     OW25606   4.504   0.053   3.628 -0.0111  0.1593  0.6485
 4657SOL    HW125607   4.468   0.141   3.614 -1.0638 -0.3416  0.2052
 4657SOL    HW225608   4.483   0.013   3.543 -0.4851 -0.7793  1.2105
 4658SOL     OW25609   4.678   3.683   3.563 -0.6347  0.5827 -0.4808
 4658SOL    HW125610   4.630   3.610   3.526 -1.1846  0.1461  1.1166
 4658SOL    HW225611   4.735   3.711   3.491  2.4124  0.0965  1.6971
 4659SOL     OW25612   3.603   1.901   2.039  0.4575  0.1838 -0.9205
 4659SOL    HW125613   3.690   1.867   2.059  1.5762  2.1216 -2.5112
 4659SOL    HW225614   3.612   1.987   2.079  2.2441 -1.2439  1.7210
 4660SOL     OW25615   0.540   4.065   4.246 -0.2428 -0.0577 -0.0397
 4660SOL    HW125616   0.508   4.141   4.198  0.2304  0.3663  0.3054
 4660SOL    HW225617   0.592   4.105   4.317 -1.9696  0.1787  1.0841
 4661SOL     OW25618   0.543   0.247   7.609  0.0007  0.5346 -0.7095
 4661SOL    HW125619   0.539   0.197   7.691  1.4104 -0.3958 -1.1906
 4661SOL    HW225620   0.633   0.233   7.578  0.6767  1.6206  0.7891
 4662SOL     OW25621   3.181   0.849   9.355 -0.4124 -0.1442  0.4690
 4662SOL    HW125622   3.213   0.771   9.310 -1.1916 -0.0328 -0.2866
 4662SOL    HW225623   3.123   0.804   9.416  0.0798  1.0503  1.8043
 4663SOL     OW25624   1.884   2.329   7.919 -0.8073 -0.0223 -0.1083
 4663SOL    HW125625   1.845   2.294   7.839 -2.1530  1.3639 -0.0464
 4663SOL    HW225626   1.977   2.336   7.900 -0.4442 -4.2572  0.0054
 4664SOL     OW25627   2.727   1.408   4.271 -0.3772  0.3536  0.4919
 4664SOL    HW125628   2.735   1.486   4.216  1.3111  1.1625  1.8885
 4664SOL    HW225629   2.677   1.437   4.347  0.7106 -0.4437  1.5282
 4665SOL     OW25630   1.011   4.211  12.079  0.1977  1.2650  0.4009
 4665SOL    HW125631   0.986   4.140  12.020  2.4212  0.7392  0.1131
 4665SOL    HW225632   0.924   4.235  12.112 -0.5478 -1.0098  0.0548
 4666SOL     OW25633   1.094   0.087   8.362  0.3522  0.4360  0.1087
 4666SOL    HW125634   1.033   0.014   8.352  1.9345 -0.8578 -0.0747
 4666SOL    HW225635   1.146   0.047   8.292 -1.6571  0.2448 -1.2864
 4667SOL     OW25636   1.875   3.045  11.163 -0.1863 -0.2011  0.3609
 4667SOL    HW125637   1.836   2.999  11.089  0.5592 -0.4667  0.1316
 4667SOL    HW225638   1.967   3.047  11.135  0.1569 -0.6055  1.4829
 4668SOL     OW25639   4.733   3.060   4.535 -0.7139 -0.1452  0.3013
 4668SOL    HW125640   4.657   3.116   4.516 -1.6122 -1.0110  1.3715
 4668SOL    HW225641   0.049   3.129   4.573  1.9896 -2.1311 -0.0280
 4669SOL     OW25642   0.618   2.251   7.052  0.1950 -0.2814  0.2969
 4669SOL    HW125643   0.560   2.326   7.063 -1.2116 -1.2639 -0.3919
 4669SOL    HW225644   0.641   2.245   7.145 -0.6615  3.7644  0.7448
 4670SOL     OW25645   4.572   0.655   2.319 -0.2035 -0.0669 -0.2969
 4670SOL    HW125646   4.637   0.593   2.286 -0.6330  0.1014 -1.4478
 4670SOL    HW225647   4.574   0.644   2.414  0.4005 -1.6728 -0.5018
 4671SOL     OW25648   1.590   3.912   1.251 -0.1858  0.3315  0.0557
 4671SOL    HW125649   1.536   3.836   1.272 -1.0812  0.6602 -0.9978
 4671SOL    HW225650   1.524   3.982   1.246 -1.4454 -0.9062 -0.8239
 4672SOL     OW25651   2.316   2.259   7.983 -0.3132  0.1717  0.3614
 4672SOL    HW125652   2.318   2.239   7.889 -2.0619  1.4170  0.0494
 4672SOL    HW225653   2.407   2.255   8.012 -0.1670  1.3078  0.0734
 4673SOL     OW25654   0.784   1.830   6.540 -0.1976 -0.0726 -0.3895
 4673SOL    HW125655   0.725   1.781   6.483 -1.8335  1.6976 -0.2118
 4673SOL    HW225656   0.826   1.761   6.592  1.6595 -0.0349 -1.8359
 4674SOL     OW25657   4.262   2.153  15.649 -0.0475  0.1133 -0.6414
 4674SOL    HW125658   4.265   2.145  15.744 -0.4857  1.4097 -0.5174
 4674SOL    HW225659   4.184   2.100  15.631 -0.2699  0.7523 -1.5288
 4675SOL     OW25660   4.130   0.059  14.330 -0.2364  0.2463  0.0853
 4675SOL    HW125661   4.192   0.060  14.403  1.7764  2.3677 -1.6610
 4675SOL    HW225662   4.165   4.724  14.279  0.5252  0.3285  0.4825
 4676SOL     OW25663   1.953   1.928  17.292 -0.1945  0.5877 -0.0965
 4676SOL    HW125664   1.911   1.902  17.374 -0.2493 -2.2281 -1.0446
 4676SOL    HW225665   2.042   1.899  17.310 -0.6197 -0.8189 -0.2960
 4677SOL     OW25666   3.071   2.190   5.174 -0.3389  0.3808  0.1422
 4677SOL    HW125667   3.060   2.107   5.127 -0.6658  1.5719 -1.8848
 4677SOL    HW225668   3.166   2.195   5.167 -0.1402 -1.6624  1.2636
 4678SOL     OW25669   2.039   1.317  12.341  0.5420 -0.4087 -0.4532
 4678SOL    HW125670   2.031   1.254  12.269  3.3822 -2.8618  1.3794
 4678SOL    HW225671   1.963   1.373  12.329 -2.0395 -3.6997  0.7467
 4679SOL     OW25672   4.185   3.252  12.116  0.1349  0.8158 -0.3156
 4679SOL    HW125673   4.127   3.267  12.191  1.9279  0.0334  1.2067
 4679SOL    HW225674   4.173   3.333  12.065 -1.3987  0.5190 -0.4395
 4680SOL     OW25675   0.649   0.459   2.681 -0.4586  0.2484 -0.0607
 4680SOL    HW125676   0.622   0.367   2.681  1.1824 -0.2250  0.6642
 4680SOL    HW225677   0.594   0.503   2.617 -0.0850  0.3318 -0.3213
 4681SOL     OW25678   4.710   1.166   1.292 -0.4638  0.0958  0.7976
 4681SOL    HW125679   0.009   1.125   1.370  0.0593  0.9734  1.0092
 4681SOL    HW225680   0.029   1.242   1.290 -1.7072  1.0062 -0.6469
 4682SOL     OW25681   4.291   1.999   7.482 -0.4888  0.2891  0.5388
 4682SOL    HW125682   4.217   2.054   7.507  0.0086  0.9547  0.5393
 4682SOL    HW225683   4.287   1.933   7.551  4.1879  1.2819  1.7854
 4683SOL     OW25684   4.247   3.450   0.978  0.0063  0.4148  0.1694
 4683SOL    HW125685   4.330   3.481   1.014  0.6967 -0.7703 -0.3877
 4683SOL    HW225686   4.270   3.357   0.975 -1.3434  0.1042 -0.6861
 4684SOL     OW25687   2.073   3.893   7.415 -0.0188 -0.1590 -0.5024
 4684SOL    HW125688   2.119   3.931   7.490 -0.5744  0.3457 -0.4137
 4684SOL    HW225689   2.126   3.815   7.402 -0.6877 -0.6251 -0.4464
 4685SOL     OW25690   4.586   1.419   7.945  0.1287 -0.1606  0.4241
 4685SOL    HW125691   4.633   1.376   8.017  0.9309 -1.8483 -1.1243
 4685SOL    HW225692   4.534   1.484   7.993 -0.5159  0.3879 -1.0044
 4686SOL     OW25693   2.732   4.243   2.674 -0.7977 -0.0193 -0.1165
 4686SOL    HW125694   2.759   4.152   2.690 -0.4265  0.2142  0.5730
 4686SOL    HW225695   2.694   4.268   2.758 -1.6281  2.5953 -1.2675
 4687SOL     OW25696   1.428   0.008   5.288  0.5427 -0.4920 -0.2185
 4687SOL    HW125697   1.506   0.016   5.342  0.7599  1.4730 -0.8279
 4687SOL    HW225698   1.361   0.029   5.353 -0.4111 -0.6907 -1.1312
 4688SOL     OW25699   0.055   0.479  13.798 -0.1716 -0.3049  0.1181
 4688SOL    HW125700   4.724   0.469  13.863 -1.0992  2.3151 -0.4576
 4688SOL    HW225701   0.011   0.528  13.728  0.6847 -0.6244 -0.6546
 4689SOL     OW25702   1.102   1.337   5.240  0.0789 -0.1187 -0.3074
 4689SOL    HW125703   1.153   1.289   5.305  2.2393  2.4042 -0.1196
 4689SOL    HW225704   1.024   1.360   5.291 -0.0209  0.0216 -0.5216
 4690SOL     OW25705   4.447   3.059  13.228  0.0658 -0.4500  0.4609
 4690SOL    HW125706   4.363   3.016  13.246 -0.1365 -1.1569 -2.1581
 4690SOL    HW225707   4.480   3.063  13.317  0.5273 -1.7038  0.3468
 4691SOL     OW25708   3.930   1.118   8.352  0.1272  0.1037 -0.8544
 4691SOL    HW125709   3.885   1.064   8.417 -0.9408  2.0982  0.0692
 4691SOL    HW225710   3.975   1.052   8.300  0.8847 -1.2505  1.4811
 4692SOL     OW25711   3.475   1.527   0.268 -0.5745  0.5232 -1.3968
 4692SOL    HW125712   3.392   1.517   0.221 -2.3039  0.6657  1.6007
 4692SOL    HW225713   3.529   1.550   0.192 -0.9579 -1.0665 -2.1592
 4693SOL     OW25714   0.399   1.514   7.840 -0.3272  0.1874  0.4325
 4693SOL    HW125715   0.462   1.585   7.849 -0.5067  0.2300  1.3573
 4693SOL    HW225716   0.422   1.481   7.753  0.2761  1.9523 -0.0723
 4694SOL     OW25717   0.723   0.728   4.234  0.0147 -0.0758 -0.1991
 4694SOL    HW125718   0.635   0.698   4.210  0.3825 -0.7796 -0.6447
 4694SOL    HW225719   0.712   0.741   4.328 -0.4988  0.6313 -0.3551
 4695SOL     OW25720   1.164   3.366   5.378 -0.0330  0.0650 -0.3476
 4695SOL    HW125721   1.205   3.446   5.345 -1.8009  0.9485 -0.3969
 4695SOL    HW225722   1.224   3.303   5.339 -0.0723  0.2753 -0.7486
 4696SOL     OW25723   2.138   4.276   8.008 -0.1817  1.5239  0.0672
 4696SOL    HW125724   2.076   4.347   7.993 -2.2743  0.0890  1.8486
 4696SOL    HW225725   2.209   4.320   8.054  0.4597  1.6803 -1.0894
 4697SOL     OW25726   4.188   1.901   6.109 -0.5371 -0.2621  0.0528
 4697SOL    HW125727   4.093   1.902   6.100 -0.5544 -1.2289  0.1965
 4697SOL    HW225728   4.195   1.893   6.204  0.5429 -1.3893 -0.1194
 4698SOL     OW25729   1.131   2.777   5.493 -0.1678  0.3619 -0.3940
 4698SOL    HW125730   1.166   2.759   5.580 -0.9408  1.2712  0.1070
 4698SOL    HW225731   1.164   2.864   5.470 -0.1397  0.2664 -0.7099
 4699SOL     OW25732   1.366   2.159  10.110 -0.1975 -0.5536  0.3056
 4699SOL    HW125733   1.361   2.233  10.170  0.0432  0.2767 -0.6997
 4699SOL    HW225734   1.278   2.134  10.082  0.5501 -3.5720  0.5682
 4700SOL     OW25735   2.342   0.166  16.659  0.5138 -0.6918  0.7845
 4700SOL    HW125736   2.429   0.205  16.654  0.1157  0.0478 -0.4635
 4700SOL    HW225737   2.316   0.166  16.567 -0.1939 -1.7540  0.9776
 4701SOL     OW25738   2.871   4.588   8.675 -0.4037  0.1360 -0.4762
 4701SOL    HW125739   2.896   4.648   8.745  1.2395 -0.1971 -0.7556
 4701SOL    HW225740   2.865   4.637   8.593 -0.4285  0.9959  0.0374
 4702SOL     OW25741   1.879   2.919   3.873  0.2071 -0.0650 -0.1605
 4702SOL    HW125742   1.961   2.914   3.922 -0.0816  0.8790  0.4291
 4702SOL    HW225743   1.807   2.940   3.932 -1.3633 -0.3042 -2.0104
 4703SOL     OW25744   3.798   0.821   4.035 -0.2115  0.1341  0.0693
 4703SOL    HW125745   3.764   0.909   4.054  0.2367  0.2858  0.1700
 4703SOL    HW225746   3.881   0.847   3.996  0.1425 -1.2465 -0.0882
 4704SOL     OW25747   1.726   0.252   2.871  0.5271 -0.1967 -0.0899
 4704SOL    HW125748   1.787   0.312   2.828  1.1331 -0.7154  0.0518
 4704SOL    HW225749   1.733   0.177   2.812  1.4021 -0.5394  0.4468
 4705SOL     OW25750   0.774   2.445   1.918  0.3449 -0.0366 -0.0159
 4705SOL    HW125751   0.843   2.509   1.933  0.9501 -0.1950 -2.1897
 4705SOL    HW225752   0.813   2.384   1.855  1.4722 -1.1537  1.7603
 4706SOL     OW25753   2.313   3.916   9.202  0.1089 -0.2179  0.5639
 4706SOL    HW125754   2.302   3.986   9.267  1.0053  0.8113 -0.3886
 4706SOL    HW225755   2.374   3.867   9.258 -0.3119 -1.6153 -0.2221
 4707SOL     OW25756   3.527   2.859   2.063  0.3408  0.2166 -0.5330
 4707SOL    HW125757   3.442   2.904   2.062  0.2185 -0.0093 -0.2909
 4707SOL    HW225758   3.581   2.937   2.052 -1.4759  1.8122  1.9375
 4708SOL     OW25759   0.391   4.157   3.829  0.1499 -0.1239  0.4951
 4708SOL    HW125760   0.305   4.127   3.799  0.9324  1.1606 -3.0807
 4708SOL    HW225761   0.438   4.167   3.746 -2.0985  2.0697 -0.5200
 4709SOL     OW25762   1.327   1.367   4.794 -0.5757  0.0889 -0.2054
 4709SOL    HW125763   1.352   1.274   4.798 -3.3242 -0.6031  1.8411
 4709SOL    HW225764   1.332   1.377   4.699 -0.4411  0.9246 -0.1095
 4710SOL     OW25765   1.612   3.988   3.901  0.3482  0.0405 -0.0091
 4710SOL    HW125766   1.660   4.002   3.819 -1.3452  1.2926 -0.8014
 4710SOL    HW225767   1.545   3.926   3.873  0.8371 -0.1639 -0.7138
 4711SOL     OW25768   3.796   1.069   7.956  0.3620 -0.2298  0.1171
 4711SOL    HW125769   3.856   1.136   7.989  2.0100 -1.9909  0.6619
 4711SOL    HW225770   3.714   1.096   7.997  0.5370 -0.7741  0.8313
 4712SOL     OW25771   1.582   0.622   5.900 -0.0156 -0.3788 -0.4245
 4712SOL    HW125772   1.599   0.552   5.837  0.9337 -0.2718 -0.2851
 4712SOL    HW225773   1.487   0.628   5.889  0.0942  0.8214 -0.7220
 4713SOL     OW25774   4.390   2.590   7.819  0.2416 -0.0299 -0.3145
 4713SOL    HW125775   4.422   2.669   7.775  1.9624  0.0194  1.0283
 4713SOL    HW225776   4.469   2.536   7.825  1.3348  1.7088  0.8343
 4714SOL     OW25777   0.816   4.169   7.622  0.0744  0.7573  0.1493
 4714SOL    HW125778   0.763   4.243   7.592  1.6333  0.6607 -2.9044
 4714SOL    HW225779   0.784   4.163   7.711 -0.0683 -3.0583 -0.1815
 4715SOL     OW25780   2.953   3.085  14.549 -0.2130 -0.1218 -0.2813
 4715SOL    HW125781   2.979   3.004  14.593  0.5435  0.2948  0.0433
 4715SOL    HW225782   2.948   3.062  14.457 -0.5939 -4.2378  0.7679
 4716SOL     OW25783   3.746   1.492   8.621  0.0001 -0.3552  0.4117
 4716SOL    HW125784   3.756   1.549   8.697  0.9882  2.2376 -1.6700
 4716SOL    HW225785   3.699   1.417   8.658  3.1322 -2.1923  0.6802
 4717SOL     OW25786   2.243   0.430   3.091  0.3708 -0.2444  0.2277
 4717SOL    HW125787   2.307   0.498   3.113  0.2358  0.0945 -0.4243
 4717SOL    HW225788   2.248   0.372   3.167  0.2321 -0.8773 -0.2477
 4718SOL     OW25789   4.587   0.758   5.442 -0.2638 -0.0009  0.1577
 4718SOL    HW125790   4.611   0.692   5.377 -1.0892  2.2929 -2.4846
 4718SOL    HW225791   4.623   0.844   5.419  0.8540 -0.1318  1.4174
 4719SOL     OW25792   1.956   1.912   3.736  0.3735  0.2457 -0.2458
 4719SOL    HW125793   1.973   2.000   3.702 -0.1480  0.6012  0.4055
 4719SOL    HW225794   2.020   1.915   3.807 -1.6452 -3.0988  1.7012
 4720SOL     OW25795   1.951   4.284   7.216 -0.0754 -0.1853 -0.3967
 4720SOL    HW125796   1.992   4.243   7.140  0.6141  1.1478 -0.7359
 4720SOL    HW225797   1.929   4.205   7.267  0.3290  0.4954  0.8327
 4721SOL     OW25798   1.016   2.036   7.778  0.2965  0.0400 -0.0289
 4721SOL    HW125799   0.928   2.070   7.759 -0.0782 -0.2371  1.1789
 4721SOL    HW225800   1.059   2.057   7.696 -1.7046  0.2555 -1.0357
 4722SOL     OW25801   3.309   0.457  15.693 -0.3839  0.6365  0.2202
 4722SOL    HW125802   3.261   0.418  15.620 -0.1967 -1.1370  1.0471
 4722SOL    HW225803   3.389   0.404  15.699 -1.2783 -0.6687  0.6207
 4723SOL     OW25804   1.903   2.311  16.225 -0.0201  0.3599 -0.7692
 4723SOL    HW125805   1.891   2.347  16.137 -0.1107  1.3056 -0.3718
 4723SOL    HW225806   1.815   2.299  16.259  0.6154  0.8655  1.1073
 4724SOL     OW25807   4.023   0.079  10.533  0.4647 -0.4488  0.0674
 4724SOL    HW125808   4.073   0.072  10.615 -2.0309  3.8505  1.9546
 4724SOL    HW225809   4.090   0.115  10.476 -0.4167 -2.5857 -2.2798
 4725SOL     OW25810   3.859   4.577   2.226 -0.5595 -0.2957 -0.5959
 4725SOL    HW125811   3.910   4.620   2.157 -1.1744  0.4289 -0.6007
 4725SOL    HW225812   3.801   4.509   2.192  2.1550 -2.3799 -1.0795
 4726SOL     OW25813   1.754   3.043  15.262  0.1297  0.0051 -0.3439
 4726SOL    HW125814   1.743   2.984  15.188  3.0225 -1.3070  0.2775
 4726SOL    HW225815   1.664   3.069  15.284 -0.1827 -0.4274 -1.1370
 4727SOL     OW25816   0.680   4.630   3.026  0.4347  0.5247  0.2791
 4727SOL    HW125817   0.622   4.695   2.986  1.3813  0.5719 -1.0155
 4727SOL    HW225818   0.757   4.681   3.049  1.6935 -1.2939  0.1112
 4728SOL     OW25819   2.255   3.842   6.551  0.2450 -0.2000 -0.6990
 4728SOL    HW125820   2.176   3.892   6.532  0.4357  1.0521  1.7101
 4728SOL    HW225821   2.312   3.916   6.572  0.3167 -0.5923  0.4843
 4729SOL     OW25822   1.663   1.691   5.948 -0.0844 -0.1784  0.1282
 4729SOL    HW125823   1.718   1.769   5.949  0.4342 -0.5709  2.1573
 4729SOL    HW225824   1.684   1.649   6.031 -3.4166  0.2723  1.2000
 4730SOL     OW25825   1.728   0.201   8.403  0.2352  0.0360  0.3408
 4730SOL    HW125826   1.742   0.220   8.496  1.6463 -2.2777  0.6004
 4730SOL    HW225827   1.660   0.135   8.401 -0.4801  0.7860 -0.0930
 4731SOL     OW25828   0.756   2.121   2.264  0.2937 -0.5947  0.6086
 4731SOL    HW125829   0.677   2.094   2.312 -0.5563 -0.1731 -0.5646
 4731SOL    HW225830   0.749   2.216   2.276  0.2019 -0.2814 -1.9361
 4732SOL     OW25831   2.908   3.582   1.006 -0.4451 -0.2690 -0.5273
 4732SOL    HW125832   2.999   3.608   0.990 -0.3084 -1.5990 -1.8287
 4732SOL    HW225833   2.874   3.610   0.921 -0.8857  1.3283  0.1681
 4733SOL     OW25834   3.373   0.110   7.485 -0.2017 -0.0378  0.1927
 4733SOL    HW125835   3.419   0.179   7.533 -0.0546  0.2781 -0.4127
 4733SOL    HW225836   3.435   0.038   7.478 -0.9623 -0.7375  0.5430
 4734SOL     OW25837   0.920   2.269   3.485  0.8202 -0.5619 -0.2870
 4734SOL    HW125838   0.914   2.178   3.511 -1.6314  0.1236  1.5628
 4734SOL    HW225839   0.958   2.313   3.562  0.7976  0.2714 -0.7431
 4735SOL     OW25840   4.019   4.720   8.341 -0.3991 -0.6072  0.1977
 4735SOL    HW125841   4.009   4.633   8.379 -0.7637 -0.6147  0.0846
 4735SOL    HW225842   3.946   4.719   8.279 -0.9893  0.7776  0.8562
 4736SOL     OW25843   3.892   1.260  16.501  0.4349 -0.3761 -0.1428
 4736SOL    HW125844   3.806   1.228  16.475  0.6126 -1.4326  0.5439
 4736SOL    HW225845   3.920   1.198  16.569  1.6692  1.7001  1.2489
 4737SOL     OW25846   3.983   3.776   4.260  0.0730 -0.2694 -0.1099
 4737SOL    HW125847   4.074   3.746   4.253  0.2489  0.7777 -2.3342
 4737SOL    HW225848   3.946   3.692   4.285 -0.5132  0.3822  1.2032
 4738SOL     OW25849   2.192   3.143   5.988 -0.0765 -0.2975 -0.4482
 4738SOL    HW125850   2.282   3.124   6.015 -0.0974 -0.5674 -0.5649
 4738SOL    HW225851   2.204   3.097   5.905 -3.6088 -1.2884 -0.4081
 4739SOL     OW25852   1.583   4.273   8.227 -0.2548 -1.0127 -0.2005
 4739SOL    HW125853   1.573   4.234   8.314 -2.9872 -0.0017 -0.0681
 4739SOL    HW225854   1.615   4.360   8.253 -0.4182 -0.6359 -1.2697
 4740SOL     OW25855   2.978   2.068   9.413  0.8910  0.3915  0.1131
 4740SOL    HW125856   3.001   2.004   9.346 -0.5324  1.4355 -1.3605
 4740SOL    HW225857   2.893   2.035   9.443  2.4056 -3.1957  0.5376
 4741SOL     OW25858   0.878   2.654   4.686 -0.3748  0.4472  0.1446
 4741SOL    HW125859   0.881   2.743   4.722 -0.7869 -0.7237  3.0705
 4741SOL    HW225860   0.789   2.661   4.649 -0.0296 -2.8171 -1.2870
 4742SOL     OW25861   4.394   0.429   5.013  0.4442  0.2461 -0.0023
 4742SOL    HW125862   4.325   0.384   4.963  0.0129  1.0883 -0.1604
 4742SOL    HW225863   4.468   0.389   4.968  0.8536  0.9603  0.0359
 4743SOL     OW25864   2.140   1.321   7.307  0.5062 -0.5169  0.0849
 4743SOL    HW125865   2.047   1.322   7.285  0.1521  0.1965  1.5468
 4743SOL    HW225866   2.177   1.293   7.224  0.8394  2.6844 -0.8484
 4744SOL     OW25867   3.509   1.281   6.808 -0.4672  1.0447  0.9868
 4744SOL    HW125868   3.440   1.251   6.866 -1.5220 -3.9993 -2.8583
 4744SOL    HW225869   3.462   1.318   6.733  0.8313  0.2903 -0.2088
 4745SOL     OW25870   4.493   4.345   8.227 -0.5103 -0.8475  0.3656
 4745SOL    HW125871   4.498   4.302   8.312  0.9908 -1.1554  0.1337
 4745SOL    HW225872   4.404   4.380   8.229 -1.2155 -2.6183  0.1603
 4746SOL     OW25873   0.967   2.708   8.627  0.2209  0.1891 -0.2191
 4746SOL    HW125874   0.922   2.688   8.545  0.1955  2.1421 -0.6676
 4746SOL    HW225875   1.028   2.779   8.607 -0.2265  0.2355 -1.4557
 4747SOL     OW25876   3.774   2.431   8.980 -0.0145 -0.1441  0.1391
 4747SOL    HW125877   3.849   2.447   9.037  1.0346 -0.4107 -1.1566
 4747SOL    HW225878   3.711   2.381   9.032 -0.1004 -0.2146 -0.0331
 4748SOL     OW25879   3.704   0.322   1.111  0.3521 -0.2674  0.4882
 4748SOL    HW125880   3.764   0.298   1.041 -0.1752  1.6674 -0.6122
 4748SOL    HW225881   3.699   0.417   1.124 -1.6782 -0.4116  0.7771
 4749SOL     OW25882   2.409   4.715  14.579 -0.0369  0.0553 -0.4262
 4749SOL    HW125883   2.439   0.015  14.497  0.3839 -1.1539 -0.8476
 4749SOL    HW225884   2.335   0.035  14.595  0.2229 -0.1496  1.5847
 4750SOL     OW25885   3.991   4.265  14.634  0.0024  0.3091  0.0612
 4750SOL    HW125886   4.067   4.303  14.678  0.0822  0.3265 -0.0919
 4750SOL    HW225887   3.968   4.341  14.581 -1.0045  1.2203  1.7942
 4751SOL     OW25888   1.709   2.837   3.682 -0.2616 -0.1736 -0.3739
 4751SOL    HW125889   1.623   2.840   3.724 -1.0567  1.5010 -2.0688
 4751SOL    HW225890   1.772   2.855   3.751  0.0048 -4.3913  0.4378
 4752SOL     OW25891   3.613   3.167   4.370 -0.1532 -0.1348 -0.3447
 4752SOL    HW125892   3.648   3.080   4.390  0.4855  0.2265  0.1104
 4752SOL    HW225893   3.672   3.217   4.426 -0.6615  0.1950 -0.1105
 4753SOL     OW25894   1.614   4.335   7.047  0.3037 -0.1605  0.1984
 4753SOL    HW125895   1.535   4.283   7.035  0.8382 -1.2703  1.3705
 4753SOL    HW225896   1.678   4.266   7.026 -0.9804 -1.4747  0.5939
 4754SOL     OW25897   2.558   0.081   9.691 -0.0580  0.2811 -0.2121
 4754SOL    HW125898   2.583   0.013   9.628 -0.1854 -0.2861  0.3510
 4754SOL    HW225899   2.466   0.091   9.665 -0.1643 -0.5332 -0.1527
 4755SOL     OW25900   2.095   2.071   2.425 -0.8921  0.3421 -0.2581
 4755SOL    HW125901   2.089   2.110   2.512  2.9894  0.1078  0.1217
 4755SOL    HW225902   2.005   2.046   2.406 -1.1960  0.6574  0.7938
 4756SOL     OW25903   0.729   1.952  12.856  1.2127  0.5648  0.0841
 4756SOL    HW125904   0.749   2.009  12.782 -2.3940  0.4785 -0.9557
 4756SOL    HW225905   0.646   1.989  12.887  0.0548  0.6202 -3.1549
 4757SOL     OW25906   1.621   3.021  12.745  0.0798  0.7151  0.1947
 4757SOL    HW125907   1.716   3.005  12.742 -0.1717 -0.9228  1.3331
 4757SOL    HW225908   1.614   3.056  12.834  1.4597 -1.5641  1.1933
 4758SOL     OW25909   3.445   0.311   2.978  0.1187 -0.6002 -0.2191
 4758SOL    HW125910   3.429   0.217   2.985  2.9498 -0.9414  1.8881
 4758SOL    HW225911   3.512   0.308   2.909  0.2814 -1.3238 -0.0310
 4759SOL     OW25912   0.466   4.541   9.629 -0.0606  0.0612  0.2747
 4759SOL    HW125913   0.467   4.584   9.543  0.6982 -1.0375 -0.2718
 4759SOL    HW225914   0.537   4.587   9.673 -1.9799  3.3868 -0.1419
 4760SOL     OW25915   3.953   0.625   5.509  0.4001 -0.3142 -0.0994
 4760SOL    HW125916   4.037   0.669   5.519 -0.2572  0.6668  1.1119
 4760SOL    HW225917   3.886   0.662   5.567 -1.5634 -2.2605 -1.0948
 4761SOL     OW25918   1.884   2.809  17.101  0.5245  0.3369 -0.0685
 4761SOL    HW125919   1.883   2.780  17.009  0.6518  0.6900 -0.1830
 4761SOL    HW225920   1.940   2.745  17.144  0.0637  1.4274  2.1515
 4762SOL     OW25921   1.040   3.060   3.205 -0.2974  0.7405 -0.1714
 4762SOL    HW125922   0.988   2.980   3.208  0.6091  0.1114 -1.2074
 4762SOL    HW225923   1.068   3.055   3.114  2.6811  1.1397  0.7217
 4763SOL     OW25924   3.013   4.028   0.021 -0.3325  0.6111  0.2726
 4763SOL    HW125925   2.986   4.046  17.683 -0.0539  0.2207  0.1143
 4763SOL    HW225926   3.086   3.967   0.012 -0.1978  0.6314  1.1783
 4764SOL     OW25927   2.420   2.945   6.309 -0.1152  0.3296 -0.5431
 4764SOL    HW125928   2.468   2.944   6.392  1.2325  0.2730 -1.3193
 4764SOL    HW225929   2.364   2.868   6.320  0.3915 -0.1000 -0.9653
 4765SOL     OW25930   3.669   3.577   3.978 -0.2079 -0.2540  0.0793
 4765SOL    HW125931   3.582   3.569   4.017  0.2559  0.0435  1.1766
 4765SOL    HW225932   3.711   3.644   4.032 -0.8117  0.5914 -0.4932
 4766SOL     OW25933   3.892   3.801   1.671  0.6670  0.2705 -0.2836
 4766SOL    HW125934   3.943   3.756   1.603  1.1822  0.9265 -0.3253
 4766SOL    HW225935   3.817   3.742   1.675  2.0178 -1.4121  0.1835
 4767SOL     OW25936   4.451   2.515   3.362  0.5596 -0.1352 -0.4651
 4767SOL    HW125937   4.439   2.507   3.267  2.1516 -1.1499 -0.5865
 4767SOL    HW225938   4.530   2.466   3.382 -0.6664 -0.3972  3.7718
 4768SOL     OW25939   1.264   0.114   2.304 -0.0766 -0.3963 -0.4993
 4768SOL    HW125940   1.288   0.207   2.312  0.8773 -0.7936  1.3379
 4768SOL    HW225941   1.169   0.119   2.303 -0.0966 -0.6843 -0.0720
 4769SOL     OW25942   1.564   1.538   3.175 -0.4339 -0.1399 -0.3134
 4769SOL    HW125943   1.545   1.502   3.262 -0.3865 -0.2065 -0.3306
 4769SOL    HW225944   1.646   1.497   3.148 -1.2155 -0.9850 -1.4241
 4770SOL     OW25945   3.803   3.853   4.524  0.0286  0.0962  0.2986
 4770SOL    HW125946   3.753   3.780   4.489 -0.2990 -0.3192  1.6106
 4770SOL    HW225947   3.800   3.829   4.617 -2.4969 -2.8713 -0.5420
 4771SOL     OW25948   3.372   4.522   9.573  0.1245 -0.4057  0.2599
 4771SOL    HW125949   3.427   4.494   9.500 -0.3379 -0.6347 -0.0035
 4771SOL    HW225950   3.297   4.463   9.570 -1.0657  1.1053  0.0237
 4772SOL     OW25951   1.203   0.686   7.197  0.2629 -0.9048 -0.0514
 4772SOL    HW125952   1.284   0.703   7.149  1.8066 -0.0342  2.8406
 4772SOL    HW225953   1.168   0.605   7.162 -0.0704  0.0490 -1.9159
 4773SOL     OW25954   2.975   4.170   3.521 -0.8138  0.2204 -0.1097
 4773SOL    HW125955   3.026   4.221   3.458  0.1220 -1.2124 -0.5231
 4773SOL    HW225956   2.887   4.209   3.515 -0.4317  1.3999  2.2081
 4774SOL     OW25957   3.525   0.248   5.365 -0.4877  0.1669  0.0055
 4774SOL    HW125958   3.535   0.292   5.449 -0.3329  0.0138  0.0677
 4774SOL    HW225959   3.601   0.189   5.362 -0.0103  0.6306  3.6879
 4775SOL     OW25960   2.451   3.488   2.742 -0.2698 -0.3059 -0.2823
 4775SOL    HW125961   2.436   3.580   2.720  0.3496 -0.1756 -0.1522
 4775SOL    HW225962   2.470   3.462   2.652 -0.8662  0.8769 -0.7572
 4776SOL     OW25963   3.693   0.759   3.312  0.2115 -0.4250 -0.2607
 4776SOL    HW125964   3.784   0.752   3.283  0.2103 -0.3630 -0.2792
 4776SOL    HW225965   3.687   0.669   3.346 -2.1529 -0.5304 -0.9144
 4777SOL     OW25966   2.585   1.359   8.531 -0.1884  0.4108 -0.2877
 4777SOL    HW125967   2.635   1.441   8.540  0.9188 -0.1004 -1.7919
 4777SOL    HW225968   2.545   1.359   8.618 -2.0860  0.6760 -1.1717
 4778SOL     OW25969   0.835   1.034  13.216  0.0627  0.7590 -0.4991
 4778SOL    HW125970   0.835   1.099  13.287  0.0464 -3.2934  3.2157
 4778SOL    HW225971   0.853   1.093  13.142  0.8497  1.6680  0.4062
 4779SOL     OW25972   0.083   3.627   8.340 -0.0563 -0.4923  0.3921
 4779SOL    HW125973   0.121   3.714   8.333 -1.6238  0.1331 -0.3922
 4779SOL    HW225974   0.169   3.586   8.354 -0.1084 -0.3973  1.0135
 4780SOL     OW25975   2.178   2.689  10.827  0.1665  0.3863 -0.4190
 4780SOL    HW125976   2.220   2.653  10.748 -0.9746 -0.0655 -0.8187
 4780SOL    HW225977   2.094   2.703  10.783  0.6855 -1.2218 -1.9653
 4781SOL     OW25978   2.654   1.349   2.820  0.2852  0.4002 -0.2737
 4781SOL    HW125979   2.727   1.327   2.763  0.5057 -0.4545  0.3405
 4781SOL    HW225980   2.688   1.315   2.903 -1.6821 -0.7794  0.0617
 4782SOL     OW25981   3.177   2.446   1.113  0.9400  0.0497  0.3309
 4782SOL    HW125982   3.162   2.359   1.076 -1.4916  0.5353  0.1632
 4782SOL    HW225983   3.242   2.423   1.180  1.0525  0.0027  0.2064
 4783SOL     OW25984   2.147   1.406   8.170 -0.4641  0.6766  0.3722
 4783SOL    HW125985   2.135   1.499   8.190 -1.0472  1.5930 -4.1621
 4783SOL    HW225986   2.089   1.362   8.232 -0.0442 -0.8652 -0.3310
 4784SOL     OW25987   4.321   4.522  17.156  0.4432  0.1483 -0.2458
 4784SOL    HW125988   4.325   4.468  17.235 -1.9552 -2.3719 -1.8414
 4784SOL    HW225989   4.307   4.608  17.195 -1.3120  0.4581 -1.5856
 4785SOL     OW25990   3.842   2.912   9.499  0.7295 -0.4790 -0.1246
 4785SOL    HW125991   3.863   2.955   9.416 -1.9608 -0.6056 -0.8898
 4785SOL    HW225992   3.839   2.987   9.558  1.8930 -0.9418  0.5195
 4786SOL     OW25993   3.147   1.497   3.709 -0.0366  0.5891  0.1992
 4786SOL    HW125994   3.240   1.519   3.707 -0.1398  0.8955 -1.2105
 4786SOL    HW225995   3.143   1.420   3.651  2.8775  1.5234 -1.2205
 4787SOL     OW25996   1.004   3.962   0.228  0.2838  0.2414 -0.1922
 4787SOL    HW125997   1.059   4.035   0.198  1.1757 -0.0823  0.6921
 4787SOL    HW225998   0.943   3.945   0.156  0.3354  1.5699 -0.5489
 4788SOL     OW25999   4.137   0.794   5.343 -0.3094 -0.4382  0.2313
 4788SOL    HW126000   4.208   0.855   5.323 -0.8464 -0.7125 -2.4890
 4788SOL    HW226001   4.175   0.714   5.307 -0.6414 -0.5182  0.0648
 4789SOL     OW26002   0.133   1.321  11.720  0.1671 -0.2322  0.1452
 4789SOL    HW126003   0.138   1.228  11.742 -1.1951 -0.1724  0.7455
 4789SOL    HW226004   0.101   1.358  11.803 -0.0679 -0.6865  0.2551
 4790SOL     OW26005   3.122   3.553   1.877  0.0933  0.1395  0.1647
 4790SOL    HW126006   3.056   3.621   1.890  0.2333  0.3065  0.0049
 4790SOL    HW226007   3.192   3.594   1.928 -1.0089 -0.4637  2.1359
 4791SOL     OW26008   3.251   1.752   7.793  0.1923  0.3765 -0.1048
 4791SOL    HW126009   3.257   1.774   7.700 -1.7815  1.9049  0.1399
 4791SOL    HW226010   3.288   1.664   7.783  0.5699  0.4355  0.7990
 4792SOL     OW26011   4.082   2.778   6.918  0.1043  0.3542  0.0878
 4792SOL    HW126012   4.027   2.711   6.960 -1.7050  1.4909 -0.4785
 4792SOL    HW226013   4.025   2.822   6.855 -0.0999 -1.1698 -0.8142
 4793SOL     OW26014   2.090   0.406  14.758  0.0049 -0.4976 -0.3764
 4793SOL    HW126015   2.046   0.356  14.826 -1.8744  1.3503 -0.2268
 4793SOL    HW226016   2.026   0.401  14.687  0.7199 -0.3446 -1.0377
 4794SOL     OW26017   2.421   4.488  17.571 -0.1766  0.6248  0.2419
 4794SOL    HW126018   2.480   4.434  17.518 -0.3357  1.9471 -1.2999
 4794SOL    HW226019   2.407   4.426  17.643 -0.0827  1.4533  0.9663
 4795SOL     OW26020   0.793   4.507   2.787 -0.1803  0.0151 -0.3447
 4795SOL    HW126021   0.807   4.595   2.752  0.5887  0.0487  0.0494
 4795SOL    HW226022   0.749   4.526   2.870 -0.9828  0.6690 -0.9246
 4796SOL     OW26023   0.702   4.277   8.954 -0.1144 -0.0059  0.2616
 4796SOL    HW126024   0.669   4.345   8.895  1.2527 -0.0210 -0.5348
 4796SOL    HW226025   0.694   4.207   8.889  0.5392  0.6750 -0.5536
 4797SOL     OW26026   0.939   0.142   4.255  0.0121  0.1562  0.5750
 4797SOL    HW126027   0.971   0.099   4.335  0.3866 -0.3248  0.1671
 4797SOL    HW226028   0.940   0.065   4.198 -2.1616  0.1139  0.5790
 4798SOL     OW26029   0.548   1.500   8.882 -0.5008  0.2462 -0.0941
 4798SOL    HW126030   0.602   1.572   8.916  1.5476 -1.5097  0.3859
 4798SOL    HW226031   0.476   1.524   8.940 -0.3792 -2.6161  1.2048
 4799SOL     OW26032   0.237   2.533   9.794  0.1511  0.1574  0.5569
 4799SOL    HW126033   0.198   2.481   9.865 -0.9147  0.2339  0.0344
 4799SOL    HW226034   0.325   2.496   9.795  0.4572  0.9114  1.6864
 4800SOL     OW26035   3.292   1.609   7.113  0.0908  0.2437  0.0285
 4800SOL    HW126036   3.237   1.537   7.082 -0.9820  0.6032  1.0925
 4800SOL    HW226037   3.377   1.570   7.094 -0.2844 -0.7013  0.2876
 4801SOL     OW26038   0.983   3.819   2.317 -0.5549  0.3406  0.2136
 4801SOL    HW126039   1.059   3.856   2.274 -0.8216  0.2160 -0.3616
 4801SOL    HW226040   0.910   3.878   2.298 -2.2347 -1.6792  0.4102
 4802SOL     OW26041   2.904   0.232   5.383  0.0413 -0.2546 -0.4666
 4802SOL    HW126042   2.958   0.274   5.317  0.9174 -2.0309 -0.8985
 4802SOL    HW226043   2.844   0.301   5.410  2.6753  1.3957  1.2042
 4803SOL     OW26044   3.253   3.647   1.210  0.2409 -0.2345  0.1869
 4803SOL    HW126045   3.341   3.677   1.232  0.3956  1.2493 -2.4320
 4803SOL    HW226046   3.212   3.664   1.295 -1.3974 -0.1096 -0.6223
 4804SOL     OW26047   1.572   3.531   6.194 -0.1842 -0.6790 -0.1245
 4804SOL    HW126048   1.560   3.474   6.270 -2.7728  0.1622  0.1264
 4804SOL    HW226049   1.484   3.531   6.156 -0.2228 -0.4122 -0.0383
 4805SOL     OW26050   3.238   3.147   8.008  0.6710 -0.0586 -0.1620
 4805SOL    HW126051   3.241   3.054   7.983  2.8375 -0.5397  1.9209
 4805SOL    HW226052   3.320   3.157   8.057 -0.4493 -0.2282  1.7388
 4806SOL     OW26053   3.827   1.919   1.364  0.4277 -0.0996 -0.3031
 4806SOL    HW126054   3.863   2.004   1.339 -1.6662  0.7118 -0.5716
 4806SOL    HW226055   3.893   1.852   1.345  0.4116 -0.4192  0.8077
 4807SOL     OW26056   2.392   3.569   2.184 -0.1616  0.1633 -0.1858
 4807SOL    HW126057   2.439   3.639   2.139 -1.2876  0.5050 -0.8420
 4807SOL    HW226058   2.448   3.493   2.169 -0.4797 -0.1840  0.3877
 4808SOL     OW26059   4.228   2.974   8.618  0.0804 -0.1183  0.3339
 4808SOL    HW126060   4.277   3.012   8.545 -1.6687  1.1116 -0.2007
 4808SOL    HW226061   4.147   2.953   8.571  1.4755  1.3273 -2.7243
 4809SOL     OW26062   3.698   1.241   6.623 -0.5462  0.0049 -0.0487
 4809SOL    HW126063   3.624   1.270   6.676 -0.0332  0.6291  0.3156
 4809SOL    HW226064   3.662   1.191   6.550 -1.7509 -3.6095  3.0482
 4810SOL     OW26065   0.560   0.821   4.882 -0.3217  0.3289 -0.5305
 4810SOL    HW126066   0.513   0.820   4.966  0.0822 -1.8846 -0.3299
 4810SOL    HW226067   0.590   0.912   4.886  0.9889 -0.1138 -0.1975
 4811SOL     OW26068   4.403   1.010   9.261  0.1966  0.1192 -0.1394
 4811SOL    HW126069   4.454   0.948   9.209 -1.4370 -1.4308  0.1167
 4811SOL    HW226070   4.461   1.025   9.336 -0.7227 -1.0702  0.7980
 4812SOL     OW26071   3.450   4.188  16.749  0.1217 -0.4863 -0.0029
 4812SOL    HW126072   3.479   4.277  16.728  0.7450 -0.3190  1.5620
 4812SOL    HW226073   3.372   4.188  16.694  0.4031 -0.8088 -0.3899
 4813SOL     OW26074   2.400   2.466  10.252  0.2380  0.3366 -0.3957
 4813SOL    HW126075   2.320   2.426  10.219  0.3442  0.9258 -1.3584
 4813SOL    HW226076   2.448   2.495  10.175 -0.5131 -0.3394 -1.1190
 4814SOL     OW26077   0.018   0.304  17.480  0.3629 -0.1997  0.0329
 4814SOL    HW126078   4.665   0.327  17.494  0.1872 -0.8187 -0.1204
 4814SOL    HW226079   0.015   0.272  17.390 -2.3158 -0.3514  0.1849
 4815SOL     OW26080   2.981   1.858   6.823  0.0936 -0.1718  0.0339
 4815SOL    HW126081   2.979   1.828   6.732 -0.5312  0.7177 -0.2504
 4815SOL    HW226082   3.053   1.805   6.855  0.1661 -1.4239 -2.1660
 4816SOL     OW26083   3.268   1.213  13.236 -0.0609  0.2278 -0.4834
 4816SOL    HW126084   3.277   1.272  13.310  0.2149 -1.1599  0.5812
 4816SOL    HW226085   3.359   1.208  13.206  0.1515  1.4975 -0.0451
 4817SOL     OW26086   2.121   0.832   4.953 -0.0135  0.3042  0.4188
 4817SOL    HW126087   2.094   0.780   5.028 -0.6606 -0.6548 -0.4788
 4817SOL    HW226088   2.081   0.916   4.976 -1.3402 -0.7107  1.8092
 4818SOL     OW26089   1.229   3.974   8.561  0.0895  0.2620  0.2281
 4818SOL    HW126090   1.204   3.906   8.499  0.8737 -1.9329  2.3314
 4818SOL    HW226091   1.164   3.965   8.630 -0.5067 -1.4531 -0.5431
 4819SOL     OW26092   3.930   3.802   5.609 -0.3057 -0.7453 -0.2853
 4819SOL    HW126093   4.000   3.840   5.556 -1.7997  0.2547 -1.5567
 4819SOL    HW226094   3.881   3.883   5.626  1.2498  0.0463  0.4528
 4820SOL     OW26095   2.788   0.744   3.962  0.0782 -0.2570  0.0279
 4820SOL    HW126096   2.763   0.782   3.878  0.0478 -2.2613 -0.8430
 4820SOL    HW226097   2.782   0.652   3.937 -0.4002  0.1614 -1.3705
 4821SOL     OW26098   1.488   3.406   5.733  0.1352 -0.2260  0.4299
 4821SOL    HW126099   1.507   3.386   5.642 -1.1009  1.8625 -0.3084
 4821SOL    HW226100   1.558   3.370   5.786 -0.1066 -0.5120  0.5558
 4822SOL     OW26101   1.945   1.143   5.540 -0.9236  0.0864 -0.1671
 4822SOL    HW126102   1.969   1.186   5.458  1.1659 -1.6699 -0.4780
 4822SOL    HW226103   1.882   1.205   5.576 -0.8632 -0.2984  0.6093
 4823SOL     OW26104   2.085   1.960   7.641 -0.7159  0.6907 -0.3702
 4823SOL    HW126105   2.030   1.953   7.719 -2.8489  2.2524 -1.7074
 4823SOL    HW226106   2.034   1.908   7.579 -1.4729  0.4236  0.4782
 4824SOL     OW26107   2.428   2.912   4.719  0.3937 -0.6250 -0.4075
 4824SOL    HW126108   2.352   2.859   4.697 -0.6550  0.8916 -0.4154
 4824SOL    HW226109   2.474   2.903   4.635  2.4221  0.9489  0.5277
 4825SOL     OW26110   1.535   1.205   8.142  0.1312  0.1728 -0.1889
 4825SOL    HW126111   1.488   1.158   8.074 -0.5522  1.9661 -0.9595
 4825SOL    HW226112   1.624   1.219   8.108  0.2121  1.0007  0.3595
 4826SOL     OW26113   0.485   3.883   9.880 -0.2992 -0.3656  0.3210
 4826SOL    HW126114   0.424   3.909   9.949 -0.2903 -1.7434  0.8437
 4826SOL    HW226115   0.465   3.942   9.807  1.2250 -0.2187  0.0279
 4827SOL     OW26116   2.655   3.280   6.799 -0.2397 -0.0168 -0.0098
 4827SOL    HW126117   2.672   3.334   6.721 -1.9857  0.9053  0.2483
 4827SOL    HW226118   2.606   3.342   6.853  4.1178  1.7948  1.8201
 4828SOL     OW26119   4.425   0.853   0.948  0.2438  0.2098  0.4834
 4828SOL    HW126120   4.492   0.795   0.911  2.3263  1.1815  2.6906
 4828SOL    HW226121   4.473   0.872   1.029 -1.9378 -0.1462  1.8629
 4829SOL     OW26122   1.639   4.600   8.743 -0.3378 -0.8357 -0.1150
 4829SOL    HW126123   1.605   4.565   8.825 -1.7703  0.2730 -0.2405
 4829SOL    HW226124   1.558   4.592   8.692 -1.1107  0.1176  0.9654
 4830SOL     OW26125   1.835   4.358   9.216  0.0465  0.0402 -0.0355
 4830SOL    HW126126   1.796   4.276   9.248 -1.7071  1.4048  1.3710
 4830SOL    HW226127   1.801   4.354   9.127 -1.9688  0.2871  0.7064
 4831SOL     OW26128   3.760   1.006   5.688 -0.0238  0.0234  0.0747
 4831SOL    HW126129   3.750   1.101   5.680 -1.7013  0.1021  3.2372
 4831SOL    HW226130   3.844   0.991   5.644 -0.3380 -1.5104  0.0159
 4832SOL     OW26131   0.222   1.074  13.014  0.2905  0.1634 -0.1861
 4832SOL    HW126132   0.182   0.996  12.976 -1.4066  1.1989 -0.5216
 4832SOL    HW226133   0.158   1.096  13.082 -1.1126  0.0491 -1.4668
 4833SOL     OW26134   0.166   1.526   4.319 -0.0384  0.1951  0.1126
 4833SOL    HW126135   0.173   1.612   4.359 -1.4248 -0.4873  1.8036
 4833SOL    HW226136   0.236   1.522   4.253 -2.4368 -0.6542 -2.3868
 4834SOL     OW26137   0.419   0.442  11.610  0.5692  0.0085  0.2077
 4834SOL    HW126138   0.367   0.505  11.561 -0.2129 -2.2242 -1.8313
 4834SOL    HW226139   0.408   0.368  11.551  0.3333 -0.6008  1.0121
 4835SOL     OW26140   2.370   1.040  11.706  0.2366 -0.9785 -0.3424
 4835SOL    HW126141   2.410   1.056  11.620 -2.0490  1.3703 -0.9743
 4835SOL    HW226142   2.281   1.069  11.689  0.3495 -0.9734 -0.9487
 4836SOL     OW26143   2.021   3.036   3.354 -0.6836  0.3499  0.1377
 4836SOL    HW126144   2.044   3.011   3.444  0.5133  0.6244 -0.0875
 4836SOL    HW226145   2.012   2.952   3.309 -1.7339 -0.0741  1.1368
 4837SOL     OW26146   4.323   3.743   1.082  0.1363 -0.4189 -0.2720
 4837SOL    HW126147   4.395   3.688   1.051  1.9615  1.4168  0.7283
 4837SOL    HW226148   4.348   3.730   1.174  2.0318 -4.0024 -1.2900
 4838SOL     OW26149   1.730   2.518   8.693  0.2113  0.2363 -0.0709
 4838SOL    HW126150   1.732   2.566   8.610 -0.4119 -0.2886 -0.3795
 4838SOL    HW226151   1.672   2.447   8.665 -0.7298  0.5270  1.1706
 4839SOL     OW26152   1.279   0.231   2.899 -0.1044  0.2010  0.1472
 4839SOL    HW126153   1.279   0.205   2.807  0.4761  0.2577  0.1324
 4839SOL    HW226154   1.298   0.323   2.882 -1.0758  0.4250  0.2974
 4840SOL     OW26155   4.076   3.642   5.199  0.0152 -0.3022 -0.1104
 4840SOL    HW126156   4.161   3.602   5.178 -0.5343 -0.9997 -0.9964
 4840SOL    HW226157   4.016   3.591   5.145 -0.7641  0.0530  0.4259
 4841SOL     OW26158   2.345   4.435   8.078 -0.1198 -0.0931  0.1310
 4841SOL    HW126159   2.337   4.519   8.123  0.8917  0.2222 -0.2866
 4841SOL    HW226160   2.399   4.381   8.136  1.2074  0.7333 -0.3310
 4842SOL     OW26161   3.167   3.106   6.423 -0.4217  0.1650  0.2712
 4842SOL    HW126162   3.100   3.162   6.385 -0.4053 -1.6457 -2.4356
 4842SOL    HW226163   3.156   3.116   6.517 -1.0125 -0.4097  0.2623
 4843SOL     OW26164   3.661   3.098  14.556 -0.1707 -0.0921 -0.1272
 4843SOL    HW126165   3.631   3.008  14.567  0.2684 -0.5106 -2.5117
 4843SOL    HW226166   3.660   3.114  14.462 -2.9798 -2.3671 -0.4660
 4844SOL     OW26167   3.971   3.078   7.768 -0.6600 -0.4607  0.3854
 4844SOL    HW126168   3.966   3.141   7.697 -0.2668 -0.0981  0.6763
 4844SOL    HW226169   4.061   3.045   7.762 -0.3721  0.4202 -0.0227
 4845SOL     OW26170   3.841   0.525   2.338 -0.4964  0.5200  0.1626
 4845SOL    HW126171   3.868   0.436   2.316  1.4632  0.9653  0.8285
 4845SOL    HW226172   3.897   0.582   2.286  1.4032  0.5550  2.2622
 4846SOL     OW26173   1.110   0.812  11.027 -0.0336 -0.1259  0.1250
 4846SOL    HW126174   1.141   0.901  11.011  1.3120 -0.5433  0.4230
 4846SOL    HW226175   1.015   0.828  11.031  0.2962  1.7943  0.2292
 4847SOL     OW26176   2.429   3.931   3.314 -0.0962 -0.0690 -0.1995
 4847SOL    HW126177   2.478   3.906   3.235  0.3065  3.3943 -1.0290
 4847SOL    HW226178   2.485   4.000   3.349 -1.0098 -0.0235  1.1606
 4848SOL     OW26179   2.976   0.814   3.077  0.5200 -0.4607 -0.3254
 4848SOL    HW126180   3.069   0.826   3.097  0.3640  0.4324 -0.1289
 4848SOL    HW226181   2.975   0.836   2.984 -1.6210  1.4869  0.1481
 4849SOL     OW26182   4.273   1.919   9.647 -0.8594  0.3610  0.2817
 4849SOL    HW126183   4.296   1.999   9.600 -0.0760 -0.6161 -1.0019
 4849SOL    HW226184   4.188   1.931   9.689 -1.0975 -1.1534  0.2538
 4850SOL     OW26185   3.971   2.767   0.579 -0.1814  0.3887  0.1498
 4850SOL    HW126186   4.010   2.680   0.588 -2.0786 -0.5212 -0.4010
 4850SOL    HW226187   3.996   2.792   0.490  1.0051 -0.3778  0.2606
 4851SOL     OW26188   2.068   1.581   1.995  0.1292 -0.1243  0.6442
 4851SOL    HW126189   1.978   1.556   1.973  0.8599 -0.6249 -1.7469
 4851SOL    HW226190   2.065   1.543   2.083  0.0762 -0.1122  0.6478
 4852SOL     OW26191   2.409   0.806   2.067 -0.1177  0.0609 -0.4510
 4852SOL    HW126192   2.354   0.730   2.054 -0.9256  0.3753  1.1740
 4852SOL    HW226193   2.446   0.781   2.151 -1.2132 -0.0481 -0.0043
 4853SOL     OW26194   0.591   0.757   6.600  0.3470  0.0052  0.2806
 4853SOL    HW126195   0.505   0.714   6.598  0.1029  0.4397  1.7972
 4853SOL    HW226196   0.588   0.793   6.688  3.3064  0.0340  0.3837
 4854SOL     OW26197   3.134   3.988   7.327  0.2664 -0.2084 -0.4070
 4854SOL    HW126198   3.071   3.990   7.399 -0.6637  1.1597 -1.2416
 4854SOL    HW226199   3.185   4.068   7.321  2.8114 -1.8928 -1.0419
 4855SOL     OW26200   3.507   2.393   6.415  0.3883 -0.4804  0.2829
 4855SOL    HW126201   3.530   2.311   6.459  0.4878 -2.3029 -3.1321
 4855SOL    HW226202   3.517   2.446   6.494 -3.5310 -1.8092  1.6312
 4856SOL     OW26203   0.776   0.598   5.453 -0.3947 -0.1912  0.3807
 4856SOL    HW126204   0.857   0.648   5.471 -1.2041  1.6879 -1.1922
 4856SOL    HW226205   0.796   0.563   5.366 -0.9434  0.3239  0.0445
 4857SOL     OW26206   0.706   1.653  15.702  0.1134  0.6006  0.2038
 4857SOL    HW126207   0.644   1.647  15.629 -1.2464  2.2361  1.2061
 4857SOL    HW226208   0.637   1.672  15.766 -0.0058  0.9781 -0.0344
 4858SOL     OW26209   3.470   2.110  17.710 -0.3930  0.2955 -0.5655
 4858SOL    HW126210   3.428   2.195  17.710  1.1921  1.0641 -3.4189
 4858SOL    HW226211   3.408   2.064   0.013  0.2875 -0.1537 -0.1719
 4859SOL     OW26212   2.439   0.461   3.566 -0.4598  0.3205  0.1793
 4859SOL    HW126213   2.378   0.528   3.534  1.5694  1.1563 -1.9119
 4859SOL    HW226214   2.511   0.465   3.503 -0.4898 -1.2978  0.0364
 4860SOL     OW26215   0.835   1.138   5.212  0.4548 -0.4064 -0.2249
 4860SOL    HW126216   0.872   1.147   5.300  0.8363 -1.0634 -0.3155
 4860SOL    HW226217   0.914   1.111   5.166  0.9514  0.3210  0.1936
 4861SOL     OW26218   0.410   0.109  11.959 -0.0745 -0.9364 -0.0382
 4861SOL    HW126219   0.392   0.202  11.940 -0.5057 -1.6306 -3.0373
 4861SOL    HW226220   0.501   0.097  11.931 -0.4524 -1.2871 -1.1312
 4862SOL     OW26221   3.455   4.483   2.442  0.3843 -0.2177  0.2763
 4862SOL    HW126222   3.431   4.520   2.357 -0.5772 -0.1290  0.5810
 4862SOL    HW226223   3.388   4.524   2.497  0.0286 -1.1082  0.5143
 4863SOL     OW26224   1.976   0.817   1.841 -0.1784  0.0491  0.3138
 4863SOL    HW126225   2.067   0.796   1.818 -0.8983 -1.9645 -0.6928
 4863SOL    HW226226   1.972   0.913   1.838 -0.4483 -0.0002 -0.8101
 4864SOL     OW26227   2.809   4.553   6.028  0.6797 -0.2251  0.0855
 4864SOL    HW126228   2.866   4.536   6.103  0.5098 -2.0311 -0.2005
 4864SOL    HW226229   2.879   4.571   5.965  1.2735 -0.3207  0.7171
 4865SOL     OW26230   2.729   1.877   8.829  0.1892 -0.1169  0.3303
 4865SOL    HW126231   2.643   1.848   8.859  0.1834 -0.5163 -0.0669
 4865SOL    HW226232   2.766   1.910   8.911 -1.3051  0.5353  0.7470
 4866SOL     OW26233   2.503   1.280  12.471 -0.7777 -0.0116  0.1127
 4866SOL    HW126234   2.494   1.354  12.411 -0.5426 -2.2624 -2.7350
 4866SOL    HW226235   2.596   1.265  12.453 -1.5278 -0.8609 -3.1800
 4867SOL     OW26236   1.945   3.277  17.537  0.4261  0.0511 -0.1968
 4867SOL    HW126237   1.863   3.233  17.562  1.0831 -2.3350 -2.2276
 4867SOL    HW226238   1.947   3.345  17.604 -1.7427 -0.1906  0.1342
 4868SOL     OW26239   2.187   0.039   5.689 -0.4191 -0.0780  0.4949
 4868SOL    HW126240   2.228   0.126   5.697 -2.6206  1.0646 -0.7493
 4868SOL    HW226241   2.248   4.726   5.742  2.6916 -0.0697 -3.0273
 4869SOL     OW26242   3.670   0.731   6.593 -1.0797 -0.4297  0.1222
 4869SOL    HW126243   3.755   0.769   6.572 -1.2680 -0.0968 -0.0518
 4869SOL    HW226244   3.654   0.688   6.509 -0.8168  0.0404 -0.1686
 4870SOL     OW26245   3.217   0.111  16.594 -0.1617  0.1364  0.0203
 4870SOL    HW126246   3.291   0.107  16.654  0.6094  3.0746 -0.7090
 4870SOL    HW226247   3.270   0.106  16.514 -0.0950 -2.0475  0.2180
 4871SOL     OW26248   3.231   0.886   2.689 -0.1529  0.0188  0.2179
 4871SOL    HW126249   3.145   0.888   2.731  0.0022 -1.1089  0.5922
 4871SOL    HW226250   3.203   0.859   2.601 -0.4022 -0.4131  0.4279
 4872SOL     OW26251   0.333   1.734   1.926 -0.0136 -0.3315 -0.1700
 4872SOL    HW126252   0.238   1.729   1.936  0.0055 -1.8513 -0.7225
 4872SOL    HW226253   0.340   1.825   1.897  2.0482 -0.6935 -0.8258
 4873SOL     OW26254   0.575   2.444  11.488  0.8371  0.6202  0.1708
 4873SOL    HW126255   0.510   2.410  11.549  1.3428 -0.1878  0.2527
 4873SOL    HW226256   0.649   2.418  11.542  0.2255 -0.8661  0.2937
 4874SOL     OW26257   4.552   4.718   2.338 -0.5337 -0.3668 -0.1814
 4874SOL    HW126258   4.530   0.046   2.273 -1.0049  0.2903  0.6632
 4874SOL    HW226259   4.488   4.648   2.325 -3.7600  2.8293 -1.3790
 4875SOL     OW26260   2.412   2.111   9.220 -0.7105  0.0055 -0.3111
 4875SOL    HW126261   2.452   2.024   9.212 -1.1552 -0.4222  1.9950
 4875SOL    HW226262   2.322   2.082   9.204 -0.3898 -0.2689 -1.6470
 4876SOL     OW26263   4.643   1.933   6.309  0.4259 -0.3603  0.5194
 4876SOL    HW126264   4.568   1.974   6.267  0.3059  1.2712  2.3343
 4876SOL    HW226265   4.701   2.007   6.323 -1.0189  0.9586 -0.4439
 4877SOL     OW26266   2.838   4.308  11.154 -0.3377  0.4863 -0.3465
 4877SOL    HW126267   2.818   4.216  11.136  0.1709  0.3881 -0.3921
 4877SOL    HW226268   2.927   4.296  11.188  0.5581 -0.0770 -2.9485
 4878SOL     OW26269   2.492   0.163   2.172  0.3036 -0.3185 -0.3716
 4878SOL    HW126270   2.474   0.225   2.102  0.7757 -1.1680 -1.2473
 4878SOL    HW226271   2.484   0.217   2.250 -0.9824  0.3811 -0.9918
 4879SOL     OW26272   0.269   1.112   8.073 -0.6171  0.1462  0.1111
 4879SOL    HW126273   0.284   1.029   8.028 -0.9147  2.1369 -3.6662
 4879SOL    HW226274   0.313   1.175   8.015 -0.9164  1.7772  1.6592
 4880SOL     OW26275   3.924   3.252   8.327 -0.0668  0.2041 -0.0832
 4880SOL    HW126276   3.913   3.261   8.421  2.7703  0.4644  0.2147
 4880SOL    HW226277   4.018   3.248   8.312 -0.2465 -1.1974 -0.8948
 4881SOL     OW26278   1.294   0.415   3.915  0.1195  0.3353  0.1064
 4881SOL    HW126279   1.235   0.435   3.842  0.7294  0.5552 -0.3184
 4881SOL    HW226280   1.236   0.425   3.990  0.2824  3.7344 -0.2366
 4882SOL     OW26281   2.702   0.116   5.072 -0.4035  0.5028  0.2333
 4882SOL    HW126282   2.641   0.049   5.041 -0.8618  0.5949  0.9385
 4882SOL    HW226283   2.667   0.191   5.026  0.5886  1.2464  0.6923
 4883SOL     OW26284   4.042   4.234  12.997 -0.5741 -0.4173 -0.7348
 4883SOL    HW126285   4.010   4.254  12.909  0.5516  0.7328 -0.8906
 4883SOL    HW226286   3.981   4.164  13.020 -0.1653 -0.4200  0.3121
 4884SOL     OW26287   4.334   2.261   3.700  0.4331  0.2924 -0.0616
 4884SOL    HW126288   4.284   2.229   3.775 -2.3993  2.5666 -0.9375
 4884SOL    HW226289   4.308   2.192   3.639  1.7153 -1.0349  0.9158
 4885SOL     OW26290   1.780   0.512   8.355 -0.0639  0.0825 -0.7939
 4885SOL    HW126291   1.815   0.457   8.285  2.9354 -0.5929  1.1972
 4885SOL    HW226292   1.857   0.505   8.412 -0.5534 -0.2609 -0.1739
 4886SOL     OW26293   3.854   4.130  15.800  0.0026  0.1936  0.7910
 4886SOL    HW126294   3.918   4.063  15.777 -0.3320  1.0866 -2.7155
 4886SOL    HW226295   3.825   4.093  15.883 -1.8797  0.5797  0.3217
 4887SOL     OW26296   0.115   3.081   8.817  0.3788 -0.4636  0.5126
 4887SOL    HW126297   0.184   3.146   8.820 -0.2540  0.1234  2.3842
 4887SOL    HW226298   0.093   3.087   8.724  1.2806  1.2633  0.4243
 4888SOL     OW26299   1.538   0.568   2.007  0.0753  0.3547  0.0315
 4888SOL    HW126300   1.611   0.552   2.068  1.7666  1.3826 -1.7370
 4888SOL    HW226301   1.569   0.522   1.930  0.7763  0.4564  0.2539
 4889SOL     OW26302   2.551   2.471   7.332  0.1768 -0.0628 -0.3268
 4889SOL    HW126303   2.526   2.422   7.254 -0.3274 -0.3358  0.0004
 4889SOL    HW226304   2.592   2.543   7.284  0.2181  0.2949  0.2440
 4890SOL     OW26305   1.269   1.827   7.912 -0.1545  0.4025  0.0865
 4890SOL    HW126306   1.276   1.742   7.956 -1.0631  1.1280  1.6575
 4890SOL    HW226307   1.179   1.826   7.880  0.5658  2.0374 -1.9746
 4891SOL     OW26308   0.201   4.724   5.403  0.5335 -0.2465  0.0451
 4891SOL    HW126309   0.210   4.688   5.315 -0.3650  1.1053 -0.5958
 4891SOL    HW226310   0.200   4.637   5.444 -2.7455  0.4165  1.3985
 4892SOL     OW26311   2.260   1.150   8.522  0.0032 -0.4950  0.3923
 4892SOL    HW126312   2.291   1.076   8.575  1.6499 -1.4184 -1.8591
 4892SOL    HW226313   2.180   1.177   8.566 -0.3132 -1.2818  0.2948
 4893SOL     OW26314   2.265   2.945  13.473  0.1886 -0.1287 -0.3202
 4893SOL    HW126315   2.256   2.861  13.519  1.1282  0.1077  0.2860
 4893SOL    HW226316   2.207   3.005  13.520 -0.7014 -0.9792 -0.3096
 4894SOL     OW26317   2.923   4.372   9.323  0.4744 -0.0780 -0.0204
 4894SOL    HW126318   2.883   4.338   9.403  0.9514  0.5301  0.4772
 4894SOL    HW226319   3.005   4.324   9.331  0.9228  0.7776  0.4456
 4895SOL     OW26320   0.965   1.984   5.285  0.2239  0.0790 -0.9209
 4895SOL    HW126321   0.947   2.035   5.206  1.3868  0.6006 -0.8567
 4895SOL    HW226322   1.060   1.981   5.273  0.5618 -1.3773  2.2216
 4896SOL     OW26323   0.376   2.597  13.552  0.3204 -0.3655  0.4438
 4896SOL    HW126324   0.370   2.648  13.634  1.6854  2.1760 -1.0356
 4896SOL    HW226325   0.320   2.521  13.564  0.3107 -0.2083  1.3899
 4897SOL     OW26326   2.104   4.169   6.241  0.4555  0.3472 -0.5815
 4897SOL    HW126327   2.056   4.223   6.177  1.0199  0.8149 -0.6185
 4897SOL    HW226328   2.146   4.095   6.197  0.7016 -1.0874  2.0592
 4898SOL     OW26329   1.592   0.774  11.670  0.2113 -0.1831 -0.2204
 4898SOL    HW126330   1.607   0.698  11.728 -0.7865  0.0416  0.3270
 4898SOL    HW226331   1.499   0.789  11.688  0.4826 -0.3863  1.3958
 4899SOL     OW26332   3.873   3.762   7.375 -0.7011 -0.6684  0.6722
 4899SOL    HW126333   3.951   3.724   7.416  1.0604  2.8050  0.5645
 4899SOL    HW226334   3.878   3.725   7.287  2.5178 -0.7711  0.8934
 4900SOL     OW26335   2.775   1.996  15.643 -0.0302 -0.1020 -0.0297
 4900SOL    HW126336   2.733   1.945  15.573  0.3406 -3.4217  2.1334
 4900SOL    HW226337   2.771   2.086  15.611 -0.1315 -0.3299 -0.6789
 4901SOL     OW26338   2.909   1.991   4.828  0.2734 -0.5131  0.0747
 4901SOL    HW126339   2.850   2.065   4.843  1.2649  0.5408 -1.2228
 4901SOL    HW226340   2.979   2.001   4.892  1.4759  1.1527 -1.5128
 4902SOL     OW26341   4.673   3.151   7.578 -0.5999 -0.3597  0.4046
 4902SOL    HW126342   4.706   3.061   7.573  1.3182  0.3442  0.4717
 4902SOL    HW226343   0.010   3.207   7.560 -1.4896  0.3639 -1.1418
 4903SOL     OW26344   2.437   3.939   0.658  0.5215  0.2060  0.3440
 4903SOL    HW126345   2.514   3.926   0.715  0.3630  1.1462  0.7843
 4903SOL    HW226346   2.370   3.894   0.710  0.1505 -1.1250 -1.2867
 4904SOL     OW26347   0.472   3.803   9.488 -0.7566 -0.3314 -0.0069
 4904SOL    HW126348   0.547   3.770   9.538 -0.5229  0.4208  0.1553
 4904SOL    HW226349   0.458   3.895   9.513  0.0441 -0.0020 -0.7810
 4905SOL     OW26350   3.299   4.108   3.819 -0.1834 -0.1381 -0.2539
 4905SOL    HW126351   3.276   4.200   3.806  0.0091 -0.4914 -2.9899
 4905SOL    HW226352   3.347   4.102   3.902 -0.3580 -0.3723 -0.1685
 4906SOL     OW26353   3.940   0.351   7.327  1.0857  0.2100 -0.3036
 4906SOL    HW126354   3.893   0.268   7.320 -2.2373  1.7610  3.4381
 4906SOL    HW226355   4.011   0.311   7.377  0.0464 -2.0559 -0.6559
 4907SOL     OW26356   4.398   1.399   3.395  0.2877  0.5136 -0.2538
 4907SOL    HW126357   4.343   1.328   3.427 -0.1373  0.6525 -0.6823
 4907SOL    HW226358   4.426   1.370   3.308  0.9960 -0.5608  0.3312
 4908SOL     OW26359   4.294   1.877   7.745  0.0315  0.1509 -0.1017
 4908SOL    HW126360   4.260   1.934   7.814 -0.0569  0.3480 -0.3086
 4908SOL    HW226361   4.232   1.805   7.755  0.2729  0.1080  1.0513
 4909SOL     OW26362   3.800   4.118  13.863 -0.0523 -0.2339 -0.0824
 4909SOL    HW126363   3.787   4.050  13.929 -1.4701 -1.8487 -2.0352
 4909SOL    HW226364   3.896   4.119  13.860 -0.0830  0.0064 -1.1422
 4910SOL     OW26365   1.050   1.342   1.613 -0.1909  0.2892  0.2946
 4910SOL    HW126366   1.087   1.317   1.698 -2.0738  0.8504  1.2858
 4910SOL    HW226367   1.124   1.374   1.562 -1.2147 -1.2872 -2.1862
 4911SOL     OW26368   3.110   0.836   4.712  0.4904  0.5339  0.2326
 4911SOL    HW126369   3.031   0.813   4.663  0.1408  2.2748  0.0103
 4911SOL    HW226370   3.168   0.827   4.637  0.7408  0.4119  0.4375
 4912SOL     OW26371   3.956   3.156   6.380 -0.1991 -0.5926 -0.1707
 4912SOL    HW126372   3.971   3.190   6.468  1.3729 -0.5546 -0.4532
 4912SOL    HW226373   3.917   3.071   6.402 -2.2261  0.6617  1.1006
 4913SOL     OW26374   2.995   4.666   1.587 -0.5385  0.2065 -0.1836
 4913SOL    HW126375   3.077   4.695   1.626  0.0982 -0.6631 -0.8426
 4913SOL    HW226376   3.006   4.720   1.509  2.4175 -0.8328 -0.5034
 4914SOL     OW26377   3.613   4.579   6.878 -0.1701 -0.3287  0.1653
 4914SOL    HW126378   3.624   4.562   6.784  0.4066  1.5563 -0.1080
 4914SOL    HW226379   3.678   4.648   6.894 -0.6326  0.3379 -0.8037
 4915SOL     OW26380   1.373   1.382  17.647  0.5476  0.2651 -0.5443
 4915SOL    HW126381   1.295   1.437  17.636 -1.2767 -2.3134 -0.4751
 4915SOL    HW226382   1.362   1.351  17.737  1.5311  0.9992 -0.1772
 4916SOL     OW26383   0.158   0.511   6.249 -0.1057  0.2658  0.1880
 4916SOL    HW126384   0.140   0.461   6.329  1.9056 -0.3261  0.2574
 4916SOL    HW226385   0.104   0.461   6.187 -0.3856  0.0665  0.5950
 4917SOL     OW26386   0.027   2.021   3.427 -0.3502 -0.1560 -0.8044
 4917SOL    HW126387   0.028   2.081   3.353 -1.3751 -1.1602 -1.6329
 4917SOL    HW226388   0.119   2.022   3.454 -0.1140  0.3866 -1.6474
 4918SOL     OW26389   4.014   0.525  11.368 -0.2457 -0.1118  0.3724
 4918SOL    HW126390   3.945   0.460  11.353  0.2237 -0.5565  0.1497
 4918SOL    HW226391   4.089   0.468  11.381  0.2301  0.5110  0.3572
 4919SOL     OW26392   3.155   0.567   8.554  0.3234  0.4406 -0.1291
 4919SOL    HW126393   3.222   0.531   8.497 -1.1286 -3.6068  0.7247
 4919SOL    HW226394   3.201   0.575   8.638 -1.5142  1.2082  0.8123
 4920SOL     OW26395   2.277   0.480  10.848  0.0184  0.0032 -0.0924
 4920SOL    HW126396   2.224   0.472  10.927 -2.8078  2.2092 -1.7665
 4920SOL    HW226397   2.355   0.528  10.876 -1.7272  1.9623  1.3563
 4921SOL     OW26398   3.885   3.281   1.454 -0.5303  0.2739 -0.0705
 4921SOL    HW126399   3.897   3.340   1.380 -1.8088  0.7451  0.1056
 4921SOL    HW226400   3.912   3.194   1.424 -1.5703 -0.3559  0.8039
 4922SOL     OW26401   4.720   2.040   5.486  0.0593 -0.5966 -0.4892
 4922SOL    HW126402   0.016   1.995   5.409 -0.4635 -3.4661  0.9175
 4922SOL    HW226403   4.696   2.126   5.454 -0.3429 -0.1397  1.0460
 4923SOL     OW26404   4.330   3.530   5.081  0.7488 -0.2224 -0.5173
 4923SOL    HW126405   4.421   3.523   5.108  1.0307  0.5860 -1.2690
 4923SOL    HW226406   4.317   3.460   5.016 -3.7424 -0.1297  0.2643
 4924SOL     OW26407   1.118   2.341   8.834  0.2403 -0.0211  0.0896
 4924SOL    HW126408   1.126   2.246   8.840 -2.1226 -0.0894  2.3457
 4924SOL    HW226409   1.050   2.340   8.767  1.8194  0.5384 -1.5048
 4925SOL     OW26410   2.087   3.638   0.379  0.1880 -0.3156 -0.4729
 4925SOL    HW126411   2.095   3.733   0.380  0.8902 -0.3742 -0.5557
 4925SOL    HW226412   2.123   3.615   0.464 -1.5404  0.0981  0.3799
 4926SOL     OW26413   2.160   2.351   0.518  0.5900  0.0149 -0.0873
 4926SOL    HW126414   2.082   2.297   0.533  1.4469 -0.7147  1.6417
 4926SOL    HW226415   2.202   2.312   0.441  1.1153 -0.7161  0.5819
 4927SOL     OW26416   4.496   2.993   1.326 -0.9901 -0.6771 -0.0415
 4927SOL    HW126417   4.422   2.937   1.351  0.3701 -1.7550  1.5931
 4927SOL    HW226418   4.540   2.933   1.266  2.6788  1.3089  0.6490
 4928SOL     OW26419   1.866   4.327   6.519  0.1253 -0.0502  1.0165
 4928SOL    HW126420   1.843   4.247   6.567 -0.8569  0.4379  1.3573
 4928SOL    HW226421   1.807   4.393   6.554  0.6864  0.3861  1.1438
 4929SOL     OW26422   1.477   1.926  12.326  0.4303  0.4906 -0.5947
 4929SOL    HW126423   1.425   1.861  12.372  1.7514  1.1355  1.8092
 4929SOL    HW226424   1.470   1.896  12.235 -1.8150 -0.4787 -0.0781
 4930SOL     OW26425   2.893   1.921  13.260  0.4264  0.5216 -0.1939
 4930SOL    HW126426   2.913   1.939  13.352 -0.5201  1.3389 -0.1552
 4930SOL    HW226427   2.958   1.856  13.233 -0.7430 -0.7434  0.0623
 4931SOL     OW26428   2.461   1.343   1.623 -0.1846  0.1961  0.0297
 4931SOL    HW126429   2.449   1.255   1.586  2.0674  0.7482 -2.0080
 4931SOL    HW226430   2.555   1.348   1.602 -0.6400  1.3277 -1.7018
 4932SOL     OW26431   3.669   3.797   5.176 -0.2793 -0.1503 -0.1397
 4932SOL    HW126432   3.696   3.888   5.189 -1.5195  0.5723 -2.5580
 4932SOL    HW226433   3.607   3.819   5.106  0.0337  0.1079 -0.3357
 4933SOL     OW26434   3.676   4.140   2.147 -0.1187  0.3071 -0.8328
 4933SOL    HW126435   3.611   4.103   2.206  1.8542 -0.2176  1.0162
 4933SOL    HW226436   3.647   4.231   2.143 -0.3733  0.2232 -0.8385
 4934SOL     OW26437   0.331   0.054   2.557  0.1301 -0.4385  0.1157
 4934SOL    HW126438   0.267   0.052   2.486  1.2513  0.3727 -0.9206
 4934SOL    HW226439   0.301   0.140   2.587  0.0532  0.5007 -2.6081
 4935SOL     OW26440   0.870   1.096   7.409  0.6399 -0.0566 -0.5507
 4935SOL    HW126441   0.883   1.015   7.458  0.0004  0.9575  1.3046
 4935SOL    HW226442   0.946   1.144   7.443  0.2837  0.9893 -1.2385
 4936SOL     OW26443   2.414   4.028   6.618  0.4473  0.2473  0.0094
 4936SOL    HW126444   2.504   4.001   6.635  1.0890  1.6433 -1.1916
 4936SOL    HW226445   2.414   4.108   6.671 -0.9159 -0.1363  0.5980
 4937SOL     OW26446   0.364   3.803   4.809  0.2342 -0.0184 -0.3863
 4937SOL    HW126447   0.318   3.752   4.743 -0.2790 -0.7118  0.5003
 4937SOL    HW226448   0.363   3.738   4.879  0.3725 -0.0875 -0.4476
 4938SOL     OW26449   1.290   4.308   8.165  0.3453  0.0458 -0.4156
 4938SOL    HW126450   1.383   4.315   8.187  1.2367 -3.1088 -3.0951
 4938SOL    HW226451   1.268   4.401   8.155 -0.2469  0.1989  2.4319
 4939SOL     OW26452   2.392   0.241  11.855 -0.7413 -0.1562 -0.0195
 4939SOL    HW126453   2.390   0.336  11.862 -0.1609 -0.1978  0.7764
 4939SOL    HW226454   2.463   0.215  11.915 -0.5940  1.2614  0.4136
 4940SOL     OW26455   0.665   2.856   1.336  0.1864  0.1453 -0.4015
 4940SOL    HW126456   0.683   2.772   1.377 -0.6132  0.4882  0.6555
 4940SOL    HW226457   0.746   2.903   1.357 -0.8578  1.2184  1.1976
 4941SOL     OW26458   1.954   2.701  14.986 -0.1198 -1.0877  0.1812
 4941SOL    HW126459   1.972   2.755  14.909  0.2181 -2.1468 -0.4861
 4941SOL    HW226460   2.039   2.681  15.025  0.8465  3.8286  0.6178
 4942SOL     OW26461   3.356   4.182  13.191 -0.0488  0.2971  0.4976
 4942SOL    HW126462   3.378   4.195  13.099 -1.4792  2.3851  0.4453
 4942SOL    HW226463   3.430   4.218  13.241 -0.2292  1.2474  0.0806
 4943SOL     OW26464   0.561   3.143   1.436  0.0901 -0.7693  0.4917
 4943SOL    HW126465   0.597   3.054   1.433  0.9210 -0.4462  0.9707
 4943SOL    HW226466   0.637   3.201   1.434  0.4642 -1.3495 -1.6742
 4944SOL     OW26467   0.725   4.150   0.584  0.4172 -0.0416  0.6346
 4944SOL    HW126468   0.700   4.078   0.525 -1.0330  0.4005  0.7038
 4944SOL    HW226469   0.654   4.148   0.648  1.3572  0.2248  1.6706
 4945SOL     OW26470   2.590   3.457   4.034  0.4173  0.0464 -0.1212
 4945SOL    HW126471   2.581   3.411   4.118  0.4583 -0.7386 -0.5411
 4945SOL    HW226472   2.683   3.441   4.020  0.5539 -0.0314  0.8582
 4946SOL     OW26473   3.717   4.144   4.335 -0.1453 -0.4614 -0.2668
 4946SOL    HW126474   3.665   4.070   4.306  0.4419  0.0027 -2.4593
 4946SOL    HW226475   3.652   4.195   4.385 -1.8002 -2.2916 -0.5569
 4947SOL     OW26476   3.598   2.164   2.130  0.3355  0.2067 -0.0230
 4947SOL    HW126477   3.527   2.206   2.082 -1.0481 -0.9600  1.0096
 4947SOL    HW226478   3.681   2.193   2.091  0.5541  0.4490  0.6229
 4948SOL     OW26479   1.223   0.405   8.834  0.1284 -0.4549 -0.0276
 4948SOL    HW126480   1.140   0.359   8.838 -0.1728  0.1426  0.4460
 4948SOL    HW226481   1.198   0.479   8.778  0.6796 -0.5315 -0.3781
 4949SOL     OW26482   0.414   2.055   8.506 -0.4861  0.3166  0.5291
 4949SOL    HW126483   0.406   1.994   8.580 -0.4235 -0.2473  0.0689
 4949SOL    HW226484   0.507   2.080   8.510 -0.5468  0.7399 -0.9483
 4950SOL     OW26485   2.077   4.676   2.032  0.0605  0.0577 -0.3164
 4950SOL    HW126486   2.168   4.678   2.064 -0.6907  1.4252  1.7508
 4950SOL    HW226487   2.069   0.032   2.047  1.4548  0.1403 -0.0322
 4951SOL     OW26488   4.355   2.645   3.063 -0.5167  0.2559 -0.1106
 4951SOL    HW126489   4.290   2.575   3.061  0.8062 -0.8508 -3.5136
 4951SOL    HW226490   4.328   2.687   3.145  0.6298 -0.0856  0.4438
 4952SOL     OW26491   0.069   1.299   2.881 -0.0214 -0.1564 -0.3473
 4952SOL    HW126492   0.109   1.228   2.930  2.6990  2.0596  0.6079
 4952SOL    HW226493   0.086   1.376   2.934 -1.4849  0.5393 -0.8714
 4953SOL     OW26494   3.502   0.628   2.046 -0.2325  0.1173  0.0818
 4953SOL    HW126495   3.480   0.721   2.036 -2.6547 -0.3880  0.9130
 4953SOL    HW226496   3.559   0.611   1.970  0.7638  1.5794  0.4964
 4954SOL     OW26497   4.560   0.303   8.509 -0.3548  0.4182  0.1146
 4954SOL    HW126498   4.639   0.351   8.487 -1.1256  1.8033  0.3591
 4954SOL    HW226499   4.493   0.365   8.479  1.8195  1.7544 -2.0306
 4955SOL     OW26500   4.137   4.093   6.787  0.2278 -0.2506 -0.5179
 4955SOL    HW126501   4.066   4.044   6.744 -2.8152  2.1248  1.7513
 4955SOL    HW226502   4.084   4.154   6.839  2.4873  0.6627  0.7371
 4956SOL     OW26503   0.090   0.725   5.617 -0.7794  0.6331 -0.4500
 4956SOL    HW126504   0.109   0.639   5.580  1.7089  0.8826  0.2472
 4956SOL    HW226505   0.006   0.740   5.573 -0.5765  2.1209 -0.3011
 4957SOL     OW26506   1.272   0.061  11.325 -0.0018 -0.0982 -0.2753
 4957SOL    HW126507   1.276   0.054  11.230  1.6763  0.4929 -0.2540
 4957SOL    HW226508   1.288   4.709  11.350  1.3432  0.1507 -0.1911
 4958SOL     OW26509   4.657   3.236   2.787  0.1754  0.3725 -0.0893
 4958SOL    HW126510   4.721   3.291   2.832  0.2097  1.9819 -2.1384
 4958SOL    HW226511   4.585   3.288   2.820 -1.0343 -0.6052 -1.2054
 4959SOL     OW26512   3.698   2.412   2.408  0.6260 -0.5946 -0.5725
 4959SOL    HW126513   3.790   2.396   2.430 -0.6378 -3.0539  2.9072
 4959SOL    HW226514   3.698   2.385   2.317 -0.1412  0.3798 -0.8583
 4960SOL     OW26515   3.214   0.026   1.715  0.1591  0.2501  0.6639
 4960SOL    HW126516   3.228   0.078   1.794 -0.3690  1.2909  0.0564
 4960SOL    HW226517   3.237   0.091   1.650  2.5448 -1.3130 -0.0516
 4961SOL     OW26518   3.360   0.581   6.677 -0.4143 -0.0812  0.1158
 4961SOL    HW126519   3.450   0.577   6.645  0.1376  0.8308  1.5472
 4961SOL    HW226520   3.327   0.645   6.614  0.6002  1.6959  1.3819
 4962SOL     OW26521   2.872   1.375   6.924  0.0511 -0.0256 -0.2005
 4962SOL    HW126522   2.788   1.390   6.880 -0.7569 -2.7610  0.4427
 4962SOL    HW226523   2.845   1.343   7.010 -1.2149 -1.6511 -1.2138
 4963SOL     OW26524   3.195   0.742   6.511  0.3732 -0.6129  0.5630
 4963SOL    HW126525   3.169   0.784   6.429 -0.7127 -0.8577  0.7840
 4963SOL    HW226526   3.112   0.739   6.559 -0.0530 -0.4872 -0.1646
 4964SOL     OW26527   2.996   3.907   9.467  0.3550  0.0099 -0.2486
 4964SOL    HW126528   3.059   3.843   9.433 -0.2528 -0.0849 -1.1892
 4964SOL    HW226529   2.967   3.937   9.380  0.0535 -2.9469 -1.1802
 4965SOL     OW26530   2.983   3.118  15.616  0.2209 -0.5001  0.3440
 4965SOL    HW126531   3.019   3.072  15.539  1.2297  1.3918 -0.3051
 4965SOL    HW226532   2.918   3.174  15.575 -0.6910 -0.9780  1.1432
 4966SOL     OW26533   1.905   0.015   3.510  0.1647  0.3819  0.0400
 4966SOL    HW126534   1.823   4.735   3.554 -1.2413  0.7265 -2.4163
 4966SOL    HW226535   1.955   0.031   3.590 -0.1389  1.3735  0.0302
 4967SOL     OW26536   2.569   1.672   1.862 -0.6809  0.1619 -0.3044
 4967SOL    HW126537   2.571   1.765   1.841 -0.7567  0.4001  0.7444
 4967SOL    HW226538   2.496   1.642   1.807  0.5115  0.1348 -1.8430
 4968SOL     OW26539   4.388   0.352   8.253 -0.2564  0.6563  0.0385
 4968SOL    HW126540   4.484   0.356   8.244 -0.2105  0.2976  0.3999
 4968SOL    HW226541   4.363   0.355   8.161  1.6986  2.8263 -0.4361
 4969SOL     OW26542   2.022   3.907   4.627 -0.1929  0.3562  0.2322
 4969SOL    HW126543   2.096   3.938   4.679 -0.6275  1.1366  0.3863
 4969SOL    HW226544   2.007   3.989   4.580 -2.1795 -0.2058 -0.1030
 4970SOL     OW26545   4.375   2.047   3.488 -0.3564 -0.1123 -0.2210
 4970SOL    HW126546   4.281   2.034   3.488 -0.3833  0.1801 -1.6904
 4970SOL    HW226547   4.381   2.083   3.400  0.9504  1.0691  0.3466
 4971SOL     OW26548   4.226   3.381  15.656 -0.1792  0.0369  0.2989
 4971SOL    HW126549   4.197   3.314  15.594  0.2411  0.4749 -0.3720
 4971SOL    HW226550   4.251   3.445  15.590 -0.7109  1.3159  1.3387
 4972SOL     OW26551   2.132   2.756  14.706 -0.4515 -0.1838  0.1098
 4972SOL    HW126552   2.093   2.842  14.722 -2.0502 -0.9669  0.4330
 4972SOL    HW226553   2.050   2.711  14.685  0.1133 -1.5963  0.9601
 4973SOL     OW26554   1.912   3.498   9.133 -0.6600 -0.1823 -0.0647
 4973SOL    HW126555   1.987   3.556   9.125  0.3286 -2.1087 -4.8142
 4973SOL    HW226556   1.913   3.472   9.226 -2.1556  1.6426  0.4557
 4974SOL     OW26557   2.129   0.179   3.699 -0.2005 -0.0695  0.3690
 4974SOL    HW126558   2.158   0.229   3.775  0.3082  0.6482 -0.3003
 4974SOL    HW226559   2.077   0.108   3.738 -0.0034 -0.8017 -0.6970
 4975SOL     OW26560   3.746   4.420   6.260  0.4298 -0.6130 -0.7088
 4975SOL    HW126561   3.810   4.349   6.258 -1.5608 -2.4440  0.0332
 4975SOL    HW226562   3.742   4.424   6.355  2.1254  1.3742 -0.7275
 4976SOL     OW26563   0.019   1.557   2.961 -0.7005  0.2923 -0.0873
 4976SOL    HW126564   4.701   1.619   3.006 -0.8139  1.6525 -2.1383
 4976SOL    HW226565   0.060   1.614   2.896  0.3290 -0.9009 -0.4847
 4977SOL     OW26566   1.054   1.819   4.427  0.4766  0.5448  0.2468
 4977SOL    HW126567   0.993   1.891   4.445 -0.1978 -0.6930  2.9272
 4977SOL    HW226568   1.032   1.752   4.491 -0.7136 -0.4879 -1.2370
 4978SOL     OW26569   0.851   1.255  14.224  0.5694  0.3320  0.6659
 4978SOL    HW126570   0.903   1.227  14.299  3.0324  0.0004 -1.1701
 4978SOL    HW226571   0.910   1.310  14.173 -0.5183  0.7914 -0.0924
 4979SOL     OW26572   4.023   4.474   6.957  0.1100 -0.0401 -0.6344
 4979SOL    HW126573   3.998   4.383   6.969 -0.4586  0.4962  2.1834
 4979SOL    HW226574   4.087   4.468   7.027 -1.1737  1.6644  0.6932
 4980SOL     OW26575   2.804   3.513   8.087 -0.2690 -0.2421  0.1557
 4980SOL    HW126576   2.802   3.425   8.123  1.9273 -0.2391  0.2865
 4980SOL    HW226577   2.770   3.560   8.163  0.2056 -0.1199  0.2900
 4981SOL     OW26578   1.610   0.654   4.676 -0.1370 -0.1881  0.4455
 4981SOL    HW126579   1.601   0.590   4.605  0.4124  2.6448 -2.1886
 4981SOL    HW226580   1.524   0.645   4.719  0.8158  2.0230  2.8210
 4982SOL     OW26581   0.956   1.120   4.864 -0.0388 -0.3290  0.6822
 4982SOL    HW126582   1.017   1.066   4.813  0.8033  1.1472  0.1295
 4982SOL    HW226583   0.999   1.206   4.867  0.2449 -0.4422 -0.0200
 4983SOL     OW26584   1.172   3.677   0.229 -0.1258  0.3191  0.1540
 4983SOL    HW126585   1.099   3.732   0.257  1.6383  3.2982 -1.1054
 4983SOL    HW226586   1.150   3.653   0.139 -0.1239  0.1072  0.2086
 4984SOL     OW26587   1.959   1.013   2.036  0.6486  0.4368  0.4025
 4984SOL    HW126588   1.980   0.921   2.019  2.5531  1.1319 -0.9420
 4984SOL    HW226589   1.983   1.056   1.954 -0.8784  1.9131  0.7397
 4985SOL     OW26590   3.917   2.360   0.947 -0.2315 -0.0080  1.0282
 4985SOL    HW126591   3.904   2.266   0.952  0.1278 -0.1672 -1.0801
 4985SOL    HW226592   4.001   2.371   0.992  1.0470  0.3598 -1.4585
 4986SOL     OW26593   0.892   0.197   6.497  0.1338  0.2326  0.1399
 4986SOL    HW126594   0.932   0.254   6.432  0.9368  0.8369  1.1744
 4986SOL    HW226595   0.920   0.231   6.582 -0.5933  3.1349 -0.7736
 4987SOL     OW26596   0.465   0.989   9.440 -0.1683  0.2693 -0.7960
 4987SOL    HW126597   0.372   1.002   9.458 -0.3087 -0.8451 -0.6874
 4987SOL    HW226598   0.500   1.063   9.489  1.2925 -1.5773  0.9973
 4988SOL     OW26599   0.859   3.722   7.289 -0.1944 -0.4673 -0.3592
 4988SOL    HW126600   0.914   3.644   7.276 -0.7679 -0.9079 -0.1811
 4988SOL    HW226601   0.906   3.795   7.250  0.9494 -0.7685  0.4521
 4989SOL     OW26602   1.274   2.927   3.843  0.0810 -0.4016 -0.1250
 4989SOL    HW126603   1.271   2.961   3.753  1.2348  0.9113  0.3485
 4989SOL    HW226604   1.363   2.892   3.843  1.0173  1.9877  0.4831
 4990SOL     OW26605   3.430   2.301   9.864 -0.1267 -0.2898  0.4483
 4990SOL    HW126606   3.525   2.302   9.852 -0.1974  0.0057 -0.0741
 4990SOL    HW226607   3.408   2.391   9.886  1.8243  0.6106 -1.3623
 4991SOL     OW26608   3.479   0.075   6.678  0.4356  0.0666  0.4099
 4991SOL    HW126609   3.398   0.056   6.631  1.2400 -2.4638  0.0662
 4991SOL    HW226610   3.535   0.008   6.640 -0.7600  0.0291 -1.2809
 4992SOL     OW26611   3.161   1.440   6.164  0.5140 -0.5152 -0.2670
 4992SOL    HW126612   3.183   1.434   6.072 -2.7320  1.3381 -1.1815
 4992SOL    HW226613   3.151   1.347   6.184  1.6532 -1.2360 -3.1256
 4993SOL     OW26614   1.740   3.946  11.631 -0.3422  0.3786  0.3221
 4993SOL    HW126615   1.689   3.870  11.601 -1.9428  0.0629  3.8564
 4993SOL    HW226616   1.796   3.970  11.558  0.9828  0.2718  1.3049
 4994SOL     OW26617   3.852   1.046   7.289 -0.2742 -0.5334 -1.1744
 4994SOL    HW126618   3.781   1.101   7.322 -0.6882 -2.9061  1.8987
 4994SOL    HW226619   3.912   1.041   7.363 -0.2990 -1.4410 -1.2137
 4995SOL     OW26620   1.396   3.989   8.218 -0.4207  0.1160  0.1604
 4995SOL    HW126621   1.416   4.046   8.291  3.2417  0.0710 -0.8048
 4995SOL    HW226622   1.415   4.052   8.148 -1.8961 -0.6096 -0.9196
 4996SOL     OW26623   2.550   3.960   3.970 -0.2257  0.9395  0.3985
 4996SOL    HW126624   2.610   4.034   3.977  1.1989 -0.1589 -0.1794
 4996SOL    HW226625   2.595   3.892   4.021  1.7334  1.1969 -0.9873
 4997SOL     OW26626   3.805   2.532  10.805 -0.0781 -0.2369  0.3654
 4997SOL    HW126627   3.782   2.496  10.719  0.4057 -0.6614  0.4146
 4997SOL    HW226628   3.874   2.472  10.835  0.9564  1.1747  0.8339
 4998SOL     OW26629   1.323   3.916   3.025 -0.2160 -0.3386 -0.1798
 4998SOL    HW126630   1.258   3.950   3.087 -1.3825 -0.3955 -1.3592
 4998SOL    HW226631   1.397   3.973   3.045 -0.7173  0.2120  0.1268
 4999SOL     OW26632   2.985   2.166   3.122 -0.4496 -0.0444 -0.1741
 4999SOL    HW126633   2.910   2.120   3.083  0.7695 -1.8485 -0.3942
 4999SOL    HW226634   2.980   2.245   3.068 -0.2997  0.5291  0.6450
 5000SOL     OW26635   3.378   0.492   6.189  0.0649 -0.1059 -0.3939
 5000SOL    HW126636   3.348   0.460   6.274  1.8689 -0.6691  0.0428
 5000SOL    HW226637   3.332   0.575   6.191 -0.8062 -0.6529  2.1401
 5001SOL     OW26638   3.236   4.573   7.573  0.5550 -0.2967 -0.7559
 5001SOL    HW126639   3.222   4.652   7.520  0.8034  0.0195 -0.3566
 5001SOL    HW226640   3.253   4.619   7.655  1.8930  1.2372 -1.8758
 5002SOL     OW26641   1.662   0.472  15.055 -0.0747 -0.3773  0.6404
 5002SOL    HW126642   1.658   0.390  15.104  0.6616 -1.7021 -1.5535
 5002SOL    HW226643   1.570   0.497  15.061  0.2282  1.0951 -0.8147
 5003SOL     OW26644   1.019   0.812   2.550  0.3242 -0.4847  0.2904
 5003SOL    HW126645   0.956   0.850   2.611  1.0030  3.4624 -1.4923
 5003SOL    HW226646   0.974   0.803   2.466  0.8836  2.6366 -0.3404
 5004SOL     OW26647   3.555   1.349   9.651 -0.3044 -0.2859  0.0922
 5004SOL    HW126648   3.585   1.370   9.739 -1.2241 -0.2202  0.3837
 5004SOL    HW226649   3.518   1.432   9.621  1.2451  0.1700 -0.5706
 5005SOL     OW26650   4.477   2.918   9.760 -0.4781 -0.0121  0.4643
 5005SOL    HW126651   4.559   2.870   9.759 -0.2212  0.4300  0.3285
 5005SOL    HW226652   4.500   3.002   9.800 -0.1570 -0.2482  0.7772
 5006SOL     OW26653   0.735   0.389   9.672  0.2630  0.3133  0.2951
 5006SOL    HW126654   0.725   0.303   9.631  0.0783 -0.2817  1.5919
 5006SOL    HW226655   0.753   0.449   9.600  0.2986 -0.2829 -0.1947
 5007SOL     OW26656   3.213   2.784   0.769  0.3802 -0.2973  0.0316
 5007SOL    HW126657   3.127   2.748   0.749  1.6109 -2.1792 -1.8043
 5007SOL    HW226658   3.227   2.759   0.860 -1.4326  1.9978  0.9442
 5008SOL     OW26659   1.466   3.775   0.233 -0.3179 -0.5177 -0.4343
 5008SOL    HW126660   1.443   3.867   0.220  0.4451 -0.3535 -0.6420
 5008SOL    HW226661   1.388   3.739   0.192  0.1220  1.1971 -2.7660
 5009SOL     OW26662   1.090   0.820   6.700  0.1443 -0.2268  0.1763
 5009SOL    HW126663   1.109   0.914   6.703 -1.5445  0.1116  0.2123
 5009SOL    HW226664   1.033   0.821   6.623 -0.1969 -1.0441  0.4199
 5010SOL     OW26665   1.292   4.691   4.831 -0.0634  0.1335 -0.2274
 5010SOL    HW126666   1.343   4.612   4.811 -1.1456 -0.8058  0.7185
 5010SOL    HW226667   1.214   4.668   4.781  0.4423  0.4980 -1.1863
 5011SOL     OW26668   2.383   0.814  13.047  0.2063 -0.6695 -0.1253
 5011SOL    HW126669   2.354   0.893  13.002 -0.6437 -0.7094  0.3564
 5011SOL    HW226670   2.436   0.863  13.111  1.3332 -1.1125 -0.7088
 5012SOL     OW26671   2.913   4.086   5.795 -0.2869 -0.8887 -0.0071
 5012SOL    HW126672   2.909   4.113   5.887 -0.3777 -0.7570 -0.0503
 5012SOL    HW226673   2.824   4.096   5.762 -0.4632  2.8331  1.6606
 5013SOL     OW26674   0.503   2.627   5.741  0.3515 -0.3486  0.5159
 5013SOL    HW126675   0.511   2.631   5.645  2.2349  0.5444  0.6941
 5013SOL    HW226676   0.416   2.589   5.751  0.4022 -0.5249  0.2866
 5014SOL     OW26677   3.033   3.642   3.310  0.0626 -0.0764  0.2408
 5014SOL    HW126678   3.045   3.736   3.325 -0.1529  0.1323 -0.9317
 5014SOL    HW226679   3.042   3.608   3.400 -0.1040 -1.8634 -0.4176
 5015SOL     OW26680   1.955   4.601  16.253  0.2299  0.4047 -0.1746
 5015SOL    HW126681   2.035   4.571  16.295 -0.1203  0.6512  0.6749
 5015SOL    HW226682   1.965   4.695  16.273  3.1148  0.1372 -0.3716
 5016SOL     OW26683   4.014   4.645   6.731  0.3215  0.3331  0.4761
 5016SOL    HW126684   4.008   4.728   6.776 -0.5057  0.1548  0.6894
 5016SOL    HW226685   4.004   4.586   6.805  2.8687 -0.3924  0.2691
 5017SOL     OW26686   1.520   1.649   7.734 -1.0202 -0.1896 -0.1650
 5017SOL    HW126687   1.502   1.555   7.728  0.4591 -0.5101  0.4477
 5017SOL    HW226688   1.432   1.684   7.746 -0.7225 -0.0857  1.8298
 5018SOL     OW26689   3.180   3.436   5.331  0.3593  0.0032 -0.0935
 5018SOL    HW126690   3.256   3.411   5.384 -0.0502  1.1088  1.0416
 5018SOL    HW226691   3.109   3.433   5.395  3.2271 -0.5221  3.0839
 5019SOL     OW26692   1.237   2.973  16.985  0.1368 -0.1094  0.4785
 5019SOL    HW126693   1.148   2.986  16.952  0.2328  1.7005  0.9268
 5019SOL    HW226694   1.272   2.900  16.934  0.3467  0.8627 -0.7564
 5020SOL     OW26695   3.183   0.501   4.025  0.1937 -0.6261 -0.3860
 5020SOL    HW126696   3.236   0.433   4.066 -0.7384 -0.8229  0.4957
 5020SOL    HW226697   3.098   0.476   4.061 -0.4885  1.5791 -0.4633
 5021SOL     OW26698   0.989   2.963   2.345  0.2918  0.2807  0.0292
 5021SOL    HW126699   1.064   2.986   2.400 -1.1512  1.6689  1.4122
 5021SOL    HW226700   0.966   2.881   2.388  1.6863  0.1395  0.5039
 5022SOL     OW26701   0.721   4.293   3.978  0.6330  0.0390  0.0681
 5022SOL    HW126702   0.795   4.308   3.918  2.0133  0.9655  1.9966
 5022SOL    HW226703   0.731   4.200   3.998  2.7002  0.0696 -0.7990
 5023SOL     OW26704   4.539   3.650   0.469  0.4060 -0.5044 -0.1507
 5023SOL    HW126705   4.507   3.639   0.559 -1.8449 -0.8450 -0.9727
 5023SOL    HW226706   4.497   3.733   0.445  2.0313  0.0560 -1.0317
 5024SOL     OW26707   3.762   2.120  16.197 -0.7811 -0.2872  0.4289
 5024SOL    HW126708   3.773   2.027  16.175  2.0223 -0.0792  0.8868
 5024SOL    HW226709   3.775   2.168  16.115 -1.5708  1.0869  1.1019
 5025SOL     OW26710   0.195   1.608   9.696 -0.5241  0.3627  0.3586
 5025SOL    HW126711   0.154   1.603   9.609 -1.6696 -0.4575  0.9481
 5025SOL    HW226712   0.272   1.664   9.689 -0.8394  0.7692  0.1047
 5026SOL     OW26713   4.581   4.672   2.643 -0.1987 -0.4989  0.0915
 5026SOL    HW126714   4.640   4.598   2.652 -0.4547 -0.5803  1.0528
 5026SOL    HW226715   4.548   4.665   2.553 -0.5130  0.5983  0.1150
 5027SOL     OW26716   2.904   1.617   2.598  0.3915  0.1304  0.1384
 5027SOL    HW126717   2.810   1.631   2.605  0.2769 -2.1480  3.0595
 5027SOL    HW226718   2.906   1.619   2.502 -0.9623  1.0402  0.1320
 5028SOL     OW26719   3.138   1.809   8.560  0.2877  0.0182 -0.1324
 5028SOL    HW126720   3.209   1.807   8.624 -1.7716  1.7527  2.2054
 5028SOL    HW226721   3.169   1.880   8.505  2.1367 -0.0824  0.7737
 5029SOL     OW26722   1.452   2.414   2.665  0.0474  0.3614  0.4151
 5029SOL    HW126723   1.468   2.374   2.750 -1.6802  1.1300  1.1051
 5029SOL    HW226724   1.528   2.376   2.622 -1.0129  1.2083 -2.2079
 5030SOL     OW26725   3.175   2.184   7.533  0.5592  0.3200 -0.3047
 5030SOL    HW126726   3.167   2.278   7.521  0.5081  0.1896 -1.3648
 5030SOL    HW226727   3.178   2.186   7.628  1.2075 -1.3726 -0.2887
 5031SOL     OW26728   3.336   2.445   8.294  0.0248  0.3196  0.2750
 5031SOL    HW126729   3.285   2.516   8.332 -0.1708  0.1386  0.3524
 5031SOL    HW226730   3.352   2.482   8.208  0.0735 -1.0565 -0.3155
 5032SOL     OW26731   1.763   3.795   4.510  0.9294 -0.2424  0.0803
 5032SOL    HW126732   1.843   3.742   4.511  1.3104  0.3367  0.4196
 5032SOL    HW226733   1.785   3.849   4.586 -0.3894  1.2514 -0.6253
 5033SOL     OW26734   3.952   2.585   9.148 -0.3967 -0.1644  0.1323
 5033SOL    HW126735   3.987   2.577   9.236 -0.3841  1.7147  0.2977
 5033SOL    HW226736   4.033   2.606   9.102  0.1750  0.1968  1.3197
 5034SOL     OW26737   3.307   0.002  16.915 -0.2414 -0.5642  0.2581
 5034SOL    HW126738   3.218   4.717  16.944 -1.3708 -0.3273 -2.9986
 5034SOL    HW226739   3.323   4.674  16.849  2.3913 -0.1105  0.4282
 5035SOL     OW26740   4.378   1.464  17.547 -0.2876 -0.0574  0.4284
 5035SOL    HW126741   4.316   1.454  17.474  0.4596  1.6071 -0.4349
 5035SOL    HW226742   4.334   1.529  17.601  1.4238  0.1013  1.6534
 5036SOL     OW26743   4.703   2.319   9.401  0.0728 -0.1525 -0.2589
 5036SOL    HW126744   4.702   2.267   9.481  3.2754  0.5877  0.2465
 5036SOL    HW226745   4.637   2.273   9.348 -0.5269  0.9617 -0.4865
 5037SOL     OW26746   0.840   2.373   6.886  0.4755  0.3465 -0.0130
 5037SOL    HW126747   0.880   2.429   6.952  0.2424  0.2886  0.1780
 5037SOL    HW226748   0.768   2.332   6.934  0.4545 -0.4299 -0.6876
 5038SOL     OW26749   3.896   2.484   5.899  0.5563  0.1582 -0.0381
 5038SOL    HW126750   3.924   2.418   5.836 -1.9070 -1.3787  0.4840
 5038SOL    HW226751   3.847   2.433   5.963  0.3313  1.7372  1.0511
 5039SOL     OW26752   4.553   0.874   2.162  0.1080 -0.6359 -0.2739
 5039SOL    HW126753   4.566   0.786   2.197 -0.7643 -0.3003  0.8987
 5039SOL    HW226754   4.643   0.898   2.141  0.3937  0.6954  2.4213
 5040SOL     OW26755   3.791   0.737   8.311 -0.2089  0.5761  0.3038
 5040SOL    HW126756   3.762   0.756   8.222 -1.0229 -0.5797  0.3280
 5040SOL    HW226757   3.854   0.667   8.299 -0.9445 -0.1244  0.5087
 5041SOL     OW26758   1.880   1.884   5.162 -0.3131 -0.3919 -0.0709
 5041SOL    HW126759   1.857   1.891   5.069 -0.1522 -0.9030 -0.1519
 5041SOL    HW226760   1.818   1.815   5.187  0.4043 -1.2111 -0.5598
 5042SOL     OW26761   3.532   4.342   1.834 -0.3136 -0.1144 -0.4653
 5042SOL    HW126762   3.515   4.279   1.764 -0.4285 -0.3738 -0.2030
 5042SOL    HW226763   3.442   4.360   1.862 -1.2355 -0.5224 -3.1982
 5043SOL     OW26764   0.975   3.555   7.554  0.4534 -0.4130  0.2627
 5043SOL    HW126765   0.981   3.479   7.497 -0.2232  0.8174 -1.4711
 5043SOL    HW226766   0.888   3.591   7.535  1.5645  1.2236 -1.7324
 5044SOL     OW26767   0.576   3.939  17.627  0.2687  0.3747 -0.2701
 5044SOL    HW126768   0.508   3.992  17.587 -1.3819 -0.4792  1.4060
 5044SOL    HW226769   0.653   3.993  17.606  0.4249  0.2648  0.0097
 5045SOL     OW26770   3.462   4.459  12.817 -0.0802 -0.1837  0.2809
 5045SOL    HW126771   3.541   4.512  12.827 -1.7024  2.9328 -3.3767
 5045SOL    HW226772   3.418   4.489  12.897 -0.1607 -0.1746  0.2332
 5046SOL     OW26773   4.391   0.043   4.012 -1.2518  0.2994  0.9245
 5046SOL    HW126774   4.323   4.715   3.999  1.5941 -2.3404 -0.2895
 5046SOL    HW226775   4.465   4.733   3.977 -1.9941 -0.3930  0.3000
 5047SOL     OW26776   2.936   0.507   4.185  0.2192 -0.4976  0.0086
 5047SOL    HW126777   2.974   0.499   4.273  1.4591 -0.3916 -0.5139
 5047SOL    HW226778   2.891   0.589   4.205 -0.5328 -0.5631 -1.4252
 5048SOL     OW26779   4.522   3.405  14.161  0.5664 -0.0885  0.4057
 5048SOL    HW126780   4.561   3.459  14.230 -0.0802  2.7073 -1.4134
 5048SOL    HW226781   4.438   3.449  14.144  0.2028 -0.9135  0.0633
 5049SOL     OW26782   2.795   2.788   4.174  0.2065  0.0462 -0.0145
 5049SOL    HW126783   2.786   2.882   4.164 -0.4553  0.2192  2.3613
 5049SOL    HW226784   2.819   2.769   4.264 -1.2367 -1.2078  0.1179
 5050SOL     OW26785   1.278   3.969   7.176  0.2813  0.2437 -0.0462
 5050SOL    HW126786   1.193   3.931   7.197 -0.1235  0.0687 -1.9965
 5050SOL    HW226787   1.315   3.881   7.168  1.0608  0.3625  2.2542
 5051SOL     OW26788   2.270   1.293   7.074  0.2481 -0.4474 -0.1817
 5051SOL    HW126789   2.331   1.222   7.094 -0.2673 -1.4799 -2.2111
 5051SOL    HW226790   2.330   1.362   7.047 -0.5004  0.8148  1.3544
 5052SOL     OW26791   1.467   0.622   1.461  0.0089 -0.3904  0.2129
 5052SOL    HW126792   1.553   0.581   1.462  0.8602  1.3390 -2.1644
 5052SOL    HW226793   1.475   0.672   1.542  1.9524  0.2832 -0.3947
 5053SOL     OW26794   0.084   3.050  17.545  0.3466  0.0750  0.0525
 5053SOL    HW126795   0.089   3.090  17.459  2.6251  1.1934  0.7228
 5053SOL    HW226796   0.176   3.037  17.565 -0.2572 -0.9751  2.2240
 5054SOL     OW26797   0.701   4.449  11.325  0.1343 -0.6910  0.3228
 5054SOL    HW126798   0.642   4.486  11.390 -0.2382 -2.8544  1.2199
 5054SOL    HW226799   0.647   4.479  11.252 -0.0858  0.0414  0.7850
 5055SOL     OW26800   1.760   1.405   4.820  0.3807  0.1460  0.3378
 5055SOL    HW126801   1.678   1.371   4.856  0.6044 -2.2859 -1.4684
 5055SOL    HW226802   1.743   1.406   4.726 -4.5116  0.7801  1.2495
 5056SOL     OW26803   2.748   4.262  11.446 -0.0532  0.7312 -0.3361
 5056SOL    HW126804   2.719   4.305  11.527  0.4283  1.3088 -0.4683
 5056SOL    HW226805   2.691   4.299  11.379 -0.0736 -0.0792 -0.7601
 5057SOL     OW26806   3.501   4.702  12.928 -0.2718 -0.3202  0.5734
 5057SOL    HW126807   3.566   0.020  12.886  0.1777 -1.8408 -0.8151
 5057SOL    HW226808   3.453   0.024  12.983  1.2838  2.4608 -1.1394
 5058SOL     OW26809   1.693   1.199   6.217 -0.2121  0.3342 -0.1042
 5058SOL    HW126810   1.705   1.183   6.123 -0.8394  2.0871 -0.4796
 5058SOL    HW226811   1.707   1.110   6.249  0.7688  0.6078  0.2299
 5059SOL     OW26812   1.035   3.412   6.480  0.3711  0.4153 -0.3491
 5059SOL    HW126813   1.045   3.374   6.567 -1.5723  1.0008  0.1188
 5059SOL    HW226814   0.977   3.487   6.487 -1.1967 -0.8711  0.5108
 5060SOL     OW26815   1.218   2.566   9.161 -0.0156  0.2927  0.9840
 5060SOL    HW126816   1.247   2.537   9.248  1.8760 -0.2169  0.1875
 5060SOL    HW226817   1.123   2.558   9.157 -0.0123 -0.0295  1.5924
 5061SOL     OW26818   4.071   1.517  16.231  0.2419  0.6568  0.0513
 5061SOL    HW126819   4.044   1.425  16.228  1.0655  0.3884  0.9372
 5061SOL    HW226820   3.995   1.557  16.189  1.1073  1.9968 -0.2264
 5062SOL     OW26821   4.079   4.159   4.685 -0.1685  0.5603  0.1115
 5062SOL    HW126822   4.075   4.095   4.614  2.5065  0.0360  0.4391
 5062SOL    HW226823   4.043   4.240   4.649  2.0289  1.3594 -0.2325
 5063SOL     OW26824   0.414   3.250   9.296  0.0755  0.0208  0.3595
 5063SOL    HW126825   0.439   3.226   9.385 -1.2461 -2.5394  0.0320
 5063SOL    HW226826   0.454   3.176   9.251 -0.2964 -0.7897  1.3734
 5064SOL     OW26827   1.189   1.142  16.791 -0.6857  0.0499 -0.0985
 5064SOL    HW126828   1.106   1.163  16.834  0.4397  2.6096  0.7982
 5064SOL    HW226829   1.224   1.230  16.805 -0.6792 -0.0727  0.6862
 5065SOL     OW26830   3.526   4.617   6.371 -0.2408  0.1003 -0.3537
 5065SOL    HW126831   3.431   4.621   6.384  0.2661  1.4564  3.0648
 5065SOL    HW226832   3.523   4.579   6.284 -2.1925  1.3330 -0.8158
 5066SOL     OW26833   2.462   4.450   5.466  0.2025  0.1155  0.1258
 5066SOL    HW126834   2.536   4.389   5.457  1.1211  0.6996  3.6674
 5066SOL    HW226835   2.506   4.531   5.439  4.3824 -1.7940  1.1593
 5067SOL     OW26836   0.978   3.032   5.273 -0.4743  0.2058 -0.3679
 5067SOL    HW126837   0.949   3.080   5.351  2.5675  0.4962  0.5614
 5067SOL    HW226838   1.073   3.030   5.284 -0.8120 -1.8018  2.1830
 5068SOL     OW26839   3.571   2.416   0.161 -0.1286 -0.1772 -0.6782
 5068SOL    HW126840   3.568   2.482   0.091  0.8575 -1.3442 -1.8337
 5068SOL    HW226841   3.628   2.459   0.224  0.1752  0.2265 -1.2326
 5069SOL     OW26842   2.811   4.382  13.036 -0.2784  0.2635  0.6672
 5069SOL    HW126843   2.799   4.399  13.130  2.1786 -0.5991  1.1511
 5069SOL    HW226844   2.760   4.455  13.001  0.8556  0.0625 -1.4129
 5070SOL     OW26845   1.994   2.223   7.577 -0.0641  0.4879  0.3614
 5070SOL    HW126846   1.942   2.187   7.506 -0.9724  0.4041  1.0680
 5070SOL    HW226847   2.034   2.149   7.622  2.2154  2.1364  1.0436
 5071SOL     OW26848   3.949   4.200   6.981 -0.0965 -0.3373 -1.3027
 5071SOL    HW126849   3.862   4.161   6.979 -0.4029  0.1990  1.2496
 5071SOL    HW226850   3.999   4.158   7.051 -2.4954  1.0773  1.2744
 5072SOL     OW26851   3.060   2.479   5.340 -0.2235 -0.4163  0.5895
 5072SOL    HW126852   3.053   2.435   5.425 -0.2574 -0.6376  0.4706
 5072SOL    HW226853   3.081   2.402   5.288 -1.8018  0.5207 -1.4241
 5073SOL     OW26854   2.880   3.015   5.603 -1.1974  0.2374  0.2885
 5073SOL    HW126855   2.909   3.002   5.513  0.1343  1.4633  0.5300
 5073SOL    HW226856   2.919   2.939   5.647 -2.9753  0.3619  2.0977
 5074SOL     OW26857   1.875   2.249   5.849  0.0939  0.2132 -0.4989
 5074SOL    HW126858   1.888   2.341   5.829 -1.8529  0.5015 -0.4370
 5074SOL    HW226859   1.808   2.245   5.918 -0.5546  1.6246 -1.0556
 5075SOL     OW26860   0.901   1.194  16.886  0.2608  0.0439 -0.0236
 5075SOL    HW126861   0.886   1.190  16.980  2.3365  0.1740  0.3204
 5075SOL    HW226862   0.840   1.127  16.855 -1.0596  1.2291  0.0234
 5076SOL     OW26863   3.539   4.398   3.919 -0.4510 -0.4415  0.3830
 5076SOL    HW126864   3.501   4.449   3.990 -0.1805  0.8908 -0.4373
 5076SOL    HW226865   3.494   4.314   3.931 -1.4024 -0.0727 -0.5870
 5077SOL     OW26866   2.251   4.295   1.949  0.4506 -0.2337 -0.4152
 5077SOL    HW126867   2.168   4.264   1.911  1.0080 -1.0446 -0.9664
 5077SOL    HW226868   2.234   4.282   2.043 -0.0393  2.1704 -0.1787
 5078SOL     OW26869   0.481   0.652   4.685 -0.5841 -0.7742  0.0932
 5078SOL    HW126870   0.502   0.697   4.767 -1.6232  1.2551 -0.7769
 5078SOL    HW226871   0.398   0.615   4.715 -0.0085 -1.7292  0.4983
 5079SOL     OW26872   2.593   0.453   5.942  0.0894 -0.2759  0.0967
 5079SOL    HW126873   2.633   0.387   6.000 -1.1701 -0.6126  0.5859
 5079SOL    HW226874   2.571   0.526   5.999  2.8854  1.3923 -0.9709
 5080SOL     OW26875   0.822   2.389  13.141 -0.0919 -0.0954  0.2986
 5080SOL    HW126876   0.807   2.377  13.235 -4.4047  0.7035 -0.2766
 5080SOL    HW226877   0.858   2.305  13.115 -1.7844 -0.0020 -2.3384
 5081SOL     OW26878   3.766   1.611   5.655  0.1800  0.3768  0.2604
 5081SOL    HW126879   3.853   1.647   5.638  0.8391 -1.0282  0.6533
 5081SOL    HW226880   3.791   1.532   5.705 -1.3925 -0.7047 -0.6573
 5082SOL     OW26881   0.770   4.274   7.071  0.7901 -0.1340  0.0419
 5082SOL    HW126882   0.690   4.246   7.116  1.6027 -1.9097  0.3992
 5082SOL    HW226883   0.831   4.270   7.144  1.6804 -0.1710 -0.7043
 5083SOL     OW26884   1.873   1.978   7.806 -0.5500  0.4513  0.0638
 5083SOL    HW126885   1.810   1.947   7.740  0.3614 -2.0582  0.3628
 5083SOL    HW226886   1.826   1.985   7.889 -1.8420 -1.7329 -0.4742
 5084SOL     OW26887   4.057   1.256  10.511 -0.1872  0.3682  0.3193
 5084SOL    HW126888   4.074   1.242  10.604 -0.0211 -0.7779  0.1176
 5084SOL    HW226889   3.976   1.205  10.503  0.3282 -0.4080  0.0397
 5085SOL     OW26890   0.678   3.288  12.566 -0.5545 -0.0331  0.1062
 5085SOL    HW126891   0.599   3.303  12.618  0.4128 -0.7837  1.7958
 5085SOL    HW226892   0.672   3.338  12.485 -0.2449 -2.2271 -1.2728
 5086SOL     OW26893   0.996   2.299   9.854  0.1612  0.4008  0.1322
 5086SOL    HW126894   1.008   2.363   9.925 -0.8946 -0.2635  0.9211
 5086SOL    HW226895   0.921   2.339   9.811 -0.4551  0.9210  1.6587
 5087SOL     OW26896   1.550   1.441  16.502 -0.0217  0.1902 -0.0218
 5087SOL    HW126897   1.621   1.424  16.439  0.8467  3.0670  0.1763
 5087SOL    HW226898   1.532   1.534  16.483  0.4903  0.7293  2.2274
 5088SOL     OW26899   0.846   4.257  16.546  0.0758  0.2484  0.2357
 5088SOL    HW126900   0.921   4.244  16.488 -1.0794  0.7184 -1.3750
 5088SOL    HW226901   0.773   4.204  16.513  1.0696  0.8405 -2.9468
 5089SOL     OW26902   3.897   1.895  13.456 -0.0635  0.4944  0.5119
 5089SOL    HW126903   3.957   1.969  13.448 -1.1559  1.2717 -0.4411
 5089SOL    HW226904   3.875   1.869  13.367 -1.7254  0.1344  1.0307
 5090SOL     OW26905   4.321   4.677   9.577  0.1920 -0.5205 -0.1929
 5090SOL    HW126906   4.275   0.012   9.618  0.6208 -0.1758 -0.3302
 5090SOL    HW226907   4.365   4.724   9.507  0.8593 -1.6659 -0.5444
 5091SOL     OW26908   1.262   2.613   7.467 -0.4313  0.2837  0.1829
 5091SOL    HW126909   1.331   2.563   7.510  0.1631  2.2227  1.4946
 5091SOL    HW226910   1.271   2.695   7.517  1.0932 -0.6631  1.4504
 5092SOL     OW26911   0.394   3.319  10.504  0.0741 -0.8934  0.5388
 5092SOL    HW126912   0.416   3.260  10.432 -1.7596 -0.3843 -0.4304
 5092SOL    HW226913   0.478   3.334  10.549  0.0924 -0.1272  0.2490
 5093SOL     OW26914   0.388   3.615   8.979  0.2339 -0.0588 -0.2256
 5093SOL    HW126915   0.398   3.521   8.994 -0.1485 -0.1911 -0.7883
 5093SOL    HW226916   0.388   3.651   9.067  0.5056  2.7567 -1.3752
 5094SOL     OW26917   1.064   1.569   2.944  0.1915 -0.1137  0.2561
 5094SOL    HW126918   1.039   1.662   2.949 -0.1691 -0.0125 -3.5475
 5094SOL    HW226919   1.156   1.581   2.967  0.4770 -0.4494 -0.7380
 5095SOL     OW26920   2.772   0.533   6.469  0.1155  0.1868  0.0622
 5095SOL    HW126921   2.797   0.580   6.390  1.0806 -0.4236  0.0143
 5095SOL    HW226922   2.685   0.570   6.484 -0.4903 -1.1338 -0.2231
 5096SOL     OW26923   3.872   3.597   7.985  0.2986  0.0364 -0.6161
 5096SOL    HW126924   3.840   3.540   8.056 -0.4522  0.5359 -0.5535
 5096SOL    HW226925   3.959   3.560   7.968  0.3857  0.2047 -0.5402
 5097SOL     OW26926   3.722   2.201  15.411  0.5482  0.0816  0.2102
 5097SOL    HW126927   3.750   2.189  15.502 -0.2622 -2.8942  0.0646
 5097SOL    HW226928   3.750   2.121  15.365 -2.1133  0.8806 -2.8148
 5098SOL     OW26929   4.566   0.160  11.462 -0.0717 -0.5039 -0.8292
 5098SOL    HW126930   4.619   0.223  11.512  0.3925 -0.5868 -1.2124
 5098SOL    HW226931   4.549   0.083  11.516 -1.3616 -1.5063 -2.6881
 5099SOL     OW26932   4.497   4.392   5.543  0.1073  0.6646  0.2129
 5099SOL    HW126933   4.512   4.436   5.459 -0.1110  0.4777  0.0743
 5099SOL    HW226934   4.581   4.348   5.557 -0.6757 -1.1347 -0.7467
 5100SOL     OW26935   3.032   1.387   1.537  0.5308 -0.0446 -0.3149
 5100SOL    HW126936   3.050   1.383   1.443  0.2230 -3.1327 -0.2556
 5100SOL    HW226937   3.101   1.447   1.566  0.0527 -0.2191  1.1557
 5101SOL     OW26938   1.707   3.722  11.263  0.3578  0.1832 -0.3863
 5101SOL    HW126939   1.783   3.776  11.284  0.2242  0.4235 -0.5194
 5101SOL    HW226940   1.711   3.727  11.167  2.1714  0.1525 -0.3090
 5102SOL     OW26941   3.482   0.544   6.955  0.2989 -0.5590 -0.0350
 5102SOL    HW126942   3.401   0.587   6.928  0.5194  0.0980  0.3227
 5102SOL    HW226943   3.500   0.482   6.885  0.8324  0.7135 -1.0216
 5103SOL     OW26944   0.114   3.462   2.585 -0.4426 -0.2174 -0.4640
 5103SOL    HW126945   0.157   3.524   2.645 -1.0017 -1.2533  1.0091
 5103SOL    HW226946   0.026   3.477   2.619 -0.3193  0.7422 -0.5603
 5104SOL     OW26947   3.518   2.613   1.893  0.2059  0.3717  0.1402
 5104SOL    HW126948   3.502   2.695   1.939 -1.2703 -0.4752  1.1438
 5104SOL    HW226949   3.578   2.642   1.824  1.0045 -0.3368  0.5381
 5105SOL     OW26950   3.239   3.612  11.212  0.4586  0.1979 -0.4280
 5105SOL    HW126951   3.237   3.705  11.235  0.6149  0.8123 -2.8861
 5105SOL    HW226952   3.168   3.608  11.147 -1.0328  0.2022  1.2100
 5106SOL     OW26953   0.461   0.028  11.638  0.0057 -0.0279 -0.1556
 5106SOL    HW126954   0.413   4.685  11.655 -1.0087  0.6506  0.2026
 5106SOL    HW226955   0.465   0.036  11.543 -1.1853  1.1209 -0.0983
 5107SOL     OW26956   0.080   2.914   3.428  0.8387 -0.3722  0.1292
 5107SOL    HW126957   0.039   2.935   3.512  0.4285  0.4747 -0.2838
 5107SOL    HW226958   0.022   2.841   3.407 -0.0195  1.0220 -2.2614
 5108SOL     OW26959   4.233   1.481   5.156 -0.3639 -0.9074 -0.2489
 5108SOL    HW126960   4.252   1.574   5.171  1.7640 -1.1955 -1.1692
 5108SOL    HW226961   4.158   1.468   5.214  1.2810 -1.6570  1.7132
 5109SOL     OW26962   0.691   4.608   8.194 -0.3914 -0.3413 -0.2297
 5109SOL    HW126963   0.623   4.568   8.140 -2.1847  0.8542  1.1477
 5109SOL    HW226964   0.630   4.649   8.256  0.7499  0.0494  0.6579
 5110SOL     OW26965   4.074   1.691   4.555  0.4069  0.2701  0.1698
 5110SOL    HW126966   4.057   1.618   4.614  0.5925 -0.4977 -0.7153
 5110SOL    HW226967   4.162   1.715   4.584 -0.5002  1.6378  1.7220
 5111SOL     OW26968   1.510   3.013   1.965  1.1140  0.1315  0.4054
 5111SOL    HW126969   1.448   3.085   1.954  0.6855  0.0584  2.1921
 5111SOL    HW226970   1.461   2.944   1.920  0.0121  0.1058  1.6152
 5112SOL     OW26971   0.403   1.098   2.865  0.7207 -0.4019  0.2634
 5112SOL    HW126972   0.417   1.020   2.811 -0.7710 -0.3764 -0.1522
 5112SOL    HW226973   0.319   1.075   2.904  1.6782  0.6331  2.9746
 5113SOL     OW26974   2.798   3.796   8.798  0.4398 -0.5364 -0.1501
 5113SOL    HW126975   2.889   3.767   8.808  1.1990  2.1931  0.8290
 5113SOL    HW226976   2.751   3.762   8.874  0.6494 -3.0229 -1.1300
 5114SOL     OW26977   2.567   3.841   3.083 -0.4711 -0.0060  0.7830
 5114SOL    HW126978   2.605   3.848   2.995 -1.7429  0.0906  0.2279
 5114SOL    HW226979   2.623   3.772   3.119 -0.3601 -0.1314  0.3800
 5115SOL     OW26980   2.255   0.914   2.494  0.2070  0.1249  0.3324
 5115SOL    HW126981   2.244   0.938   2.586 -2.3053 -2.0358  0.5941
 5115SOL    HW226982   2.319   0.984   2.478  1.3973 -1.1008 -0.1876
 5116SOL     OW26983   0.254   3.084  10.583  0.6547  0.3989  0.5179
 5116SOL    HW126984   0.300   3.167  10.570 -0.0449  0.7099  0.0526
 5116SOL    HW226985   0.232   3.090  10.676 -1.1970  1.4662  0.0127
 5117SOL     OW26986   3.098   0.212  15.134 -0.5642 -0.6569 -0.1208
 5117SOL    HW126987   3.026   0.191  15.074  0.5802  1.3342 -2.1572
 5117SOL    HW226988   3.058   0.291  15.171 -0.3676 -0.1426 -1.0150
 5118SOL     OW26989   0.698   3.691   2.599 -0.8727  0.3927 -0.1863
 5118SOL    HW126990   0.657   3.716   2.681 -0.3051 -1.8375  0.7781
 5118SOL    HW226991   0.638   3.622   2.572  0.2924 -1.0786  0.9722
 5119SOL     OW26992   0.203   1.284   6.056 -0.8129 -0.1382  0.2544
 5119SOL    HW126993   0.258   1.324   6.123 -0.6338  0.6970 -0.3857
 5119SOL    HW226994   0.201   1.365   6.005 -2.0718 -1.6271 -2.0844
 5120SOL     OW26995   2.021   1.116   2.484 -0.0505 -0.0761 -0.6472
 5120SOL    HW126996   2.100   1.061   2.489 -0.4560 -0.7999 -1.9645
 5120SOL    HW226997   2.026   1.147   2.393 -0.6872  0.0349 -0.6452
 5121SOL     OW26998   3.934   0.564   3.468  0.6282  0.0121 -0.1740
 5121SOL    HW126999   3.887   0.616   3.532 -0.6721 -0.7111 -0.5289
 5121SOL    HW227000   4.009   0.622   3.454  0.0051  0.8087 -0.2349
 5122SOL     OW27001   3.171   1.887   1.245  0.0443  0.4641  0.2047
 5122SOL    HW127002   3.168   1.942   1.323 -1.7175  1.5407 -0.6209
 5122SOL    HW227003   3.107   1.917   1.180 -2.0468 -1.9127  1.1452
 5123SOL     OW27004   0.976   2.422  11.232  0.1190 -0.0769 -0.0616
 5123SOL    HW127005   1.004   2.331  11.239  3.1921  1.0194  1.9491
 5123SOL    HW227006   1.009   2.447  11.145 -0.2387 -0.6003 -0.3445
 5124SOL     OW27007   4.700   0.323   3.488  0.2208 -0.9796 -0.3794
 5124SOL    HW127008   4.738   0.312   3.576  2.2301 -2.0846 -1.3836
 5124SOL    HW227009   4.644   0.399   3.501  1.5439 -0.3673  1.7997
 5125SOL     OW27010   4.211   4.588   9.101  0.0615 -0.1205  0.1495
 5125SOL    HW127011   4.259   4.507   9.120  0.8872  0.2593 -0.3189
 5125SOL    HW227012   4.183   4.626   9.184  2.1505 -0.4051  1.0032
 5126SOL     OW27013   1.077   1.719   9.744 -0.0847 -0.5331 -0.2836
 5126SOL    HW127014   1.048   1.656   9.810 -1.6443  2.2782  1.6768
 5126SOL    HW227015   0.993   1.753   9.714 -0.2134 -0.0357  0.6494
 5127SOL     OW27016   4.650   3.195   7.893  0.4620 -0.3928  0.0031
 5127SOL    HW127017   4.684   3.280   7.865 -0.7693  0.6122  1.5028
 5127SOL    HW227018   4.559   3.204   7.864  1.1562 -0.1880 -2.0478
 5128SOL     OW27019   0.191   1.349  13.393 -0.2579  0.4234 -0.6736
 5128SOL    HW127020   0.278   1.336  13.356 -0.3858 -1.8609 -0.1900
 5128SOL    HW227021   0.138   1.308  13.325 -2.7089  1.1138  0.8168
 5129SOL     OW27022   1.891   0.202   9.321  0.4046  0.3651  0.1393
 5129SOL    HW127023   1.883   0.164   9.234  1.4848  1.5479 -0.4663
 5129SOL    HW227024   1.937   0.136   9.373  1.3417  1.2448  0.4269
 5130SOL     OW27025   0.110   0.954   0.422 -0.4358 -0.0990 -0.1483
 5130SOL    HW127026   0.040   1.018   0.436  0.8986  1.5485 -1.0161
 5130SOL    HW227027   0.160   0.995   0.352 -0.7954 -1.2663 -1.0669
 5131SOL     OW27028   3.732   2.648   9.464 -0.0637  0.5700  0.1331
 5131SOL    HW127029   3.754   2.741   9.461 -1.3828  0.8630 -0.1181
 5131SOL    HW227030   3.789   2.610   9.396  0.8898 -1.5330  2.1120
 5132SOL     OW27031   4.045   1.903   6.803  0.1553  0.1018  0.4018
 5132SOL    HW127032   4.114   1.840   6.783  0.0012  0.1297 -0.2164
 5132SOL    HW227033   3.970   1.846   6.820  1.0292 -0.6100  1.8899
 5133SOL     OW27034   3.639   2.985   7.686 -0.0063  1.0558  0.1392
 5133SOL    HW127035   3.633   2.889   7.690 -3.3594  1.2631 -0.3719
 5133SOL    HW227036   3.729   2.988   7.654  0.0241  0.4283  0.1679
 5134SOL     OW27037   3.465   3.213   8.527 -0.3998  0.1839 -0.8322
 5134SOL    HW127038   3.490   3.222   8.618  0.3013  0.1178 -1.0182
 5134SOL    HW227039   3.511   3.136   8.492  1.3417  0.6906  0.3451
 5135SOL     OW27040   1.005   2.111   3.196  0.4852 -0.1968 -0.6378
 5135SOL    HW127041   0.984   2.192   3.150  0.7439 -0.0870 -0.5603
 5135SOL    HW227042   1.100   2.115   3.190  0.6014  0.1189  1.4519
 5136SOL     OW27043   3.747   2.741   1.375  0.0592 -0.4040 -0.2515
 5136SOL    HW127044   3.675   2.799   1.399  0.5621 -0.8709  2.4350
 5136SOL    HW227045   3.719   2.690   1.299 -0.7997 -0.4968  0.1172
 5137SOL     OW27046   0.306   0.539   7.400  0.4452 -0.9739  0.1399
 5137SOL    HW127047   0.225   0.509   7.443  0.8363  1.0203  2.2688
 5137SOL    HW227048   0.263   0.546   7.315 -0.3193 -1.8014  0.4612
 5138SOL     OW27049   2.430   4.294   1.357  0.0338 -0.5266 -0.4077
 5138SOL    HW127050   2.524   4.287   1.374  0.0985 -2.3310 -1.4862
 5138SOL    HW227051   2.414   4.235   1.282 -1.0672 -2.0029  0.9904
 5139SOL     OW27052   3.641   2.226   4.942 -0.1846  0.3313  0.4883
 5139SOL    HW127053   3.578   2.190   5.004 -0.8664  1.0612  0.2116
 5139SOL    HW227054   3.710   2.255   5.001 -1.3372  1.0390  1.4729
 5140SOL     OW27055   3.528   2.408  17.485  0.3926  0.1869  0.3622
 5140SOL    HW127056   3.453   2.361  17.522  0.4620  0.3895  0.7549
 5140SOL    HW227057   3.548   2.475  17.550  2.2310  0.9434 -1.0070
 5141SOL     OW27058   3.476   1.402   5.395  0.7702 -0.3671  0.3743
 5141SOL    HW127059   3.463   1.326   5.451 -0.9923 -0.2460  0.1160
 5141SOL    HW227060   3.398   1.394   5.341  0.1307 -1.1116  1.4198
 5142SOL     OW27061   2.694   3.524   6.056  0.3121  0.4415  0.3563
 5142SOL    HW127062   2.775   3.561   6.091  0.7222 -0.7065  0.6090
 5142SOL    HW227063   2.680   3.583   5.982 -0.8170  0.0037  0.2242
 5143SOL     OW27064   4.545   4.616  10.055  0.3803 -0.1572 -0.3893
 5143SOL    HW127065   4.515   4.529  10.082 -0.5459  0.0192 -0.8578
 5143SOL    HW227066   4.604   4.584   9.988  0.8214 -1.3962  0.5958
 5144SOL     OW27067   3.841   0.803   1.035  0.4729  0.0704 -0.0386
 5144SOL    HW127068   3.830   0.880   1.090 -0.4867 -0.9491  1.2002
 5144SOL    HW227069   3.931   0.799   1.003  0.7574  1.4332  0.5873
 5145SOL     OW27070   3.240   3.741   4.587 -0.1637  0.8287 -0.1529
 5145SOL    HW127071   3.271   3.655   4.615 -0.1513  0.7120 -0.5141
 5145SOL    HW227072   3.251   3.790   4.668 -2.0417  0.0159  0.5861
 5146SOL     OW27073   3.779   2.723   9.771  0.1775  0.4475  0.5603
 5146SOL    HW127074   3.714   2.686   9.710  1.9500 -0.6017 -0.7085
 5146SOL    HW227075   3.833   2.647   9.791 -0.8895 -0.2001  0.9850
 5147SOL     OW27076   2.273   1.520   9.651 -0.7949  0.4154 -0.6463
 5147SOL    HW127077   2.263   1.610   9.621 -1.3312  0.4180 -0.4586
 5147SOL    HW227078   2.343   1.493   9.592  0.3434 -0.2781  1.0427
 5148SOL     OW27079   2.040   2.737   0.202 -0.7895  0.2862  0.0617
 5148SOL    HW127080   2.012   2.646   0.189 -1.6506  0.4885  0.4975
 5148SOL    HW227081   2.112   2.742   0.140 -0.5689  0.3468  0.3215
 5149SOL     OW27082   3.330   0.336   8.692 -0.2723 -0.5499  0.2405
 5149SOL    HW127083   3.255   0.306   8.641 -0.5678  2.1247 -0.8683
 5149SOL    HW227084   3.311   0.286   8.772  2.6232 -1.5608  0.2998
 5150SOL     OW27085   0.835   1.527   8.224  0.2758 -0.4095 -0.7405
 5150SOL    HW127086   0.823   1.621   8.241 -0.9250 -0.1498 -2.9717
 5150SOL    HW227087   0.817   1.520   8.130  1.6990 -0.2994 -1.0196
 5151SOL     OW27088   2.722   3.791   2.618  0.4399  0.3656  0.2091
 5151SOL    HW127089   2.760   3.723   2.674  1.9456 -0.9762 -2.4151
 5151SOL    HW227090   2.685   3.747   2.541 -0.9792 -0.8178  1.5857
 5152SOL     OW27091   4.667   2.619   7.648  0.3673 -0.3779 -0.0550
 5152SOL    HW127092   4.591   2.592   7.598 -0.7632  1.2859  0.7365
 5152SOL    HW227093   4.698   2.541   7.693  0.6166 -0.8113 -0.9797
 5153SOL     OW27094   0.082   2.448   8.561 -0.3324  0.1570 -0.4007
 5153SOL    HW127095   0.107   2.359   8.537 -4.5448 -1.1239 -0.0610
 5153SOL    HW227096   4.727   2.435   8.548 -0.3625 -1.7665  1.7954
 5154SOL     OW27097   4.616   3.396   3.479 -0.2178  0.0050 -0.8939
 5154SOL    HW127098   4.648   3.316   3.438  0.0851 -1.4996  2.2775
 5154SOL    HW227099   4.521   3.390   3.479 -0.2439  0.4468 -0.1821
 5155SOL     OW27100   4.191   0.524   7.818  0.3106 -0.0832  0.3329
 5155SOL    HW127101   4.241   0.543   7.739  2.4127 -0.2582  1.6283
 5155SOL    HW227102   4.105   0.557   7.793  0.8310  1.7145  0.9339
 5156SOL     OW27103   1.161   4.463   7.376  0.2003  0.1906 -0.1112
 5156SOL    HW127104   1.248   4.426   7.360  0.0319 -0.6786  0.9605
 5156SOL    HW227105   1.151   4.458   7.471  0.8923 -1.7316 -0.1433
 5157SOL     OW27106   1.458   2.613   2.951 -0.0410  0.8017  0.5548
 5157SOL    HW127107   1.398   2.611   3.026 -0.9249  2.8438 -0.1091
 5157SOL    HW227108   1.531   2.643   3.005  0.4210 -4.6897  3.0360
 5158SOL     OW27109   3.981   4.580   8.062  0.3554  0.6311 -0.0069
 5158SOL    HW127110   3.945   4.509   8.114  1.0426  0.7608  0.6486
 5158SOL    HW227111   3.903   4.618   8.022 -0.5935 -2.0736 -0.7196
 5159SOL     OW27112   1.708   0.848   7.086 -0.0309  0.2568 -0.6321
 5159SOL    HW127113   1.679   0.854   7.177 -0.6634 -2.8544 -0.6355
 5159SOL    HW227114   1.747   0.761   7.092 -0.5153 -0.0083 -1.2558
 5160SOL     OW27115   4.104   2.617   2.863 -0.0016  0.0070 -0.1596
 5160SOL    HW127116   4.142   2.576   2.941  1.3890  2.5624  0.5134
 5160SOL    HW227117   4.100   2.706   2.898 -0.3205  0.5436 -1.5459
 5161SOL     OW27118   2.513   0.064   7.912  0.1669  0.1763  0.0062
 5161SOL    HW127119   2.600   0.069   7.872  0.6367 -0.5371  0.9241
 5161SOL    HW227120   2.472   0.134   7.862  1.2840  0.3146 -0.7286
 5162SOL     OW27121   2.862   3.333   0.468  0.0905 -0.6885 -0.3069
 5162SOL    HW127122   2.956   3.321   0.480  0.1972  0.0920 -0.3459
 5162SOL    HW227123   2.844   3.420   0.505 -1.3798 -1.2353  0.2758
 5163SOL     OW27124   3.494   2.451  12.930  0.2883 -0.0069 -0.0036
 5163SOL    HW127125   3.548   2.479  13.004 -0.7225 -0.3580  0.8777
 5163SOL    HW227126   3.493   2.528  12.874  1.6847  0.3259  0.4236
 5164SOL     OW27127   2.268   4.274   4.865  0.4603  0.7354 -0.3573
 5164SOL    HW127128   2.190   4.258   4.814  0.3672 -0.0851  0.0505
 5164SOL    HW227129   2.230   4.286   4.952 -1.6993  3.9888 -1.7327
 5165SOL     OW27130   0.927   2.547   6.594  1.0242  0.1277 -0.8889
 5165SOL    HW127131   1.018   2.518   6.598  1.0573  0.2389 -0.8329
 5165SOL    HW227132   0.897   2.523   6.682 -0.2785  0.4139 -1.2553
 5166SOL     OW27133   1.387   4.661   6.012 -0.2166  0.0886 -0.2386
 5166SOL    HW127134   1.407   4.652   5.919 -0.9037  0.2855 -0.4123
 5166SOL    HW227135   1.473   4.670   6.052 -0.8731 -0.4363  1.3161
 5167SOL     OW27136   1.022   4.683  17.333 -0.2037 -0.4136  0.0840
 5167SOL    HW127137   1.034   4.618  17.264  1.7629  2.9782 -2.8078
 5167SOL    HW227138   1.040   0.024  17.283  0.4559 -0.9398 -0.5121
 5168SOL     OW27139   1.723   3.717  10.982  0.5426 -0.5295 -0.3484
 5168SOL    HW127140   1.719   3.805  10.945 -1.1328 -0.8076 -0.8051
 5168SOL    HW227141   1.667   3.677  10.916 -0.0204  2.8179 -1.9083
 5169SOL     OW27142   4.655   0.297   8.126 -1.0912 -0.4982 -0.1684
 5169SOL    HW127143   4.730   0.250   8.089 -0.6445 -1.5270  2.0515
 5169SOL    HW227144   4.704   0.373   8.155 -0.1511 -0.0390 -2.9488
 5170SOL     OW27145   3.989   1.012   2.413 -0.5428 -0.6442 -0.2147
 5170SOL    HW127146   4.078   1.045   2.402 -0.7512 -0.2237 -0.6184
 5170SOL    HW227147   3.954   1.051   2.493  0.4611  0.5085 -0.3493
 5171SOL     OW27148   2.561   2.116   2.785  0.1938  0.2719  0.0565
 5171SOL    HW127149   2.610   2.042   2.820  0.5232  0.6638  0.4279
 5171SOL    HW227150   2.577   2.105   2.691  0.3946 -1.3392  0.2774
 5172SOL     OW27151   1.841   4.083   6.626 -0.5140 -0.2889 -0.1442
 5172SOL    HW127152   1.791   4.018   6.577  0.9885 -1.1190 -0.5753
 5172SOL    HW227153   1.865   4.034   6.704  1.1638 -0.9454 -1.0495
 5173SOL     OW27154   4.634   1.176   8.856  0.1157 -0.0810  0.3395
 5173SOL    HW127155   4.687   1.237   8.908  1.4867 -1.2757  0.3458
 5173SOL    HW227156   4.650   1.100   8.911  1.3623  0.4388  0.7051
 5174SOL     OW27157   1.323   3.216   7.201 -0.1969 -0.2742 -0.3185
 5174SOL    HW127158   1.231   3.238   7.190 -0.1952 -0.6953 -1.1471
 5174SOL    HW227159   1.335   3.151   7.132  0.0017 -0.0410 -0.5030
 5175SOL     OW27160   2.357   4.168   8.175  0.2524  0.1183  0.0476
 5175SOL    HW127161   2.350   4.231   8.247  2.4079 -0.4588  0.7402
 5175SOL    HW227162   2.272   4.123   8.171  1.4817 -2.4124  2.7459
 5176SOL     OW27163   4.063   1.615   2.667  0.2481 -0.2502 -0.1727
 5176SOL    HW127164   4.101   1.670   2.599  0.6215 -0.1743  0.0957
 5176SOL    HW227165   4.126   1.630   2.737 -1.2003  0.2707  1.0306
 5177SOL     OW27166   2.028   0.585   3.622  0.3060  0.7024  0.1854
 5177SOL    HW127167   2.065   0.549   3.703 -0.5859  1.1784  0.8014
 5177SOL    HW227168   1.941   0.546   3.631 -0.2784  1.7091 -1.0730
 5178SOL     OW27169   1.587   2.005   1.965 -0.3372  0.5229 -0.0532
 5178SOL    HW127170   1.630   1.938   2.019 -1.5427 -0.2168 -0.0097
 5178SOL    HW227171   1.557   1.945   1.897  0.2582  0.8802 -0.6355
 5179SOL     OW27172   3.825   4.023   3.943 -0.3693  0.1637 -0.6647
 5179SOL    HW127173   3.828   4.116   3.917 -0.5722 -0.2799 -2.2988
 5179SOL    HW227174   3.811   3.985   3.856 -0.9122  0.1084 -0.5533
 5180SOL     OW27175   1.765   0.693   2.473 -0.6633  0.1789 -0.0350
 5180SOL    HW127176   1.680   0.677   2.515 -1.0653  0.7769 -0.6188
 5180SOL    HW227177   1.805   0.724   2.554  0.0694  0.1229 -0.3826
 5181SOL     OW27178   3.108   3.233   9.344 -0.1383  0.4897 -0.3124
 5181SOL    HW127179   3.177   3.253   9.407  0.0223  1.3052 -0.7457
 5181SOL    HW227180   3.149   3.171   9.283 -3.2361  0.2081 -2.1022
 5182SOL     OW27181   2.581   4.121   8.660 -0.2281 -0.1987  0.0938
 5182SOL    HW127182   2.538   4.206   8.670  4.2216  2.1114 -0.4930
 5182SOL    HW227183   2.576   4.105   8.566  2.0632  3.2828 -0.5833
 5183SOL     OW27184   1.436   2.807   4.207  0.4345  0.2499 -0.4210
 5183SOL    HW127185   1.400   2.739   4.150  1.1295  1.7878 -2.6968
 5183SOL    HW227186   1.518   2.764   4.232  0.8365  1.1586 -0.1857
 5184SOL     OW27187   3.853   3.020   8.185 -0.4084  0.0885 -0.8436
 5184SOL    HW127188   3.909   3.082   8.232  0.4152 -1.9753  0.9076
 5184SOL    HW227189   3.811   3.072   8.116 -2.5441 -0.4123  0.0830
 5185SOL     OW27190   3.726   3.750   3.236 -0.0952  0.2037 -0.4261
 5185SOL    HW127191   3.770   3.666   3.226 -0.2230 -0.1496  2.0850
 5185SOL    HW227192   3.649   3.731   3.290  0.8435 -0.2850  0.7519
 5186SOL     OW27193   4.518   3.386   2.479  0.3641  0.1842 -0.5559
 5186SOL    HW127194   4.423   3.377   2.482  0.4754 -0.6168  0.6373
 5186SOL    HW227195   4.542   3.299   2.512  0.2095 -0.5758 -2.4189
 5187SOL     OW27196   4.394   3.004   2.315  0.2939  0.1763 -0.6012
 5187SOL    HW127197   4.459   3.057   2.362  0.5578  2.2239 -3.3037
 5187SOL    HW227198   4.338   3.072   2.276  0.1580  0.5445  0.2320
 5188SOL     OW27199   2.368   2.401   9.496  0.4075 -0.1580 -0.2306
 5188SOL    HW127200   2.304   2.330   9.510 -0.7486  1.1362  1.0578
 5188SOL    HW227201   2.309   2.475   9.513 -0.4130 -0.9225  0.2562
 5189SOL     OW27202   0.731   1.767   8.461 -0.6307  0.2529 -0.2149
 5189SOL    HW127203   0.774   1.846   8.494 -2.8407  1.2062  0.3687
 5189SOL    HW227204   0.698   1.736   8.545  1.9153  0.5995  0.9159
 5190SOL     OW27205   4.309   2.948  11.900  0.7676  0.2222  0.0930
 5190SOL    HW127206   4.295   2.942  11.806 -1.4815 -0.4101  0.4609
 5190SOL    HW227207   4.278   3.037  11.917 -0.7532 -0.2475 -0.2326
 5191SOL     OW27208   4.547   0.063   8.147  0.3020  0.1226 -0.1623
 5191SOL    HW127209   4.591   0.146   8.163 -0.8113  0.4214  1.2974
 5191SOL    HW227210   4.482   0.070   8.216 -0.7699 -1.1233 -1.0427
 5192SOL     OW27211   3.427   1.928   5.505  0.6383  0.4982  0.4289
 5192SOL    HW127212   3.481   2.007   5.513  1.1799  0.2299 -0.5847
 5192SOL    HW227213   3.470   1.892   5.583  0.5707  0.9885  0.7006
 5193SOL     OW27214   3.828   3.290   9.437  0.0334 -0.4167 -0.1659
 5193SOL    HW127215   3.922   3.282   9.417 -0.2274  3.1468 -2.6882
 5193SOL    HW227216   3.810   3.383   9.423 -1.1621 -0.7424 -0.8081
 5194SOL     OW27217   0.259   1.361  17.014  0.6346  0.1601 -0.7078
 5194SOL    HW127218   0.295   1.295  16.955 -1.6829 -2.3486  0.7121
 5194SOL    HW227219   0.228   1.423  16.948 -1.5578  0.0212  0.2118
 5195SOL     OW27220   0.512   0.996   0.572  0.3632 -0.4620 -0.0257
 5195SOL    HW127221   0.519   1.088   0.548 -2.4476 -0.3003 -0.1685
 5195SOL    HW227222   0.571   0.950   0.513  2.4816  1.5840  0.4718
 5196SOL     OW27223   4.154   3.831   5.426  0.7069  0.1859  0.4398
 5196SOL    HW127224   4.123   3.785   5.347  3.3401  0.7079 -0.8805
 5196SOL    HW227225   4.136   3.922   5.401 -2.7038  0.3390  3.5297
 5197SOL     OW27226   2.746   1.784   4.336 -0.0441 -0.5792  0.3852
 5197SOL    HW127227   2.752   1.879   4.329  0.8969 -0.7084 -0.6074
 5197SOL    HW227228   2.793   1.766   4.418  0.4570  0.5463  0.3432
 5198SOL     OW27229   4.467   2.426   9.783  0.1999  0.4208 -0.1218
 5198SOL    HW127230   4.483   2.332   9.794  0.2522  0.1999 -2.1899
 5198SOL    HW227231   4.431   2.457   9.867  3.5167  1.1842  1.0200
 5199SOL     OW27232   0.154   1.588  13.497  0.8948 -0.0247 -0.0379
 5199SOL    HW127233   0.205   1.638  13.433 -0.9648  1.1735 -0.5997
 5199SOL    HW227234   0.158   1.502  13.455  1.5842  0.2098 -0.4525
 5200SOL     OW27235   4.177   0.528  17.354  0.1799  0.2054  0.4181
 5200SOL    HW127236   4.130   0.464  17.408  2.2636 -0.7994  1.0547
 5200SOL    HW227237   4.157   0.602  17.412  1.7498  0.1881  0.9827
 5201SOL     OW27238   1.256   0.591   5.119 -0.5962 -0.6504 -0.2911
 5201SOL    HW127239   1.317   0.526   5.083  1.5230  0.8573  0.6038
 5201SOL    HW227240   1.196   0.611   5.047 -0.6532 -0.0725 -0.0836
 5202SOL     OW27241   3.270   0.924   4.909  0.2878 -0.0014  0.0358
 5202SOL    HW127242   3.251   1.018   4.910 -0.4283 -0.1517  1.2792
 5202SOL    HW227243   3.216   0.896   4.835  1.1420 -0.9856 -0.2219
 5203SOL     OW27244   3.072   3.897   6.872 -0.1366  0.1507  0.0145
 5203SOL    HW127245   3.001   3.962   6.874 -1.2607 -1.0974  0.9353
 5203SOL    HW227246   3.019   3.826   6.909 -1.1150  1.0556  0.3747
 5204SOL     OW27247   4.140   2.422   8.801  0.0445  0.4770 -0.2219
 5204SOL    HW127248   4.187   2.502   8.779  0.2663  0.3863 -0.0664
 5204SOL    HW227249   4.063   2.458   8.845 -0.9713 -1.0435 -0.7309
 5205SOL     OW27250   4.132   1.951   5.674 -0.2429 -0.6225  0.2045
 5205SOL    HW127251   4.210   1.956   5.730 -0.4658  0.6855  0.4052
 5205SOL    HW227252   4.073   2.019   5.708  1.1521 -0.1703  1.7244
 5206SOL     OW27253   1.776   3.755   4.190  0.3779  0.2352  0.0707
 5206SOL    HW127254   1.752   3.794   4.275 -2.5078 -2.3105  0.4332
 5206SOL    HW227255   1.782   3.666   4.227  0.4621  0.5958  0.9418
 5207SOL     OW27256   2.649   4.195   8.310  0.0213 -0.0082 -0.6191
 5207SOL    HW127257   2.676   4.207   8.220 -1.6975  1.8339 -0.9045
 5207SOL    HW227258   2.561   4.158   8.306 -0.3665  0.7548  0.6390
 5208SOL     OW27259   0.416   2.865   5.221  0.2387 -0.1711  0.2737
 5208SOL    HW127260   0.433   2.774   5.245 -1.7755 -1.0917 -1.8067
 5208SOL    HW227261   0.364   2.883   5.299 -0.0303  0.1767  0.0159
 5209SOL     OW27262   4.291   4.231  12.848  0.3666  0.4746 -0.2733
 5209SOL    HW127263   4.368   4.284  12.868 -0.7582  1.2537  1.9336
 5209SOL    HW227264   4.228   4.245  12.919  1.3288  3.9130 -0.1079
 5210SOL     OW27265   0.987   3.804   8.456  0.2588  0.5096  0.2922
 5210SOL    HW127266   0.949   3.716   8.465  0.2613  0.4832  0.0501
 5210SOL    HW227267   0.944   3.848   8.383  0.5810  2.0724  1.0515
 5211SOL     OW27268   3.230   0.025  14.743  0.1100  0.3721 -0.3538
 5211SOL    HW127269   3.200   4.699  14.679  0.9286 -1.1616  0.8075
 5211SOL    HW227270   3.178   4.725  14.814  1.8797  0.1434  0.8327
 5212SOL     OW27271   2.548   2.095   6.950 -0.7168 -0.6088  0.1030
 5212SOL    HW127272   2.533   2.009   6.988  1.2488 -1.4967 -1.1032
 5212SOL    HW227273   2.638   2.087   6.917 -1.2858 -0.0051 -1.5990
 5213SOL     OW27274   1.598   4.092  11.809 -0.6776  0.1505  0.3752
 5213SOL    HW127275   1.550   4.163  11.767 -1.1904 -0.3361  0.1416
 5213SOL    HW227276   1.662   4.067  11.743 -2.8013 -1.9420 -0.8888
 5214SOL     OW27277   1.003   3.981   5.676  0.0845 -0.1040  0.5946
 5214SOL    HW127278   1.061   3.967   5.602 -0.7194 -0.3851  0.0286
 5214SOL    HW227279   0.985   4.075   5.667 -2.2602 -0.7659 -1.6275
 5215SOL     OW27280   0.072   3.882   5.749  0.2517 -0.3265  0.1402
 5215SOL    HW127281   4.737   3.912   5.802  2.1163  1.3778  1.7867
 5215SOL    HW227282   0.022   3.873   5.668  2.1388 -0.6496 -0.9901
 5216SOL     OW27283   1.021   1.977  11.278 -0.4609  0.1476 -0.3527
 5216SOL    HW127284   1.008   1.905  11.216 -1.1619  1.6245 -1.9286
 5216SOL    HW227285   1.069   1.930  11.346 -2.8903 -0.9898  0.5934
 5217SOL     OW27286   2.852   2.790   4.931  0.3349 -0.4690  0.2523
 5217SOL    HW127287   2.876   2.735   5.006 -2.6071 -2.3413 -0.2138
 5217SOL    HW227288   2.810   2.731   4.868  0.7320 -2.0332  1.4450
 5218SOL     OW27289   2.543   3.728   0.338  0.0241 -0.0711 -0.1639
 5218SOL    HW127290   2.496   3.800   0.379  2.0085 -0.1360  2.2919
 5218SOL    HW227291   2.487   3.715   0.262 -0.2112 -0.4805  0.0816
 5219SOL     OW27292   0.417   2.729   8.022 -0.0251  0.3707 -0.1303
 5219SOL    HW127293   0.418   2.780   7.942 -0.8889 -0.3595 -0.6106
 5219SOL    HW227294   0.340   2.765   8.067  0.8801  0.9420  0.9555
 5220SOL     OW27295   2.511   0.129   3.432  0.2823  0.4316 -0.7431
 5220SOL    HW127296   2.538   0.211   3.391 -0.4040  0.6446 -0.7571
 5220SOL    HW227297   2.528   0.070   3.358  0.7636  0.8274 -0.9473
 5221SOL     OW27298   4.046   2.362  12.717 -0.0156  0.9374  0.2687
 5221SOL    HW127299   3.958   2.328  12.734 -0.4125  0.4505 -2.7559
 5221SOL    HW227300   4.099   2.284  12.736  1.2604  1.4355 -1.2339
 5222SOL     OW27301   3.395   0.575  10.420 -0.8168  0.2017 -0.0577
 5222SOL    HW127302   3.480   0.576  10.463 -0.8991  0.3614  0.1009
 5222SOL    HW227303   3.358   0.488  10.436 -0.8642  0.4353  1.0799
 5223SOL     OW27304   2.332   0.275   5.419  0.4632  0.4146  0.0273
 5223SOL    HW127305   2.358   0.228   5.499 -1.6774 -1.5095 -0.4098
 5223SOL    HW227306   2.328   0.211   5.349 -2.5245 -1.0549  1.5318
 5224SOL     OW27307   4.273   4.039  16.351  0.1129 -0.4781  0.0711
 5224SOL    HW127308   4.318   4.114  16.389  1.5359 -2.7897  2.9427
 5224SOL    HW227309   4.250   3.987  16.428 -0.4511  0.1189  0.3066
 5225SOL     OW27310   1.848   1.845   6.149 -0.5951 -0.0435  0.2696
 5225SOL    HW127311   1.915   1.907   6.177 -1.4716  0.9314  0.2073
 5225SOL    HW227312   1.822   1.796   6.227 -0.3551  1.7713  1.4970
 5226SOL     OW27313   2.700   3.376  11.754 -0.5923 -0.0264  0.0644
 5226SOL    HW127314   2.640   3.426  11.809 -1.2375  1.5486 -2.0656
 5226SOL    HW227315   2.755   3.333  11.820 -0.5457  0.4382  0.3272
 5227SOL     OW27316   3.386   0.846   8.456 -0.3296 -0.0906 -0.3987
 5227SOL    HW127317   3.456   0.792   8.492 -0.7321 -1.4903 -1.6913
 5227SOL    HW227318   3.411   0.933   8.486 -1.5662 -0.3616  1.4311
 5228SOL     OW27319   0.938   1.089   5.457  0.0463 -0.0046  0.5519
 5228SOL    HW127320   0.866   1.058   5.512  0.4247 -2.2404 -0.1761
 5228SOL    HW227321   1.008   1.107   5.520  0.9565 -0.4929 -0.3132
 5229SOL     OW27322   0.756   3.262   7.091 -0.0858  0.5793  0.6652
 5229SOL    HW127323   0.712   3.346   7.080  0.3774  0.4140 -2.5182
 5229SOL    HW227324   0.793   3.245   7.004  0.8914  0.0011  1.2007
 5230SOL     OW27325   1.713   1.793   1.757  0.0852  0.6068  0.0425
 5230SOL    HW127326   1.701   1.743   1.676  1.0227 -0.3714  0.5094
 5230SOL    HW227327   1.632   1.842   1.770 -0.3950 -0.6622  1.7265
 5231SOL     OW27328   1.631   3.969   8.647 -0.6010  0.2358 -0.1441
 5231SOL    HW127329   1.621   3.876   8.631 -0.6707  0.0375  1.0809
 5231SOL    HW227330   1.570   3.983   8.719  0.1065 -2.4685  0.9600
 5232SOL     OW27331   2.742   1.771   4.762 -0.5431  0.5802  0.3003
 5232SOL    HW127332   2.659   1.802   4.724 -0.2949 -0.5392 -1.1170
 5232SOL    HW227333   2.804   1.844   4.763  1.0131 -0.8076  3.7007
 5233SOL     OW27334   4.405   0.249   9.044 -0.4833 -0.6077 -0.4046
 5233SOL    HW127335   4.437   0.277   9.129 -0.7574 -1.1342 -0.1341
 5233SOL    HW227336   4.482   0.204   9.009 -0.9023 -1.6234 -0.0140
 5234SOL     OW27337   4.431   2.137  11.619  0.7883 -0.3717 -0.0965
 5234SOL    HW127338   4.402   2.072  11.682 -1.1595 -0.6200 -1.2524
 5234SOL    HW227339   4.369   2.208  11.638  0.8039  0.5037 -3.3352
 5235SOL     OW27340   1.132   1.532   7.625  0.4857 -0.3964  0.5610
 5235SOL    HW127341   1.101   1.602   7.567  0.5080  0.4834  1.6171
 5235SOL    HW227342   1.190   1.483   7.566 -0.5519 -0.2663 -0.5795
 5236SOL     OW27343   0.011   3.421   4.433 -0.5494 -0.1697 -0.0336
 5236SOL    HW127344   0.046   3.463   4.511  1.1501 -0.5926 -0.5778
 5236SOL    HW227345   4.697   3.491   4.396  1.1373  1.5161  0.7861
 5237SOL     OW27346   3.550   4.149  16.336  0.0673 -0.1392 -0.2292
 5237SOL    HW127347   3.487   4.078  16.348  1.8076 -1.6641 -0.0386
 5237SOL    HW227348   3.624   4.091  16.358 -1.1411 -0.7413  2.1998
 5238SOL     OW27349   0.903   1.585   6.667 -0.0445 -0.0961  0.3958
 5238SOL    HW127350   0.991   1.582   6.704  0.8054 -2.0801 -1.7937
 5238SOL    HW227351   0.851   1.595   6.746 -0.5810  2.9133 -0.3260
 5239SOL     OW27352   0.801   2.842   9.263  0.3976 -0.7015  0.0458
 5239SOL    HW127353   0.772   2.845   9.354  0.1259 -0.3214 -0.0525
 5239SOL    HW227354   0.719   2.809   9.227  1.0100 -0.5571 -1.5271
 5240SOL     OW27355   1.151   3.157   1.873 -0.4631  0.0524 -0.2326
 5240SOL    HW127356   1.235   3.199   1.851 -0.2961  0.5170  1.3304
 5240SOL    HW227357   1.151   3.165   1.968 -2.7142 -2.1666 -0.0493
 5241SOL     OW27358   0.391   3.559  13.129  0.5830  0.1826 -0.6069
 5241SOL    HW127359   0.388   3.582  13.222  0.2217  0.6213 -0.7265
 5241SOL    HW227360   0.452   3.486  13.129 -1.0537 -1.1760 -0.1698
 5242SOL     OW27361   3.128   0.696  10.988  0.3257 -0.1050  0.4744
 5242SOL    HW127362   3.045   0.729  10.954  0.0726  0.0487  1.2431
 5242SOL    HW227363   3.197   0.752  10.953 -1.2273  1.5747  0.1391
 5243SOL     OW27364   2.319   4.015  12.779 -0.3778 -0.1534  0.5505
 5243SOL    HW127365   2.364   4.068  12.845 -2.3881  0.7861  1.1491
 5243SOL    HW227366   2.387   3.960  12.739 -1.4625 -2.0890  1.3691
 5244SOL     OW27367   3.820   1.424  10.885  0.7697 -0.7399 -0.1294
 5244SOL    HW127368   3.834   1.433  10.791 -1.5421 -0.6670 -0.4636
 5244SOL    HW227369   3.760   1.499  10.888  0.8463 -0.5896 -2.9227
 5245SOL     OW27370   0.845   1.180   2.729 -0.3265  0.1031  0.0288
 5245SOL    HW127371   0.836   1.247   2.796  1.3982  1.4001 -1.0409
 5245SOL    HW227372   0.895   1.226   2.662 -0.2762 -0.8736 -0.6130
 5246SOL     OW27373   2.678   4.525  13.442 -0.2148  0.5703 -0.1817
 5246SOL    HW127374   2.773   4.528  13.448 -0.0064 -0.5530 -2.8499
 5246SOL    HW227375   2.663   4.592  13.509  1.9120  0.9912 -0.1423
 5247SOL     OW27376   0.729   3.702   4.919  0.6612 -0.0465 -0.4942
 5247SOL    HW127377   0.689   3.765   4.858 -0.1857 -0.9309 -0.8556
 5247SOL    HW227378   0.757   3.760   4.990  0.5508 -0.2277 -0.3045
 5248SOL     OW27379   4.170   2.892   4.027 -0.1434 -0.0587 -0.4377
 5248SOL    HW127380   4.168   2.933   4.113 -0.1496 -1.4417  0.2247
 5248SOL    HW227381   4.078   2.900   4.000 -0.4557  0.8005  0.8979
 5249SOL     OW27382   1.238   1.137  11.279 -0.2236  0.4990 -0.9526
 5249SOL    HW127383   1.171   1.102  11.220  0.6350 -2.2707 -0.2903
 5249SOL    HW227384   1.210   1.102  11.363  0.1786  0.0598 -1.0050
 5250SOL     OW27385   3.415   1.802  11.169  0.7393  0.4506 -0.2972
 5250SOL    HW127386   3.495   1.833  11.127  0.2157  1.1289 -0.8023
 5250SOL    HW227387   3.373   1.886  11.189 -0.4633  0.0326 -1.0748
 5251SOL     OW27388   4.348   3.313   7.992  0.3328  0.5085  0.2361
 5251SOL    HW127389   4.386   3.363   8.064  0.7137 -1.6625  1.5311
 5251SOL    HW227390   4.325   3.377   7.924  2.0373 -1.0169 -1.7832
 5252SOL     OW27391   0.184   2.906   1.898 -0.0458  0.1494  0.3254
 5252SOL    HW127392   0.155   2.950   1.978  0.7503 -0.1215  0.7633
 5252SOL    HW227393   0.253   2.846   1.928 -0.8254 -0.5480  0.7265
 5253SOL     OW27394   1.028   0.717   3.882 -0.0926  0.0859 -0.5168
 5253SOL    HW127395   1.070   0.801   3.861  3.1758 -1.2678  0.6525
 5253SOL    HW227396   0.999   0.697   3.793 -0.9577  1.3992 -0.5356
 5254SOL     OW27397   0.567   3.058   9.179  0.0244  0.6275  0.2620
 5254SOL    HW127398   0.659   3.082   9.175  0.0719  0.9483  3.2314
 5254SOL    HW227399   0.555   2.989   9.244 -0.1097  0.9881  0.6160
 5255SOL     OW27400   4.019   1.074  15.962  0.2781 -0.5093  0.4253
 5255SOL    HW127401   4.052   0.984  15.969 -1.0835 -1.2587 -3.0840
 5255SOL    HW227402   4.047   1.127  16.037 -1.8639  0.6376  0.4152
 5256SOL     OW27403   0.590   3.480   7.045 -0.1886  0.0657  0.3347
 5256SOL    HW127404   0.513   3.468   6.989  1.1472  3.2504 -2.1791
 5256SOL    HW227405   0.547   3.514   7.124 -1.4567  0.4712 -0.5161
 5257SOL     OW27406   2.807   2.263  17.737  0.4031 -0.6189  0.0937
 5257SOL    HW127407   2.786   2.349   0.020  0.7579 -0.1199 -0.8878
 5257SOL    HW227408   2.755   2.264  17.656 -1.4224  0.6892  1.2857
 5258SOL     OW27409   0.208   4.627   2.761 -0.3773 -0.1024 -0.3840
 5258SOL    HW127410   0.279   4.580   2.804  2.6378  2.0517 -3.0018
 5258SOL    HW227411   0.254   4.693   2.709 -2.3827 -0.2190 -2.3221
 5259SOL     OW27412   3.341   0.058  16.360  0.4077  0.0858  0.4910
 5259SOL    HW127413   3.377   4.710  16.377 -0.3348  0.1878  2.6380
 5259SOL    HW227414   3.332   0.067  16.265  0.4139 -0.8701  0.4028
 5260SOL     OW27415   4.391   2.493   1.025 -0.2464  0.2842 -1.0221
 5260SOL    HW127416   4.395   2.533   0.938 -0.6783  1.4657 -0.5031
 5260SOL    HW227417   4.479   2.506   1.059 -0.8653  4.2541 -0.8893
 5261SOL     OW27418   3.614   3.588   2.996  0.1463 -0.0264 -0.4582
 5261SOL    HW127419   3.594   3.667   2.948  0.7067 -0.8980 -2.1075
 5261SOL    HW227420   3.540   3.583   3.058  0.7887  1.8658  0.4406
 5262SOL     OW27421   0.704   1.373  11.371  0.6133  0.2867 -0.8845
 5262SOL    HW127422   0.692   1.334  11.457 -0.4498  3.2222  0.3024
 5262SOL    HW227423   0.626   1.429  11.366  0.7448  0.6333  0.9078
 5263SOL     OW27424   4.098   4.117   7.215 -0.4034  0.1522 -0.1827
 5263SOL    HW127425   4.006   4.110   7.241  0.0586 -1.4843  1.0527
 5263SOL    HW227426   4.154   4.098   7.291 -1.6752  0.4527  0.8325
 5264SOL     OW27427   3.160   0.613   3.760 -0.0754 -0.1219  0.2400
 5264SOL    HW127428   3.192   0.576   3.843  1.9131  1.8676  0.3938
 5264SOL    HW227429   3.078   0.567   3.743  1.1021 -1.8954 -0.6471
 5265SOL     OW27430   2.419   2.138   5.908  0.3911 -0.8703 -0.3850
 5265SOL    HW127431   2.380   2.052   5.896 -2.3961  0.4079 -0.5892
 5265SOL    HW227432   2.456   2.135   5.996  0.0117 -0.5423 -0.2099
 5266SOL     OW27433   0.518   1.983   5.497 -0.4220 -0.2894 -0.1909
 5266SOL    HW127434   0.571   2.012   5.423 -0.7635 -0.9698 -0.7019
 5266SOL    HW227435   0.532   2.060   5.551  1.5923 -3.1952  3.4784
 5267SOL     OW27436   3.241   1.147   6.923  0.2286  0.4699 -0.5121
 5267SOL    HW127437   3.251   1.100   7.005  1.2321 -0.5228 -1.1997
 5267SOL    HW227438   3.253   1.083   6.853 -1.9444  0.3468 -0.7785
 5268SOL     OW27439   4.013   2.503   1.489  0.0949  0.1903  0.2810
 5268SOL    HW127440   4.105   2.488   1.466 -0.0602 -3.6242  2.0204
 5268SOL    HW227441   4.027   2.590   1.526  0.8175 -0.7426  2.2601
 5269SOL     OW27442   1.540   1.399   6.138  0.5601 -0.4059 -0.0725
 5269SOL    HW127443   1.602   1.328   6.158  0.1273 -0.6347  0.4527
 5269SOL    HW227444   1.610   1.457   6.166 -0.1017  0.2832  0.1438
 5270SOL     OW27445   2.918   4.370   1.924 -0.2048 -0.2636  0.0514
 5270SOL    HW127446   2.894   4.281   1.899  0.8492 -0.7115  0.6667
 5270SOL    HW227447   2.839   4.415   1.891  0.5895  1.9377  1.1429
 5271SOL     OW27448   4.321   2.150   1.464 -0.1810 -0.1741  0.9192
 5271SOL    HW127449   4.227   2.168   1.462 -0.3584 -1.0407  1.0945
 5271SOL    HW227450   4.360   2.237   1.473 -2.7505  1.0385  0.1885
 5272SOL     OW27451   1.129   0.992   7.935 -0.3002  0.0366  0.3256
 5272SOL    HW127452   1.100   1.016   7.847 -0.9292  1.2612  0.8800
 5272SOL    HW227453   1.051   1.023   7.980 -0.9156 -1.1120  0.0345
 5273SOL     OW27454   2.001   4.408   2.307  0.1703  0.0570 -0.5105
 5273SOL    HW127455   2.010   4.470   2.379  1.0058 -0.7290  0.0668
 5273SOL    HW227456   1.939   4.455   2.250 -0.0074  0.4424  0.0065
 5274SOL     OW27457   4.432   0.616   6.398  0.0832  0.0318  0.0787
 5274SOL    HW127458   4.437   0.707   6.370 -3.4783 -0.4287 -1.9974
 5274SOL    HW227459   4.517   0.579   6.375 -0.3334 -0.3524 -0.8458
 5275SOL     OW27460   0.415   1.315  13.248 -1.0726 -0.2220  0.5220
 5275SOL    HW127461   0.433   1.261  13.171 -1.2609 -1.0632  1.0575
 5275SOL    HW227462   0.501   1.313  13.290 -1.4343  3.9047  1.4088
 5276SOL     OW27463   0.455   0.275  11.365  0.4771 -0.2073 -0.0315
 5276SOL    HW127464   0.545   0.299  11.388  0.5621  0.8691 -1.5349
 5276SOL    HW227465   0.459   0.219  11.288 -0.6771 -0.7668  0.3077
 5277SOL     OW27466   1.207   0.404   4.438  0.5386  0.0244 -0.1883
 5277SOL    HW127467   1.244   0.483   4.477  0.2864 -0.8378  1.8038
 5277SOL    HW227468   1.113   0.417   4.442  0.6168  0.7613 -0.7634
 5278SOL     OW27469   3.205   4.571   2.987 -0.5437  0.0071 -0.7507
 5278SOL    HW127470   3.174   4.635   2.922 -0.5729  0.5883 -0.1630
 5278SOL    HW227471   3.170   4.485   2.964 -1.6742  0.1135  0.5808
 5279SOL     OW27472   1.006   3.970   5.049  0.3459  0.4592 -0.1088
 5279SOL    HW127473   1.016   3.945   4.957  1.4148 -0.8393  0.3634
 5279SOL    HW227474   0.915   3.947   5.066  0.7958 -1.0977  0.1727
 5280SOL     OW27475   3.106   3.881   5.109 -0.5788  0.1263  0.2261
 5280SOL    HW127476   3.111   3.955   5.170  0.9922  0.5184 -0.3729
 5280SOL    HW227477   3.118   3.925   5.025 -0.2385 -1.8641 -0.7596
 5281SOL     OW27478   3.361   1.073   2.354 -0.1378  0.5176 -0.1680
 5281SOL    HW127479   3.368   1.038   2.443  2.2722 -1.0942 -1.0144
 5281SOL    HW227480   3.370   1.167   2.369 -1.2089  0.6608 -0.3952
 5282SOL     OW27481   0.642   2.147   3.321 -0.1646  0.3959 -0.0295
 5282SOL    HW127482   0.608   2.057   3.319  0.3354  0.1698  1.9119
 5282SOL    HW227483   0.729   2.129   3.357 -0.3037 -1.3124 -0.5166
 5283SOL     OW27484   1.101   2.991   7.175 -0.5119 -0.1474  0.1146
 5283SOL    HW127485   1.077   2.911   7.222 -2.6452 -0.2010 -1.0345
 5283SOL    HW227486   1.061   2.976   7.089  2.3695  0.5697 -1.3216
 5284SOL     OW27487   3.931   4.413   8.298 -0.2658  0.1143  0.8963
 5284SOL    HW127488   4.000   4.434   8.362  1.6709  2.4801 -1.9738
 5284SOL    HW227489   3.863   4.437   8.361  0.7053  1.9160  1.2591
 5285SOL     OW27490   0.721   2.314   6.588 -0.2513  0.3305  0.1107
 5285SOL    HW127491   0.704   2.227   6.622 -0.1342 -0.0051 -0.6830
 5285SOL    HW227492   0.770   2.348   6.662  1.3083 -0.0604 -0.7505
 5286SOL     OW27493   0.182   1.232   2.282  0.5018 -0.1732 -0.5052
 5286SOL    HW127494   0.223   1.301   2.230  0.8164  0.0662  0.0580
 5286SOL    HW227495   0.244   1.163   2.261  0.8732 -0.2920  0.9671
 5287SOL     OW27496   2.683   0.147   2.472 -0.4595 -0.0038 -0.1777
 5287SOL    HW127497   2.626   0.187   2.537 -0.1488  0.1261  0.0171
 5287SOL    HW227498   2.640   0.070   2.435  0.1214 -0.8253  0.8440
 5288SOL     OW27499   4.157   3.433  11.898  0.1169 -0.1721 -0.0978
 5288SOL    HW127500   4.204   3.432  11.815 -0.7653  0.7553 -0.6062
 5288SOL    HW227501   4.081   3.390  11.857  0.3529 -1.6876  1.0417
 5289SOL     OW27502   1.677   2.277   6.414 -0.1821  0.2598  0.1716
 5289SOL    HW127503   1.689   2.191   6.455  0.8000  0.5312  0.4411
 5289SOL    HW227504   1.609   2.262   6.348 -0.1024  1.5464 -0.1875
 5290SOL     OW27505   4.406   3.943   2.596  0.0193  0.4668  0.3042
 5290SOL    HW127506   4.376   3.871   2.542  1.2967 -0.4549  0.8302
 5290SOL    HW227507   4.501   3.934   2.602  0.0981 -0.2781 -2.2291
 5291SOL     OW27508   0.582   2.835   6.107 -0.0737 -0.1485  0.0239
 5291SOL    HW127509   0.609   2.766   6.167 -0.6646  0.2839  0.8030
 5291SOL    HW227510   0.657   2.894   6.114 -0.6435  0.6047 -0.1791
 5292SOL     OW27511   1.034   4.386   0.027 -0.2628  0.0776 -0.1904
 5292SOL    HW127512   1.022   4.358  17.689  0.8828  2.5179 -1.1017
 5292SOL    HW227513   1.039   4.481   0.012 -1.8779  0.3193  0.7693
 5293SOL     OW27514   4.633   4.687   6.618 -0.0645  0.0253  0.0169
 5293SOL    HW127515   4.566   4.646   6.563  0.1028 -0.1413 -0.0635
 5293SOL    HW227516   4.640   4.626   6.692  0.6275  1.2637  0.9645
 5294SOL     OW27517   0.095   0.690   8.705  0.0151 -0.0470 -0.4785
 5294SOL    HW127518   0.103   0.688   8.610 -1.1898  2.5015 -0.6328
 5294SOL    HW227519   0.170   0.746   8.727 -0.0872  0.8121 -2.3887
 5295SOL     OW27520   1.395   4.487  12.873  0.1807  0.1477  0.1258
 5295SOL    HW127521   1.477   4.534  12.889  0.2715 -0.3937  1.2427
 5295SOL    HW227522   1.343   4.528  12.805  0.5001  0.2445 -0.0607
 5296SOL     OW27523   0.163   1.663   7.240  0.1084  0.0535 -0.0589
 5296SOL    HW127524   0.159   1.755   7.266 -1.5436 -0.1470  0.4107
 5296SOL    HW227525   0.091   1.616   7.281 -1.5327  1.2579 -1.5656
 5297SOL     OW27526   4.094   2.484  16.681  0.1727  0.3815 -0.1400
 5297SOL    HW127527   4.038   2.460  16.754  1.1610  0.3473  0.6098
 5297SOL    HW227528   4.044   2.471  16.600  0.3387  1.0101 -0.3503
 5298SOL     OW27529   0.577   3.534   4.757  0.3831 -0.3794 -0.1882
 5298SOL    HW127530   0.511   3.531   4.827 -1.0361 -2.2557 -1.6196
 5298SOL    HW227531   0.656   3.566   4.802 -1.4252  2.2388  1.1191
 5299SOL     OW27532   3.716   4.017  15.992 -0.1355 -0.4376  0.6666
 5299SOL    HW127533   3.736   4.011  16.085  1.3987 -1.3318  0.2808
 5299SOL    HW227534   3.624   3.992  15.996 -0.3892  0.6385  1.6618
 5300SOL     OW27535   3.462   2.665   5.165 -1.0455 -0.2551  0.1015
 5300SOL    HW127536   3.494   2.743   5.210  0.1531  0.1129 -1.3733
 5300SOL    HW227537   3.393   2.702   5.111 -0.1951  1.3380  0.1078
 5301SOL     OW27538   1.602   1.207   4.229  0.3488 -0.0654 -0.2989
 5301SOL    HW127539   1.536   1.169   4.171  0.1823 -2.0229  1.2050
 5301SOL    HW227540   1.616   1.295   4.192  1.0587 -0.2103 -0.3734
 5302SOL     OW27541   4.391   3.154   9.901  0.5648 -0.6082  0.2832
 5302SOL    HW127542   4.324   3.089   9.882  1.2044 -0.4451 -2.5023
 5302SOL    HW227543   4.360   3.233   9.856 -0.6335 -0.3124  1.6285
 5303SOL     OW27544   2.109   1.597   5.846 -0.1378 -0.0514  0.1155
 5303SOL    HW127545   2.100   1.666   5.912 -0.0334  1.6739 -1.6647
 5303SOL    HW227546   2.182   1.631   5.794 -1.4797  3.8571  0.7927
 5304SOL     OW27547   0.995   4.345   5.016  0.1805 -0.9031 -0.3766
 5304SOL    HW127548   0.909   4.381   5.041 -0.2087 -1.3792 -1.0264
 5304SOL    HW227549   0.978   4.251   5.021  1.1184 -1.0652 -0.2746
 5305SOL     OW27550   3.616   4.561  10.458  0.4443  0.3637 -0.8265
 5305SOL    HW127551   3.687   4.513  10.415  0.0472 -0.8215 -0.1627
 5305SOL    HW227552   3.562   4.572  10.379 -0.6737 -1.4851 -0.3135
 5306SOL     OW27553   2.611   0.403   5.678  0.0780  0.3961  0.2532
 5306SOL    HW127554   2.626   0.387   5.772  0.6648  1.6893  0.3862
 5306SOL    HW227555   2.597   0.498   5.671  0.0939  0.4165  0.4806
 5307SOL     OW27556   2.074   0.939   3.894 -0.3123 -0.1870 -0.3962
 5307SOL    HW127557   2.053   0.864   3.950  0.6037 -0.3743 -0.3026
 5307SOL    HW227558   2.163   0.966   3.918 -0.8691  1.1785  0.1136
 5308SOL     OW27559   3.227   4.725   5.182  0.0966  0.5010 -0.5435
 5308SOL    HW127560   3.140   4.699   5.151  0.8176 -2.0790 -0.4223
 5308SOL    HW227561   3.283   4.659   5.142 -1.7398 -1.1329 -0.4471
 5309SOL     OW27562   3.814   4.644   2.495 -0.1058  0.4127 -0.4714
 5309SOL    HW127563   3.817   4.615   2.404  0.9313 -0.7354 -0.0624
 5309SOL    HW227564   3.745   4.583   2.522  1.1939 -1.1688 -0.7968
 5310SOL     OW27565   4.450   3.220   7.708 -0.2098 -0.3507 -0.3187
 5310SOL    HW127566   4.524   3.188   7.656  0.8061  2.0520 -0.3371
 5310SOL    HW227567   4.469   3.312   7.691 -2.5184  0.0682 -0.6196
 5311SOL     OW27568   1.368   1.797   6.612  0.5977  0.5439  0.0033
 5311SOL    HW127569   1.421   1.834   6.682  0.6258 -0.7580  0.6723
 5311SOL    HW227570   1.415   1.832   6.536  0.1623 -1.4272 -1.1799
 5312SOL     OW27571   4.089   3.668   7.559  0.0696 -0.5073 -0.2139
 5312SOL    HW127572   4.044   3.604   7.614  0.7989  0.2726  1.2945
 5312SOL    HW227573   4.173   3.624   7.543  0.4018 -0.4611  1.4287
 5313SOL     OW27574   4.304   1.002   7.932  0.6583 -0.3813  0.2391
 5313SOL    HW127575   4.324   0.927   7.876 -2.1268 -1.1475  0.3082
 5313SOL    HW227576   4.218   1.026   7.897 -0.3162 -0.1796  2.8014
 5314SOL     OW27577   0.754   1.537  16.511  0.8536  0.0735  0.8868
 5314SOL    HW127578   0.797   1.453  16.526 -0.2098 -0.7119 -0.4528
 5314SOL    HW227579   0.789   1.581  16.588  0.7306  0.6191  0.6330
 5315SOL     OW27580   1.728   1.639   5.535  1.0560 -0.5422  0.7448
 5315SOL    HW127581   1.781   1.582   5.479 -0.1663 -0.5327 -0.4382
 5315SOL    HW227582   1.792   1.696   5.577  1.1491 -1.2680  1.5865
 5316SOL     OW27583   4.416   4.612   8.854  0.3550 -0.0378 -0.4820
 5316SOL    HW127584   4.447   4.666   8.781 -1.1443 -0.3667 -1.3655
 5316SOL    HW227585   4.343   4.669   8.879 -0.3528 -0.5551 -1.3531
 5317SOL     OW27586   3.517   2.062   5.126  0.2491  0.0085 -0.4352
 5317SOL    HW127587   3.495   1.972   5.101  1.0049  0.0045 -1.0896
 5317SOL    HW227588   3.577   2.053   5.200  0.0849 -0.6827 -0.3818
 5318SOL     OW27589   1.984   1.085  11.276 -0.3226 -0.3490  0.1413
 5318SOL    HW127590   1.958   0.996  11.301  2.7699 -1.2305  0.2025
 5318SOL    HW227591   2.074   1.061  11.297  0.1075 -0.0921 -1.4318
 5319SOL     OW27592   4.497   2.306   6.389  0.0499  0.0551  0.3164
 5319SOL    HW127593   4.579   2.286   6.345  0.8466 -0.2569  1.9177
 5319SOL    HW227594   4.435   2.261   6.332  0.4355 -0.1241  0.0401
 5320SOL     OW27595   0.418   4.238   4.088  0.1280  0.3259 -0.4336
 5320SOL    HW127596   0.447   4.225   3.998  2.1455 -3.1635  0.6892
 5320SOL    HW227597   0.327   4.210   4.087  0.5737 -1.1842  0.6458
 5321SOL     OW27598   0.741   4.720  14.450  0.5270  0.4224  0.2519
 5321SOL    HW127599   0.695   0.032  14.384  1.1871  1.7231  0.7963
 5321SOL    HW227600   0.800   0.038  14.500  0.7252  0.3619  0.0882
 5322SOL     OW27601   0.768   0.354   8.087 -0.1040  0.2145 -0.1887
 5322SOL    HW127602   0.818   0.331   8.165  1.4190  0.3622 -1.1316
 5322SOL    HW227603   0.837   0.409   8.052  0.1814 -0.9696 -1.4906
 5323SOL     OW27604   3.986   2.226   7.888  0.3477 -0.3666  0.9687
 5323SOL    HW127605   4.050   2.294   7.866 -1.1502  0.5361 -0.6236
 5323SOL    HW227606   3.939   2.271   7.958 -1.1765  0.0278 -0.3160
 5324SOL     OW27607   0.971   0.076   1.257 -0.5504 -0.1911  0.3940
 5324SOL    HW127608   0.926   0.161   1.257 -1.2655 -0.5738  1.0711
 5324SOL    HW227609   0.967   0.067   1.352 -1.7475 -0.7759  0.2973
 5325SOL     OW27610   4.300   4.466   5.184 -0.7280 -0.7361  0.1910
 5325SOL    HW127611   4.385   4.443   5.148 -1.2199 -1.0887 -0.7396
 5325SOL    HW227612   4.288   4.381   5.227 -0.1318 -1.1533 -0.4826
 5326SOL     OW27613   0.526   2.065   6.891  0.1724 -0.4871 -0.0819
 5326SOL    HW127614   0.549   2.131   6.957  0.5138 -1.3870  0.7002
 5326SOL    HW227615   0.602   2.055   6.835  0.0982 -1.1316 -0.0633
 5327SOL     OW27616   1.418   2.113   5.819  0.2306  0.2130 -0.5681
 5327SOL    HW127617   1.341   2.076   5.776  1.0716  1.0117 -2.7558
 5327SOL    HW227618   1.407   2.053   5.893 -1.2866 -1.8005 -2.4197
 5328SOL     OW27619   2.028   3.731  11.401  0.2559  0.2469 -0.1630
 5328SOL    HW127620   2.088   3.695  11.467  1.8062  0.2151 -1.6097
 5328SOL    HW227621   1.993   3.662  11.345 -2.1764 -0.5371  2.2619
 5329SOL     OW27622   0.437   4.389   4.960 -0.2093  0.1607 -0.0142
 5329SOL    HW127623   0.444   4.356   4.870  1.0513 -0.4470  0.3092
 5329SOL    HW227624   0.357   4.341   4.984  1.1529 -0.9638  2.2090
 5330SOL     OW27625   4.208   3.780   8.966 -0.0893  0.1562 -0.5566
 5330SOL    HW127626   4.140   3.818   9.022  0.9865 -2.0905  2.2754
 5330SOL    HW227627   4.240   3.863   8.930 -0.1392  0.4853  0.1474
 5331SOL     OW27628   2.952   3.929  14.419 -0.4239 -0.0688 -0.1237
 5331SOL    HW127629   2.995   4.002  14.464 -3.1748 -0.4951  3.2284
 5331SOL    HW227630   2.957   3.851  14.474 -0.2875 -1.5689 -2.2682
 5332SOL     OW27631   3.248   2.245   4.825 -0.3208 -0.2474  0.3583
 5332SOL    HW127632   3.326   2.225   4.773 -0.3377  2.2691 -0.6248
 5332SOL    HW227633   3.285   2.262   4.911  2.5916 -1.7262 -0.6113
 5333SOL     OW27634   2.473   0.299  11.059 -0.1472  0.0383  0.0515
 5333SOL    HW127635   2.547   0.268  11.006  0.1013  0.2551  0.2683
 5333SOL    HW227636   2.485   0.393  11.044  0.9046 -0.3768 -1.8068
 5334SOL     OW27637   4.425   4.022   9.128 -0.0993  0.1591  0.2617
 5334SOL    HW127638   4.374   3.956   9.176  2.5236 -1.3623  0.9542
 5334SOL    HW227639   4.457   4.081   9.195 -0.0032  0.6698 -0.2345
 5335SOL     OW27640   4.351   1.429   4.914  0.4393  0.2668  0.6562
 5335SOL    HW127641   4.296   1.435   4.992 -0.1049 -1.8533  0.4250
 5335SOL    HW227642   4.295   1.391   4.846 -1.0905 -4.0244  4.3055
 5336SOL     OW27643   1.816   1.762   8.831 -0.0650  0.1493  0.1893
 5336SOL    HW127644   1.742   1.793   8.883  0.1530  1.2276 -0.1382
 5336SOL    HW227645   1.777   1.718   8.756  1.4237  1.3988 -1.2958
 5337SOL     OW27646   3.334   1.130   3.813  0.2470  0.5400 -0.8295
 5337SOL    HW127647   3.250   1.158   3.848  0.3785 -2.3201  1.7594
 5337SOL    HW227648   3.377   1.202   3.767 -1.0927  0.1825 -2.6342
 5338SOL     OW27649   1.401   4.244   2.749 -0.0587 -0.4193  0.4277
 5338SOL    HW127650   1.403   4.192   2.669  1.5504 -0.0747  0.2496
 5338SOL    HW227651   1.475   4.303   2.735 -1.8563  1.5738 -0.7832
 5339SOL     OW27652   2.194   1.496   4.828  0.1108  0.1626  0.1334
 5339SOL    HW127653   2.244   1.575   4.809 -0.2870  0.3362 -0.1849
 5339SOL    HW227654   2.150   1.522   4.909 -2.1535 -1.4890 -0.5895
 5340SOL     OW27655   3.088   0.828   7.809  0.3650  0.4236  0.1364
 5340SOL    HW127656   3.160   0.781   7.852 -0.5305 -2.5320 -1.6177
 5340SOL    HW227657   3.099   0.913   7.853  1.2516 -0.2838  1.2965
 5341SOL     OW27658   4.240   3.666  14.390 -0.2760  0.2894 -0.1341
 5341SOL    HW127659   4.309   3.726  14.419 -0.1756  1.2998 -2.4816
 5341SOL    HW227660   4.169   3.725  14.414  0.5875  0.8638  1.0348
 5342SOL     OW27661   1.654   1.898   9.026  0.1133 -0.6020  0.5746
 5342SOL    HW127662   1.561   1.913   9.046  0.1690  0.4297  0.0615
 5342SOL    HW227663   1.691   1.986   9.019  1.7035 -1.2240  1.2518
 5343SOL     OW27664   3.460   4.651   7.095  0.1388 -0.0814 -0.1911
 5343SOL    HW127665   3.411   4.711   7.040 -1.0135  0.8500  1.8542
 5343SOL    HW227666   3.523   4.615   7.033  0.4247 -1.1068  0.6907
 5344SOL     OW27667   1.269   2.551   3.382 -0.3372  0.0637  0.0824
 5344SOL    HW127668   1.200   2.578   3.442 -0.4119  0.4551 -0.1831
 5344SOL    HW227669   1.341   2.598   3.423 -0.6457  0.8888 -0.3349
 5345SOL     OW27670   0.741   0.884   7.822  0.4787 -0.2566  0.3560
 5345SOL    HW127671   0.779   0.897   7.909  1.9060 -0.5539 -0.2214
 5345SOL    HW227672   0.704   0.795   7.824 -0.4788  0.1774  1.4234
 5346SOL     OW27673   0.218   3.052  15.370 -0.2721 -0.4408  0.0428
 5346SOL    HW127674   0.295   3.040  15.426 -2.6470 -2.1908  2.9184
 5346SOL    HW227675   0.170   2.976  15.403 -0.9501 -0.6658 -1.4342
 5347SOL     OW27676   4.047   3.921   9.139 -0.5686 -0.1862  0.0276
 5347SOL    HW127677   4.103   3.875   9.202 -1.2617 -0.8875  0.1322
 5347SOL    HW227678   4.026   4.005   9.180 -0.0801 -0.0871  0.0743
 5348SOL     OW27679   4.365   1.579   6.178 -0.2402 -0.7669 -0.5613
 5348SOL    HW127680   4.446   1.547   6.218  0.5665  2.8936  0.7123
 5348SOL    HW227681   4.399   1.641   6.113  0.8497 -0.1840  0.5851
 5349SOL     OW27682   0.712   3.106   2.582  0.0351  0.2662 -0.0616
 5349SOL    HW127683   0.702   3.201   2.581 -1.5688  0.0828 -1.5951
 5349SOL    HW227684   0.714   3.092   2.677  0.3514 -1.7963 -0.3631
 5350SOL     OW27685   2.982   4.631   9.674  0.6109 -0.3797  0.1969
 5350SOL    HW127686   2.986   4.537   9.688 -1.0648 -0.0086  3.3427
 5350SOL    HW227687   3.036   4.664   9.746  1.9777 -2.3241  0.0528
 5351SOL     OW27688   1.752   2.195   1.353  0.3236  0.1777 -0.5922
 5351SOL    HW127689   1.817   2.137   1.392 -0.4003 -0.0017  0.3443
 5351SOL    HW227690   1.668   2.148   1.349 -1.1613  2.7317  0.0720
 5352SOL     OW27691   4.597   1.017   0.167 -0.2143 -0.0069  0.3895
 5352SOL    HW127692   4.672   1.076   0.154 -0.1678  0.2608  1.9471
 5352SOL    HW227693   4.615   0.956   0.095 -1.6074 -1.3659  1.2309
 5353SOL     OW27694   2.197   1.979   5.467 -0.3174  0.4981 -0.1011
 5353SOL    HW127695   2.152   2.024   5.539  1.1245 -2.4383  2.6590
 5353SOL    HW227696   2.282   2.022   5.457 -0.2832  0.6807  0.9409
 5354SOL     OW27697   1.595   1.111   4.499  0.1210 -0.4997  0.0598
 5354SOL    HW127698   1.570   1.026   4.462  2.1324 -0.9324 -0.3327
 5354SOL    HW227699   1.609   1.158   4.417 -0.3777 -1.3173 -0.4935
 5355SOL     OW27700   3.742   4.460  14.233  0.3274 -0.0386  0.0732
 5355SOL    HW127701   3.657   4.422  14.213 -0.8801  2.2694  0.7996
 5355SOL    HW227702   3.795   4.403  14.177  1.3303  0.7231  0.2567
 5356SOL     OW27703   1.691   0.754   8.471 -0.1679 -0.4268  0.1869
 5356SOL    HW127704   1.695   0.821   8.403  1.6935 -0.5982  0.1247
 5356SOL    HW227705   1.735   0.679   8.431  1.0215  0.4531 -0.1689
 5357SOL     OW27706   4.334   2.131   7.916 -0.6769  0.3121  0.0185
 5357SOL    HW127707   4.356   2.213   7.960 -0.9154 -0.1422  1.0035
 5357SOL    HW227708   4.417   2.087   7.931 -0.2012  1.7512  1.6918
 5358SOL     OW27709   0.847   1.494   4.449  0.9805 -0.3389  0.0623
 5358SOL    HW127710   0.808   1.580   4.465  1.3904 -0.5399  2.1511
 5358SOL    HW227711   0.843   1.450   4.534  1.6501 -0.3607  0.0854
 5359SOL     OW27712   2.193   2.644   6.827  0.1558 -0.4952  0.1818
 5359SOL    HW127713   2.144   2.726   6.834 -1.2811 -1.4093  0.9896
 5359SOL    HW227714   2.117   2.585   6.818 -0.2523  0.1948 -0.8438
 5360SOL     OW27715   0.267   2.618   5.558 -0.9444  0.3290  0.2039
 5360SOL    HW127716   0.262   2.709   5.531 -0.6203  0.2809 -0.0231
 5360SOL    HW227717   0.248   2.579   5.472 -1.6878  1.0374  0.0490
 5361SOL     OW27718   4.478   1.919   8.760 -0.0416  0.1848 -0.8888
 5361SOL    HW127719   4.414   1.971   8.711 -1.6284 -1.1738 -0.2239
 5361SOL    HW227720   4.408   1.886   8.816 -1.5890 -2.9815 -4.6708
 5362SOL     OW27721   0.550   3.359   2.134  0.0940  0.1711  0.3678
 5362SOL    HW127722   0.644   3.342   2.141  0.1164  0.0269 -0.3249
 5362SOL    HW227723   0.515   3.269   2.138 -0.8414  0.5302  0.1838
 5363SOL     OW27724   3.554   2.357  15.259  0.0520  0.0447  0.6842
 5363SOL    HW127725   3.618   2.322  15.320 -0.0358 -1.7595 -0.2686
 5363SOL    HW227726   3.485   2.291  15.267 -0.2614  0.0006 -2.2154
 5364SOL     OW27727   2.638   1.321   1.852  0.4808  0.0580 -0.2470
 5364SOL    HW127728   2.643   1.225   1.854 -1.8544 -0.0808 -0.8640
 5364SOL    HW227729   2.564   1.331   1.791  0.9293 -0.8938 -0.9439
 5365SOL     OW27730   3.086   2.584  14.988 -0.2655  0.2234 -0.0376
 5365SOL    HW127731   3.147   2.541  15.049  1.6678  2.8965 -0.0748
 5365SOL    HW227732   3.076   2.672  15.023 -0.1945  0.8359 -1.5889
 5366SOL     OW27733   2.292   2.958   6.662  0.2639  0.2331 -0.4705
 5366SOL    HW127734   2.373   2.958   6.713 -0.2647  3.3699  0.3514
 5366SOL    HW227735   2.278   3.052   6.654  3.7786  0.6218 -1.7971
 5367SOL     OW27736   2.883   2.825   5.955 -0.0686  0.1117  0.0038
 5367SOL    HW127737   2.814   2.879   5.993 -0.4906 -0.8357  0.5837
 5367SOL    HW227738   2.960   2.870   5.990 -0.1453  0.9743 -0.9246
 5368SOL     OW27739   0.429   3.602   4.989 -0.0010 -0.1128  0.1478
 5368SOL    HW127740   0.451   3.628   5.078  0.1933  1.5755 -0.3877
 5368SOL    HW227741   0.365   3.532   4.997 -0.1268  0.0836  0.8377
 5369SOL     OW27742   4.462   2.575   7.453 -0.0417 -0.3299 -0.4034
 5369SOL    HW127743   4.407   2.609   7.381 -1.9687  0.6223  1.5148
 5369SOL    HW227744   4.453   2.481   7.438 -2.4812 -0.2402  0.5220
 5370SOL     OW27745   4.209   1.278   0.323 -0.3944  0.0226 -0.3780
 5370SOL    HW127746   4.252   1.297   0.407  0.4629 -0.6796 -0.6609
 5370SOL    HW227747   4.127   1.248   0.362 -1.3974  3.3357  0.1055
 5371SOL     OW27748   4.441   3.526   6.981  0.3682 -0.5078 -0.4507
 5371SOL    HW127749   4.470   3.614   7.006  0.1546 -0.4997 -0.2354
 5371SOL    HW227750   4.525   3.486   6.958  1.3365  0.7673  0.8688
 5372SOL     OW27751   2.076   3.920   0.292 -0.2976 -0.1792  0.2130
 5372SOL    HW127752   2.160   3.928   0.337  1.1896 -0.2210 -2.5499
 5372SOL    HW227753   2.063   4.010   0.262 -1.3277 -0.8982 -1.5424
 5373SOL     OW27754   4.455   1.632   3.923  1.2542  0.2620  0.4675
 5373SOL    HW127755   4.459   1.612   3.830  0.3618  0.2239  0.4359
 5373SOL    HW227756   4.522   1.700   3.933 -0.7569  2.2724  0.4395
 5374SOL     OW27757   3.080   4.626   5.897  0.3205  0.5945  0.5746
 5374SOL    HW127758   3.109   4.696   5.954  1.8625 -1.5530  2.4039
 5374SOL    HW227759   3.160   4.598   5.852  0.2168 -0.7259  1.2019
 5375SOL     OW27760   0.883   4.185   3.014 -0.2833 -0.0440  0.4619
 5375SOL    HW127761   0.920   4.269   3.044  0.3834 -0.4889  0.8855
 5375SOL    HW227762   0.933   4.168   2.934  0.3679  1.6354  0.5098
 5376SOL     OW27763   4.060   2.370  10.232 -0.2739  0.2484 -0.1747
 5376SOL    HW127764   4.077   2.369  10.138  1.0143  0.4860  0.0695
 5376SOL    HW227765   4.090   2.459  10.248  2.9368 -1.3695  2.5790
 5377SOL     OW27766   0.884   1.154   3.744  0.3171  0.5428  0.1816
 5377SOL    HW127767   0.826   1.200   3.683  0.1611  1.5199  1.0811
 5377SOL    HW227768   0.901   1.226   3.804 -0.0521 -0.6491  1.7203
 5378SOL     OW27769   1.912   0.737   2.719  0.0174 -0.2596 -0.3907
 5378SOL    HW127770   2.005   0.741   2.739  0.2320  0.8145 -1.5823
 5378SOL    HW227771   1.889   0.671   2.784  0.3697  2.1783  2.2148
 5379SOL     OW27772   1.239   0.660   4.175  0.0639 -0.1804  0.1140
 5379SOL    HW127773   1.166   0.722   4.170  0.3864  0.1203 -1.0238
 5379SOL    HW227774   1.185   0.581   4.180 -0.1141 -0.0523  0.2379
 5380SOL     OW27775   0.116   1.860   9.924 -0.1848 -0.0922 -0.4041
 5380SOL    HW127776   0.165   1.778   9.929 -1.7726 -1.0072  0.0426
 5380SOL    HW227777   0.104   1.894  10.012  0.8312  1.8020 -0.9905
 5381SOL     OW27778   1.071   2.358   3.980 -0.2380 -0.1044 -0.0154
 5381SOL    HW127779   1.057   2.352   4.075  0.5744 -0.7873  0.0601
 5381SOL    HW227780   1.119   2.276   3.968 -0.5645 -0.3624  0.4326
 5382SOL     OW27781   2.477   2.822  17.537 -0.8264  0.1085 -0.0208
 5382SOL    HW127782   2.534   2.754  17.573  0.6601  1.0250 -0.6290
 5382SOL    HW227783   2.497   2.838  17.445 -1.0489  2.7262  0.3662
 5383SOL     OW27784   3.666   0.127   6.883  0.0502  0.8103 -0.1814
 5383SOL    HW127785   3.648   0.171   6.965 -0.3026 -4.5200  2.5893
 5383SOL    HW227786   3.579   0.118   6.845  0.1242 -2.0682  0.3576
 5384SOL     OW27787   3.971   3.004   3.216 -0.0776  0.2825 -0.3966
 5384SOL    HW127788   3.894   3.020   3.271 -0.2414  0.1542 -0.5880
 5384SOL    HW227789   4.038   3.050   3.266  0.3787  0.3987 -1.1089
 5385SOL     OW27790   2.107   3.851  12.904 -0.4811 -0.5182  0.1842
 5385SOL    HW127791   2.082   3.888  12.989 -0.5958 -2.5772  1.0385
 5385SOL    HW227792   2.184   3.906  12.890 -1.3779  0.1386 -2.0329
 5386SOL     OW27793   0.804   1.788  10.888 -0.3723  0.1183 -0.2335
 5386SOL    HW127794   0.843   1.873  10.906 -1.3155  0.2479  1.2462
 5386SOL    HW227795   0.849   1.773  10.805  1.6436  0.0905  0.8691
 5387SOL     OW27796   1.131   0.472   7.764  0.1352 -0.3036 -0.0152
 5387SOL    HW127797   1.087   0.554   7.741  0.4045 -0.3264 -0.6072
 5387SOL    HW227798   1.060   0.439   7.819  1.7663 -0.6757  1.8598
 5388SOL     OW27799   1.535   1.824  13.571 -0.1479  0.1091  0.1770
 5388SOL    HW127800   1.446   1.824  13.606 -0.4383  0.9031 -0.5520
 5388SOL    HW227801   1.527   1.906  13.522  0.9972 -0.1939 -0.5163
 5389SOL     OW27802   2.283   4.712   8.875 -0.2217 -0.1505  0.2040
 5389SOL    HW127803   2.311   4.621   8.878 -1.6555 -0.5707  0.7534
 5389SOL    HW227804   2.370   0.013   8.880 -0.0002 -0.5749 -0.3137
 5390SOL     OW27805   2.833   2.266   6.725 -1.0971  0.0857 -0.0378
 5390SOL    HW127806   2.772   2.244   6.796 -0.8776  1.3587  0.5314
 5390SOL    HW227807   2.824   2.191   6.665 -2.0770  1.4171 -1.5599
 5391SOL     OW27808   2.601   0.870   4.978  0.2548  0.1612  0.2514
 5391SOL    HW127809   2.570   0.960   4.990 -1.3075 -0.1450 -1.4436
 5391SOL    HW227810   2.520   0.828   4.948  1.4993 -1.5211 -0.7439
 5392SOL     OW27811   0.833   2.355   8.679 -0.2372 -0.2270  0.0176
 5392SOL    HW127812   0.798   2.269   8.703  0.5280 -1.2505 -2.5328
 5392SOL    HW227813   0.795   2.419   8.738  1.7618  0.8927  0.0915
 5393SOL     OW27814   1.356   3.709   7.128 -0.1639  0.5153  0.3445
 5393SOL    HW127815   1.306   3.667   7.058  2.4431 -0.8352 -0.7165
 5393SOL    HW227816   1.444   3.721   7.092 -0.4974  0.4226 -0.5003
 5394SOL     OW27817   1.470   1.795   7.086  0.0321 -0.3146  0.2331
 5394SOL    HW127818   1.531   1.751   7.027  0.0635  0.1397 -0.0728
 5394SOL    HW227819   1.524   1.872   7.104  2.0567 -2.0709  1.7146
 5395SOL     OW27820   2.320   0.981  17.669  1.0104  0.0800  0.5990
 5395SOL    HW127821   2.308   0.886  17.661 -2.4930  0.3546  2.4200
 5395SOL    HW227822   2.360   1.001  17.584  1.3484  0.3761  0.8283
 5396SOL     OW27823   1.323   4.599   7.062  0.1305 -0.2975  0.2934
 5396SOL    HW127824   1.282   4.655   7.129  1.6325  0.5035  0.5381
 5396SOL    HW227825   1.255   4.546   7.020 -0.7045  0.9987  0.0094
 5397SOL     OW27826   2.171   3.636  12.723  0.0651 -0.2750  0.2783
 5397SOL    HW127827   2.147   3.696  12.794  3.1403  0.5236  0.6436
 5397SOL    HW227828   2.264   3.619  12.741 -0.4743 -1.6559  1.7665
 5398SOL     OW27829   3.411   2.501  10.418 -0.2648 -0.3987 -0.3008
 5398SOL    HW127830   3.324   2.498  10.379 -0.1882 -0.4319 -0.4712
 5398SOL    HW227831   3.436   2.593  10.414 -1.0307 -0.2315 -1.1921
 5399SOL     OW27832   0.615   3.282  14.596  0.2433  0.9364  0.1671
 5399SOL    HW127833   0.604   3.197  14.637  0.7409  1.0796  0.6043
 5399SOL    HW227834   0.613   3.261  14.503  0.3849  2.8820 -0.2935
 5400SOL     OW27835   0.039   3.416   5.953 -0.6272  0.2776  0.3103
 5400SOL    HW127836   4.714   3.434   6.022  1.7942 -0.9264  2.8184
 5400SOL    HW227837   0.010   3.328   5.930  0.8603  0.6169 -2.8144
 5401SOL     OW27838   0.777   4.517   3.606  0.0553  0.5341 -0.5290
 5401SOL    HW127839   0.781   4.483   3.517  0.9266 -0.2543 -0.1839
 5401SOL    HW227840   0.746   4.607   3.594 -0.6609 -0.0373 -2.9021
 5402SOL     OW27841   1.361   3.694   3.497 -0.5008  0.5483  0.4394
 5402SOL    HW127842   1.269   3.674   3.483 -0.1523  0.3085 -1.5178
 5402SOL    HW227843   1.386   3.723   3.409 -4.0556  1.2446 -0.3283
 5403SOL     OW27844   0.974   2.127   8.083  0.5249  0.0380  0.5624
 5403SOL    HW127845   1.014   2.131   7.996 -0.2625  0.2072  0.2016
 5403SOL    HW227846   1.049   2.115   8.141 -0.0916  3.1594  1.9796
 5404SOL     OW27847   2.738   2.838  11.792 -0.2486  0.4614 -0.2366
 5404SOL    HW127848   2.671   2.882  11.739 -2.2558 -0.8659  1.1654
 5404SOL    HW227849   2.688   2.788  11.857 -1.1989 -0.2376 -1.5120
 5405SOL     OW27850   4.410   3.520  10.716  0.5464 -0.6678 -0.1064
 5405SOL    HW127851   4.499   3.527  10.681  1.2936 -1.6588  1.6547
 5405SOL    HW227852   4.434   3.467  10.791  1.4574 -0.0306  0.0536
 5406SOL     OW27853   2.681   3.585  11.324  0.4461  0.6037  0.3622
 5406SOL    HW127854   2.746   3.589  11.253  0.6688 -1.2389  0.4454
 5406SOL    HW227855   2.718   3.520  11.384 -1.2352 -0.9672 -0.3041
 5407SOL     OW27856   0.258   2.817  14.958  0.1398  0.9694 -0.3480
 5407SOL    HW127857   0.288   2.770  15.036 -2.0136  3.0649  1.6977
 5407SOL    HW227858   0.278   2.907  14.981 -1.3606  1.6276 -1.6203
 5408SOL     OW27859   3.119   4.409   4.091 -0.5477 -0.0713 -0.3072
 5408SOL    HW127860   3.130   4.369   4.004  0.0393 -0.8727  0.1423
 5408SOL    HW227861   3.076   4.491   4.067  1.0339  1.0029  0.5685
 5409SOL     OW27862   4.670   2.348   8.990 -0.8416  0.0153  0.5567
 5409SOL    HW127863   0.025   2.340   9.004 -0.3243  2.2101 -1.5527
 5409SOL    HW227864   4.660   2.327   8.897  0.7221 -0.2233  0.4441
 5410SOL     OW27865   0.337   4.326   2.144  0.6146  0.1304 -0.0121
 5410SOL    HW127866   0.401   4.289   2.084  0.1131  0.0214 -0.4839
 5410SOL    HW227867   0.258   4.327   2.089 -1.0718  1.0584  2.4304
 5411SOL     OW27868   0.365   3.867  11.407  0.2667 -0.3016  0.2481
 5411SOL    HW127869   0.277   3.901  11.425 -0.1772 -0.5902 -1.3932
 5411SOL    HW227870   0.403   3.913  11.481  0.5856 -0.5333  0.2273
 5412SOL     OW27871   3.775   4.113   7.853 -0.2717  0.6697 -0.0606
 5412SOL    HW127872   3.837   4.046   7.826  0.9782  0.8745  2.3008
 5412SOL    HW227873   3.835   4.180   7.885  0.1935  1.9458 -3.5899
 5413SOL     OW27874   3.304   4.027  12.768 -0.0487 -0.2019 -0.4498
 5413SOL    HW127875   3.343   4.115  12.775  1.8305 -1.1937  1.2894
 5413SOL    HW227876   3.268   4.013  12.855  0.7209 -0.3849 -0.1639
 5414SOL     OW27877   0.347   1.845   8.685 -0.2734 -0.0843 -0.1980
 5414SOL    HW127878   0.401   1.869   8.761 -0.5937 -0.2106  0.0714
 5414SOL    HW227879   0.338   1.750   8.693  0.8646 -0.0011  2.2059
 5415SOL     OW27880   2.485   4.339  13.409  0.3163 -0.1480  0.3416
 5415SOL    HW127881   2.454   4.374  13.492  1.1757 -0.6028  0.8646
 5415SOL    HW227882   2.559   4.400  13.411  2.9263 -3.2924 -0.1147
 5416SOL     OW27883   0.923   4.647   8.320 -0.7341  0.0218 -0.1294
 5416SOL    HW127884   0.847   4.663   8.264 -1.8299 -0.0334  1.3481
 5416SOL    HW227885   0.906   4.565   8.367 -1.3785 -0.3781 -1.0473
 5417SOL     OW27886   4.500   1.050   1.487  0.3609 -0.0867 -0.2838
 5417SOL    HW127887   4.508   0.998   1.567 -2.0360  0.1264  0.1182
 5417SOL    HW227888   4.511   0.975   1.429 -1.6572 -0.8884  0.3756
 5418SOL     OW27889   1.421   0.947   8.771  0.1003  0.4921  0.4115
 5418SOL    HW127890   1.394   0.951   8.862 -1.6410  0.4699 -0.1066
 5418SOL    HW227891   1.352   0.987   8.718 -0.6993  0.7411  1.6585
 5419SOL     OW27892   0.428   4.573   2.218 -0.0496 -0.2932  0.0674
 5419SOL    HW127893   0.338   4.607   2.222 -0.9999 -3.0383  2.2985
 5419SOL    HW227894   0.414   4.483   2.190 -1.3621  0.0218 -0.3116
 5420SOL     OW27895   4.123   0.778   6.804  0.1249  0.5324 -0.5070
 5420SOL    HW127896   4.126   0.683   6.816 -3.3828  0.2234 -2.0868
 5420SOL    HW227897   4.106   0.800   6.895  2.2548  3.3346 -0.7760
 5421SOL     OW27898   4.164   1.603   6.954 -0.4061 -0.2002 -0.1596
 5421SOL    HW127899   4.214   1.524   6.971 -0.2621 -0.2568 -0.8516
 5421SOL    HW227900   4.192   1.635   6.868 -1.7369  0.3555 -0.3960
 5422SOL     OW27901   2.711   3.167  14.325 -0.3808  0.1938 -0.2898
 5422SOL    HW127902   2.786   3.107  14.330  0.9887  1.9348  0.1440
 5422SOL    HW227903   2.678   3.167  14.415 -0.5501 -0.3960 -0.3536
 5423SOL     OW27904   2.476   2.930   8.075 -0.4853  0.0182 -0.5182
 5423SOL    HW127905   2.472   2.900   7.985  0.7971  0.6620 -0.7873
 5423SOL    HW227906   2.505   3.022   8.071 -0.7398  0.0427 -1.6905
 5424SOL     OW27907   2.626   4.391   0.101 -0.6928 -0.1920  0.0095
 5424SOL    HW127908   2.659   4.401   0.012  1.1909 -2.0299  0.5124
 5424SOL    HW227909   2.678   4.313   0.118 -0.2002  0.0341 -0.4715
 5425SOL     OW27910   3.782   0.765   8.892 -0.5649  0.0246  0.0290
 5425SOL    HW127911   3.757   0.842   8.943 -0.5643 -0.7157  1.1698
 5425SOL    HW227912   3.877   0.771   8.904 -0.4293 -0.4485 -0.7896
 5426SOL     OW27913   0.351   0.455   9.699 -0.4768  0.2046 -0.0066
 5426SOL    HW127914   0.303   0.507   9.763  0.6022  1.4142 -0.1722
 5426SOL    HW227915   0.431   0.450   9.751  0.2171  2.4009 -0.8691
 5427SOL     OW27916   0.739   0.937   3.858  0.4063 -0.7762 -0.5792
 5427SOL    HW127917   0.798   1.012   3.853 -1.5839  0.8896  1.4030
 5427SOL    HW227918   0.795   0.880   3.804  2.4244  2.4961 -1.9560
 5428SOL     OW27919   4.014   3.111  17.241  0.1729 -0.1726  0.2186
 5428SOL    HW127920   3.999   3.045  17.309  1.3173  0.4842  1.1172
 5428SOL    HW227921   3.992   3.190  17.290 -2.3869 -1.8702  1.8292
 5429SOL     OW27922   2.495   1.812   3.537  0.5446  0.1471  0.6366
 5429SOL    HW127923   2.460   1.742   3.591  0.3844 -0.2663  0.0014
 5429SOL    HW227924   2.575   1.844   3.580  0.3120  0.7799  0.5973
 5430SOL     OW27925   1.685   1.364  15.778 -0.2885  0.0533 -0.4225
 5430SOL    HW127926   1.684   1.443  15.725 -0.4773  1.2460  1.3496
 5430SOL    HW227927   1.631   1.304  15.726  1.8445  0.2186 -2.7819
 5431SOL     OW27928   1.855   3.425  17.003 -0.4192  0.0013  0.3272
 5431SOL    HW127929   1.784   3.489  17.002 -0.2294  0.2073 -0.0230
 5431SOL    HW227930   1.905   3.444  17.081 -1.4037  1.1454  0.6720
 5432SOL     OW27931   1.500   1.587   5.762  0.1604  0.0346  0.4032
 5432SOL    HW127932   1.540   1.615   5.844 -2.0374 -0.0764  1.5237
 5432SOL    HW227933   1.575   1.586   5.703  0.6473  0.9707  1.0083
 5433SOL     OW27934   1.133   0.762   2.867 -0.0878  0.1086  0.3104
 5433SOL    HW127935   1.205   0.821   2.844  0.6720  0.1382  2.6764
 5433SOL    HW227936   1.059   0.796   2.818  0.6455  1.0639 -0.1394
 5434SOL     OW27937   1.801   2.230   5.528  0.1944  0.3445 -0.6559
 5434SOL    HW127938   1.797   2.221   5.624 -1.7033  0.6560 -0.7263
 5434SOL    HW227939   1.884   2.277   5.518  0.0181  0.3103 -2.2411
 5435SOL     OW27940   0.379   4.323  10.844  0.0156  0.1024 -0.1506
 5435SOL    HW127941   0.294   4.334  10.800  0.2110 -2.5069 -1.1748
 5435SOL    HW227942   0.368   4.230  10.864 -0.5160 -0.2180 -1.9179
 5436SOL     OW27943   1.768   4.622   3.981  0.5244 -0.0840 -0.5975
 5436SOL    HW127944   1.769   4.539   3.933 -0.2800 -0.1870 -0.4317
 5436SOL    HW227945   1.757   4.590   4.070 -1.8869 -0.9636 -1.2142
 5437SOL     OW27946   1.488   0.912  16.081  0.0579 -1.0380 -0.1868
 5437SOL    HW127947   1.514   0.983  16.140 -0.5678  0.5245 -1.7593
 5437SOL    HW227948   1.444   0.957  16.008 -0.5711 -1.1705  0.1166
 5438SOL     OW27949   0.096   2.757   7.477  0.4379 -0.2192 -0.0978
 5438SOL    HW127950   0.030   2.785   7.414  0.7963  0.5812 -0.1214
 5438SOL    HW227951   0.047   2.705   7.541 -0.2570 -0.6011 -0.9432
 5439SOL     OW27952   1.238   0.235   3.409  0.2899 -0.0086 -0.2632
 5439SOL    HW127953   1.161   0.230   3.353 -0.9987  3.8326  1.1555
 5439SOL    HW227954   1.304   0.254   3.342  1.4227  1.3508  1.2464
 5440SOL     OW27955   4.308   3.319   9.244 -0.0844 -0.1882 -0.6429
 5440SOL    HW127956   4.403   3.312   9.243  0.0069  0.9927 -0.5882
 5440SOL    HW227957   4.295   3.373   9.166  0.7080 -1.3732 -1.5875
 5441SOL     OW27958   3.783   0.120   2.252 -0.3136 -0.1822  0.2070
 5441SOL    HW127959   3.766   0.026   2.264 -0.3864 -0.1274  0.5413
 5441SOL    HW227960   3.692   0.146   2.269 -0.8153 -0.5186 -1.8888
 5442SOL     OW27961   4.441   2.037  10.882  0.5497 -0.1675  0.4126
 5442SOL    HW127962   4.488   2.009  10.804  2.0480 -0.8584  1.5604
 5442SOL    HW227963   4.389   2.110  10.848 -1.0187 -0.4315  2.2460
 5443SOL     OW27964   4.645   0.763  17.747  0.6447  0.5291  0.4157
 5443SOL    HW127965   4.702   0.720   0.057 -1.6976  1.1671  2.9973
 5443SOL    HW227966   4.697   0.770  17.668  0.4820 -1.5819  0.1391
 5444SOL     OW27967   3.446   3.174  14.776  0.4299  0.4589 -0.2236
 5444SOL    HW127968   3.376   3.180  14.711 -0.2543 -1.1822  0.3610
 5444SOL    HW227969   3.522   3.145  14.725  0.6062 -2.0841  1.4801
 5445SOL     OW27970   0.297   4.584   7.135 -0.1795  0.0736 -0.4126
 5445SOL    HW127971   0.256   4.498   7.142  0.5495 -0.1778  0.8369
 5445SOL    HW227972   0.298   4.609   7.228 -1.1475 -1.3979 -0.0189
 5446SOL     OW27973   1.115   2.764   4.375  0.0910 -0.7425  0.7271
 5446SOL    HW127974   1.148   2.841   4.328 -1.9199  0.3004  1.0208
 5446SOL    HW227975   1.026   2.796   4.389 -0.4636 -1.8347 -0.3394
 5447SOL     OW27976   3.558   2.684   4.797  0.5927 -0.0923  0.2137
 5447SOL    HW127977   3.586   2.769   4.832  0.3442 -0.2470  0.7938
 5447SOL    HW227978   3.598   2.616   4.852  0.3577  1.3708  2.1943
 5448SOL     OW27979   2.104   3.713   2.479 -0.7980  0.1790 -0.3300
 5448SOL    HW127980   2.118   3.628   2.436 -0.1244 -0.0875  0.4241
 5448SOL    HW227981   2.111   3.763   2.398 -1.4822 -0.1991 -0.6210
 5449SOL     OW27982   4.317   0.627   0.633 -0.2406 -1.0468 -0.1292
 5449SOL    HW127983   4.322   0.663   0.544  1.6264  1.1762  0.8992
 5449SOL    HW227984   4.234   0.580   0.625  0.0062 -1.2818 -1.3128
 5450SOL     OW27985   1.182   3.610  11.586  0.0934 -0.3888 -0.3813
 5450SOL    HW127986   1.115   3.670  11.552  0.0280  1.1753  2.4923
 5450SOL    HW227987   1.148   3.601  11.675  0.1111 -0.6595 -0.4029
 5451SOL     OW27988   0.500   4.323   8.506 -0.2374  0.5345 -0.0782
 5451SOL    HW127989   0.441   4.396   8.491 -0.4241  0.4346  0.1759
 5451SOL    HW227990   0.548   4.319   8.423 -2.0478  0.6182 -1.1161
 5452SOL     OW27991   0.890   4.607   4.108 -0.0117 -0.0709 -0.3919
 5452SOL    HW127992   0.834   4.562   4.045 -1.2003  0.0193  0.6152
 5452SOL    HW227993   0.826   4.623   4.177  2.2529  2.8967  1.0349
 5453SOL     OW27994   3.286   2.470   9.563  0.1281 -0.0917 -0.1105
 5453SOL    HW127995   3.338   2.548   9.544  0.6531 -0.2756  0.5876
 5453SOL    HW227996   3.216   2.495   9.624  0.6203 -1.7420  1.1199
 5454SOL     OW27997   4.238   3.967  12.741 -0.3440 -0.0460 -0.0950
 5454SOL    HW127998   4.149   3.987  12.768 -1.3209 -1.6472 -2.0891
 5454SOL    HW227999   4.273   4.056  12.744 -0.8890  0.2338 -1.6981
 5455SOL     OW28000   2.826   0.767   9.669  0.0167  0.0746 -0.5645
 5455SOL    HW128001   2.811   0.685   9.717 -1.0623  0.3120 -0.5051
 5455SOL    HW228002   2.746   0.813   9.693  0.2373  0.3146 -0.2915
 5456SOL     OW28003   1.907   4.522   5.953  0.2195  0.1500 -0.1558
 5456SOL    HW128004   1.871   4.433   5.956  1.0428 -0.1747  0.1044
 5456SOL    HW228005   1.847   4.559   6.018  0.2952  0.0585 -0.0330
 5457SOL     OW28006   1.351   4.194  17.447  0.0322 -0.4492 -0.0555
 5457SOL    HW128007   1.425   4.147  17.409  0.7447  0.9156 -0.3494
 5457SOL    HW228008   1.305   4.134  17.506 -1.1925 -1.1907 -1.7691
 5458SOL     OW28009   2.901   0.876   1.044  0.1945  0.5109  0.7040
 5458SOL    HW128010   2.903   0.859   1.138  0.2921 -0.8057  0.4648
 5458SOL    HW228011   2.860   0.797   1.007  1.2889  1.9378 -3.5871
 5459SOL     OW28012   1.817   1.175   3.025 -0.5884  0.1914 -0.2668
 5459SOL    HW128013   1.878   1.153   2.954 -1.1397  2.0491 -1.3355
 5459SOL    HW228014   1.834   1.105   3.088  0.8217 -0.2687 -1.1568
 5460SOL     OW28015   0.144   3.886   8.285 -0.2079 -0.0620 -0.3645
 5460SOL    HW128016   0.185   3.965   8.319 -1.1577  0.3612 -0.2000
 5460SOL    HW228017   0.057   3.919   8.261 -0.4166 -0.1771  0.2364
 5461SOL     OW28018   2.958   2.929   3.861 -0.0181  0.0200 -0.2006
 5461SOL    HW128019   2.864   2.915   3.869  0.2982 -2.4250 -0.9130
 5461SOL    HW228020   2.966   2.943   3.766 -1.7245 -1.3796 -0.5412
 5462SOL     OW28021   3.661   2.387   5.503  0.1673  0.0572 -0.1621
 5462SOL    HW128022   3.639   2.434   5.583  1.0725  0.8833 -0.3912
 5462SOL    HW228023   3.750   2.359   5.525 -0.2013 -1.0699 -0.0971
 5463SOL     OW28024   3.564   4.677   7.328 -0.0569 -0.2943 -0.3560
 5463SOL    HW128025   3.575   4.661   7.234  1.7582  0.1306 -0.2103
 5463SOL    HW228026   3.548   4.586   7.356  0.2512 -0.1344  0.3449
 5464SOL     OW28027   1.668   4.510   2.996  0.0620  0.2027  0.5696
 5464SOL    HW128028   1.660   4.582   3.058  2.1100 -0.0251  1.0989
 5464SOL    HW228029   1.738   4.454   3.029 -1.2227 -2.7288 -1.6130
 5465SOL     OW28030   3.237   4.666   3.737  0.0284  0.3790 -0.3331
 5465SOL    HW128031   3.286   4.683   3.656 -1.0626 -1.0545 -1.3025
 5465SOL    HW228032   3.164   4.619   3.697  0.2566  1.2506 -1.7725
 5466SOL     OW28033   0.481   2.417   8.559  0.7536 -0.8178  0.5461
 5466SOL    HW128034   0.392   2.410   8.526  0.4846 -1.6303  1.4649
 5466SOL    HW228035   0.540   2.425   8.484 -0.2501  1.5477  0.0139
 5467SOL     OW28036   3.091   2.939   9.910  0.1667 -0.0850 -0.3543
 5467SOL    HW128037   3.166   2.964   9.855  0.4645 -0.5817 -0.1776
 5467SOL    HW228038   3.028   2.909   9.844  0.1090  0.9874 -0.7758
 5468SOL     OW28039   0.911   0.830  16.979 -0.6612  0.0298 -0.5984
 5468SOL    HW128040   0.934   0.764  17.045  0.0369  2.3174  1.4416
 5468SOL    HW228041   0.955   0.909  17.010  1.4419 -1.3667 -0.0095
 5469SOL     OW28042   0.857   1.850   9.644  0.1494  0.9687 -0.9088
 5469SOL    HW128043   0.763   1.836   9.656  0.0019  0.3264 -2.8605
 5469SOL    HW228044   0.861   1.931   9.696  0.3864  0.7597 -0.5999
 5470SOL     OW28045   0.567   3.432   6.751  0.0597 -0.0258 -0.3270
 5470SOL    HW128046   0.639   3.456   6.809 -0.9421  1.5876  0.2381
 5470SOL    HW228047   0.609   3.373   6.688  1.2148 -0.2855  0.6695
 5471SOL     OW28048   0.662   2.666   3.313 -0.1760  0.3186 -0.2439
 5471SOL    HW128049   0.603   2.639   3.242  1.4234 -0.0125 -1.4370
 5471SOL    HW228050   0.711   2.584   3.317 -0.3015  0.3313  1.5624
 5472SOL     OW28051   3.291   1.828   9.246 -0.4021  0.3479 -0.7312
 5472SOL    HW128052   3.306   1.863   9.334 -0.3852 -0.8152 -0.2686
 5472SOL    HW228053   3.338   1.745   9.248 -1.0758 -0.0332 -0.8708
 5473SOL     OW28054   3.339   0.568   9.569 -0.6158  0.0254  0.2951
 5473SOL    HW128055   3.382   0.631   9.628 -1.8313  0.6171  0.5527
 5473SOL    HW228056   3.250   0.603   9.563 -1.5133 -2.1173  1.0464
 5474SOL     OW28057   0.971   2.192   6.398 -0.2211 -0.1038  0.1657
 5474SOL    HW128058   0.984   2.112   6.450 -2.0776 -0.9244 -0.5958
 5474SOL    HW228059   0.943   2.155   6.314  1.4178  0.7134 -0.7412
 5475SOL     OW28060   4.188   3.232   8.268 -0.8848 -0.0573 -0.2924
 5475SOL    HW128061   4.219   3.297   8.332  1.1017 -0.9765 -0.3293
 5475SOL    HW228062   4.246   3.161   8.295 -1.5147 -0.3319  0.3237
 5476SOL     OW28063   2.865   0.005  14.850  0.1767 -0.2086  0.5253
 5476SOL    HW128064   2.788   0.022  14.904  1.3600 -1.6838  2.6775
 5476SOL    HW228065   2.898   0.094  14.839 -0.3094 -0.2718 -1.5925
 5477SOL     OW28066   2.062   1.062   1.791  0.1171 -0.4336  0.4103
 5477SOL    HW128067   2.047   1.147   1.749  0.3329 -1.4571 -1.7507
 5477SOL    HW228068   2.158   1.065   1.782  0.1507  0.9986  1.1726
 5478SOL     OW28069   3.914   4.483   9.506  0.2228  0.2868  0.7046
 5478SOL    HW128070   3.893   4.425   9.579  1.2720  0.4270  1.1185
 5478SOL    HW228071   3.865   4.555   9.545 -2.9389 -0.4911 -1.8454
 5479SOL     OW28072   0.077   4.292   8.022  0.2172 -0.3106 -0.0845
 5479SOL    HW128073   0.121   4.295   7.937 -0.8908 -0.1545 -0.6439
 5479SOL    HW228074   0.145   4.320   8.083  2.0195 -2.1956 -1.2219
 5480SOL     OW28075   0.632   0.293   8.400 -0.2542 -0.8964 -0.4436
 5480SOL    HW128076   0.637   0.386   8.421 -0.2626 -0.7567 -1.0886
 5480SOL    HW228077   0.722   0.291   8.368  0.4589 -0.2876  1.5203
 5481SOL     OW28078   2.883   1.349   2.683  0.4070 -0.5972 -0.3160
 5481SOL    HW128079   2.977   1.364   2.677  0.2682 -0.2746 -1.6902
 5481SOL    HW228080   2.857   1.418   2.622  0.4563  0.6053  1.0158
 5482SOL     OW28081   1.462   2.512   7.227 -0.1988 -0.5089  0.3026
 5482SOL    HW128082   1.400   2.579   7.258 -1.5333 -0.6575 -2.0366
 5482SOL    HW228083   1.521   2.567   7.175 -0.4847 -0.2921  0.2075
 5483SOL     OW28084   2.062   0.234   2.023  0.1774  0.5964  0.3288
 5483SOL    HW128085   2.157   0.227   2.022  0.0051 -1.5113 -1.6410
 5483SOL    HW228086   2.057   0.322   1.985  2.5102 -0.2697 -1.9993
 5484SOL     OW28087   4.551   2.887   8.314 -0.3671  0.2834 -0.2564
 5484SOL    HW128088   4.539   2.805   8.266  1.5552  1.5648 -2.8665
 5484SOL    HW228089   4.629   2.911   8.264  0.2156  0.6188  0.8260
 5485SOL     OW28090   2.838   0.777   4.218 -0.1316  0.1575 -0.9100
 5485SOL    HW128091   2.818   0.774   4.125 -0.0219 -1.4061 -0.8816
 5485SOL    HW228092   2.925   0.818   4.218 -0.6962  1.4452  2.4200
 5486SOL     OW28093   3.267   0.476   5.895 -0.2444 -0.3207 -0.5732
 5486SOL    HW128094   3.291   0.440   5.810  1.4827  0.0014 -0.2173
 5486SOL    HW228095   3.313   0.422   5.959 -0.4961  0.3449  0.1719
 5487SOL     OW28096   3.929   0.470   8.360  0.7349  0.4755  0.2830
 5487SOL    HW128097   3.881   0.468   8.443 -1.7311  0.3174 -1.1382
 5487SOL    HW228098   3.875   0.418   8.300 -1.3386  0.2436  2.3554
 5488SOL     OW28099   3.659   0.324  10.633  0.1366 -0.3558 -0.1219
 5488SOL    HW128100   3.665   0.257  10.565  1.3654 -1.0320  0.6683
 5488SOL    HW228101   3.583   0.286  10.678 -0.8937  1.1523 -0.5730
 5489SOL     OW28102   4.026   0.744   2.260  0.0766  0.3888 -0.8888
 5489SOL    HW128103   4.111   0.745   2.303 -0.0052 -1.4157 -0.6838
 5489SOL    HW228104   4.009   0.836   2.281  0.3707  0.3477 -0.4883
 5490SOL     OW28105   3.972   0.666   7.830 -0.0135  0.1507 -0.2464
 5490SOL    HW128106   3.908   0.704   7.771  0.4357 -2.7765 -2.6237
 5490SOL    HW228107   4.022   0.745   7.851  2.0527 -0.9015 -1.1871
 5491SOL     OW28108   2.534   3.173   0.125  0.2398  0.9625  0.1526
 5491SOL    HW128109   2.453   3.132   0.155 -0.1033  0.6995 -1.1550
 5491SOL    HW228110   2.565   3.203   0.211 -0.9711 -0.7162  1.1872
 5492SOL     OW28111   1.873   3.415   3.957  0.3301  0.0736 -0.0497
 5492SOL    HW128112   1.945   3.359   3.986 -0.9743 -2.8274 -2.4097
 5492SOL    HW228113   1.922   3.498   3.955  1.0840 -0.3164  1.6790
 5493SOL     OW28114   1.158   0.901  16.567  0.6449 -0.0062 -0.3878
 5493SOL    HW128115   1.066   0.912  16.542  0.9329 -0.7961 -1.8181
 5493SOL    HW228116   1.151   0.854  16.650  0.3562  0.2038 -0.2909
 5494SOL     OW28117   1.136   2.496  14.531  0.2370 -1.1492  0.1066
 5494SOL    HW128118   1.079   2.427  14.564 -1.0320  0.0079  0.3148
 5494SOL    HW228119   1.065   2.558  14.515  1.7484  0.5375 -0.0565
 5495SOL     OW28120   2.195   2.406   0.787 -0.0468 -0.2759  0.3271
 5495SOL    HW128121   2.189   2.412   0.691  1.0509  2.3416  0.4205
 5495SOL    HW228122   2.106   2.435   0.807  0.2458  0.3872  0.6888
 5496SOL     OW28123   4.028   4.256  12.378  0.4244 -0.3076 -0.0339
 5496SOL    HW128124   4.087   4.304  12.436  1.0132 -0.3838 -0.5726
 5496SOL    HW228125   4.034   4.166  12.408 -0.7377 -0.5927 -0.6802
 5497SOL     OW28126   0.560   4.635   4.640 -0.2846 -0.2652  0.2657
 5497SOL    HW128127   0.614   4.609   4.715  0.4970  3.3135  0.9093
 5497SOL    HW228128   0.526   4.722   4.659  1.1455  0.1434  0.9200
 5498SOL     OW28129   4.614   1.714   5.204  0.6676 -0.2258  0.0403
 5498SOL    HW128130   4.691   1.683   5.156 -0.7491 -0.6491 -1.9686
 5498SOL    HW228131   4.599   1.644   5.268  1.5781 -0.5380 -0.0974
 5499SOL     OW28132   4.705   0.421   1.069  0.6268  0.6955 -0.5236
 5499SOL    HW128133   4.705   0.371   0.987 -0.0642  0.1538 -0.1981
 5499SOL    HW228134   4.726   0.348   1.128 -0.9791 -0.0882 -0.9068
 5500SOL     OW28135   2.754   3.982   9.027 -0.3568  0.1514  0.9101
 5500SOL    HW128136   2.702   4.054   9.061  0.9328  1.0501  1.0004
 5500SOL    HW228137   2.762   4.010   8.935  1.6094  1.5668  1.4991
 5501SOL     OW28138   1.071   0.748   4.933 -0.3983 -0.3777  0.4643
 5501SOL    HW128139   1.140   0.809   4.904  0.7230 -1.9714 -0.2180
 5501SOL    HW228140   0.995   0.805   4.949  0.5304  1.7732 -2.6226
 5502SOL     OW28141   1.136   0.274   6.660  0.3383  0.0542 -0.0529
 5502SOL    HW128142   1.126   0.251   6.568 -2.7025 -0.5208  0.4197
 5502SOL    HW228143   1.219   0.229   6.674 -0.3449 -0.4475  2.4010
 5503SOL     OW28144   1.884   2.382  12.591 -0.1874  0.0135 -0.4267
 5503SOL    HW128145   1.946   2.310  12.576  1.5014  1.2766  0.4420
 5503SOL    HW228146   1.860   2.360  12.681  1.5633  1.6601  0.4394
 5504SOL     OW28147   1.300   2.090   4.397 -0.1346  0.2131 -0.2730
 5504SOL    HW128148   1.373   2.122   4.450 -0.2341  0.4280 -0.2633
 5504SOL    HW228149   1.238   2.162   4.386  1.0453  1.2701  0.0077
 5505SOL     OW28150   0.591   1.697   7.877 -0.8482 -0.1878  0.1109
 5505SOL    HW128151   0.560   1.781   7.909 -1.7594 -0.6571  0.4737
 5505SOL    HW228152   0.640   1.725   7.800  0.6116  1.5217  1.6785
 5506SOL     OW28153   1.469   1.479   8.968 -0.3268 -0.4932 -0.1351
 5506SOL    HW128154   1.534   1.475   9.038 -0.5242 -0.4368  0.0495
 5506SOL    HW228155   1.389   1.518   9.001  1.4862  2.5815  0.6496
 5507SOL     OW28156   0.868   3.571   3.098 -0.1927 -0.1698  0.1015
 5507SOL    HW128157   0.843   3.523   3.177  1.0271 -1.1613 -0.1150
 5507SOL    HW228158   0.793   3.630   3.093  1.2668  1.7255  0.3697
 5508SOL     OW28159   1.832   4.652  17.713 -0.2673  0.0817 -0.2971
 5508SOL    HW128160   1.827   4.694   0.046  0.3651 -0.5193  0.0277
 5508SOL    HW228161   1.794   4.713  17.649 -1.7470 -0.7135 -0.1859
 5509SOL     OW28162   4.575   3.243  12.828  0.6180 -0.1954 -0.0538
 5509SOL    HW128163   4.519   3.263  12.903  1.0654 -2.3861  0.8610
 5509SOL    HW228164   4.637   3.188  12.877  1.5367  1.7281  0.9427
 5510SOL     OW28165   3.783   3.378   4.154  0.2050 -0.0201 -0.3043
 5510SOL    HW128166   3.796   3.294   4.109 -1.4138 -0.6116  0.3462
 5510SOL    HW228167   3.693   3.374   4.187  0.8414 -0.0323  1.4177
 5511SOL     OW28168   3.863   1.978  15.296  0.2791 -0.6281 -0.4684
 5511SOL    HW128169   3.831   1.999  15.208  0.1172 -3.0666 -0.9811
 5511SOL    HW228170   3.862   1.883  15.305  0.3047 -0.5358  0.4565
 5512SOL     OW28171   2.296   4.721   3.155 -0.3806 -0.1866 -0.2221
 5512SOL    HW128172   2.210   4.705   3.193 -0.0251 -1.8481 -0.1056
 5512SOL    HW228173   2.298   0.078   3.150 -1.6522 -0.2081 -1.0701
 5513SOL     OW28174   3.353   3.189   4.798 -0.1274 -0.3423 -0.5267
 5513SOL    HW128175   3.293   3.114   4.793 -0.3633 -0.1521 -0.5903
 5513SOL    HW228176   3.301   3.268   4.812 -2.8916 -2.3873  0.7531
 5514SOL     OW28177   2.633   3.926  12.251  0.1179  0.2884 -0.2037
 5514SOL    HW128178   2.606   3.904  12.162  0.5890  0.0214 -0.2831
 5514SOL    HW228179   2.547   3.936  12.293 -0.3681 -0.7566 -0.9393
 5515SOL     OW28180   3.984   3.641   9.524  0.2618  0.4026  0.0279
 5515SOL    HW128181   4.011   3.587   9.598 -1.0142 -1.5784 -0.9452
 5515SOL    HW228182   4.055   3.619   9.465  1.9533  0.0913  2.1835
 5516SOL     OW28183   1.039   4.600   1.687  0.2966 -0.2950 -0.0938
 5516SOL    HW128184   1.078   4.516   1.660  1.6433 -0.1699  1.4743
 5516SOL    HW228185   1.004   4.637   1.606 -0.7025  0.9403  0.9061
 5517SOL     OW28186   4.413   0.421   7.390 -0.3609  0.2763 -0.1350
 5517SOL    HW128187   4.483   0.368   7.429 -1.1137 -0.9931 -0.5107
 5517SOL    HW228188   4.397   0.489   7.455  2.0820  0.0627  0.7146
 5518SOL     OW28189   1.113   3.514   0.008 -0.0142 -0.2746  0.4390
 5518SOL    HW128190   1.022   3.486   0.002 -1.1275  2.6807  3.4096
 5518SOL    HW228191   1.132   3.549  17.674 -0.5542  2.2845  1.3588
 5519SOL     OW28192   4.738   4.086   5.100  0.1796  0.4770 -0.4681
 5519SOL    HW128193   4.666   4.085   5.163  0.6384 -0.1324  0.0553
 5519SOL    HW228194   4.689   4.041   5.030 -0.1052  0.0458  0.0039
 5520SOL     OW28195   4.296   2.629   4.572 -0.4546  0.4345 -0.3360
 5520SOL    HW128196   4.382   2.653   4.538 -0.7118 -0.3036 -1.5144
 5520SOL    HW228197   4.315   2.538   4.595  0.1156  1.0030  1.3770
 5521SOL     OW28198   4.629   0.321   6.918  0.4100  0.0492 -0.2180
 5521SOL    HW128199   4.631   0.262   6.843 -0.0034  1.7082 -1.5420
 5521SOL    HW228200   4.636   0.398   6.862 -2.6344  0.5219  0.0232
 5522SOL     OW28201   3.889   1.186   0.177 -0.5908 -0.3395 -0.1340
 5522SOL    HW128202   3.967   1.140   0.146  2.3628  3.5927  1.5134
 5522SOL    HW228203   3.838   1.172   0.097 -0.5617 -0.2172 -0.1745
 5523SOL     OW28204   2.087   4.471   4.262 -0.1476  0.6748  0.0630
 5523SOL    HW128205   2.065   4.499   4.174 -2.6264  0.6984  0.6997
 5523SOL    HW228206   2.092   4.376   4.247  0.0646  0.8213 -0.8049
 5524SOL     OW28207   2.705   4.219   1.376  0.1697  0.6449 -0.1510
 5524SOL    HW128208   2.759   4.290   1.410  0.0987  1.2403 -1.2690
 5524SOL    HW228209   2.746   4.193   1.293 -0.3476  3.5016 -1.3033
 5525SOL     OW28210   4.516   2.188   9.153  0.0575  0.5329  0.3187
 5525SOL    HW128211   4.551   2.232   9.075  0.3279  0.8206  0.5973
 5525SOL    HW228212   4.444   2.249   9.170  0.6332  1.7072 -1.3416
 5526SOL     OW28213   0.358   1.903   9.488  0.2905 -0.2339 -0.2213
 5526SOL    HW128214   0.366   1.950   9.570 -1.7924 -1.6466  0.7902
 5526SOL    HW228215   0.269   1.917   9.455 -0.8959 -3.5008  1.6318
 5527SOL     OW28216   1.495   1.806   3.912  0.5395 -0.1361 -0.3548
 5527SOL    HW128217   1.416   1.801   3.857  0.6312  1.6523 -0.6389
 5527SOL    HW228218   1.563   1.837   3.853  0.6187  0.4039  0.0290
 5528SOL     OW28219   4.684   4.723  15.110 -0.0321  0.3006 -0.0985
 5528SOL    HW128220   4.624   4.661  15.151  0.3012  0.5309  0.7311
 5528SOL    HW228221   4.626   0.026  15.046  1.0891  2.1133  0.0566
 5529SOL     OW28222   3.634   2.096   3.871  0.1884 -0.1618 -0.0916
 5529SOL    HW128223   3.668   2.155   3.804 -0.0782 -1.1589 -1.1094
 5529SOL    HW228224   3.564   2.054   3.821 -0.4110 -0.6504  1.1688
 5530SOL     OW28225   1.802   2.585   4.563  0.0130 -0.5091  0.0458
 5530SOL    HW128226   1.824   2.631   4.644 -0.9274 -2.5902  1.4988
 5530SOL    HW228227   1.856   2.630   4.499 -0.6109 -0.3620 -0.3728
 5531SOL     OW28228   1.947   0.838   4.412  0.1413  0.3413 -0.0844
 5531SOL    HW128229   1.995   0.897   4.471  0.3223  0.1754 -0.0651
 5531SOL    HW228230   1.875   0.889   4.376  0.2909  1.1604  0.7842
 5532SOL     OW28231   3.872   3.620  16.234 -0.5735  0.4653 -0.0340
 5532SOL    HW128232   3.921   3.643  16.155 -0.4792  1.3304  0.2849
 5532SOL    HW228233   3.944   3.580  16.284 -0.5517 -0.9866 -1.2265
 5533SOL     OW28234   1.599   0.645   3.478  0.9485 -0.0196 -0.5450
 5533SOL    HW128235   1.602   0.573   3.541  0.8845  2.2307  2.0240
 5533SOL    HW228236   1.678   0.694   3.502 -0.4243  0.8621  2.1750
 5534SOL     OW28237   1.429   0.218   8.262  0.3486  0.3154  0.2996
 5534SOL    HW128238   1.476   0.268   8.329  0.8417  2.5736 -1.7209
 5534SOL    HW228239   1.453   0.127   8.279  0.9553  0.1472 -1.4309
 5535SOL     OW28240   3.792   1.459   1.244 -0.5834 -0.0322  0.1545
 5535SOL    HW128241   3.711   1.469   1.194 -0.7557 -1.0078  0.2332
 5535SOL    HW228242   3.750   1.428   1.324 -0.6130  2.0269  0.9257
 5536SOL     OW28243   4.387   0.357  10.785 -0.7211  0.5401  0.3635
 5536SOL    HW128244   4.480   0.345  10.763 -0.7048  0.7620  0.3080
 5536SOL    HW228245   4.346   0.311  10.711  1.9077 -0.7931 -0.2759
 5537SOL     OW28246   1.946   1.059   3.568  0.2150  0.3863 -0.3338
 5537SOL    HW128247   2.002   0.983   3.556 -1.5584 -1.1008  0.8943
 5537SOL    HW228248   2.012   1.128   3.579  0.3212  0.1817  0.3471
 5538SOL     OW28249   3.061   1.720   2.778 -0.4645  0.0774 -0.7147
 5538SOL    HW128250   3.000   1.686   2.843  0.0898 -1.5926 -1.0841
 5538SOL    HW228251   3.018   1.681   2.702 -0.6396 -2.6406  0.8088
 5539SOL     OW28252   3.693   0.708  13.274  0.2274 -0.6535 -0.0761
 5539SOL    HW128253   3.664   0.792  13.310 -0.1454 -0.5632 -0.5993
 5539SOL    HW228254   3.782   0.705  13.309  0.0026  0.5868  0.6272
 5540SOL     OW28255   1.271   1.457   8.722 -0.2456 -0.2609 -0.9501
 5540SOL    HW128256   1.350   1.465   8.775 -2.2825  0.7025  1.9687
 5540SOL    HW228257   1.310   1.435   8.638 -0.1690  1.4072 -1.3476
 5541SOL     OW28258   1.289   1.211   1.374  0.6189  0.2592 -0.2531
 5541SOL    HW128259   1.239   1.130   1.371  0.7291  0.1838 -0.0740
 5541SOL    HW228260   1.317   1.219   1.283  2.8108 -1.6814  0.2514
 5542SOL     OW28261   1.531   2.908   4.472 -0.2893  0.2895  0.1304
 5542SOL    HW128262   1.481   2.989   4.488  2.2292  1.4969  1.9638
 5542SOL    HW228263   1.472   2.856   4.418  1.3753 -0.4141 -1.0077
 5543SOL     OW28264   1.204   0.221   8.571  0.3009  0.7849  0.2833
 5543SOL    HW128265   1.134   0.285   8.558 -3.4860 -3.1950  1.0003
 5543SOL    HW228266   1.179   0.167   8.495  2.2331 -0.8643  0.8134
 5544SOL     OW28267   1.158   1.749   7.462 -0.1585  0.3988  0.4818
 5544SOL    HW128268   1.139   1.729   7.371  0.9567 -2.6284  0.9040
 5544SOL    HW228269   1.253   1.736   7.471  0.2596  2.0030 -1.6238
 5545SOL     OW28270   1.593   3.814   0.470 -0.0211 -0.0067 -0.8520
 5545SOL    HW128271   1.560   3.769   0.392  1.3675 -0.9901 -0.8903
 5545SOL    HW228272   1.509   3.854   0.492  0.9695  1.0451  1.0359
 5546SOL     OW28273   3.958   4.254   6.207 -0.0090 -0.4009  0.3515
 5546SOL    HW128274   4.039   4.303   6.225  0.6213 -0.6234 -1.9269
 5546SOL    HW228275   3.996   4.168   6.226  0.9996 -0.1060 -0.2855
 5547SOL     OW28276   2.385   2.383   6.504  0.1756  0.3090 -0.3206
 5547SOL    HW128277   2.452   2.449   6.486  3.1663 -2.3383  1.1245
 5547SOL    HW228278   2.430   2.324   6.565 -2.3016 -0.7957  0.4108
 5548SOL     OW28279   1.516   0.680  16.625 -0.0371 -0.1550  0.0700
 5548SOL    HW128280   1.452   0.682  16.554  0.9112  2.3636 -0.7147
 5548SOL    HW228281   1.536   0.772  16.643 -0.0617 -0.5054  1.9258
 5549SOL     OW28282   1.069   2.518   4.533 -0.1981 -0.0949  0.2868
 5549SOL    HW128283   1.111   2.591   4.486 -0.9149  0.5661  0.6672
 5549SOL    HW228284   1.006   2.560   4.592  2.7396  2.5368  1.6069
 5550SOL     OW28285   4.064   0.361  17.543 -0.0344 -0.1795 -0.2662
 5550SOL    HW128286   3.992   0.301  17.524 -2.7168  2.3251  1.9669
 5550SOL    HW228287   4.042   0.361  17.637 -1.3042 -1.6720 -0.5732
 5551SOL     OW28288   4.473   4.117   6.956  0.2117  0.1859 -0.2986
 5551SOL    HW128289   4.432   4.037   6.922 -0.0502  0.3273 -0.3149
 5551SOL    HW228290   4.483   4.099   7.049 -0.3612  0.0276 -0.2647
 5552SOL     OW28291   3.680   2.642  15.638  0.7316 -0.5143  0.2472
 5552SOL    HW128292   3.649   2.721  15.683  2.1719  0.1221  0.1432
 5552SOL    HW228293   3.762   2.625  15.686  1.3830 -1.2016 -1.1249
 5553SOL     OW28294   0.531   2.392   8.264  0.4989 -0.4365 -0.0542
 5553SOL    HW128295   0.625   2.380   8.253  0.4897 -0.7620  0.2385
 5553SOL    HW228296   0.495   2.399   8.175  1.9722 -2.2027 -0.7866
 5554SOL     OW28297   2.736   3.415   9.641 -0.3938  0.2314  0.5702
 5554SOL    HW128298   2.781   3.388   9.561 -1.6822  0.1365 -0.1282
 5554SOL    HW228299   2.804   3.424   9.707 -0.3877 -1.7727  0.8430
 5555SOL     OW28300   2.538   1.645  16.709  0.3516 -0.4255  0.0919
 5555SOL    HW128301   2.443   1.637  16.721  0.1545 -0.7421 -1.7313
 5555SOL    HW228302   2.539   1.737  16.684  0.4606 -0.4705 -0.0628
 5556SOL     OW28303   3.427   3.123   7.666  0.9554  0.6414 -0.0564
 5556SOL    HW128304   3.512   3.080   7.661  1.1643  0.7092  2.6459
 5556SOL    HW228305   3.370   3.075   7.606  1.5311 -0.6985  0.4670
 5557SOL     OW28306   0.891   3.290   6.023 -0.1453 -0.2644 -0.4373
 5557SOL    HW128307   0.940   3.278   6.105 -0.6653  2.5670  0.2768
 5557SOL    HW228308   0.943   3.227   5.973  0.2781 -1.8029  1.9605
 5558SOL     OW28309   4.537   1.079  12.578 -0.0132  0.1838  0.5163
 5558SOL    HW128310   4.526   0.993  12.537 -0.7079  0.6279 -0.2355
 5558SOL    HW228311   4.530   1.136  12.502 -1.9322 -1.4256 -0.4998
 5559SOL     OW28312   3.656   1.680   1.486 -0.1315  0.4705  0.1209
 5559SOL    HW128313   3.717   1.737   1.438  1.3655 -1.5232 -0.3328
 5559SOL    HW228314   3.693   1.593   1.471 -0.5552 -0.4591  4.6636
 5560SOL     OW28315   0.028   1.303  12.222  0.0897  0.2601 -0.6260
 5560SOL    HW128316   4.682   1.258  12.220  1.1844 -1.8870  0.6814
 5560SOL    HW228317   0.086   1.235  12.187 -0.9246 -0.4817 -0.8760
 5561SOL     OW28318   3.003   4.502   3.662 -0.7061  0.2663 -0.0722
 5561SOL    HW128319   2.914   4.527   3.684 -0.2265  2.1577 -0.2145
 5561SOL    HW228320   2.993   4.483   3.569  0.3970 -0.7922  0.0234
 5562SOL     OW28321   2.489   3.065   8.571 -0.2418 -1.0474  0.0980
 5562SOL    HW128322   2.509   3.037   8.481 -1.9170  1.9841 -1.2068
 5562SOL    HW228323   2.564   3.119   8.596 -0.6094 -0.4709 -0.0378
 5563SOL     OW28324   1.954   3.910   2.028  0.2864 -0.6282 -0.3460
 5563SOL    HW128325   1.925   3.825   2.061 -1.0064  0.7690  2.1328
 5563SOL    HW228326   2.024   3.926   2.092 -0.1468 -2.7389  0.6423
 5564SOL     OW28327   3.196   4.360   3.798  0.2381  0.5574  0.5395
 5564SOL    HW128328   3.273   4.391   3.751  0.6002  0.2467  0.9249
 5564SOL    HW228329   3.131   4.419   3.761  0.6762  0.9134  0.3313
 5565SOL     OW28330   3.927   4.256   3.118 -0.2763 -0.4697  0.2185
 5565SOL    HW128331   3.835   4.235   3.134  0.0401 -0.6476  1.7725
 5565SOL    HW228332   3.916   4.327   3.055 -1.4082  0.9813  2.0782
 5566SOL     OW28333   1.132   0.017  12.946  0.2625 -0.6636 -0.3062
 5566SOL    HW128334   1.073   4.682  12.963 -2.6285  1.9019  0.9304
 5566SOL    HW228335   1.153   0.016  12.853 -1.3558  0.1943 -0.6860
 5567SOL     OW28336   3.222   1.541  11.713 -0.0604 -1.0035  0.1642
 5567SOL    HW128337   3.164   1.470  11.739 -2.1197  2.0994  4.1278
 5567SOL    HW228338   3.255   1.570  11.798  0.9530  0.7359 -0.8134
 5568SOL     OW28339   3.540   4.304   4.480 -0.3141  0.3553  0.2521
 5568SOL    HW128340   3.453   4.263   4.481  0.2964 -0.9928 -1.2240
 5568SOL    HW228341   3.531   4.371   4.548 -2.1205  0.8019 -0.4122
 5569SOL     OW28342   1.178   3.979   2.198  0.9384  0.3051  0.2170
 5569SOL    HW128343   1.267   4.012   2.188 -0.1746  2.5861 -2.0710
 5569SOL    HW228344   1.154   3.976   2.106 -2.0336 -2.8798  1.0899
 5570SOL     OW28345   3.506   2.660  12.758 -0.1830  0.1462 -0.0222
 5570SOL    HW128346   3.522   2.723  12.687 -1.9045 -1.6142 -1.9829
 5570SOL    HW228347   3.439   2.607  12.714 -0.8750 -0.5408  1.8684
 5571SOL     OW28348   4.606   0.970   1.131  0.2978  0.5939  0.1148
 5571SOL    HW128349   4.602   0.923   1.214  0.9955 -1.1495 -0.8510
 5571SOL    HW228350   4.631   1.055   1.167 -0.1020  1.2500 -1.1512
 5572SOL     OW28351   2.549   4.044  14.990 -0.3580 -0.6202 -0.2396
 5572SOL    HW128352   2.598   4.041  14.908  0.5533  1.2461  0.2284
 5572SOL    HW228353   2.461   4.052  14.952  0.2560  0.1271 -1.5090
 5573SOL     OW28354   3.140   1.761   2.428  0.1538 -0.3064 -0.0762
 5573SOL    HW128355   3.066   1.820   2.439 -0.3588 -0.8242 -0.7041
 5573SOL    HW228356   3.214   1.822   2.431 -0.7508  0.8273 -1.0889
 5574SOL     OW28357   2.747   0.352   8.417  0.2757  0.4516  0.4967
 5574SOL    HW128358   2.759   0.439   8.455  1.0453  0.0144  1.2478
 5574SOL    HW228359   2.838   0.322   8.421 -0.6690 -2.6342 -0.9314
 5575SOL     OW28360   4.488   0.855  14.808  0.2798 -0.2334 -0.3538
 5575SOL    HW128361   4.510   0.763  14.824 -0.2598 -0.5777 -1.5623
 5575SOL    HW228362   4.408   0.861  14.861  1.2351  0.3998  1.0179
 5576SOL     OW28363   4.685   4.395   4.016 -0.3676 -0.0299  0.0329
 5576SOL    HW128364   4.605   4.358   4.053 -0.0202  0.1692  1.0051
 5576SOL    HW228365   4.717   4.316   3.973 -2.9113 -0.8969 -0.2579
 5577SOL     OW28366   1.498   3.999   1.506  0.0314 -0.1141 -0.7212
 5577SOL    HW128367   1.460   3.950   1.579  3.8771 -0.0218  1.3570
 5577SOL    HW228368   1.488   3.936   1.435 -0.3354 -0.5561 -0.2793
 5578SOL     OW28369   0.851   1.877   3.963 -0.4827  0.1188 -0.0076
 5578SOL    HW128370   0.820   1.856   4.051 -1.5349  2.1783  0.1238
 5578SOL    HW228371   0.943   1.872   3.987 -0.9618 -2.7600  1.1645
 5579SOL     OW28372   0.498   1.517   8.424  0.0313  0.3075 -0.0592
 5579SOL    HW128373   0.592   1.516   8.443  0.5346  1.0124 -2.4434
 5579SOL    HW228374   0.507   1.590   8.362  2.8785  0.9479  1.1297
 5580SOL     OW28375   3.735   0.861   2.189 -0.1401 -0.0252  0.1923
 5580SOL    HW128376   3.692   0.802   2.250  0.1261 -0.0247  0.3813
 5580SOL    HW228377   3.827   0.833   2.195 -0.0062  0.1967 -0.8081
 5581SOL     OW28378   3.286   4.509   5.769  0.1082  0.0205 -0.2255
 5581SOL    HW128379   3.316   4.483   5.682 -0.4470 -0.3865 -0.2944
 5581SOL    HW228380   3.336   4.460   5.835  0.3289  1.1284  0.4235
 5582SOL     OW28381   2.977   3.134   3.128 -0.1548  0.5829  0.1962
 5582SOL    HW128382   2.919   3.061   3.147  0.0973  0.3346 -0.0011
 5582SOL    HW228383   2.933   3.169   3.050 -1.3152  0.9734  1.0223
 5583SOL     OW28384   3.633   0.611   6.361 -0.3716 -0.4089 -0.0455
 5583SOL    HW128385   3.584   0.621   6.280 -1.7969  2.1742  1.1346
 5583SOL    HW228386   3.607   0.527   6.399  1.2681 -1.2557 -0.7824
 5584SOL     OW28387   1.620   2.052   4.055 -0.5624  0.3414 -0.3196
 5584SOL    HW128388   1.603   2.041   3.962 -0.8136  0.8443 -0.3297
 5584SOL    HW228389   1.541   2.042   4.107 -0.6090 -1.3604 -0.7009
 5585SOL     OW28390   2.873   0.970   6.995 -0.3115  0.2389  0.4314
 5585SOL    HW128391   2.941   0.952   7.061  0.6221 -0.1298 -0.6250
 5585SOL    HW228392   2.894   0.896   6.938  0.7655  0.8336  0.0550
 5586SOL     OW28393   3.717   1.043   9.327  0.4033  0.0365  0.2829
 5586SOL    HW128394   3.708   1.134   9.356  0.1811 -0.8006  2.8553
 5586SOL    HW228395   3.800   1.060   9.281 -1.5818  3.5409 -1.9715
 5587SOL     OW28396   2.609   1.606   5.148 -1.0221  0.0307 -0.1581
 5587SOL    HW128397   2.663   1.684   5.162  0.2109 -0.6756 -0.9983
 5587SOL    HW228398   2.652   1.529   5.184 -0.0905  0.0343 -1.2804
 5588SOL     OW28399   2.517   0.906   5.927 -0.0819 -0.0541  0.6357
 5588SOL    HW128400   2.460   0.976   5.961  1.2639 -0.0476  2.8805
 5588SOL    HW228401   2.573   0.957   5.868  0.0305  0.4571  1.1844
 5589SOL     OW28402   2.736   2.677   6.284 -0.4992 -0.0645  0.1150
 5589SOL    HW128403   2.685   2.758   6.290  0.5398  0.7738 -2.3974
 5589SOL    HW228404   2.700   2.626   6.357 -2.1994 -0.3897 -0.9289
 5590SOL     OW28405   0.271   2.440   5.848 -0.2983 -0.3742  0.0856
 5590SOL    HW128406   0.323   2.372   5.892  0.7675  0.1500 -0.3832
 5590SOL    HW228407   0.208   2.451   5.919  0.1400 -0.2349  0.4541
 5591SOL     OW28408   1.263   1.771   2.737 -0.3426 -0.0776  0.5027
 5591SOL    HW128409   1.171   1.745   2.731 -0.2458 -0.4566  0.7115
 5591SOL    HW228410   1.273   1.815   2.652 -1.1804  0.7227  0.8233
 5592SOL     OW28411   1.362   4.109   8.945 -0.2001  0.3317 -0.1862
 5592SOL    HW128412   1.342   4.193   8.902  0.4949  0.0634 -1.0334
 5592SOL    HW228413   1.278   4.070   8.969  0.1646  0.9326  2.0395
 5593SOL     OW28414   0.616   1.482   3.399 -0.4946  0.3547  0.4274
 5593SOL    HW128415   0.693   1.483   3.455  0.3772 -2.5243 -0.7243
 5593SOL    HW228416   0.586   1.566   3.435 -2.5017 -1.2484  2.4317
 5594SOL     OW28417   0.192   4.071   2.446  0.0139  0.1923 -0.5399
 5594SOL    HW128418   0.119   4.116   2.489 -0.4528  0.1553 -1.2894
 5594SOL    HW228419   0.168   3.985   2.481 -1.4117  0.3526 -1.0973
 5595SOL     OW28420   1.898   2.960   8.087  0.4766 -0.3711  0.3992
 5595SOL    HW128421   1.954   2.883   8.088 -1.8920 -2.1084 -0.4477
 5595SOL    HW228422   1.824   2.922   8.134 -1.8886  0.6854 -2.5228
 5596SOL     OW28423   2.228   0.555   4.773 -0.1153  0.1910 -0.0865
 5596SOL    HW128424   2.238   0.479   4.829  1.5248 -0.0561 -0.6811
 5596SOL    HW228425   2.134   0.544   4.759 -0.5402  1.3421  1.9158
 5597SOL     OW28426   0.778   3.053  11.164 -0.3599  0.0175  0.3948
 5597SOL    HW128427   0.733   3.135  11.184  0.0734  0.5576 -0.8365
 5597SOL    HW228428   0.730   2.998  11.226  0.6864 -2.0908 -0.6663
 5598SOL     OW28429   3.836   4.204   2.413  0.2184 -0.0278  0.0284
 5598SOL    HW128430   3.862   4.268   2.347  1.0588  0.3986  0.7730
 5598SOL    HW228431   3.823   4.127   2.358  1.1397 -1.5346  1.9432
 5599SOL     OW28432   2.206   3.715  17.572  0.5762  0.2471  0.5164
 5599SOL    HW128433   2.160   3.664  17.639  0.8676 -0.0776  0.4692
 5599SOL    HW228434   2.299   3.700  17.590  0.1387 -0.8712  1.8894
 5600SOL     OW28435   3.987   4.157   9.538 -0.0092 -0.3390 -0.2005
 5600SOL    HW128436   4.075   4.155   9.500  0.9785  1.0252  2.0286
 5600SOL    HW228437   3.961   4.065   9.536 -2.6053  0.3907 -0.4153
 5601SOL     OW28438   0.702   4.461   5.396 -0.9824  0.3369 -0.4452
 5601SOL    HW128439   0.775   4.522   5.401  0.0492 -0.7957 -1.8495
 5601SOL    HW228440   0.739   4.375   5.418 -1.2119 -0.0166 -1.4640
 5602SOL     OW28441   0.029   1.632   5.003 -1.0060 -0.4304 -0.2871
 5602SOL    HW128442   0.103   1.572   5.011  1.8839  2.7755 -2.4621
 5602SOL    HW228443   4.713   1.600   4.931  0.3965 -1.0076 -1.1008
 5603SOL     OW28444   0.487   3.856   4.558 -0.6266  0.2656  0.7715
 5603SOL    HW128445   0.425   3.886   4.492 -0.7452  0.6247  1.0417
 5603SOL    HW228446   0.514   3.771   4.523 -1.6641 -0.5482  1.9520
 5604SOL     OW28447   1.280   0.830   6.320 -0.1800  0.1514 -0.5268
 5604SOL    HW128448   1.341   0.783   6.377 -1.5087 -1.5399 -0.5035
 5604SOL    HW228449   1.333   0.819   6.240  0.7886 -1.0578  0.2763
 5605SOL     OW28450   3.635   4.205   1.482 -0.6554  0.0721  0.2258
 5605SOL    HW128451   3.644   4.115   1.450  2.0979  0.4769 -0.1038
 5605SOL    HW228452   3.546   4.203   1.518 -1.4958  2.2280 -1.7000
 5606SOL     OW28453   2.630   4.137   5.627 -0.2411 -0.0393 -0.0182
 5606SOL    HW128454   2.643   4.052   5.586 -0.5889 -0.0933 -0.0107
 5606SOL    HW228455   2.566   4.168   5.563  0.2131  1.7927  0.3971
 5607SOL     OW28456   4.720   4.242   5.480  0.4250  0.7661 -0.1878
 5607SOL    HW128457   0.061   4.250   5.429  0.2831  2.0557 -0.2089
 5607SOL    HW228458   4.695   4.150   5.474  0.6413  0.6377  0.8978
 5608SOL     OW28459   1.303   2.402   4.685 -0.6114 -0.8233 -0.2558
 5608SOL    HW128460   1.234   2.446   4.634 -0.2725 -1.2711 -1.1097
 5608SOL    HW228461   1.381   2.456   4.676 -1.1032  0.0500  0.6207
 5609SOL     OW28462   2.661   2.928  15.310  0.0513  0.0063  0.1341
 5609SOL    HW128463   2.720   2.854  15.328 -0.6043 -0.5520  0.0086
 5609SOL    HW228464   2.591   2.901  15.252 -0.6624 -1.5580  1.6973
 5610SOL     OW28465   2.606   1.939   9.853  0.2494 -0.3587 -0.2718
 5610SOL    HW128466   2.557   1.858   9.869 -1.1905  0.4374 -0.6630
 5610SOL    HW228467   2.548   1.977   9.787  0.8771 -1.5190 -1.4612
 5611SOL     OW28468   1.528   2.286   2.896 -0.5620  0.0772  0.3563
 5611SOL    HW128469   1.493   2.270   2.984 -0.6817  2.2492  0.6961
 5611SOL    HW228470   1.492   2.210   2.850  0.6715  0.8665 -1.8881
 5612SOL     OW28471   2.224   0.747   8.474  0.3110  0.6039  0.6485
 5612SOL    HW128472   2.244   0.778   8.562 -3.1970  1.6103  1.1004
 5612SOL    HW228473   2.293   0.794   8.426 -0.7347  0.2070 -1.2468
 5613SOL     OW28474   4.133   1.432   9.180  0.0018  0.5039  0.0401
 5613SOL    HW128475   4.173   1.346   9.181  0.7753  0.8666  0.2623
 5613SOL    HW228476   4.097   1.432   9.269 -2.0968  0.0563 -0.8007
 5614SOL     OW28477   0.875   2.143  13.896  0.6243 -0.3297  0.1871
 5614SOL    HW128478   0.933   2.082  13.941  1.4684 -0.5091 -1.1352
 5614SOL    HW228479   0.798   2.087  13.903  1.3317 -1.7089 -2.8204
 5615SOL     OW28480   0.424   0.702   7.948  0.2592  0.4197 -0.0324
 5615SOL    HW128481   0.478   0.772   7.983  1.7931 -0.3499 -0.8391
 5615SOL    HW228482   0.419   0.735   7.858 -2.5521  0.1990  0.0547
 5616SOL     OW28483   4.633   3.741  11.939 -0.4981 -0.4945  0.1619
 5616SOL    HW128484   4.621   3.648  11.959  0.3337 -0.5684  0.3263
 5616SOL    HW228485   4.666   3.782  12.019  0.2533  0.7521 -0.8088
 5617SOL     OW28486   2.461   0.029  17.037  0.4261 -0.4486 -0.9489
 5617SOL    HW128487   2.508   0.061  17.114 -1.0245  0.5086 -0.4380
 5617SOL    HW228488   2.452   4.676  17.064 -0.8600 -0.0487 -0.0166
 5618SOL     OW28489   4.672   2.502   1.053  0.1603  0.0192 -0.4773
 5618SOL    HW128490   4.682   2.420   1.101 -3.8036  0.7993  1.6855
 5618SOL    HW228491   0.022   2.539   1.054  0.0760  0.2157 -0.3681
 5619SOL     OW28492   4.716   4.034   2.902  0.5734 -0.0399 -0.2484
 5619SOL    HW128493   4.673   3.984   2.833  2.1229 -0.4381 -0.9200
 5619SOL    HW228494   0.059   3.986   2.909 -0.0527 -0.9624  0.8405
 5620SOL     OW28495   3.212   0.574  15.916 -0.2339  0.4474 -0.3084
 5620SOL    HW128496   3.252   0.532  15.840  1.5405 -0.3823  1.0933
 5620SOL    HW228497   3.120   0.587  15.893 -0.6316 -1.1761  0.4212
 5621SOL     OW28498   2.415   0.568  13.294 -0.2664 -0.1615 -0.1570
 5621SOL    HW128499   2.348   0.506  13.267  0.2338 -1.2058  1.0402
 5621SOL    HW228500   2.490   0.558  13.235  0.8035 -1.4558  1.4163
 5622SOL     OW28501   0.098   1.551   3.425  0.0589  0.1602 -0.9864
 5622SOL    HW128502   0.082   1.503   3.344  1.1517 -0.4584 -0.8295
 5622SOL    HW228503   0.037   1.625   3.433  0.7585  0.3598  2.4571
 5623SOL     OW28504   3.394   2.007   6.401 -0.3548  0.0696 -0.2284
 5623SOL    HW128505   3.323   1.944   6.411 -0.1007 -0.5613 -2.3813
 5623SOL    HW228506   3.343   2.077   6.359 -0.5229  0.0735 -0.0194
 5624SOL     OW28507   4.495   4.040   3.899  0.4071 -0.2760 -0.3078
 5624SOL    HW128508   4.475   3.978   3.829 -2.7847  2.5318 -1.9017
 5624SOL    HW228509   4.410   4.084   3.899  0.8911  0.6662 -0.8299
 5625SOL     OW28510   2.269   3.455   4.109  0.3409  0.1472  0.1503
 5625SOL    HW128511   2.260   3.361   4.095  0.3238  0.4553 -1.9140
 5625SOL    HW228512   2.362   3.465   4.090  0.0227  0.9739 -1.0086
 5626SOL     OW28513   0.384   1.148   0.061  0.4863  0.4706  0.3055
 5626SOL    HW128514   0.362   1.229   0.014 -0.0412  0.1634  0.0245
 5626SOL    HW228515   0.478   1.140   0.044  0.0230  0.5770 -2.3043
 5627SOL     OW28516   4.657   2.470   2.884 -0.1840 -0.2692 -0.0342
 5627SOL    HW128517   4.708   2.511   2.954  1.4524  0.6261 -1.7483
 5627SOL    HW228518   4.643   2.545   2.827  0.7880 -0.7951 -0.9824
 5628SOL     OW28519   4.078   0.571   9.977  0.3128 -0.2098 -0.3226
 5628SOL    HW128520   4.020   0.570  10.052 -0.8403  2.3662 -1.1706
 5628SOL    HW228521   4.163   0.558  10.019  1.2566 -0.4197 -2.2648
 5629SOL     OW28522   1.205   3.888   4.474 -0.5999 -0.6880  0.3652
 5629SOL    HW128523   1.128   3.900   4.419 -0.5103  2.4118  0.9176
 5629SOL    HW228524   1.218   3.974   4.513 -0.4688 -0.7029  0.3566
 5630SOL     OW28525   3.109   0.508   0.062 -0.2078 -0.7280  0.7547
 5630SOL    HW128526   3.096   0.430   0.009  0.5599  0.1418 -0.7358
 5630SOL    HW228527   3.178   0.481   0.122 -0.2026 -1.0944  0.5789
 5631SOL     OW28528   1.420   1.723   7.448  0.2250 -0.0561 -0.6001
 5631SOL    HW128529   1.457   1.637   7.467  2.0607  1.1559  1.3696
 5631SOL    HW228530   1.499   1.761   7.411  0.8913 -1.9650 -1.1289
 5632SOL     OW28531   3.697   4.411   5.877  0.1121  0.1530 -0.0670
 5632SOL    HW128532   3.671   4.456   5.797  1.0644 -0.3840 -0.6816
 5632SOL    HW228533   3.790   4.435   5.871 -0.0874  0.0918 -3.0310
 5633SOL     OW28534   4.643   1.775   4.194 -0.0845  0.0253 -0.1169
 5633SOL    HW128535   4.703   1.772   4.269 -2.1941 -1.5047  1.5271
 5633SOL    HW228536   4.703   1.759   4.121 -2.1334 -1.0487 -1.5661
 5634SOL     OW28537   1.190   2.932   6.368  0.4645  0.0037 -0.2729
 5634SOL    HW128538   1.110   2.907   6.321 -1.2632  2.7559  1.2104
 5634SOL    HW228539   1.218   2.997   6.303 -0.7771  0.1940 -0.6233
 5635SOL     OW28540   2.056   0.297   6.001  0.4173  0.2958  0.2572
 5635SOL    HW128541   2.014   0.340   5.927 -0.3220 -0.0956  0.4471
 5635SOL    HW228542   2.149   0.320   5.995  0.0430  1.9588  0.9711
 5636SOL     OW28543   1.262   3.967  12.748  0.4068  0.2763  0.0678
 5636SOL    HW128544   1.301   3.972  12.661 -3.6631  0.5354 -1.7654
 5636SOL    HW228545   1.284   4.058  12.768  0.8453 -0.3218  2.3711
 5637SOL     OW28546   0.147   4.141  12.059 -0.0757  0.3572 -0.0214
 5637SOL    HW128547   0.201   4.068  12.088  0.6957  0.3023 -1.6004
 5637SOL    HW228548   0.099   4.093  11.991  0.2816 -2.7823  1.9418
 5638SOL     OW28549   3.499   4.549   6.107  0.7243  0.3737  0.0879
 5638SOL    HW128550   3.571   4.490   6.083  0.2426  0.3800 -1.4087
 5638SOL    HW228551   3.526   4.629   6.062  0.6539  1.5437  2.1385
 5639SOL     OW28552   2.486   0.296   2.634 -0.7108  0.2009  0.1430
 5639SOL    HW128553   2.448   0.266   2.717 -1.2055 -1.0626 -0.5529
 5639SOL    HW228554   2.518   0.381   2.665  2.5164  0.4050 -3.7641
 5640SOL     OW28555   1.141   4.563   5.309  0.0266  0.3025 -0.1576
 5640SOL    HW128556   1.099   4.577   5.224  0.2641  0.7277 -0.2078
 5640SOL    HW228557   1.166   4.648   5.346  2.6166 -1.8486  3.0828
 5641SOL     OW28558   0.978   3.237   5.467 -0.2654 -0.4359  0.2693
 5641SOL    HW128559   0.897   3.282   5.444  0.6071  1.5615  1.1758
 5641SOL    HW228560   1.042   3.300   5.435  0.0024 -0.9023 -0.1261
 5642SOL     OW28561   2.003   1.567   4.575 -0.6623 -0.1880  0.1358
 5642SOL    HW128562   1.925   1.515   4.556 -0.9664  0.5202 -0.5832
 5642SOL    HW228563   2.046   1.568   4.490 -0.1831 -1.4454  0.3625
 5643SOL     OW28564   0.779   4.351   0.174  0.5352  0.6286 -0.5369
 5643SOL    HW128565   0.865   4.349   0.132  1.4698 -0.4937  1.4061
 5643SOL    HW228566   0.723   4.302   0.114  0.6369  0.7334 -0.7182
 5644SOL     OW28567   1.302   2.703   6.682 -0.1605  0.2724  0.3256
 5644SOL    HW128568   1.370   2.659   6.733  1.0875 -0.4398 -1.9460
 5644SOL    HW228569   1.298   2.655   6.600 -1.7626  0.0592  0.5177
 5645SOL     OW28570   3.808   1.790   6.593  0.6063 -0.6852  0.1712
 5645SOL    HW128571   3.819   1.768   6.686 -0.8976  0.8043  0.6883
 5645SOL    HW228572   3.858   1.717   6.556  0.7438 -1.4383  1.8206
 5646SOL     OW28573   2.926   0.433   3.258  0.4120 -0.4962  0.0186
 5646SOL    HW128574   2.909   0.383   3.338  3.0094  0.1964  1.0095
 5646SOL    HW228575   2.979   0.371   3.207 -0.4904  2.0826 -3.9705
 5647SOL     OW28576   1.126   1.640   8.837 -0.3483 -0.1342  0.1689
 5647SOL    HW128577   1.169   1.560   8.809 -1.1503 -0.2798 -0.6290
 5647SOL    HW228578   1.164   1.691   8.766  2.3140 -3.1249 -0.5214
 5648SOL     OW28579   2.717   0.688  15.580  0.1187 -0.3344 -0.2091
 5648SOL    HW128580   2.771   0.755  15.539 -1.8611  2.3889  1.6977
 5648SOL    HW228581   2.688   0.643  15.500 -2.1936  1.1447 -0.2063
 5649SOL     OW28582   3.235   4.536   9.025 -0.5063  0.5024  0.1810
 5649SOL    HW128583   3.315   4.560   8.979 -1.9274 -0.6910 -2.8986
 5649SOL    HW228584   3.231   4.440   9.024 -0.1183  0.5071 -1.6753
 5650SOL     OW28585   2.281   0.528  16.620  0.5883 -0.2880 -0.0601
 5650SOL    HW128586   2.345   0.596  16.644 -0.1126 -0.0289  1.0705
 5650SOL    HW228587   2.343   0.473  16.572  1.5589  0.8078 -0.0623
 5651SOL     OW28588   3.637   0.607  10.568  0.1818  0.4492 -0.0902
 5651SOL    HW128589   3.688   0.532  10.599 -0.6744  0.1491  0.5757
 5651SOL    HW228590   3.630   0.657  10.649  1.3968  1.1137 -0.4015
 5652SOL     OW28591   1.600   0.372   1.773 -0.1892  0.2217 -0.3644
 5652SOL    HW128592   1.512   0.335   1.763  0.2177 -0.0846 -2.7685
 5652SOL    HW228593   1.624   0.331   1.856 -1.7138  0.1613  0.0550
 5653SOL     OW28594   3.788   2.621  12.103 -0.1657 -0.1022  0.0312
 5653SOL    HW128595   3.844   2.574  12.042  1.0576  0.8943  0.3678
 5653SOL    HW228596   3.805   2.550  12.165 -0.3068  1.5305  1.9725
 5654SOL     OW28597   3.502   0.141   1.662 -0.6399 -0.3147 -0.2133
 5654SOL    HW128598   3.427   0.098   1.621  0.6045  0.8642 -3.7155
 5654SOL    HW228599   3.544   0.163   1.579  0.1054  1.4475  0.6438
 5655SOL     OW28600   1.536   4.495   2.130 -0.4618 -0.5727 -0.3124
 5655SOL    HW128601   1.627   4.523   2.144 -0.6224 -0.5448  0.6982
 5655SOL    HW228602   1.530   4.477   2.037  0.6034  0.6196 -0.6133
 5656SOL     OW28603   0.919   3.093   8.558  0.1329  0.5357  0.0517
 5656SOL    HW128604   0.999   3.073   8.510  0.2682 -1.8177  1.2833
 5656SOL    HW228605   0.920   3.025   8.625  2.2865 -0.8991 -1.4433
 5657SOL     OW28606   2.739   0.321   6.207  0.1909 -0.6856  0.2104
 5657SOL    HW128607   2.792   0.401   6.217  0.9392 -0.9422 -1.8575
 5657SOL    HW228608   2.655   0.342   6.246  1.1089  2.2233  0.6602
 5658SOL     OW28609   4.503   0.301   6.601  0.2373  0.0773 -0.0443
 5658SOL    HW128610   4.408   0.307   6.603  0.3264  1.5302 -0.5398
 5658SOL    HW228611   4.523   0.216   6.641  3.6143  0.4058 -0.9943
 5659SOL     OW28612   0.619   2.811   6.702  0.0988  0.3087  0.0246
 5659SOL    HW128613   0.601   2.842   6.613  1.2622 -0.0459 -0.3313
 5659SOL    HW228614   0.530   2.781   6.722  1.0012 -0.4437  2.9413
 5660SOL     OW28615   0.593   1.547   5.186  0.0930  0.0465  0.3857
 5660SOL    HW128616   0.609   1.639   5.207  0.4328  0.0029  0.3129
 5660SOL    HW228617   0.551   1.510   5.264 -0.3253  0.5512  0.4014
 5661SOL     OW28618   2.265   3.921  11.978  0.3959 -0.0312  0.3837
 5661SOL    HW128619   2.225   3.961  11.901  1.8379 -0.1843 -0.4204
 5661SOL    HW228620   2.207   3.850  12.006  1.1848 -0.5205  0.7791
 5662SOL     OW28621   0.224   1.175   7.591 -0.1722  0.3669 -0.0593
 5662SOL    HW128622   0.140   1.137   7.566 -0.9748  1.2657  1.2864
 5662SOL    HW228623   0.243   1.229   7.514 -1.0068  1.4438  0.4898
 5663SOL     OW28624   4.248   1.412   3.722  0.0309  0.1232 -0.3987
 5663SOL    HW128625   4.306   1.341   3.695  1.6110  0.5798  1.7893
 5663SOL    HW228626   4.233   1.395   3.815  0.3340 -0.2977 -0.4270
 5664SOL     OW28627   2.741   3.771   6.433  0.2878  0.3005  0.1359
 5664SOL    HW128628   2.687   3.777   6.353  1.2821  0.4539 -0.5275
 5664SOL    HW228629   2.696   3.700   6.477  0.8977  0.5175  1.0963
 5665SOL     OW28630   4.121   0.575   1.801 -0.0085  0.4451 -0.0489
 5665SOL    HW128631   4.199   0.533   1.835 -0.4423 -0.9474 -0.7524
 5665SOL    HW228632   4.072   0.570   1.883 -0.5883 -1.9769 -0.5472
 5666SOL     OW28633   0.037   4.044   9.360  0.0070 -0.1749  0.1507
 5666SOL    HW128634   0.032   4.098   9.281  1.2391 -0.5985 -0.2212
 5666SOL    HW228635   0.091   4.105   9.409 -1.3613  1.0881  0.0709
 5667SOL     OW28636   2.236   4.425   4.615  0.2874 -0.0887 -0.0026
 5667SOL    HW128637   2.317   4.382   4.643  1.5954  2.6868  0.5218
 5667SOL    HW228638   2.168   4.364   4.642 -0.7556  1.8073  1.6821
 5668SOL     OW28639   3.216   2.148   1.572  1.0777 -0.7625  0.0819
 5668SOL    HW128640   3.296   2.114   1.533  1.3032  0.1086 -0.2036
 5668SOL    HW228641   3.256   2.171   1.656  0.7879  0.1170 -0.0239
 5669SOL     OW28642   0.286   1.296  14.812 -0.1490  0.0628  0.1318
 5669SOL    HW128643   0.294   1.381  14.769 -0.5903  0.3122  0.5380
 5669SOL    HW228644   0.332   1.232  14.758 -1.4289 -1.0166  0.3049
 5670SOL     OW28645   1.737   0.163   3.321  0.7497 -0.3690 -0.2021
 5670SOL    HW128646   1.772   0.133   3.405 -0.8310  2.0652  1.3371
 5670SOL    HW228647   1.681   0.237   3.347  1.1178 -0.5503  1.0696
 5671SOL     OW28648   3.628   3.026   1.546  0.9062  0.1095 -0.3572
 5671SOL    HW128649   3.597   3.113   1.569 -0.6753 -0.6661  0.4527
 5671SOL    HW228650   3.603   3.028   1.454  4.3733  0.4977 -1.2768
 5672SOL     OW28651   4.363   3.110   3.916 -0.1758  0.0594 -0.1014
 5672SOL    HW128652   4.310   3.182   3.882 -0.0543  0.0211 -0.3719
 5672SOL    HW228653   4.317   3.100   3.999  0.9026  1.0338  0.6197
 5673SOL     OW28654   0.308   2.402  14.648 -0.8031  0.7073  0.1753
 5673SOL    HW128655   0.369   2.367  14.713 -1.0721  0.7542  0.4555
 5673SOL    HW228656   0.223   2.387  14.690 -0.5552  1.5968  1.0044
 5674SOL     OW28657   4.654   0.957   6.721  0.1826 -0.2012  0.5494
 5674SOL    HW128658   4.637   0.873   6.680  0.1581 -0.7849  1.7436
 5674SOL    HW228659   4.730   0.996   6.678  0.5747 -0.0855  1.3367
 5675SOL     OW28660   1.275   1.818   2.301  0.2820 -0.4135 -0.4872
 5675SOL    HW128661   1.258   1.912   2.306  2.0816 -0.0901 -0.6874
 5675SOL    HW228662   1.336   1.805   2.373 -1.7404 -2.0907  0.9458
 5676SOL     OW28663   0.280   3.264   2.505  0.3553  0.6062 -0.4279
 5676SOL    HW128664   0.208   3.327   2.504 -1.3401 -1.3710 -1.1561
 5676SOL    HW228665   0.344   3.333   2.525  0.6931 -0.1645  1.1892
 5677SOL     OW28666   4.510   3.153   5.463 -0.0431  0.1804 -0.1427
 5677SOL    HW128667   4.484   3.122   5.376  0.9209 -1.1141  0.0454
 5677SOL    HW228668   4.450   3.227   5.474 -1.0638 -1.0963  2.7340
 5678SOL     OW28669   2.079   2.223   8.995  0.1772 -0.2431  0.0251
 5678SOL    HW128670   2.148   2.191   8.936  2.4329 -0.2366  2.6893
 5678SOL    HW228671   2.095   2.168   9.071  2.1001 -0.8113 -0.7765
 5679SOL     OW28672   3.014   4.284   4.348  0.4723 -0.3084 -0.2055
 5679SOL    HW128673   3.016   4.281   4.252  2.2859 -0.3346 -0.1528
 5679SOL    HW228674   3.015   4.377   4.370  1.2359  0.1278 -2.0037
 5680SOL     OW28675   3.712   4.392   4.172 -0.3568  0.5381  0.3553
 5680SOL    HW128676   3.698   4.326   4.240  0.4327  0.1736  0.1752
 5680SOL    HW228677   3.687   4.348   4.091 -0.0223  0.3664  0.3433
 5681SOL     OW28678   2.195   2.988  13.094 -0.3304  0.4191 -0.0238
 5681SOL    HW128679   2.193   3.083  13.098 -0.7610  0.3804  0.7173
 5681SOL    HW228680   2.102   2.967  13.078 -0.8237  2.2992  0.3942
 5682SOL     OW28681   0.908   2.622  11.427  0.9395 -0.4833 -0.5923
 5682SOL    HW128682   0.975   2.684  11.455  0.8208 -0.9197  0.6531
 5682SOL    HW228683   0.961   2.566  11.369  1.6691  0.9754 -1.3281
 5683SOL     OW28684   2.798   1.747   6.284  0.4571 -0.1887  0.0906
 5683SOL    HW128685   2.818   1.796   6.204  0.5466  1.3899  1.0868
 5683SOL    HW228686   2.877   1.695   6.297 -0.6260 -0.9317  3.6079
 5684SOL     OW28687   4.390   2.654  13.309  0.4095  0.6194 -0.7523
 5684SOL    HW128688   4.394   2.713  13.384 -1.2883  1.0111 -0.9684
 5684SOL    HW228689   4.308   2.677  13.265  0.3404  1.5700 -0.1319
 5685SOL     OW28690   1.799   1.256   6.678  0.2092 -0.3638 -0.2443
 5685SOL    HW128691   1.835   1.167   6.670 -0.0661 -0.4173 -0.8531
 5685SOL    HW228692   1.705   1.241   6.683 -0.3467  3.6117  1.1390
 5686SOL     OW28693   3.797   4.596   0.710  0.5330  0.3193 -0.0486
 5686SOL    HW128694   3.715   4.546   0.708  1.1169 -0.6280 -0.2946
 5686SOL    HW228695   3.851   4.550   0.646 -1.4426  0.3527 -1.7619
 5687SOL     OW28696   3.574   4.475   3.137  0.1868  0.6098 -0.1312
 5687SOL    HW128697   3.600   4.410   3.072  0.1842 -0.2374  0.7260
 5687SOL    HW228698   3.483   4.492   3.111 -0.3667 -0.4515  1.1022
 5688SOL     OW28699   1.732   1.366   2.856  0.0926 -0.3681  0.0142
 5688SOL    HW128700   1.763   1.318   2.933  2.2043 -2.0617 -1.8923
 5688SOL    HW228701   1.799   1.356   2.789  1.3625  0.4642  1.1715
 5689SOL     OW28702   1.565   1.471   7.422 -0.5102 -0.0367  0.1339
 5689SOL    HW128703   1.568   1.463   7.517  1.2557  0.4042  0.1210
 5689SOL    HW228704   1.635   1.412   7.393 -0.2303  0.4525 -0.1958
 5690SOL     OW28705   2.377   3.949   3.765  0.0891 -0.7220  0.4235
 5690SOL    HW128706   2.431   3.947   3.845 -0.0235  1.4573  0.5649
 5690SOL    HW228707   2.322   4.025   3.784 -0.0118 -1.1043  1.6571
 5691SOL     OW28708   1.442   1.897   6.053  0.5199  0.5327 -0.8784
 5691SOL    HW128709   1.358   1.858   6.074  1.6563 -0.9701  0.8843
 5691SOL    HW228710   1.497   1.822   6.029  0.3810  0.1235  0.0796
 5692SOL     OW28711   3.807   4.373   7.429  0.2649  0.6451  0.2263
 5692SOL    HW128712   3.781   4.297   7.480  2.3243  0.8755  1.6351
 5692SOL    HW228713   3.767   4.339   7.349  0.0502  0.6895  0.3170
 5693SOL     OW28714   3.353   3.051   3.381 -0.6715 -0.9851 -0.5428
 5693SOL    HW128715   3.310   3.040   3.466 -0.0078  1.0811  0.0560
 5693SOL    HW228716   3.306   3.124   3.342  3.6179  2.7689  1.2515
 5694SOL     OW28717   2.824   2.281   4.499 -0.8149 -0.1131 -0.6297
 5694SOL    HW128718   2.885   2.322   4.438  0.1205 -1.4308 -0.5642
 5694SOL    HW228719   2.867   2.203   4.533 -0.9946  0.4615  0.9220
 5695SOL     OW28720   1.280   3.649   7.395  0.5324  0.3153 -0.5285
 5695SOL    HW128721   1.320   3.610   7.473  0.6907  1.5386 -0.0002
 5695SOL    HW228722   1.337   3.620   7.325  0.8426  0.0557 -0.1702
 5696SOL     OW28723   4.332   3.217  10.186  0.5672 -0.1380 -0.4814
 5696SOL    HW128724   4.302   3.150  10.125  1.5446 -1.6333  0.6817
 5696SOL    HW228725   4.376   3.267  10.116  2.3525  0.6201  1.1734
 5697SOL     OW28726   1.155   1.752   6.782 -0.0529  0.3406 -0.6761
 5697SOL    HW128727   1.239   1.756   6.737  1.8550 -1.5849  2.7275
 5697SOL    HW228728   1.169   1.802   6.863 -0.0750  2.1682 -1.7793
 5698SOL     OW28729   4.001   3.473  10.955  0.1728  0.0784 -0.7086
 5698SOL    HW128730   4.042   3.499  11.038  1.4958 -0.6791 -1.1361
 5698SOL    HW228731   3.912   3.455  10.984  0.5062 -1.4745 -0.6613
 5699SOL     OW28732   0.799   2.169   7.712  0.0166  0.0332 -0.8659
 5699SOL    HW128733   0.788   2.248   7.765 -0.7769 -1.1432  0.7437
 5699SOL    HW228734   0.711   2.133   7.715 -0.2289  0.6056 -1.3397
 5700SOL     OW28735   4.267   0.839  13.743 -0.4993  0.6050  0.1698
 5700SOL    HW128736   4.268   0.755  13.787  0.0644 -0.0243 -1.0505
 5700SOL    HW228737   4.355   0.835  13.706  0.1291 -3.5223  2.2303
 5701SOL     OW28738   2.946   2.604   8.417  0.3319 -0.0191  0.6768
 5701SOL    HW128739   2.906   2.670   8.361  2.5796  0.1049 -0.7813
 5701SOL    HW228740   2.968   2.647   8.500 -0.0154  2.2057 -0.3775
 5702SOL     OW28741   1.753   0.916   5.036 -0.0138  0.1196 -0.3021
 5702SOL    HW128742   1.674   0.863   5.047 -0.8931  1.3340 -0.6831
 5702SOL    HW228743   1.770   0.897   4.944  0.3606  2.2809 -0.6894
 5703SOL     OW28744   0.526   0.935  14.917 -0.1656  0.4880 -0.0904
 5703SOL    HW128745   0.582   0.859  14.898 -0.8132  0.8235 -3.3564
 5703SOL    HW228746   0.499   0.951  14.827 -0.3420 -2.9691 -0.6431
 5704SOL     OW28747   4.540   3.771  12.680  0.2923  0.0135 -0.5063
 5704SOL    HW128748   4.626   3.745  12.646 -0.1699 -1.9344 -0.1613
 5704SOL    HW228749   4.546   3.866  12.669 -1.2003 -0.1026 -2.2922
 5705SOL     OW28750   1.965   2.748  10.683  0.4145  0.2963  0.4638
 5705SOL    HW128751   1.942   2.659  10.658 -0.8394  1.0449 -1.0586
 5705SOL    HW228752   1.952   2.778  10.593 -2.2593  1.2082  1.1431
 5706SOL     OW28753   2.070   0.537  10.660  0.4356  0.3617  0.2241
 5706SOL    HW128754   2.104   0.545  10.750  0.0593 -0.3546  0.4286
 5706SOL    HW228755   2.040   0.626  10.647  1.8021  0.4429 -2.3409
 5707SOL     OW28756   0.962   3.005   8.906  0.0735  0.1337 -0.2246
 5707SOL    HW128757   1.048   2.965   8.894  0.9457  1.8379  0.2507
 5707SOL    HW228758   0.920   2.935   8.956 -0.2770 -2.2145 -3.8858
 5708SOL     OW28759   3.289   1.296   2.846 -0.1333  0.5298  0.3003
 5708SOL    HW128760   3.376   1.311   2.883 -0.7931  0.7989  1.7469
 5708SOL    HW228761   3.244   1.254   2.920  0.4579 -0.8152 -0.1086
 5709SOL     OW28762   0.116   0.698  17.562 -0.3686 -0.2103  0.1797
 5709SOL    HW128763   0.134   0.614  17.519 -1.3964 -0.9836  1.2352
 5709SOL    HW228764   0.169   0.757  17.508 -2.0804  0.4302 -0.8216
 5710SOL     OW28765   1.817   4.102   8.510 -0.0427  0.3186  0.4019
 5710SOL    HW128766   1.869   4.143   8.579  1.9454 -1.4367 -0.0266
 5710SOL    HW228767   1.746   4.069   8.565  3.0821 -3.4881  2.1566
 5711SOL     OW28768   0.983   3.797  16.398 -0.0376  0.1999  0.0387
 5711SOL    HW128769   1.079   3.792  16.396  0.0181  1.6268 -0.8810
 5711SOL    HW228770   0.963   3.769  16.487 -0.5747  0.8732  0.1245
 5712SOL     OW28771   1.723   1.011  17.459  0.3123  0.1139  0.0479
 5712SOL    HW128772   1.794   1.005  17.522  0.7481 -1.4628 -0.5981
 5712SOL    HW228773   1.734   0.935  17.402 -0.0267 -0.8214  1.2211
 5713SOL     OW28774   1.776   0.105  17.512  0.0997 -0.2788 -0.6478
 5713SOL    HW128775   1.822   0.179  17.553 -2.4568  0.8211  0.2473
 5713SOL    HW228776   1.704   0.154  17.473 -1.3039  0.0442  2.3122
 5714SOL     OW28777   3.402   3.337   2.900 -0.3782 -0.4149  0.3023
 5714SOL    HW128778   3.485   3.327   2.948 -0.4617 -2.6526 -0.0338
 5714SOL    HW228779   3.361   3.253   2.921  3.3708 -1.8119  2.0191
 5715SOL     OW28780   3.757   1.295   1.766 -0.0533 -0.7298  0.4707
 5715SOL    HW128781   3.817   1.342   1.824 -2.6030  2.3057  0.6683
 5715SOL    HW228782   3.696   1.270   1.835  0.1551  0.1167  0.9534
 5716SOL     OW28783   2.555   4.644   4.985 -0.1014 -0.2449  0.4134
 5716SOL    HW128784   2.501   4.619   5.060 -0.6699 -1.1388 -0.3034
 5716SOL    HW228785   2.487   4.642   4.917  0.1576 -1.1953  0.1888
 5717SOL     OW28786   0.579   0.383   3.100  0.0786  0.0783 -0.0854
 5717SOL    HW128787   0.588   0.381   3.195  0.1420  3.3279 -0.0156
 5717SOL    HW228788   0.668   0.411   3.082 -0.4764  2.3007  0.6828
 5718SOL     OW28789   1.122   3.757   9.431  0.1916 -0.0901  0.1230
 5718SOL    HW128790   1.212   3.728   9.416  0.0809 -0.3901  0.0387
 5718SOL    HW228791   1.110   3.815   9.356 -0.2734  0.7299  0.8357
 5719SOL     OW28792   0.278   0.795   4.195 -0.1318  0.1426 -0.1330
 5719SOL    HW128793   0.359   0.795   4.143  0.1640 -0.1213  0.3320
 5719SOL    HW228794   0.243   0.882   4.172 -0.6112 -0.4198 -1.5226
 5720SOL     OW28795   1.668   2.702   8.477 -0.3513  0.4129 -0.1241
 5720SOL    HW128796   1.583   2.702   8.521  0.7004  0.7425  1.8781
 5720SOL    HW228797   1.636   2.649   8.403 -0.6309 -0.0012  0.2951
 5721SOL     OW28798   0.017   0.827  15.549 -0.0588 -0.0381  0.5975
 5721SOL    HW128799   0.050   0.772  15.477  0.5363  1.6246 -0.3879
 5721SOL    HW228800   0.086   0.808  15.613 -0.6875 -2.1692  0.6420
 5722SOL     OW28801   3.421   1.924   3.729 -0.5941  0.1834 -0.2342
 5722SOL    HW128802   3.372   1.904   3.649  0.3969  0.0127 -0.8044
 5722SOL    HW228803   3.459   1.837   3.741 -0.9508  0.2252  1.1441
 5723SOL     OW28804   2.551   0.275   6.620  0.5840 -0.0503 -0.5616
 5723SOL    HW128805   2.538   0.361   6.660  0.3793 -0.3339 -0.0174
 5723SOL    HW228806   2.542   0.295   6.527 -0.6605 -0.9106 -0.6272
 5724SOL     OW28807   0.459   2.689   2.403  0.0434  0.2858  0.2537
 5724SOL    HW128808   0.479   2.755   2.470 -0.6622  1.1249 -0.3657
 5724SOL    HW228809   0.511   2.611   2.421  1.8444  1.6431  0.8441
 5725SOL     OW28810   3.324   0.234  15.472 -0.5894 -0.1524  0.1212
 5725SOL    HW128811   3.248   0.281  15.438  1.0330  1.3917 -1.3500
 5725SOL    HW228812   3.288   0.156  15.515 -1.1267  0.3622  0.5944
 5726SOL     OW28813   2.909   0.433   9.475  0.5776  0.3961 -0.3848
 5726SOL    HW128814   2.837   0.383   9.435  0.0762  1.2320 -0.5357
 5726SOL    HW228815   2.968   0.364   9.507  0.8477  0.8658  0.1112
 5727SOL     OW28816   3.719   3.421   7.547  0.0853  0.4084 -0.3107
 5727SOL    HW128817   3.807   3.429   7.584 -0.6074 -0.2674  1.4500
 5727SOL    HW228818   3.657   3.483   7.585 -0.2647  0.0906 -0.3649
 5728SOL     OW28819   1.418   4.401   7.285 -0.2313 -0.3916 -0.6255
 5728SOL    HW128820   1.418   4.345   7.206  0.3045  0.4676 -1.2367
 5728SOL    HW228821   1.422   4.482   7.234 -0.2791 -0.5625 -0.9021
 5729SOL     OW28822   2.298   1.814   8.451  0.1983 -0.3033 -0.0848
 5729SOL    HW128823   2.352   1.891   8.471 -0.5579  0.3367 -0.4843
 5729SOL    HW228824   2.215   1.859   8.462  0.1595 -0.6708  1.0569
 5730SOL     OW28825   2.415   0.544   8.268 -0.4135  0.0679  0.1715
 5730SOL    HW128826   2.370   0.574   8.189  0.0251  1.7967  0.5699
 5730SOL    HW228827   2.476   0.617   8.280  2.0118 -1.5776 -2.4708
 5731SOL     OW28828   4.679   1.468   7.704 -0.2854 -0.0595  0.3059
 5731SOL    HW128829   0.009   1.506   7.759 -0.4159  2.4815 -1.3055
 5731SOL    HW228830   4.616   1.432   7.767 -2.4406 -1.6901 -2.7892
 5732SOL     OW28831   1.575   1.169   3.243 -0.0034 -0.1379 -0.1125
 5732SOL    HW128832   1.572   1.165   3.147 -0.0729  4.8014 -0.3445
 5732SOL    HW228833   1.603   1.079   3.255 -0.5790 -0.3597 -0.4138
 5733SOL     OW28834   3.838   0.784   4.347  0.6067  0.1755 -0.1668
 5733SOL    HW128835   3.793   0.807   4.266 -2.7548  0.3607  1.7792
 5733SOL    HW228836   3.895   0.859   4.364 -0.5595  0.9427  0.3142
 5734SOL     OW28837   4.624   1.265  10.111 -0.1333 -0.0794 -0.7728
 5734SOL    HW128838   4.617   1.201  10.182 -3.8181  0.7112 -0.4749
 5734SOL    HW228839   4.594   1.221  10.031  0.0231  2.0464 -1.9819
 5735SOL     OW28840   3.146   1.275   0.311 -0.7091 -0.2839  0.0279
 5735SOL    HW128841   3.126   1.336   0.381 -2.0536 -0.2438 -0.3968
 5735SOL    HW228842   3.145   1.196   0.366 -0.3921  2.0176  3.3506
 5736SOL     OW28843   2.864   3.168   9.871  0.0764 -0.1103 -0.4667
 5736SOL    HW128844   2.822   3.127   9.796  0.8786  0.6778 -1.3566
 5736SOL    HW228845   2.887   3.249   9.826  0.0783 -1.0181 -2.1143
 5737SOL     OW28846   0.421   0.461   6.944  0.0000  0.1096 -0.4295
 5737SOL    HW128847   0.461   0.548   6.943  2.0064 -0.8053  0.9904
 5737SOL    HW228848   0.497   0.405   6.932  0.7921  1.0133  0.3629
 5738SOL     OW28849   0.250   4.438   2.403 -0.2329 -0.1464  0.4211
 5738SOL    HW128850   0.341   4.468   2.412 -0.5065  0.8368 -0.0171
 5738SOL    HW228851   0.256   4.394   2.318  0.6483 -0.1935  0.5038
 5739SOL     OW28852   2.206   0.915   2.773 -0.0256  0.8386 -0.8751
 5739SOL    HW128853   2.258   0.845   2.812  0.0707  1.4599  0.1070
 5739SOL    HW228854   2.240   0.993   2.817 -0.2747  0.1458  0.5307
 5740SOL     OW28855   3.250   0.463   2.946  0.2154 -0.0794  0.1917
 5740SOL    HW128856   3.290   0.547   2.925  0.2289 -0.5850 -1.8748
 5740SOL    HW228857   3.320   0.398   2.955 -0.6842 -0.8370  1.7912
 5741SOL     OW28858   1.732   4.074  17.569 -0.0714 -0.0719 -0.0748
 5741SOL    HW128859   1.777   4.069  17.485 -0.1089 -1.6222 -0.0132
 5741SOL    HW228860   1.809   4.082  17.625 -0.2298 -2.1660  0.4426
 5742SOL     OW28861   4.727   0.300   4.653  0.0482  0.5371  0.3498
 5742SOL    HW128862   0.010   0.360   4.725  0.0499 -0.3799  1.1135
 5742SOL    HW228863   4.670   0.234   4.693 -0.4632  2.1145  2.2530
 5743SOL     OW28864   0.811   0.736   1.113  0.0317  0.5323 -0.0071
 5743SOL    HW128865   0.828   0.789   1.191  0.9837 -0.4050  0.4104
 5743SOL    HW228866   0.730   0.776   1.080  0.0686 -0.4542 -1.3002
 5744SOL     OW28867   0.965   3.550  13.447  0.6408  0.0024  0.1726
 5744SOL    HW128868   0.931   3.530  13.534 -1.8227 -1.5685 -1.1486
 5744SOL    HW228869   0.969   3.646  13.441 -0.4017 -0.0426 -1.2089
 5745SOL     OW28870   3.399   1.201   6.016 -0.2723 -0.0633  0.1745
 5745SOL    HW128871   3.448   1.243   6.086  0.2400  1.5993 -1.1891
 5745SOL    HW228872   3.351   1.136   6.067 -0.7299 -1.1093 -1.5684
 5746SOL     OW28873   4.580   2.082   9.912 -0.2181  0.1220 -0.0724
 5746SOL    HW128874   4.552   2.002   9.868  1.8278 -0.7004  0.1608
 5746SOL    HW228875   4.500   2.096   9.963 -0.5933  0.4773 -0.7487
 5747SOL     OW28876   0.287   4.261   7.824  0.1830 -0.1143  0.6978
 5747SOL    HW128877   0.358   4.220   7.874  1.2766  0.5004 -0.3240
 5747SOL    HW228878   0.327   4.347   7.810  0.7017 -0.8718 -2.6539
 5748SOL     OW28879   2.209   3.205   8.931 -0.5826 -0.5235 -0.0726
 5748SOL    HW128880   2.197   3.296   8.905 -3.2502 -0.6577  0.7195
 5748SOL    HW228881   2.152   3.157   8.871  1.7730 -1.9248 -1.2313
 5749SOL     OW28882   0.292   4.439  10.498  0.1873 -0.3383  1.2620
 5749SOL    HW128883   0.267   4.507  10.560  0.9404 -0.2701  1.4997
 5749SOL    HW228884   0.265   4.484  10.418  2.5784 -1.2266 -0.0620
 5750SOL     OW28885   2.610   3.373   8.487  0.5243  0.1550  0.3632
 5750SOL    HW128886   2.525   3.373   8.531 -0.3309  1.2256 -1.2954
 5750SOL    HW228887   2.649   3.309   8.547  0.6537 -0.4985 -0.4139
 5751SOL     OW28888   2.967   3.143   7.983  0.4030 -0.4075 -0.2203
 5751SOL    HW128889   3.054   3.154   8.022 -0.3660  0.0310  1.3754
 5751SOL    HW228890   2.966   3.232   7.949  0.9324 -0.1347  0.4508
 5752SOL     OW28891   4.562   1.288   5.387  0.0033 -0.1060 -0.5608
 5752SOL    HW128892   4.615   1.353   5.341  1.6473 -1.1260 -0.0915
 5752SOL    HW228893   4.558   1.325   5.475 -1.2095  0.9259 -1.0401
 5753SOL     OW28894   0.266   0.512   2.025  0.9368 -0.3523 -0.6333
 5753SOL    HW128895   0.255   0.515   1.930 -1.0453 -1.8919 -0.4607
 5753SOL    HW228896   0.326   0.585   2.039 -1.7830  1.4332  1.8364
 5754SOL     OW28897   4.430   1.595   2.360 -0.2866  0.5290 -0.2718
 5754SOL    HW128898   4.481   1.529   2.406 -0.4980  0.5144 -0.0621
 5754SOL    HW228899   4.484   1.673   2.371  2.0703 -0.9251 -1.5185
 5755SOL     OW28900   2.740   1.410   5.715  0.0921 -0.1237  0.3901
 5755SOL    HW128901   2.682   1.465   5.662 -1.4507  0.6141  2.8471
 5755SOL    HW228902   2.763   1.468   5.788  0.2854  1.4469 -0.9272
 5756SOL     OW28903   3.749   1.520  13.551 -0.0127  0.3032 -0.1421
 5756SOL    HW128904   3.747   1.608  13.589  0.2510 -0.2738  1.1814
 5756SOL    HW228905   3.751   1.465  13.628 -0.5202  2.1139  1.1688
 5757SOL     OW28906   1.099   0.798   9.241  0.2312 -0.1224 -0.1513
 5757SOL    HW128907   1.037   0.826   9.309  0.4099 -0.9897  0.3549
 5757SOL    HW228908   1.131   0.879   9.201  1.3096 -1.0743 -1.1804
 5758SOL     OW28909   3.628   0.636   0.809  0.2913  0.5846  0.2032
 5758SOL    HW128910   3.717   0.644   0.842  0.1565  3.5683 -0.1642
 5758SOL    HW228911   3.580   0.620   0.890 -0.3060  0.8774 -0.0854
 5759SOL     OW28912   0.519   4.270   3.307 -0.5494  0.1193  0.3901
 5759SOL    HW128913   0.537   4.297   3.217  1.6259 -0.0382  0.7754
 5759SOL    HW228914   0.447   4.331   3.324  1.0697  1.9155  0.8067
 5760SOL     OW28915   4.477   3.831   3.720 -0.1908 -0.4214  0.6116
 5760SOL    HW128916   4.571   3.816   3.728 -0.0243  0.6010  0.5827
 5760SOL    HW228917   4.482   3.878   3.637  0.0977  1.3280  1.6149
 5761SOL     OW28918   0.264   4.318  16.781  0.1880  0.1393 -0.5813
 5761SOL    HW128919   0.281   4.411  16.789 -2.0666  0.2124  3.1432
 5761SOL    HW228920   0.335   4.292  16.722 -0.6917 -1.4380 -0.9387
 5762SOL     OW28921   2.553   2.951   9.879  0.5742 -0.3324 -0.7563
 5762SOL    HW128922   2.579   3.028   9.829  0.3017 -0.3096 -0.8607
 5762SOL    HW228923   2.559   2.974   9.972  0.2614 -1.7845 -0.3692
 5763SOL     OW28924   2.382   1.203   5.119 -0.1128 -0.4088 -0.5326
 5763SOL    HW128925   2.290   1.211   5.145  0.1423 -0.2852  0.3367
 5763SOL    HW228926   2.373   1.198   5.024 -0.7676  2.2694 -0.6133
 5764SOL     OW28927   4.058   1.582   4.918  0.2060  0.0770 -0.7457
 5764SOL    HW128928   4.074   1.668   4.958  0.0956 -0.0123 -0.5058
 5764SOL    HW228929   3.993   1.540   4.974  1.1529  0.1852  0.4391
 5765SOL     OW28930   4.462   3.287  11.882  0.8550  0.8033 -0.5719
 5765SOL    HW128931   4.372   3.256  11.892  0.7179  0.7283 -2.0302
 5765SOL    HW228932   4.498   3.257  11.799  1.8448  1.4464 -0.3657
 5766SOL     OW28933   3.170   4.536  14.561 -0.0984 -0.1185 -0.6826
 5766SOL    HW128934   3.101   4.527  14.626  0.7447  1.9559  0.5258
 5766SOL    HW228935   3.193   4.444  14.548  0.3865  0.0417 -0.9685
 5767SOL     OW28936   2.720   2.634   3.738  0.3962 -0.1861  0.6845
 5767SOL    HW128937   2.772   2.600   3.665 -2.9828  0.0353 -1.8312
 5767SOL    HW228938   2.737   2.568   3.805  1.5230  1.0213  1.5753
 5768SOL     OW28939   0.606   4.261   8.254 -0.2035  0.3616  0.2217
 5768SOL    HW128940   0.572   4.186   8.206 -0.1294 -0.1815  1.0232
 5768SOL    HW228941   0.671   4.296   8.193 -2.0621  2.3107 -0.6488
 5769SOL     OW28942   1.311   3.498   6.078 -0.1750  0.0971 -0.4691
 5769SOL    HW128943   1.313   3.432   6.009  2.1156 -0.9265  0.5841
 5769SOL    HW228944   1.271   3.567   6.025  0.4113  1.4677  0.8824
 5770SOL     OW28945   3.112   2.455   6.373 -0.3020  0.3751  0.0266
 5770SOL    HW128946   3.092   2.526   6.434  0.8845  0.0293  0.8173
 5770SOL    HW228947   3.059   2.472   6.295  1.1877  2.7830 -0.4438
 5771SOL     OW28948   0.054   3.888   1.578  0.0911  0.4093 -0.4479
 5771SOL    HW128949   4.705   3.908   1.611  0.1528  1.8048 -1.1651
 5771SOL    HW228950   0.065   3.807   1.628 -0.3167  0.5736 -0.0865
 5772SOL     OW28951   3.795   3.972   3.377  0.0138  0.8538  0.2399
 5772SOL    HW128952   3.758   3.892   3.338 -0.7762  1.7453 -0.8353
 5772SOL    HW228953   3.886   3.958   3.352 -0.2546 -0.8771  0.2213
 5773SOL     OW28954   1.067   3.771   3.361  0.0881  0.4664 -0.3705
 5773SOL    HW128955   1.121   3.834   3.312  0.8001  0.6133  0.6052
 5773SOL    HW228956   1.045   3.832   3.431  2.0427  2.8796 -1.8342
 5774SOL     OW28957   0.008   1.204   0.435 -0.3365 -0.6763  0.0677
 5774SOL    HW128958   4.714   1.194   0.524  1.8179  1.8613  1.1529
 5774SOL    HW228959   4.685   1.267   0.399 -0.1879 -0.6295 -0.1072
 5775SOL     OW28960   0.021   0.121  10.852  0.1784 -0.7114 -0.2238
 5775SOL    HW128961   0.116   0.120  10.868  0.2242 -3.2655 -0.7683
 5775SOL    HW228962   4.736   0.214  10.846  1.2705 -0.2689  2.1666
 5776SOL     OW28963   1.764   1.671   7.217  0.0669 -0.8598  0.2398
 5776SOL    HW128964   1.819   1.670   7.139  0.8238  1.9411  0.7432
 5776SOL    HW228965   1.676   1.697   7.190  0.1089  0.5970  1.4730
 5777SOL     OW28966   3.342   2.754   9.236 -0.2024  0.3214 -0.7542
 5777SOL    HW128967   3.408   2.734   9.302  0.2036 -0.0600 -1.2821
 5777SOL    HW228968   3.299   2.822   9.288 -0.8611 -0.6136 -0.0897
 5778SOL     OW28969   4.535   3.919   8.749 -0.6847  0.6393 -0.0980
 5778SOL    HW128970   4.466   3.919   8.816 -1.5350  2.2406 -0.9851
 5778SOL    HW228971   4.531   3.830   8.712 -2.0260  0.7895 -0.3326
 5779SOL     OW28972   2.643   0.159   8.575  0.1541  0.2438 -0.1755
 5779SOL    HW128973   2.714   0.215   8.542  1.0462 -1.1607 -0.6530
 5779SOL    HW228974   2.654   0.084   8.516  1.1848 -0.0666  0.3987
 5780SOL     OW28975   0.055   1.562  12.288  0.8329  0.5651 -0.0191
 5780SOL    HW128976   0.139   1.561  12.244  1.7644  1.3714  1.7291
 5780SOL    HW228977   0.030   1.471  12.272  3.5444 -0.1509 -0.0849
 5781SOL     OW28978   3.269   4.460   6.226  0.0128 -0.5699  0.0573
 5781SOL    HW128979   3.247   4.383   6.174  2.8441 -1.3716  0.0350
 5781SOL    HW228980   3.348   4.499   6.189  0.1511 -0.0156  0.9406
 5782SOL     OW28981   1.308   0.886   4.961 -0.2481  0.0639  0.0934
 5782SOL    HW128982   1.345   0.959   5.010 -2.1764  0.8660  0.3445
 5782SOL    HW228983   1.278   0.828   5.032  0.4150 -0.8141 -0.3415
 5783SOL     OW28984   2.472   1.361   6.181  0.0730  0.2440  0.7713
 5783SOL    HW128985   2.457   1.456   6.184  1.8075  0.5119  0.6948
 5783SOL    HW228986   2.564   1.347   6.202  0.0275 -0.4068  0.5362
 5784SOL     OW28987   3.167   2.165  13.848 -0.2048  0.4113  0.2433
 5784SOL    HW128988   3.242   2.200  13.897  0.3178 -0.1086 -0.1931
 5784SOL    HW228989   3.175   2.203  13.761 -1.7675 -0.6142 -0.3342
 5785SOL     OW28990   4.375   1.380   2.149  0.5068 -0.4891 -0.7240
 5785SOL    HW128991   4.455   1.379   2.096  0.8138  0.2410 -0.2688
 5785SOL    HW228992   4.411   1.415   2.230 -1.9832 -1.9867  1.0410
 5786SOL     OW28993   4.611   2.220   4.166 -0.2928 -0.4160  0.2567
 5786SOL    HW128994   4.545   2.271   4.119  0.3362  1.7017  1.7029
 5786SOL    HW228995   4.645   2.273   4.238 -0.5888 -1.2957  1.0424
 5787SOL     OW28996   0.442   4.484   7.811 -0.6979  0.1069  0.5557
 5787SOL    HW128997   0.434   4.501   7.905  1.9141 -3.3224  1.4082
 5787SOL    HW228998   0.506   4.548   7.779 -0.6567  0.4665  1.3762
 5788SOL     OW28999   0.602   0.724   2.830 -0.1662  0.0734 -0.4451
 5788SOL    HW129000   0.532   0.769   2.782  0.1172  1.7039  0.6664
 5788SOL    HW229001   0.616   0.642   2.783 -1.3502 -0.1979 -0.3450
 5789SOL     OW29002   3.550   2.283   0.908 -0.4595  0.6260 -0.0031
 5789SOL    HW129003   3.486   2.332   0.856  0.3221 -0.5987 -2.1108
 5789SOL    HW229004   3.636   2.288   0.866  0.4789 -1.1418  1.7192
 5790SOL     OW29005   3.596   0.021   8.684 -0.1890  0.5307 -0.4977
 5790SOL    HW129006   3.615   0.108   8.720  0.2564  0.3062 -0.1922
 5790SOL    HW229007   3.685   4.731   8.663  0.8191  1.7335  2.1673
 5791SOL     OW29008   3.475   1.264  15.379 -0.3960 -0.6477 -0.0562
 5791SOL    HW129009   3.526   1.194  15.421  0.7557 -0.6030 -1.3420
 5791SOL    HW229010   3.417   1.278  15.453 -1.0269 -0.0138 -0.6731
 5792SOL     OW29011   2.950   1.817   1.854  0.2000  0.3453 -0.2236
 5792SOL    HW129012   2.958   1.839   1.761  1.7160  1.6312  0.2099
 5792SOL    HW229013   3.006   1.887   1.887  0.4659  0.7694 -1.5890
 5793SOL     OW29014   0.406   1.933   7.946 -0.4112 -0.3252 -0.1470
 5793SOL    HW129015   0.389   1.960   8.036  1.8800 -0.4111  0.3234
 5793SOL    HW229016   0.318   1.939   7.907 -0.5575 -1.7160 -0.0152
 5794SOL     OW29017   2.455   3.658  17.651 -0.5261  0.2151 -0.5563
 5794SOL    HW129018   2.449   3.687  17.742  0.1487  0.5312 -0.6195
 5794SOL    HW229019   2.474   3.565  17.664 -0.5177  0.0231 -1.9187
 5795SOL     OW29020   2.770   3.955   5.459 -0.1654 -0.5767 -0.4945
 5795SOL    HW129021   2.848   3.907   5.430  1.1140  2.0069 -1.2645
 5795SOL    HW229022   2.770   4.029   5.399  0.1728  0.6054  0.9636
 5796SOL     OW29023   1.991   3.007  16.797  0.4502  0.9660 -0.2956
 5796SOL    HW129024   1.989   2.913  16.810  1.3790  0.8273 -1.2357
 5796SOL    HW229025   1.930   3.034  16.866 -1.1961 -0.8726 -1.0573
 5797SOL     OW29026   1.175   3.909   4.829 -0.7220 -0.1263 -0.2783
 5797SOL    HW129027   1.117   3.922   4.754 -1.0723  1.6304  0.2854
 5797SOL    HW229028   1.220   3.828   4.805 -0.6121 -0.4207  0.9092
 5798SOL     OW29029   3.748   1.127  17.709 -0.2417 -0.3831 -0.1806
 5798SOL    HW129030   3.667   1.078  17.723 -0.0652 -0.2640  1.2305
 5798SOL    HW229031   3.723   1.201  17.654 -1.2626 -0.5851  0.0093
 5799SOL     OW29032   4.127   3.143  11.875  0.4646 -0.6953  0.1523
 5799SOL    HW129033   4.130   3.201  11.951  1.2005  0.4141 -0.7206
 5799SOL    HW229034   4.033   3.126  11.880  0.5304 -0.4595  2.2615
 5800SOL     OW29035   3.480   2.872  13.526  0.0183 -0.8357  0.2054
 5800SOL    HW129036   3.410   2.863  13.592 -0.7784  2.6133 -0.1806
 5800SOL    HW229037   3.536   2.932  13.574  0.9718 -1.7078  0.1712
 5801SOL     OW29038   0.553   0.529   0.586  0.1778  0.6344  0.0038
 5801SOL    HW129039   0.592   0.473   0.519 -0.1771  0.5570 -0.1425
 5801SOL    HW229040   0.526   0.598   0.525 -2.1961  0.2077  0.5444
 5802SOL     OW29041   3.901   3.971   1.139 -0.0571  1.0963  0.3894
 5802SOL    HW129042   3.986   3.965   1.094 -0.8369 -1.3421 -0.7499
 5802SOL    HW229043   3.851   3.997   1.062 -0.0049 -0.0744 -0.0425
 5803SOL     OW29044   2.070   0.095  16.016  0.5955  0.0174 -0.0167
 5803SOL    HW129045   2.002   0.155  16.046  1.1165  1.0851 -0.9526
 5803SOL    HW229046   2.012   0.023  15.991  0.1139  0.1638  0.6742
 5804SOL     OW29047   3.517   3.284   9.092  0.3054  0.4735  0.2931
 5804SOL    HW129048   3.558   3.219   9.149  0.5501  0.5141  0.1615
 5804SOL    HW229049   3.596   3.334   9.068 -1.6317  3.5543  0.2817
 5805SOL     OW29050   1.152   4.681   3.465  0.3950  0.0381  0.3103
 5805SOL    HW129051   1.236   4.718   3.437  0.4752 -0.2615  0.1592
 5805SOL    HW229052   1.136   4.632   3.384 -1.6664 -0.4578  1.0384
 5806SOL     OW29053   2.440   1.099   2.358  0.6809 -0.0882  0.0457
 5806SOL    HW129054   2.433   1.107   2.263  0.6504  0.0542  0.0597
 5806SOL    HW229055   2.535   1.111   2.368 -0.0117  2.0273  4.0299
 5807SOL     OW29056   3.746   3.487   6.106  0.4139 -0.8562 -0.3761
 5807SOL    HW129057   3.672   3.499   6.047 -1.3213 -1.6812  1.6687
 5807SOL    HW229058   3.763   3.393   6.105  0.8906 -0.7618 -2.5030
 5808SOL     OW29059   2.191   1.327   2.818  0.4835  0.1684  0.6927
 5808SOL    HW129060   2.161   1.417   2.808  2.6930  0.9028  0.7439
 5808SOL    HW229061   2.264   1.330   2.756 -1.0244 -0.6837 -1.1211
 5809SOL     OW29062   4.326   4.582   1.963 -0.1196  0.4143  0.1650
 5809SOL    HW129063   4.332   4.625   1.878  0.8500  0.7241  0.3966
 5809SOL    HW229064   4.235   4.553   1.962 -0.1522  0.6286 -2.5561
 5810SOL     OW29065   0.331   4.631   4.073 -0.0839 -0.1050 -0.2785
 5810SOL    HW129066   0.306   4.552   4.024  0.6320 -0.7789  0.4308
 5810SOL    HW229067   0.372   4.675   3.999 -0.7923  0.4101 -0.3627
 5811SOL     OW29068   4.014   1.802   8.443 -0.4497  0.2339 -0.1450
 5811SOL    HW129069   4.104   1.789   8.414 -0.1643 -0.4666  1.0561
 5811SOL    HW229070   4.005   1.890   8.405 -1.3531  1.4197  2.7887
 5812SOL     OW29071   1.505   3.326   0.851  0.2146 -0.4563  0.1163
 5812SOL    HW129072   1.556   3.248   0.871 -0.1623 -0.7174  0.0497
 5812SOL    HW229073   1.560   3.348   0.775  2.1988  0.3977  1.7946
 5813SOL     OW29074   0.848   1.204  13.410 -0.0569  0.1569  0.0939
 5813SOL    HW129075   0.876   1.295  13.417 -3.0517  1.0956 -0.0543
 5813SOL    HW229076   0.768   1.195  13.462  1.0346 -0.1505  1.7240
 5814SOL     OW29077   1.693   2.637   2.071  0.1679  0.2852  0.0613
 5814SOL    HW129078   1.642   2.714   2.097  1.0177  0.9846 -0.3659
 5814SOL    HW229079   1.629   2.568   2.055  1.7656 -1.2008  0.0859
 5815SOL     OW29080   4.084   1.155   1.115  0.1261  0.3615  0.3598
 5815SOL    HW129081   4.113   1.065   1.130  0.5544  0.4192 -0.1399
 5815SOL    HW229082   4.089   1.190   1.204  0.4009  1.0130  0.0885
 5816SOL     OW29083   1.435   2.227   4.978  0.1490  0.5019 -0.1258
 5816SOL    HW129084   1.380   2.294   4.937  0.1806  0.2477 -0.5821
 5816SOL    HW229085   1.482   2.292   5.031  1.0126  0.6099 -1.0095
 5817SOL     OW29086   1.916   0.083   8.254  0.4957 -0.4368 -0.0148
 5817SOL    HW129087   1.985   0.098   8.320 -0.4476  2.3034  0.3477
 5817SOL    HW229088   1.843   0.119   8.303  0.3445 -2.4399  1.2589
 5818SOL     OW29089   1.952   3.984   5.287  0.0988  0.3671 -0.4198
 5818SOL    HW129090   1.889   3.934   5.338  0.8353  0.8769  0.9775
 5818SOL    HW229091   1.891   4.036   5.234 -1.5585 -2.3911 -1.2462
 5819SOL     OW29092   4.134   2.442   6.542 -0.3331  0.1276 -0.1511
 5819SOL    HW129093   4.181   2.360   6.531  0.6393  0.4335  1.8514
 5819SOL    HW229094   4.065   2.429   6.608  0.2709 -0.7769  0.2998
 5820SOL     OW29095   0.636   2.448   7.534  0.3749  0.2162  0.0129
 5820SOL    HW129096   0.577   2.521   7.517 -0.2041 -0.7963 -2.3001
 5820SOL    HW229097   0.601   2.394   7.605 -1.4142  2.4919  0.8362
 5821SOL     OW29098   0.574   4.095   1.728  0.3135  0.1720  0.5351
 5821SOL    HW129099   0.558   4.122   1.819  1.3753 -0.5885  0.9440
 5821SOL    HW229100   0.484   4.098   1.695  0.1289 -2.4298  0.7589
 5822SOL     OW29101   1.180   2.926   2.119 -0.0941  0.2807 -0.3730
 5822SOL    HW129102   1.227   2.900   2.198 -1.2744 -2.3759 -0.5499
 5822SOL    HW229103   1.167   3.020   2.129  4.1906  0.8030  0.5120
 5823SOL     OW29104   0.860   4.724  17.547 -0.1084  1.1749  0.0541
 5823SOL    HW129105   0.898   4.718  17.460  1.4984 -2.9175  1.0374
 5823SOL    HW229106   0.766   4.722  17.530 -0.3350 -1.3380  1.5740
 5824SOL     OW29107   2.395   1.395   5.345  0.2611  0.7062 -0.1061
 5824SOL    HW129108   2.427   1.325   5.289 -0.3908  1.1727 -1.0510
 5824SOL    HW229109   2.369   1.465   5.286 -1.3577 -0.0995 -0.3496
 5825SOL     OW29110   1.653   2.551  14.045 -0.3028  0.9153  0.4829
 5825SOL    HW129111   1.613   2.477  14.001  0.4987  1.6837 -1.5222
 5825SOL    HW229112   1.596   2.623  14.018 -1.7101  0.2676  1.6900
 5826SOL     OW29113   2.552   0.102   8.840 -0.1710 -0.2074 -0.2974
 5826SOL    HW129114   2.586   0.130   8.755 -0.4496  1.8457  0.2662
 5826SOL    HW229115   2.627   0.069   8.890 -2.2411 -2.0106  1.6105
 5827SOL     OW29116   4.199   3.395   2.808  0.1696 -0.0446  0.3627
 5827SOL    HW129117   4.113   3.430   2.833  0.1611  1.1745 -1.3459
 5827SOL    HW229118   4.182   3.335   2.735  2.7426  1.4716 -1.4936
 5828SOL     OW29119   2.234   2.760  16.882  0.5974  0.1676  0.3217
 5828SOL    HW129120   2.187   2.717  16.953  1.0551 -2.1778 -0.8150
 5828SOL    HW229121   2.196   2.712  16.809  1.5781 -0.4706  0.2405
 5829SOL     OW29122   0.387   0.797   7.674  0.2617 -0.8635  0.8486
 5829SOL    HW129123   0.427   0.856   7.610 -0.7172  0.3272  1.3411
 5829SOL    HW229124   0.407   0.709   7.641 -3.3236 -0.9949 -0.9275
 5830SOL     OW29125   4.096   3.986  12.413 -0.0948 -0.3306  0.0544
 5830SOL    HW129126   4.089   3.994  12.508 -1.5117  0.8035 -0.1407
 5830SOL    HW229127   4.184   4.022  12.402  0.4109 -1.3098  0.9274
 5831SOL     OW29128   4.617   3.248   8.360 -0.4287  0.1404  0.8065
 5831SOL    HW129129   4.601   3.282   8.272  1.0751 -0.0939  0.4554
 5831SOL    HW229130   4.623   3.333   8.404  0.7891  0.7848 -0.6152
 5832SOL     OW29131   3.938   3.775   3.571  0.3318  0.0924  0.7278
 5832SOL    HW129132   3.854   3.819   3.587  0.3108  0.0979  0.6049
 5832SOL    HW229133   3.959   3.823   3.490 -2.5622  0.9276  0.4813
 5833SOL     OW29134   3.024   2.837  14.621 -0.3403 -0.3700  0.7368
 5833SOL    HW129135   3.033   2.745  14.594 -1.0594 -0.7287  1.7341
 5833SOL    HW229136   3.115   2.867  14.619 -0.9046  1.3436  1.5122
 5834SOL     OW29137   0.446   1.701  15.611  0.0055 -0.1911  0.3781
 5834SOL    HW129138   0.403   1.775  15.656 -0.0973  0.2872 -0.5171
 5834SOL    HW229139   0.381   1.697  15.542 -0.7353 -2.3251  1.2014
 5835SOL     OW29140   1.485   2.481   6.832 -0.1730 -0.0708  0.3092
 5835SOL    HW129141   1.527   2.567   6.842 -2.0122  0.7210  1.2950
 5835SOL    HW229142   1.487   2.466   6.737 -1.0051 -0.6693  0.3949
 5836SOL     OW29143   3.958   1.011   5.450 -0.5141 -0.2037  0.3528
 5836SOL    HW129144   3.991   1.096   5.420 -0.6275 -1.1665 -2.4524
 5836SOL    HW229145   4.035   0.955   5.459 -0.7881 -0.3801  1.6727
 5837SOL     OW29146   0.371   1.014   4.986  0.4281 -0.4276 -0.2866
 5837SOL    HW129147   0.418   1.023   5.069  1.1128 -1.0324 -0.6113
 5837SOL    HW229148   0.415   1.084   4.939 -2.7818  1.5406 -0.3787
 5838SOL     OW29149   3.439   3.414   8.349 -1.1842 -0.4034  0.0928
 5838SOL    HW129150   3.356   3.388   8.309 -0.7675 -1.7368  0.0927
 5838SOL    HW229151   3.461   3.343   8.409 -0.5416 -1.5811 -1.5570
 5839SOL     OW29152   4.040   2.062   1.172  0.5082 -0.7145  0.2553
 5839SOL    HW129153   4.074   2.058   1.082 -1.8868 -0.8888 -0.6608
 5839SOL    HW229154   4.085   1.988   1.211 -1.0829 -1.4460  0.7224
 5840SOL     OW29155   1.331   2.950  11.659 -0.1803 -0.1327 -0.8605
 5840SOL    HW129156   1.382   2.984  11.732 -1.7295 -1.1323  0.6747
 5840SOL    HW229157   1.390   2.941  11.584 -0.5732 -1.3841 -1.0235
 5841SOL     OW29158   4.524   1.726   9.146 -0.3257 -0.4347  0.2469
 5841SOL    HW129159   4.449   1.711   9.203  0.6574  1.8599  2.1414
 5841SOL    HW229160   4.559   1.811   9.175  0.4462 -0.5586 -0.3059
 5842SOL     OW29161   3.151   1.358   2.539 -0.8903 -0.0396 -0.0208
 5842SOL    HW129162   3.138   1.443   2.497 -0.8949 -1.0951 -2.1671
 5842SOL    HW229163   3.131   1.308   2.460 -1.0336 -0.5880  0.3604
 5843SOL     OW29164   0.881   1.225  11.956 -0.3228 -0.5396 -0.2657
 5843SOL    HW129165   0.853   1.310  11.989  0.1945 -0.4984  0.0658
 5843SOL    HW229166   0.909   1.174  12.032  1.3869  3.0517  1.5303
 5844SOL     OW29167   0.760   0.197   9.201 -0.1069 -0.0137 -0.0049
 5844SOL    HW129168   0.851   0.170   9.214  0.1301 -0.3164 -2.2220
 5844SOL    HW229169   0.749   0.190   9.106 -1.7290  1.0707  0.1035
 5845SOL     OW29170   3.548   1.745   5.672 -0.6221 -0.2801  0.1957
 5845SOL    HW129171   3.633   1.700   5.666  0.7677  2.7250 -2.4799
 5845SOL    HW229172   3.502   1.716   5.751 -1.4389 -0.6663 -0.4188
 5846SOL     OW29173   0.498   2.147   7.729 -0.1660 -0.6245 -0.1808
 5846SOL    HW129174   0.433   2.181   7.668  0.7893  1.2459 -0.1630
 5846SOL    HW229175   0.451   2.079   7.777 -1.6828  1.9441  2.0157
 5847SOL     OW29176   1.544   4.611  17.599  0.3895  0.0390  0.4431
 5847SOL    HW129177   1.578   4.526  17.570 -0.8689 -0.6474  0.9222
 5847SOL    HW229178   1.493   4.638  17.523 -1.0618  0.1464  1.4357
 5848SOL     OW29179   4.654   1.295  11.924 -0.0865  0.7259 -0.3641
 5848SOL    HW129180   4.570   1.248  11.922  0.6925 -0.6679 -0.3142
 5848SOL    HW229181   4.650   1.349  12.003  1.5984 -0.1716  0.3466
 5849SOL     OW29182   3.526   0.092   2.429  0.1011 -0.0163  0.1178
 5849SOL    HW129183   3.463   0.029   2.464 -0.3003  1.6860  2.4799
 5849SOL    HW229184   3.468   0.160   2.396 -0.9398 -1.1573 -0.4096
 5850SOL     OW29185   2.090   4.705   4.982 -0.3336 -0.4339 -0.4959
 5850SOL    HW129186   2.141   4.624   4.989 -1.2118 -0.8822  0.6677
 5850SOL    HW229187   2.028   4.681   4.914  0.4058 -0.7221 -1.0655
 5851SOL     OW29188   2.907   4.714   6.442  0.0012  0.3345  0.9730
 5851SOL    HW129189   2.812   4.702   6.444  0.0772 -0.3422  0.4362
 5851SOL    HW229190   2.899   4.734   6.535 -2.8453 -1.3455  1.1019
 5852SOL     OW29191   2.879   3.460   9.879 -0.4843  0.7430  0.1360
 5852SOL    HW129192   2.868   3.411   9.960 -2.0975 -2.1237 -1.8041
 5852SOL    HW229193   2.815   3.530   9.882 -2.5839 -1.0499 -2.5747
 5853SOL     OW29194   4.382   2.315   2.831 -0.1621  0.1008  0.2602
 5853SOL    HW129195   4.301   2.264   2.822 -1.0547  1.6859 -0.8040
 5853SOL    HW229196   4.393   2.309   2.926 -0.8045 -0.5791  0.2914
 5854SOL     OW29197   2.315   2.595  14.554 -0.0963  0.4726  0.3085
 5854SOL    HW129198   2.282   2.523  14.607  0.5821  0.3539  0.5658
 5854SOL    HW229199   2.286   2.672  14.603 -1.9582 -0.7043  1.0266
 5855SOL     OW29200   2.568   2.968  10.183 -0.4690 -0.1032 -0.4862
 5855SOL    HW129201   2.572   2.993  10.276 -0.0263 -0.1980 -0.4775
 5855SOL    HW229202   2.474   2.952  10.187 -1.0573  3.2753 -0.7109
 5856SOL     OW29203   0.513   2.462   4.635  0.5473  0.1387 -0.2082
 5856SOL    HW129204   0.547   2.429   4.718 -1.2807 -1.9305 -0.2855
 5856SOL    HW229205   0.561   2.420   4.564  0.4599  0.7636 -0.6317
 5857SOL     OW29206   3.830   3.624  12.547  0.4618 -0.4049  0.0780
 5857SOL    HW129207   3.898   3.687  12.526 -1.0443  1.4971  0.8615
 5857SOL    HW229208   3.868   3.581  12.624 -0.4852  1.4086  1.5705
 5858SOL     OW29209   0.169   1.359   5.598  0.1734 -0.4320  0.1887
 5858SOL    HW129210   0.240   1.316   5.550 -0.0527 -0.6650  0.0587
 5858SOL    HW229211   0.212   1.438   5.631  4.6159 -2.2955 -1.1459
 5859SOL     OW29212   0.858   1.389   7.590  0.0636 -0.7330 -0.0281
 5859SOL    HW129213   0.936   1.337   7.571 -0.5677 -2.1454  1.2434
 5859SOL    HW229214   0.829   1.412   7.502 -1.0506 -0.3285  0.4455
 5860SOL     OW29215   2.533   3.398   7.903 -0.4669  0.0713 -0.1160
 5860SOL    HW129216   2.587   3.409   7.825 -0.4880  0.1603 -0.1189
 5860SOL    HW229217   2.555   3.483   7.942  1.9829 -0.8975  0.6597
 5861SOL     OW29218   4.272   1.359   6.006 -0.1212 -0.4513  0.1749
 5861SOL    HW129219   4.290   1.285   6.064  0.7032 -1.2553 -1.0940
 5861SOL    HW229220   4.325   1.428   6.046 -1.1641  1.5685 -1.9848
 5862SOL     OW29221   3.170   4.115   6.307  0.3616  0.2866  0.5409
 5862SOL    HW129222   3.194   4.179   6.240  1.4434  2.5405  3.0824
 5862SOL    HW229223   3.243   4.125   6.368  0.6184  0.0360  0.2696
 5863SOL     OW29224   0.095   1.150  17.054  0.0257  0.3180 -0.1587
 5863SOL    HW129225   0.011   1.184  17.023  0.0330  0.6949  0.2346
 5863SOL    HW229226   0.146   1.230  17.044  2.0313 -0.6769  2.0438
 5864SOL     OW29227   4.635   2.930  17.139 -0.2640  0.1173  0.4451
 5864SOL    HW129228   4.610   2.847  17.099 -0.5566  1.0761 -1.3066
 5864SOL    HW229229   4.566   2.988  17.108  0.1668  1.2101  1.5237
 5865SOL     OW29230   3.489   3.332  15.845  0.1873  0.1264 -0.6886
 5865SOL    HW129231   3.523   3.415  15.879  1.4720 -1.2544  1.3785
 5865SOL    HW229232   3.441   3.365  15.769  1.1549 -1.0697 -1.8004
 5866SOL     OW29233   0.616   2.479   4.074 -0.2162 -0.3682 -0.0191
 5866SOL    HW129234   0.594   2.568   4.046  1.9475 -0.0075 -0.6330
 5866SOL    HW229235   0.549   2.455   4.138 -1.1399  1.7269 -0.2092
 5867SOL     OW29236   3.015   2.714   4.016 -0.1795  0.1340 -0.2049
 5867SOL    HW129237   2.935   2.733   4.065 -1.0156 -3.3535 -0.2190
 5867SOL    HW229238   3.013   2.787   3.953  1.2335 -0.8142 -1.3382
 5868SOL     OW29239   3.652   3.001  12.239 -0.1335  0.4995  0.3814
 5868SOL    HW129240   3.558   2.989  12.245  0.1048 -0.0174  3.1380
 5868SOL    HW229241   3.685   2.952  12.164  1.1777  3.1519 -0.7848
 5869SOL     OW29242   1.210   1.991   2.575 -0.0352  0.0155  0.5472
 5869SOL    HW129243   1.131   1.942   2.596  1.2583 -1.6679  1.4077
 5869SOL    HW229244   1.175   2.043   2.502  1.3661 -2.2830 -1.7727
 5870SOL     OW29245   0.120   1.117   0.138 -0.1166  0.5833 -0.1983
 5870SOL    HW129246   0.188   1.094   0.075  0.3750 -0.4805  0.7118
 5870SOL    HW229247   0.081   1.198   0.105  0.6557  2.0819  2.5577
 5871SOL     OW29248   2.890   4.017   9.246 -0.2439  0.2475 -0.1044
 5871SOL    HW129249   2.971   4.062   9.223 -0.3533  0.2213 -0.5354
 5871SOL    HW229250   2.852   3.987   9.163  0.3163 -0.9937  0.0922
 5872SOL     OW29251   4.243   4.414   0.989 -0.2348  0.3070  0.8711
 5872SOL    HW129252   4.232   4.359   1.067  1.9464 -0.8805  0.3414
 5872SOL    HW229253   4.233   4.346   0.924  0.6623  2.3510 -1.4086
 5873SOL     OW29254   1.846   3.691   7.808  0.4478  0.0765 -0.5643
 5873SOL    HW129255   1.864   3.640   7.730 -1.2287 -0.1412 -0.8171
 5873SOL    HW229256   1.823   3.615   7.860 -0.0407  2.3796  2.5893
 5874SOL     OW29257   0.564   4.026   5.297  0.3542 -0.2254  0.0080
 5874SOL    HW129258   0.651   4.052   5.327 -0.2577 -0.2074  1.7917
 5874SOL    HW229259   0.516   4.083   5.358  0.9823 -0.9132  1.1358
 5875SOL     OW29260   2.721   4.404   5.628 -0.1633  0.0980  0.1299
 5875SOL    HW129261   2.710   4.310   5.642  0.3450  0.1369  0.7913
 5875SOL    HW229262   2.816   4.412   5.643 -0.4857  0.8539  1.7410
 5876SOL     OW29263   3.239   0.764   6.968 -0.3590 -0.2165 -0.0871
 5876SOL    HW129264   3.210   0.813   7.045 -0.7911 -0.3013 -0.2005
 5876SOL    HW229265   3.324   0.802   6.946 -0.7242  0.7078  0.0976
 5877SOL     OW29266   3.464   1.307   0.414  0.0197 -0.2705 -0.6851
 5877SOL    HW129267   3.461   1.367   0.339 -4.9918  1.9890  1.3443
 5877SOL    HW229268   3.374   1.292   0.442  0.3670 -0.0658  0.5220
 5878SOL     OW29269   3.585   3.029   8.945  0.6936  0.3599 -0.0814
 5878SOL    HW129270   3.621   3.118   8.953  1.5686 -0.1373  1.6086
 5878SOL    HW229271   3.623   2.983   9.021  1.6943 -1.3766 -1.6375
 5879SOL     OW29272   3.946   0.546  16.728 -0.1367 -0.5289  0.3659
 5879SOL    HW129273   3.881   0.501  16.674  3.5144 -2.0907 -2.6486
 5879SOL    HW229274   3.938   0.508  16.816 -0.2942  0.9971  1.0282
 5880SOL     OW29275   2.069   3.938   2.633  0.0289  0.0574  0.2261
 5880SOL    HW129276   2.098   3.924   2.723 -0.2105 -0.9993  0.1307
 5880SOL    HW229277   2.104   3.859   2.592  2.0399  0.9128  0.2879
 5881SOL     OW29278   4.648   1.753   3.444  0.1215  0.5858  0.2460
 5881SOL    HW129279   4.689   1.839   3.436  1.2818  0.2753  2.6060
 5881SOL    HW229280   4.605   1.758   3.530 -1.8268 -0.1467 -0.6979
 5882SOL     OW29281   0.728   3.748   2.005  0.4788  0.1905  0.1001
 5882SOL    HW129282   0.817   3.713   1.997  0.6917  0.6720  0.3446
 5882SOL    HW229283   0.732   3.807   1.929 -2.3645 -2.9252 -2.5032
 5883SOL     OW29284   3.105   0.284  16.943 -1.2005  0.4290  0.2666
 5883SOL    HW129285   3.083   0.192  16.930 -0.3245  0.2725 -0.1065
 5883SOL    HW229286   3.197   0.293  16.916 -0.9316  2.2855  1.7493
 5884SOL     OW29287   3.821   2.067   4.724  0.0035  0.4545 -0.0600
 5884SOL    HW129288   3.756   2.108   4.781 -0.3546 -1.5383  0.9648
 5884SOL    HW229289   3.809   2.120   4.645 -0.5525  0.3317 -0.0506
 5885SOL     OW29290   0.537   4.102   5.844  0.7117  0.0419 -0.2175
 5885SOL    HW129291   0.470   4.035   5.855 -0.6592  1.5474  0.5532
 5885SOL    HW229292   0.495   4.161   5.906  2.2623 -0.1680  1.0261
 5886SOL     OW29293   2.058   3.330   4.614  0.2315  0.2604 -0.6901
 5886SOL    HW129294   2.117   3.283   4.555  0.0140  1.8408 -2.1565
 5886SOL    HW229295   2.118   3.336   4.688 -2.0480  3.6319  0.8850
 5887SOL     OW29296   2.823   2.417   8.259  0.0523 -0.5594  0.5584
 5887SOL    HW129297   2.867   2.460   8.332 -2.1960  0.3634  1.3935
 5887SOL    HW229298   2.732   2.438   8.282 -0.0809  0.1557 -0.6357
 5888SOL     OW29299   3.592   2.955   8.525 -0.1923  0.3232  0.3347
 5888SOL    HW129300   3.530   2.885   8.507 -1.0126  0.8557  1.0876
 5888SOL    HW229301   3.642   2.919   8.599 -1.0009 -0.9706  0.2422
 5889SOL     OW29302   4.443   0.148  11.009 -0.5210  0.1424 -0.1425
 5889SOL    HW129303   4.419   0.231  10.967 -4.1584 -1.4177 -1.1128
 5889SOL    HW229304   4.509   0.115  10.949 -1.7384 -2.5941  0.0403
 5890SOL     OW29305   0.053   2.841  15.382  0.8084 -0.5146 -0.0656
 5890SOL    HW129306   4.703   2.868  15.403  1.1334 -0.1099  0.7848
 5890SOL    HW229307   0.065   2.847  15.287  1.5646 -1.2157 -0.0126
 5891SOL     OW29308   2.657   1.603   8.559 -0.9370 -0.2103  0.0125
 5891SOL    HW129309   2.592   1.655   8.606 -1.4496 -0.8467  0.0141
 5891SOL    HW229310   2.718   1.668   8.523  0.6585 -0.5731  2.0287
 5892SOL     OW29311   1.320   2.145  15.626  0.2084 -0.0283 -0.1808
 5892SOL    HW129312   1.306   2.153  15.720 -1.0384 -3.3942 -0.1192
 5892SOL    HW229313   1.416   2.141  15.631  0.0847 -0.8899  1.2041
 5893SOL     OW29314   0.907   4.063   2.609 -0.2813  0.6996  0.3341
 5893SOL    HW129315   0.913   4.156   2.587  0.5669  0.1847 -1.5766
 5893SOL    HW229316   0.956   4.030   2.533  0.5841  0.2162  1.1055
 5894SOL     OW29317   3.793   4.316  16.679 -0.1126  0.1279 -0.2402
 5894SOL    HW129318   3.749   4.232  16.689  0.1609  0.1524  1.1229
 5894SOL    HW229319   3.734   4.372  16.627 -0.2585  2.4400  2.4069
 5895SOL     OW29320   4.227   4.169   8.643 -0.1094 -0.4178  0.8411
 5895SOL    HW129321   4.163   4.238   8.660  0.3452  0.3060 -0.4518
 5895SOL    HW229322   4.173   4.090   8.655 -1.8450  0.2422 -2.6083
 5896SOL     OW29323   1.445   1.286  12.918 -0.4338 -0.1955 -0.1608
 5896SOL    HW129324   1.369   1.281  12.861 -0.1459  2.4927 -0.7980
 5896SOL    HW229325   1.498   1.352  12.874 -1.9135  1.7303  0.9493
 5897SOL     OW29326   0.586   0.721   9.389 -0.3715  0.1584 -0.1770
 5897SOL    HW129327   0.552   0.807   9.364  0.2081 -0.0342 -1.6761
 5897SOL    HW229328   0.622   0.737   9.476 -2.8689  0.9898  0.6924
 5898SOL     OW29329   0.817   4.402   2.497 -0.5238 -0.2189 -0.0587
 5898SOL    HW129330   0.818   4.495   2.521 -0.4730 -0.6369  1.5719
 5898SOL    HW229331   0.728   4.372   2.519 -1.2654  0.2098 -2.4548
 5899SOL     OW29332   3.579   2.826   3.368 -0.2680 -0.3859 -0.0336
 5899SOL    HW129333   3.578   2.819   3.463 -0.2442  1.3521  0.0809
 5899SOL    HW229334   3.547   2.915   3.357 -1.1789 -0.7590 -0.4357
 5900SOL     OW29335   0.833   0.119   7.517 -0.0483 -0.2108 -0.0749
 5900SOL    HW129336   0.894   0.124   7.443  0.1709 -1.0383  0.0388
 5900SOL    HW229337   0.846   0.203   7.560 -0.7538  0.0129 -0.3073
 5901SOL     OW29338   3.777   3.781   7.793 -0.3973  0.0599  0.7791
 5901SOL    HW129339   3.870   3.801   7.797  0.2504 -1.8560 -3.8653
 5901SOL    HW229340   3.767   3.747   7.882  0.3034 -3.1632 -0.3553
 5902SOL     OW29341   1.310   4.540  13.902  0.0141  0.4175 -0.2776
 5902SOL    HW129342   1.322   4.483  13.978  0.7417  0.4455 -0.3768
 5902SOL    HW229343   1.333   4.619  13.951  2.3264 -0.6423  0.3180
 5903SOL     OW29344   4.011   3.524   1.295 -0.3237 -0.4871  0.2170
 5903SOL    HW129345   4.007   3.573   1.377 -0.8411  0.7652 -0.5636
 5903SOL    HW229346   4.047   3.585   1.230  0.1323  2.2637  3.0972
 5904SOL     OW29347   1.486   1.399   7.724  0.4872 -0.0418 -0.3630
 5904SOL    HW129348   1.394   1.374   7.730  0.5898 -1.1029 -3.2364
 5904SOL    HW229349   1.526   1.345   7.792 -0.3971  1.9557  1.7268
 5905SOL     OW29350   0.467   0.722   0.387 -0.3511 -0.1867 -0.2061
 5905SOL    HW129351   0.450   0.679   0.304  0.2380  0.9940 -0.9322
 5905SOL    HW229352   0.422   0.803   0.361 -0.1431  0.1561  0.4860
 5906SOL     OW29353   3.950   2.344   2.476  0.1498  0.0097 -0.3665
 5906SOL    HW129354   3.966   2.250   2.466 -1.2515 -0.2266 -0.4306
 5906SOL    HW229355   3.964   2.343   2.571 -0.7549 -0.1409 -0.2270
 5907SOL     OW29356   0.620   3.622   5.873 -0.0866 -0.5617 -0.4073
 5907SOL    HW129357   0.553   3.622   5.942 -1.4501  1.7281 -1.7345
 5907SOL    HW229358   0.693   3.603   5.932  0.7590  0.5481 -1.0812
 5908SOL     OW29359   2.411   0.292   7.769  0.3953  0.3151 -0.3594
 5908SOL    HW129360   2.317   0.280   7.752 -0.0360  2.5974  0.4106
 5908SOL    HW229361   2.423   0.380   7.733 -1.0750  0.0598 -1.4729
 5909SOL     OW29362   4.461   1.831  11.493 -0.0916 -0.0506 -0.1748
 5909SOL    HW129363   4.556   1.837  11.480 -0.4278 -1.0945 -3.1627
 5909SOL    HW229364   4.434   1.835  11.584 -1.0600 -1.3779 -0.4000
 5910SOL     OW29365   4.126   1.209   5.012  0.2042  0.4707 -0.1110
 5910SOL    HW129366   4.209   1.198   5.059  1.9968  0.7531 -3.1836
 5910SOL    HW229367   4.102   1.291   5.054  0.6593 -0.7424  2.5254
 5911SOL     OW29368   3.444   1.160   8.250 -0.3490 -0.1184 -0.3253
 5911SOL    HW129369   3.414   1.203   8.330  1.6412 -1.9164  1.3872
 5911SOL    HW229370   3.523   1.212   8.238  0.7766 -1.4243  1.4064
 5912SOL     OW29371   2.366   3.294   7.149 -0.8490 -0.0108 -0.6339
 5912SOL    HW129372   2.426   3.235   7.194 -1.4452 -0.0778  0.0679
 5912SOL    HW229373   2.431   3.361   7.130 -2.6310  1.2198 -2.3907
 5913SOL     OW29374   4.581   1.397   6.265 -0.2150 -0.0874  0.2150
 5913SOL    HW129375   4.654   1.368   6.211 -0.1472 -0.9772  0.7691
 5913SOL    HW229376   4.574   1.332   6.336 -1.5849 -1.6068 -1.3039
 5914SOL     OW29377   3.057   1.998  15.449 -0.6024 -0.1949 -0.1251
 5914SOL    HW129378   3.011   1.923  15.486  2.8027 -1.5549  1.3894
 5914SOL    HW229379   3.078   2.046  15.529  1.4959 -0.8664 -0.2793
 5915SOL     OW29380   3.885   2.578   7.660 -0.0662  0.2436 -0.4819
 5915SOL    HW129381   3.968   2.566   7.614 -0.4874  0.7799 -1.3976
 5915SOL    HW229382   3.915   2.600   7.748 -0.3022 -0.3985 -0.2440
 5916SOL     OW29383   3.851   2.071   6.272 -0.0534 -0.4125  0.9345
 5916SOL    HW129384   3.803   2.094   6.351  1.0399 -0.7172  1.6825
 5916SOL    HW229385   3.894   1.989   6.297  2.5702 -0.3218 -3.1709
 5917SOL     OW29386   0.247   1.085   5.878  0.0868  0.1635 -0.6317
 5917SOL    HW129387   0.167   1.083   5.826 -0.0656 -1.3796 -0.3413
 5917SOL    HW229388   0.230   1.164   5.930 -0.4503 -0.6441  0.4366
 5918SOL     OW29389   4.611   0.704   0.777  0.1925  0.0359  0.1662
 5918SOL    HW129390   4.543   0.676   0.716  0.4394  1.7194 -0.8794
 5918SOL    HW229391   4.692   0.701   0.725  0.9016 -1.0006  1.3171
 5919SOL     OW29392   0.416   1.903   2.744 -0.3201  0.6547 -0.1080
 5919SOL    HW129393   0.439   1.825   2.693  0.3842  2.5862 -2.7791
 5919SOL    HW229394   0.486   1.906   2.809  0.9864  0.9393 -1.5182
 5920SOL     OW29395   0.118   4.311  10.724 -0.7405 -0.4727 -0.5018
 5920SOL    HW129396   0.088   4.309  10.633 -0.0065  1.0042 -0.7811
 5920SOL    HW229397   0.091   4.224  10.753  2.9884 -1.3033  0.4924
 5921SOL     OW29398   1.857   0.015   8.793  0.2916 -0.2560 -0.3502
 5921SOL    HW129399   1.777   4.701   8.782  0.5108 -0.1446 -2.3216
 5921SOL    HW229400   1.828   0.083   8.732  0.5711 -0.6428 -0.9075
 5922SOL     OW29401   4.412   4.416  14.951  0.5428  0.2183  0.9378
 5922SOL    HW129402   4.441   4.459  14.871  0.5091 -1.3232  0.0968
 5922SOL    HW229403   4.421   4.326  14.920 -0.3064  1.5222 -3.0469
 5923SOL     OW29404   2.143   2.084   9.222  0.0716  0.4891  0.1018
 5923SOL    HW129405   2.137   1.991   9.198  0.0206  0.2532  1.0376
 5923SOL    HW229406   2.104   2.082   9.309  0.8805  2.7622  0.5108
 5924SOL     OW29407   2.952   2.891  16.520 -0.5240 -0.5919 -0.2694
 5924SOL    HW129408   2.966   2.918  16.429 -1.3606 -0.1398 -0.2594
 5924SOL    HW229409   2.904   2.964  16.559  1.2727  1.4570 -1.9074
 5925SOL     OW29410   0.339   0.362   4.543  0.4083  0.0579 -0.3533
 5925SOL    HW129411   0.379   0.418   4.476 -0.6336  0.2040 -0.8516
 5925SOL    HW229412   0.317   0.425   4.611  1.0934 -0.2543  0.1602
 5926SOL     OW29413   2.511   4.404   8.636  0.0912  0.1288 -0.5342
 5926SOL    HW129414   2.420   4.429   8.621 -0.3227  0.2427  2.2117
 5926SOL    HW229415   2.524   4.449   8.719  1.7400 -0.9562 -0.2143
 5927SOL     OW29416   0.690   0.059   0.475  0.0568  0.2388 -0.1234
 5927SOL    HW129417   0.674   0.013   0.392 -0.2833  1.5873 -0.8207
 5927SOL    HW229418   0.749   4.729   0.505 -1.8306  0.2349  3.5602
 5928SOL     OW29419   1.269   3.562   6.940 -0.1883  0.0851 -0.6445
 5928SOL    HW129420   1.233   3.618   6.871 -0.1527 -0.3607 -1.0236
 5928SOL    HW229421   1.258   3.473   6.906  1.0345 -0.8290  1.3902
 5929SOL     OW29422   2.512   1.844   2.333 -0.1029 -0.1788 -0.2395
 5929SOL    HW129423   2.559   1.897   2.397 -2.5236 -0.1112  1.5141
 5929SOL    HW229424   2.482   1.899   2.261  0.3978 -3.8005 -3.2262
 5930SOL     OW29425   2.706   0.916   2.396  0.1253 -0.5205 -0.1306
 5930SOL    HW129426   2.797   0.915   2.364  0.5994 -0.8285  1.2490
 5930SOL    HW229427   2.690   1.005   2.426  1.6385 -1.2595  2.8507
 5931SOL     OW29428   3.017   4.479   7.381  0.1906 -0.3365 -0.0959
 5931SOL    HW129429   3.067   4.478   7.300 -2.8376  2.5994 -2.0056
 5931SOL    HW229430   3.068   4.548   7.423 -1.6954  0.0188  1.6336
 5932SOL     OW29431   2.700   0.899  11.306 -0.1822 -0.4652  0.1918
 5932SOL    HW129432   2.762   0.957  11.351 -0.1693 -0.5281  0.2542
 5932SOL    HW229433   2.672   0.834  11.370 -1.4384 -0.9847 -0.8752
 5933SOL     OW29434   3.908   4.337  12.801 -0.3513  0.2884  0.4062
 5933SOL    HW129435   3.878   4.332  12.710 -2.5640  1.3306  1.0739
 5933SOL    HW229436   3.862   4.412  12.838  0.2280  1.4659 -1.2494
 5934SOL     OW29437   3.545   3.649   3.620 -0.1969  0.4856  0.1257
 5934SOL    HW129438   3.487   3.574   3.608 -0.8044  0.9745  0.0442
 5934SOL    HW229439   3.606   3.621   3.690  2.2191  0.3514 -2.0363
 5935SOL     OW29440   1.715   0.244   8.670  0.2688 -0.2639  0.2634
 5935SOL    HW129441   1.621   0.244   8.685  0.0757 -1.2714 -0.9929
 5935SOL    HW229442   1.737   0.294   8.749 -1.1925 -2.0553  1.7969
 5936SOL     OW29443   3.988   2.556   4.033 -0.7500 -0.5184 -0.1494
 5936SOL    HW129444   3.978   2.464   4.011  1.8265 -1.0982  1.1150
 5936SOL    HW229445   4.083   2.561   4.024 -0.9337 -0.0239 -1.8780
 5937SOL     OW29446   3.555   3.002   8.205 -0.2726  0.6513  0.2293
 5937SOL    HW129447   3.514   3.084   8.177  1.0676  0.5037 -2.1384
 5937SOL    HW229448   3.626   3.026   8.265 -0.8916 -0.0799  1.2659
 5938SOL     OW29449   0.289   4.106   9.175  0.3749  0.1305 -0.0232
 5938SOL    HW129450   0.381   4.108   9.201  0.3115  1.2705  0.1155
 5938SOL    HW229451   0.304   4.129   9.084 -1.5890  0.0625 -0.3701
 5939SOL     OW29452   1.779   1.595   2.675  0.0003  0.7796  0.2256
 5939SOL    HW129453   1.757   1.531   2.743  1.1217 -1.7985 -1.8047
 5939SOL    HW229454   1.871   1.618   2.691  0.4070 -1.8392  1.8013
 5940SOL     OW29455   3.683   1.145   4.335 -0.3042  0.5478 -0.0762
 5940SOL    HW129456   3.600   1.174   4.373  0.1327  1.3052  0.2953
 5940SOL    HW229457   3.743   1.184   4.399  0.0130  1.6512 -1.0340
 5941SOL     OW29458   3.029   1.356   8.303 -0.2181  0.1049 -0.0833
 5941SOL    HW129459   2.971   1.431   8.291 -1.5326 -1.2073 -1.8592
 5941SOL    HW229460   2.957   1.296   8.320  0.9633 -1.6136 -1.1679
 5942SOL     OW29461   1.742   3.313   9.015 -0.0195 -0.1089 -0.2043
 5942SOL    HW129462   1.676   3.306   9.085 -1.5513 -0.5529 -1.7109
 5942SOL    HW229463   1.815   3.328   9.075 -0.5827 -0.9927  0.7045
 5943SOL     OW29464   4.171   2.104  16.958 -0.2108 -0.5025 -0.1199
 5943SOL    HW129465   4.132   2.018  16.945 -0.5237 -0.4898  0.7936
 5943SOL    HW229466   4.122   2.153  16.892  0.5174  0.6324  0.1668
 5944SOL     OW29467   3.746   3.761   2.541 -0.2551  0.2755 -0.6015
 5944SOL    HW129468   3.786   3.818   2.607  0.8761  0.7356 -1.6836
 5944SOL    HW229469   3.816   3.727   2.485 -1.7099 -2.2641 -0.8705
 5945SOL     OW29470   0.376   0.256   7.207  0.8889  0.2675  0.3041
 5945SOL    HW129471   0.372   0.195   7.281  4.8221  1.5005  1.5345
 5945SOL    HW229472   0.288   0.293   7.219  1.1023 -0.0682  3.0327
 5946SOL     OW29473   4.324   4.718   1.725 -0.0862 -0.1002 -0.2299
 5946SOL    HW129474   4.312   4.672   1.642 -2.2679  0.8430 -0.4266
 5946SOL    HW229475   4.408   0.025   1.720 -0.6976  0.9539 -0.7399
 5947SOL     OW29476   0.387   3.703   9.245 -0.3816  0.4474 -0.7510
 5947SOL    HW129477   0.374   3.753   9.326  0.2238 -0.7971  0.1108
 5947SOL    HW229478   0.457   3.646   9.276 -0.0175  2.1991  1.6833
 5948SOL     OW29479   4.524   1.922   2.044 -0.0496 -0.1747 -0.4831
 5948SOL    HW129480   4.559   1.886   1.963  0.3442 -1.4814  0.2601
 5948SOL    HW229481   4.557   1.866   2.115  2.0134  0.1020 -1.2376
 5949SOL     OW29482   0.945   3.765  12.150  0.6178  0.7003  0.3307
 5949SOL    HW129483   1.031   3.773  12.191  1.5132 -0.3534 -1.3362
 5949SOL    HW229484   0.912   3.689  12.198  1.1855  0.8801  1.0066
 5950SOL     OW29485   4.179   0.507   6.923  0.6147  0.3227 -0.3854
 5950SOL    HW129486   4.236   0.430   6.923  0.4500  0.2159 -1.6986
 5950SOL    HW229487   4.179   0.522   7.018  0.4915 -0.6441 -0.2372
 5951SOL     OW29488   0.477   3.247   3.881 -0.5833 -0.0875 -0.1141
 5951SOL    HW129489   0.410   3.310   3.907 -0.7296 -1.1944  2.1729
 5951SOL    HW229490   0.548   3.309   3.863 -1.2925  0.5746 -0.6748
 5952SOL     OW29491   0.916   2.827   3.604 -0.2981  0.7960 -0.1083
 5952SOL    HW129492   0.832   2.863   3.574 -0.8260 -2.1174 -2.1010
 5952SOL    HW229493   0.893   2.824   3.697 -2.5760 -1.0730 -0.7380
 5953SOL     OW29494   3.533   0.263   8.409 -0.1088  0.1038  0.0400
 5953SOL    HW129495   3.547   0.178   8.451  0.7580 -0.0780 -0.6003
 5953SOL    HW229496   3.580   0.250   8.326 -0.1206  1.1961 -0.1323
 5954SOL     OW29497   4.085   2.141  11.581 -0.2260 -0.1598 -0.6077
 5954SOL    HW129498   4.159   2.165  11.637 -2.0871  0.4951  1.5501
 5954SOL    HW229499   4.130   2.076  11.527 -2.1389 -0.1475 -2.2081
 5955SOL     OW29500   1.815   1.826   2.119 -0.2623  0.6477  0.0259
 5955SOL    HW129501   1.851   1.882   2.188 -0.6872  0.8350  0.0987
 5955SOL    HW229502   1.789   1.746   2.166 -0.4271  0.7031  0.0286
 5956SOL     OW29503   1.235   1.071   6.421  0.2918 -0.0681  0.4387
 5956SOL    HW129504   1.330   1.079   6.424  0.2833 -0.6093  2.3279
 5956SOL    HW229505   1.227   0.986   6.376  0.6984  0.5846 -0.8514
 5957SOL     OW29506   0.843   2.794   5.224  0.4854 -0.3116 -0.3401
 5957SOL    HW129507   0.899   2.854   5.274 -1.4206 -0.5808  2.1515
 5957SOL    HW229508   0.763   2.792   5.277  1.9568 -1.5921  1.8342
 5958SOL     OW29509   2.905   4.094   3.175  0.2597 -0.1612 -0.1747
 5958SOL    HW129510   2.826   4.096   3.228  0.1737  2.2987 -0.4173
 5958SOL    HW229511   2.951   4.165   3.219  0.1934  0.4857 -1.1387
 5959SOL     OW29512   4.248   1.677   1.488  0.2136  0.0154 -0.5434
 5959SOL    HW129513   4.326   1.628   1.517 -0.8278 -0.9945  0.5582
 5959SOL    HW229514   4.222   1.740   1.556 -1.3963 -1.5295  0.2961
 5960SOL     OW29515   0.041   0.262   9.327  0.3850  0.1323  0.0837
 5960SOL    HW129516   0.074   0.332   9.383  1.1572 -1.2034  1.2896
 5960SOL    HW229517   4.687   0.260   9.349  0.1939  1.5221 -0.5565
 5961SOL     OW29518   1.567   0.401   3.321  0.0424  0.8979 -0.4803
 5961SOL    HW129519   1.491   0.386   3.265 -0.9226  2.3344  0.4544
 5961SOL    HW229520   1.562   0.496   3.336  0.8937  0.5659  1.9009
 5962SOL     OW29521   1.685   1.154   3.546 -0.0782 -0.1858 -0.3986
 5962SOL    HW129522   1.693   1.186   3.636  1.8265  1.1241 -1.0523
 5962SOL    HW229523   1.754   1.089   3.537 -0.8057 -1.1427  0.7845
 5963SOL     OW29524   0.089   0.604   2.676  0.0437 -0.7223 -0.1964
 5963SOL    HW129525   0.180   0.574   2.672  0.7838  1.9418 -3.8703
 5963SOL    HW229526   0.043   0.522   2.661 -2.1650  0.2569  1.3168
 5964SOL     OW29527   3.594   0.684  14.756  0.1159 -0.3284 -0.0471
 5964SOL    HW129528   3.523   0.719  14.810 -0.5358  1.5994 -2.1471
 5964SOL    HW229529   3.610   0.606  14.809 -0.9377  0.4999  1.4857
 5965SOL     OW29530   1.958   4.183  11.887  0.5335  0.1022 -0.0883
 5965SOL    HW129531   1.883   4.166  11.944 -0.7218 -0.9222 -2.0648
 5965SOL    HW229532   1.978   4.090  11.870 -0.0238 -0.0357  0.0260
 5966SOL     OW29533   0.020   4.189   3.847 -0.1167 -0.4511 -0.0635
 5966SOL    HW129534   4.679   4.136   3.841 -0.5627  0.1228  0.7912
 5966SOL    HW229535   0.084   4.143   3.794  0.2157 -1.3254  1.1148
 5967SOL     OW29536   1.266   1.063   3.187  0.7888  0.4544  0.2711
 5967SOL    HW129537   1.337   1.081   3.125 -2.1083  2.5511 -2.4398
 5967SOL    HW229538   1.305   1.067   3.274  1.0146  0.4800  0.1687
 5968SOL     OW29539   0.590   0.311   1.164 -0.2820 -0.2296 -0.2014
 5968SOL    HW129540   0.555   0.302   1.076  0.2138  0.4730 -0.4646
 5968SOL    HW229541   0.527   0.376   1.195  0.2755 -0.6823  1.9254
 5969SOL     OW29542   4.432   2.227   2.196  0.3574 -0.1123 -0.4231
 5969SOL    HW129543   4.455   2.262   2.109 -0.4764 -0.1725 -0.6679
 5969SOL    HW229544   4.441   2.306   2.249  3.0121  0.4785 -1.7355
 5970SOL     OW29545   0.611   4.218   2.817 -0.3266  0.2692 -0.1213
 5970SOL    HW129546   0.550   4.149   2.792 -0.3776 -0.6830  2.6962
 5970SOL    HW229547   0.698   4.178   2.820 -1.8202 -2.9843 -0.4588
 5971SOL     OW29548   0.965   2.879   0.802  0.1414 -0.3888  0.0802
 5971SOL    HW129549   1.058   2.870   0.779  0.2002  0.2568  0.0851
 5971SOL    HW229550   0.923   2.915   0.725  0.3141 -0.5018 -0.0679
 5972SOL     OW29551   3.330   2.257   5.113  0.0397  0.5296  0.0784
 5972SOL    HW129552   3.372   2.171   5.124 -1.1300  0.0513  0.7829
 5972SOL    HW229553   3.347   2.312   5.189 -0.6120  1.3399 -0.3742
 5973SOL     OW29554   0.272   4.115   8.365 -0.1586 -0.2552 -0.5480
 5973SOL    HW129555   0.362   4.084   8.355 -0.6412 -1.6147 -0.7015
 5973SOL    HW229556   0.284   4.135   8.458  2.0511  0.5325 -0.9947
 5974SOL     OW29557   0.318   4.229   8.956 -0.3806 -0.6116 -0.1133
 5974SOL    HW129558   0.236   4.263   8.920 -0.2990 -0.3659 -0.0632
 5974SOL    HW229559   0.386   4.237   8.889  1.7792  0.3260  2.2097
 5975SOL     OW29560   1.731   3.551   5.550 -0.1494  0.3099  0.6784
 5975SOL    HW129561   1.670   3.620   5.524 -0.8602  0.0252  1.5762
 5975SOL    HW229562   1.687   3.470   5.522  1.4298 -1.0960  2.3035
 5976SOL     OW29563   4.212   4.403   6.283 -0.4565  0.2919 -0.0276
 5976SOL    HW129564   4.258   4.366   6.207 -0.6660  0.0401 -0.0307
 5976SOL    HW229565   4.206   4.333   6.347  0.7781  0.6289  0.4640
 5977SOL     OW29566   1.285   0.260  11.525 -0.6892  0.4989 -0.2719
 5977SOL    HW129567   1.194   0.260  11.555 -1.0175 -2.1671 -1.2391
 5977SOL    HW229568   1.290   0.186  11.464 -1.9638  0.1768  0.0088
 5978SOL     OW29569   1.800   0.956   3.881 -0.1545  0.4166  0.2518
 5978SOL    HW129570   1.767   1.031   3.832  0.1520 -1.2105 -2.4394
 5978SOL    HW229571   1.887   0.943   3.843  0.3573 -0.9743  1.8776
 5979SOL     OW29572   0.111   1.990   5.246  0.0738  0.4377 -0.1239
 5979SOL    HW129573   0.058   1.941   5.184 -1.2529 -0.2880  1.5873
 5979SOL    HW229574   0.199   1.956   5.227  0.4601  0.1847  2.1124
 5980SOL     OW29575   3.447   2.130   2.362  0.1884 -0.1836  0.0243
 5980SOL    HW129576   3.447   2.224   2.378 -2.8744  0.0911 -1.6390
 5980SOL    HW229577   3.502   2.121   2.284 -0.2647  0.5856 -0.3745
 5981SOL     OW29578   3.098   3.753   2.513  0.1585  0.2137 -0.5055
 5981SOL    HW129579   3.059   3.672   2.480  0.6663  0.4073 -1.5834
 5981SOL    HW229580   3.051   3.765   2.596  0.0193  0.0746 -0.5656
 5982SOL     OW29581   4.476   0.016   2.908 -0.3035  0.1347 -0.3153
 5982SOL    HW129582   4.538   0.040   2.977  0.5970 -1.6628 -0.5082
 5982SOL    HW229583   4.533   4.708   2.847 -2.0497  0.1903 -1.9806
 5983SOL     OW29584   1.948   3.822  16.859 -0.0238 -0.2185  0.1708
 5983SOL    HW129585   1.919   3.890  16.799 -2.5718  0.8999  2.6473
 5983SOL    HW229586   1.867   3.804  16.907 -0.5696  1.0940 -0.2578
 5984SOL     OW29587   0.076   3.088  17.267  0.3204  0.0636  0.1143
 5984SOL    HW129588   0.014   3.033  17.218  0.6592  2.0062 -2.4831
 5984SOL    HW229589   0.072   3.168  17.215  1.9732  0.0641 -0.0121
 5985SOL     OW29590   3.027   0.911   9.846 -0.2856 -0.5385 -0.1360
 5985SOL    HW129591   3.035   0.911   9.751  0.2610  2.6085 -0.0904
 5985SOL    HW229592   2.948   0.965   9.849  0.7603  0.9670  0.0599
 5986SOL     OW29593   3.158   1.791  13.332 -0.1580 -0.3039  0.0946
 5986SOL    HW129594   3.177   1.879  13.363 -0.9355 -0.4510  0.9763
 5986SOL    HW229595   3.194   1.807  13.245 -1.4999 -0.7743 -0.5588
 5987SOL     OW29596   3.259   3.702   7.690  0.3678 -0.1045  0.1325
 5987SOL    HW129597   3.321   3.732   7.623  1.6164 -0.8377  0.9613
 5987SOL    HW229598   3.211   3.784   7.679  0.4663 -0.2529 -1.3393
 5988SOL     OW29599   0.866   4.357   0.434 -0.1890 -0.0091 -0.2676
 5988SOL    HW129600   0.825   4.286   0.484 -0.6393  0.7623  0.4465
 5988SOL    HW229601   0.846   4.332   0.344 -3.4318  0.6643  0.2686
 5989SOL     OW29602   0.260   1.506   5.893  0.4661 -0.0097  0.2105
 5989SOL    HW129603   0.303   1.524   5.809 -0.8015  2.0685 -0.0053
 5989SOL    HW229604   0.174   1.549   5.884  1.5193  2.4614  2.0205
 5990SOL     OW29605   0.804   4.687   6.442 -0.4497  0.0399  0.0301
 5990SOL    HW129606   0.790   4.651   6.530 -0.8518 -1.3609 -0.5986
 5990SOL    HW229607   0.832   0.037   6.464 -0.7871  0.1607 -0.0325
 5991SOL     OW29608   1.340   0.940  11.772 -0.2046 -0.2017 -0.1105
 5991SOL    HW129609   1.266   0.882  11.789  0.4931 -0.5844  1.6307
 5991SOL    HW229610   1.372   0.961  11.860  2.7838 -2.5476 -0.6404
 5992SOL     OW29611   2.620   4.610   2.695  0.0440 -0.2829 -0.2479
 5992SOL    HW129612   2.651   4.567   2.614 -0.7574 -0.7920 -0.2856
 5992SOL    HW229613   2.703   4.650   2.721 -0.5877 -0.0869  1.4344
 5993SOL     OW29614   2.430   3.882  13.069  0.2069 -0.2215 -0.1487
 5993SOL    HW129615   2.428   3.880  13.165 -2.5972  2.0163 -0.1633
 5993SOL    HW229616   2.429   3.975  13.048 -1.6266 -0.5073 -1.3602
 5994SOL     OW29617   3.797   2.139   6.830  0.0199  0.5075 -0.2795
 5994SOL    HW129618   3.727   2.122   6.894 -2.2208  0.5285 -2.7429
 5994SOL    HW229619   3.859   2.184   6.888 -0.3524 -1.3281  1.5169
 5995SOL     OW29620   3.285   1.581  17.147 -0.0862  0.4157 -0.2108
 5995SOL    HW129621   3.331   1.661  17.172  2.2292 -1.0793  0.2754
 5995SOL    HW229622   3.348   1.509  17.147 -1.5361 -0.8563  3.4582
 5996SOL     OW29623   2.082   3.735   0.082 -0.0444  0.4613  0.2964
 5996SOL    HW129624   2.041   3.792   0.147  1.8695  0.2210  1.7281
 5996SOL    HW229625   2.054   3.781   0.003 -0.4361  1.0892  0.8047
 5997SOL     OW29626   3.411   0.699   1.115  0.0047  0.1660 -0.6320
 5997SOL    HW129627   3.321   0.687   1.145 -0.0998  2.6241  0.0555
 5997SOL    HW229628   3.410   0.789   1.081  1.8348 -0.2529 -1.8140
 5998SOL     OW29629   0.845   2.089   5.015  0.5290 -0.2214  0.5157
 5998SOL    HW129630   0.762   2.061   4.977  0.0943  0.0761  1.2380
 5998SOL    HW229631   0.906   2.056   4.949 -2.5959  0.2290 -2.5947
 5999SOL     OW29632   0.702   3.777   3.550  0.2682 -0.5528 -0.0370
 5999SOL    HW129633   0.792   3.778   3.517  0.1457  0.5687 -0.3098
 5999SOL    HW229634   0.709   3.831   3.629  3.0285 -1.6026  0.4708
 6000SOL     OW29635   0.026   3.152   6.531 -0.6664 -0.0956  0.2011
 6000SOL    HW129636   0.106   3.204   6.541 -0.7824 -0.2600  1.9178
 6000SOL    HW229637   0.070   3.067   6.527  1.6071  1.1241 -0.9233
 6001SOL     OW29638   2.273   1.832   2.679  0.8472 -0.3124  0.6864
 6001SOL    HW129639   2.189   1.795   2.709 -0.4533  1.3271 -0.9522
 6001SOL    HW229640   2.307   1.749   2.646 -0.1232 -0.1543 -0.7115
 6002SOL     OW29641   4.371   2.670  12.696 -0.2752  0.4030 -0.4418
 6002SOL    HW129642   4.378   2.710  12.609  0.1041 -1.0281 -1.0865
 6002SOL    HW229643   4.396   2.580  12.675 -1.2446  0.2091 -0.7552
 6003SOL     OW29644   0.918   0.298   8.346 -0.3261  0.2922  0.2248
 6003SOL    HW129645   0.988   0.237   8.365 -0.7726  0.4845  2.4484
 6003SOL    HW229646   0.965   0.375   8.375 -0.7024  0.9265 -0.8427
 6004SOL     OW29647   3.844   3.011   7.397  0.1840 -0.4658  0.4795
 6004SOL    HW129648   3.841   2.947   7.326  2.1496  0.9711 -0.9091
 6004SOL    HW229649   3.919   2.987   7.451  0.1626 -1.5886  0.0078
 6005SOL     OW29650   3.734   3.585  16.653  0.1314 -0.4663  0.3845
 6005SOL    HW129651   3.805   3.599  16.716  0.2393  1.4059 -0.1700
 6005SOL    HW229652   3.710   3.493  16.642  1.6539 -0.9804  1.2999
 6006SOL     OW29653   3.575   1.175   4.597  0.5334  0.4703 -0.0687
 6006SOL    HW129654   3.556   1.082   4.611 -0.9150  0.7470 -0.1761
 6006SOL    HW229655   3.624   1.208   4.672  0.2181 -1.7464  1.1482
 6007SOL     OW29656   0.265   4.425   3.915  0.2907 -0.0719  0.0064
 6007SOL    HW129657   0.315   4.355   3.874  1.1900 -1.0756  2.8267
 6007SOL    HW229658   0.191   4.430   3.855  0.5790  0.7598 -0.2842
 6008SOL     OW29659   3.344   0.121   8.914  0.3525  0.2859 -0.3202
 6008SOL    HW129660   3.355   0.030   8.886  0.1743  0.3875 -0.7207
 6008SOL    HW229661   3.344   0.116   9.009 -0.7720 -0.3819 -0.3536
 6009SOL     OW29662   3.029   1.565  13.166 -0.6309  0.4938  0.0827
 6009SOL    HW129663   2.942   1.583  13.201 -0.5015  0.7008  0.3020
 6009SOL    HW229664   3.059   1.512  13.240 -2.3411  0.3752  0.6918
 6010SOL     OW29665   0.198   4.038   3.710 -0.2548  0.4139  0.1620
 6010SOL    HW129666   0.215   4.041   3.616  1.9189  1.5644  0.5892
 6010SOL    HW229667   0.178   3.946   3.729  1.7485  0.4934  2.6061
 6011SOL     OW29668   3.874   3.385  17.351 -0.3028 -0.5407 -0.1106
 6011SOL    HW129669   3.890   3.478  17.365 -0.1991 -0.6420  0.4463
 6011SOL    HW229670   3.814   3.382  17.277 -0.3883  1.0889 -0.1068
 6012SOL     OW29671   3.754   1.863   2.521  0.1762 -0.4644  0.4208
 6012SOL    HW129672   3.718   1.925   2.458  0.8256  0.5856  1.0816
 6012SOL    HW229673   3.751   1.914   2.602 -2.7021  1.4782 -0.9294
 6013SOL     OW29674   1.547   0.833   4.472 -0.3479 -0.0671 -0.2450
 6013SOL    HW129675   1.555   0.804   4.563  0.1995 -1.0573 -0.6120
 6013SOL    HW229676   1.457   0.810   4.452 -0.0122 -0.0095 -1.7770
 6014SOL     OW29677   2.015   1.478  16.827  0.2290 -0.8157 -0.1177
 6014SOL    HW129678   2.009   1.383  16.839 -0.8534 -0.7592 -0.2297
 6014SOL    HW229679   2.024   1.517  16.914 -1.3378 -0.7487  0.0176
 6015SOL     OW29680   4.550   1.169   5.754  0.0942 -0.3229  0.2037
 6015SOL    HW129681   4.522   1.261   5.756 -2.5309 -1.1250  1.2754
 6015SOL    HW229682   4.472   1.115   5.737 -1.1024  1.5987 -0.4025
 6016SOL     OW29683   0.270   1.976   0.600 -0.2304 -0.3049 -0.1535
 6016SOL    HW129684   0.284   1.882   0.604 -0.7487 -0.4023 -0.7154
 6016SOL    HW229685   0.187   1.983   0.553 -0.5094 -1.2496  0.2010
 6017SOL     OW29686   4.314   3.796   2.839  0.5747  0.1309  0.1540
 6017SOL    HW129687   4.258   3.740   2.785  1.3422 -1.1603  0.7037
 6017SOL    HW229688   4.333   3.866   2.776 -1.7819 -0.8114 -1.6365
 6018SOL     OW29689   2.655   4.440   9.294 -0.2670 -0.0387  0.5877
 6018SOL    HW129690   2.706   4.499   9.240  0.6489  0.2124  1.7259
 6018SOL    HW229691   2.718   4.369   9.290 -0.3290 -0.0049 -0.9575
 6019SOL     OW29692   3.064   3.465  10.737  0.3229 -0.2279 -0.6569
 6019SOL    HW129693   3.116   3.401  10.689 -2.0007 -0.9595 -2.1952
 6019SOL    HW229694   2.976   3.457  10.700  0.8124 -1.8073 -1.4896
 6020SOL     OW29695   4.677   2.580   3.645  0.1400  0.1993 -0.0282
 6020SOL    HW129696   0.025   2.590   3.685 -0.3940 -4.5426  2.3240
 6020SOL    HW229697   4.646   2.499   3.684  0.2553  1.3132  2.3954
 6021SOL     OW29698   1.805   0.554   6.514 -0.4728 -0.1228 -0.3871
 6021SOL    HW129699   1.710   0.547   6.519 -0.3070 -0.3501  2.5983
 6021SOL    HW229700   1.830   0.490   6.448 -0.1900  1.0546 -1.4193
 6022SOL     OW29701   2.279   2.786  11.311 -0.0963 -0.4014  0.5745
 6022SOL    HW129702   2.231   2.738  11.378 -1.6694  0.9609  0.4164
 6022SOL    HW229703   2.235   2.750  11.234  1.1514 -0.0848 -0.2794
 6023SOL     OW29704   0.076   1.588   8.615 -0.3593  0.2007 -0.1777
 6023SOL    HW129705   0.033   1.556   8.694  0.6553 -2.1427 -0.5538
 6023SOL    HW229706   0.166   1.585   8.649 -0.9971  1.1570  1.5590
 6024SOL     OW29707   1.363   2.038   7.453 -0.8779  0.1926  0.1326
 6024SOL    HW129708   1.411   2.015   7.533  0.8257 -0.7779 -1.1613
 6024SOL    HW229709   1.273   2.037   7.485 -1.6424 -1.2829 -2.0430
 6025SOL     OW29710   0.814   1.792  15.945 -0.2849  0.2495  0.3234
 6025SOL    HW129711   0.727   1.759  15.924  0.1446 -0.7068  0.0747
 6025SOL    HW229712   0.834   1.734  16.018 -2.4573 -0.5911  0.2359
 6026SOL     OW29713   1.633   1.190  17.289 -0.5220  0.1334  0.2946
 6026SOL    HW129714   1.538   1.182  17.295 -0.5475  0.0917 -0.1871
 6026SOL    HW229715   1.668   1.129  17.355  1.9642 -0.5217 -1.6504
 6027SOL     OW29716   2.133   0.626  14.909  0.4926 -0.3981 -0.4815
 6027SOL    HW129717   2.083   0.600  14.986 -2.4457 -0.8586 -2.5220
 6027SOL    HW229718   2.111   0.561  14.842 -1.2282 -0.4566  0.1295
 6028SOL     OW29719   1.245   4.374  12.088 -0.5196 -0.5206  0.4123
 6028SOL    HW129720   1.271   4.397  11.999 -1.5056  0.1922  0.3130
 6028SOL    HW229721   1.162   4.327  12.077 -1.1020  0.0478  2.4440
 6029SOL     OW29722   2.557   4.145   3.118  0.4342  0.3818  0.2306
 6029SOL    HW129723   2.554   4.050   3.118  1.3439  0.3468 -0.9106
 6029SOL    HW229724   2.569   4.167   3.210 -2.3096 -1.2911  0.9650
 6030SOL     OW29725   1.877   3.092   5.438 -0.8963  0.5367  0.0601
 6030SOL    HW129726   1.884   3.117   5.530 -1.5039  0.0009  0.2572
 6030SOL    HW229727   1.788   3.120   5.416 -1.4431  0.1135  1.7288
 6031SOL     OW29728   1.656   3.070   9.995 -0.0034 -0.3267 -0.5571
 6031SOL    HW129729   1.683   3.046  10.084 -0.3828 -0.2494 -0.4231
 6031SOL    HW229730   1.582   3.127  10.017  0.9155  1.4137 -1.9878
 6032SOL     OW29731   3.368   4.441   5.280  0.0899  0.0358 -0.1557
 6032SOL    HW129732   3.279   4.459   5.248 -0.1528 -1.4601 -0.2994
 6032SOL    HW229733   3.421   4.517   5.256 -0.6065  0.6611  0.2610
 6033SOL     OW29734   2.060   0.707   5.942 -0.0668  0.1166  0.3959
 6033SOL    HW129735   2.030   0.782   5.890 -4.1386 -1.2183  0.8751
 6033SOL    HW229736   1.974   0.683   5.976  0.4016 -0.2892  1.2999
 6034SOL     OW29737   0.288   4.635   3.541 -0.2890  0.6226  0.4502
 6034SOL    HW129738   0.223   4.697   3.507 -1.4916 -1.8140 -1.6992
 6034SOL    HW229739   0.232   4.580   3.596 -0.4802 -2.3587 -2.7319
 6035SOL     OW29740   1.688   1.896   4.287  0.0115  0.7927 -0.3369
 6035SOL    HW129741   1.653   1.808   4.272 -0.5714  1.2975 -1.9432
 6035SOL    HW229742   1.701   1.928   4.197  0.3783 -0.1507 -0.6205
 6036SOL     OW29743   4.350   0.927   5.268  0.0550  0.1112 -0.5341
 6036SOL    HW129744   4.332   0.918   5.175 -1.7182  0.8070 -0.2596
 6036SOL    HW229745   4.437   0.966   5.278 -0.0671  0.0749  0.7877
 6037SOL     OW29746   4.533   3.781   4.999 -0.5102  0.2496  0.0299
 6037SOL    HW129747   4.510   3.731   4.921 -0.7999  1.2733 -0.5413
 6037SOL    HW229748   4.622   3.805   4.974 -0.5331  1.3671  1.0356
 6038SOL     OW29749   3.339   2.190   9.616  0.4007 -0.3248  0.2459
 6038SOL    HW129750   3.370   2.218   9.702  1.7454  1.2015 -0.7424
 6038SOL    HW229751   3.339   2.277   9.576  0.5708 -0.2561  0.3941
 6039SOL     OW29752   3.580   1.737   6.009 -0.2405  0.0658 -0.3356
 6039SOL    HW129753   3.580   1.644   6.033  1.9902  0.5882  1.7449
 6039SOL    HW229754   3.490   1.743   5.978 -1.0805  0.2178  2.1517
 6040SOL     OW29755   2.102   2.480   1.805  0.5502  0.2682  0.2574
 6040SOL    HW129756   2.091   2.403   1.749  0.9892 -0.7457  1.5662
 6040SOL    HW229757   2.036   2.458   1.870  0.6430  1.9530  0.9260
 6041SOL     OW29758   3.405   0.112  17.490 -0.4318 -0.4924  0.2544
 6041SOL    HW129759   3.405   0.195  17.537  0.1362 -0.4503  0.1883
 6041SOL    HW229760   3.497   0.095  17.469 -0.3284  1.1801 -0.6034
 6042SOL     OW29761   0.271   2.217   3.104 -0.5615 -0.0474  0.0177
 6042SOL    HW129762   0.255   2.253   3.016 -1.5161  1.5296  0.8291
 6042SOL    HW229763   0.345   2.261   3.147 -1.4695  0.5821  0.9224
 6043SOL     OW29764   1.945   2.406   9.856 -0.2239 -0.1240 -0.0201
 6043SOL    HW129765   2.039   2.416   9.873 -0.6914  3.0776  0.6930
 6043SOL    HW229766   1.912   2.491   9.886 -0.9606 -1.2319  2.3137
 6044SOL     OW29767   1.964   3.461   1.367  0.0545 -0.2220 -0.1818
 6044SOL    HW129768   1.933   3.453   1.276 -1.9013 -1.4470  0.5856
 6044SOL    HW229769   1.924   3.543   1.396  0.1570 -0.1591 -0.2188
 6045SOL     OW29770   4.118   1.942  14.191 -0.1498  0.1078  0.0935
 6045SOL    HW129771   4.195   1.921  14.243 -0.3037  3.2171  1.5585
 6045SOL    HW229772   4.149   1.942  14.100 -0.4799 -0.9960 -0.0126
 6046SOL     OW29773   4.236   4.125   3.307 -0.1735 -0.3826 -0.3795
 6046SOL    HW129774   4.239   4.186   3.233  1.2259 -0.5192 -0.4368
 6046SOL    HW229775   4.325   4.140   3.341 -0.2044 -0.3986 -0.2915
 6047SOL     OW29776   0.414   4.668   9.394 -0.1185  0.5275 -1.0824
 6047SOL    HW129777   0.437   4.700   9.306 -1.4324  1.2323 -1.1633
 6047SOL    HW229778   0.359   0.003   9.421  2.1532  1.4542  1.0398
 6048SOL     OW29779   3.241   2.844   5.063 -0.0984 -0.0751  0.0541
 6048SOL    HW129780   3.157   2.812   5.033 -0.7944 -0.7369  2.7292
 6048SOL    HW229781   3.247   2.929   5.019 -0.3864 -0.6454 -1.0915
 6049SOL     OW29782   2.235   0.053  13.304  0.0563 -0.5264 -0.1090
 6049SOL    HW129783   2.181   0.002  13.365  0.9610 -1.0133  0.2811
 6049SOL    HW229784   2.300   4.728  13.275  0.8361 -0.2184  0.9748
 6050SOL     OW29785   1.392   2.540   7.739  0.1833  0.0412  0.2129
 6050SOL    HW129786   1.438   2.475   7.792  2.6002  1.5745 -0.0457
 6050SOL    HW229787   1.300   2.530   7.766 -0.2365  0.1409 -1.1739
 6051SOL     OW29788   4.341   4.299   3.560  0.0564  0.1627  0.2291
 6051SOL    HW129789   4.431   4.329   3.574 -0.0042 -0.8644  2.6683
 6051SOL    HW229790   4.309   4.383   3.526  1.0415  0.7585  0.7747
 6052SOL     OW29791   2.166   0.110   1.463 -0.1499  0.5204  0.0216
 6052SOL    HW129792   2.081   0.123   1.506 -0.5131  0.5218 -0.6995
 6052SOL    HW229793   2.134   0.076   1.379  1.3417 -0.5278 -0.0992
 6053SOL     OW29794   0.434   3.159   3.523 -0.4124 -0.2212  0.0646
 6053SOL    HW129795   0.503   3.101   3.490 -0.4264  0.6410 -1.4463
 6053SOL    HW229796   0.391   3.113   3.595  0.6765 -0.5477  0.5161
 6054SOL     OW29797   0.475   2.365  14.857  0.0041  0.3134 -0.6424
 6054SOL    HW129798   0.568   2.342  14.849  1.2133  5.1416 -0.6888
 6054SOL    HW229799   0.442   2.306  14.924  1.6570  2.8082  2.4120
 6055SOL     OW29800   3.257   3.040  11.426  0.7070 -0.6631 -0.1122
 6055SOL    HW129801   3.256   3.058  11.332 -1.2513 -1.6544 -0.2854
 6055SOL    HW229802   3.335   2.984  11.428  1.0180 -0.2723 -1.8159
 6056SOL     OW29803   1.698   0.153  12.179 -0.0878 -0.3929  0.0045
 6056SOL    HW129804   1.631   0.092  12.147 -0.6886  0.9453 -1.2833
 6056SOL    HW229805   1.778   0.102  12.187  0.0386 -0.2215 -0.1674
 6057SOL     OW29806   3.879   0.280   0.871 -0.3269  0.2242  0.1397
 6057SOL    HW129807   3.850   0.240   0.789 -1.2545 -3.5488  2.3195
 6057SOL    HW229808   3.938   0.217   0.912 -2.1333 -0.9114  0.9639
 6058SOL     OW29809   3.461   1.947   4.700 -0.6420 -0.5832  0.1806
 6058SOL    HW129810   3.513   1.971   4.623  0.1330 -0.3397  0.7875
 6058SOL    HW229811   3.531   1.901   4.746 -1.1557  0.5995  2.1077
 6059SOL     OW29812   0.900   0.386   4.454 -0.2444  0.7619 -0.1739
 6059SOL    HW129813   0.875   0.332   4.529 -0.7350 -0.0069 -0.8938
 6059SOL    HW229814   0.874   0.331   4.380 -1.9821 -0.1343  1.1181
 6060SOL     OW29815   0.329   0.214   5.455 -0.2156 -0.2250 -0.1324
 6060SOL    HW129816   0.290   0.128   5.438  0.0973 -0.4158  0.1029
 6060SOL    HW229817   0.340   0.206   5.550 -0.9413  1.7085  0.1059
 6061SOL     OW29818   1.819   0.789   6.024 -0.0278 -0.4352 -0.6177
 6061SOL    HW129819   1.832   0.879   5.995 -1.0117 -0.1884 -0.2598
 6061SOL    HW229820   1.765   0.760   5.951 -0.8490 -0.9059  0.1877
 6062SOL     OW29821   4.048   4.688   8.904 -0.3977  0.0094  0.2504
 6062SOL    HW129822   4.088   4.639   8.975  1.2568 -0.2607 -0.8700
 6062SOL    HW229823   4.127   0.001   8.886 -0.8750  0.6774  0.0821
 6063SOL     OW29824   4.051   0.651   7.388 -0.0746  0.0796  0.8031
 6063SOL    HW129825   4.063   0.562   7.356 -0.1052  0.0628  0.8375
 6063SOL    HW229826   3.961   0.643   7.419 -0.1389 -0.1115  0.5599
 6064SOL     OW29827   1.667   2.143  11.200 -0.8098 -0.2443 -0.1620
 6064SOL    HW129828   1.724   2.095  11.260  0.3487 -0.1286 -1.1808
 6064SOL    HW229829   1.732   2.197  11.156  0.4100 -0.8179  0.9372
 6065SOL     OW29830   0.331   3.659  10.134  0.2347 -0.0069  0.2620
 6065SOL    HW129831   0.351   3.598  10.204 -1.1629 -0.2612  0.4377
 6065SOL    HW229832   0.340   3.608  10.054 -4.1203 -3.2008  1.8263
 6066SOL     OW29833   0.324   0.665  12.884 -0.3118 -0.5227 -0.5461
 6066SOL    HW129834   0.245   0.719  12.894  0.0102  0.0220 -0.8708
 6066SOL    HW229835   0.347   0.660  12.976  0.8799 -0.5842 -0.8412
 6067SOL     OW29836   1.183   0.264   8.015  0.5147  0.4688  0.5242
 6067SOL    HW129837   1.097   0.243   7.978  0.3602  1.0099  0.5717
 6067SOL    HW229838   1.163   0.327   8.084  3.3379  0.1747  1.6111
 6068SOL     OW29839   4.421   3.147   9.538  0.2841  0.7444 -0.3958
 6068SOL    HW129840   4.462   3.089   9.474  2.0438 -0.0357  1.4436
 6068SOL    HW229841   4.493   3.151   9.601 -0.7956  1.7730  0.7600
 6069SOL     OW29842   0.544   3.771   5.531 -0.3052 -0.5355 -0.2306
 6069SOL    HW129843   0.521   3.721   5.609  2.5153 -0.9142  0.3576
 6069SOL    HW229844   0.503   3.856   5.548  2.1016  0.5081  0.4211
 6070SOL     OW29845   3.701   4.154   7.539  0.1505 -0.3195 -0.5959
 6070SOL    HW129846   3.631   4.150   7.473 -0.3042  0.3921 -0.1526
 6070SOL    HW229847   3.716   4.063   7.567  0.7987 -0.8948 -2.8320
 6071SOL     OW29848   4.274   4.536   8.200  0.2127  0.3484 -0.0587
 6071SOL    HW129849   4.278   4.606   8.135  2.9566  1.0862  0.9164
 6071SOL    HW229850   4.217   4.578   8.265  1.3689 -0.2120  1.3029
 6072SOL     OW29851   1.597   0.872   6.735 -0.0351 -0.5703 -0.3547
 6072SOL    HW129852   1.580   0.955   6.779  0.5210 -0.8730  0.4226
 6072SOL    HW229853   1.514   0.828   6.753  0.0550 -0.7176 -0.3059
 6073SOL     OW29854   3.279   4.609  12.669  0.2235  0.1224  0.0857
 6073SOL    HW129855   3.368   4.642  12.657  1.1846 -1.4262  3.0424
 6073SOL    HW229856   3.307   4.526  12.707 -0.9497  0.1014  0.9188
 6074SOL     OW29857   3.399   1.904   2.906  0.5325 -0.2548 -0.2077
 6074SOL    HW129858   3.444   1.896   2.823  2.1278  0.4813  0.5838
 6074SOL    HW229859   3.309   1.911   2.873  0.9804 -2.9455 -1.9755
 6075SOL     OW29860   3.791   3.613   4.403  0.5104  0.1840 -0.6224
 6075SOL    HW129861   3.778   3.519   4.414 -0.2605  0.7035  2.8815
 6075SOL    HW229862   3.715   3.629   4.346 -0.2566 -1.3704 -0.0243
 6076SOL     OW29863   0.860   2.746   1.769 -0.0583 -0.3422 -0.0144
 6076SOL    HW129864   0.902   2.821   1.727  1.8224 -1.0113  0.6578
 6076SOL    HW229865   0.916   2.754   1.847  2.8995  0.8426 -2.2898
 6077SOL     OW29866   0.728   2.978   8.271 -0.0829 -0.4674 -0.1658
 6077SOL    HW129867   0.645   2.975   8.224 -0.4327  1.8287  0.3487
 6077SOL    HW229868   0.768   3.061   8.246  0.1383 -0.3081  0.7142
 6078SOL     OW29869   3.255   2.410   3.034  0.0872  0.0379 -0.1138
 6078SOL    HW129870   3.317   2.399   2.962 -0.5878  0.2779 -0.7342
 6078SOL    HW229871   3.187   2.467   2.998 -1.7780 -0.2257  3.0723
 6079SOL     OW29872   3.427   1.495   7.492 -0.2448  0.1215  0.0730
 6079SOL    HW129873   3.458   1.583   7.472  1.1609 -0.6771 -1.2801
 6079SOL    HW229874   3.419   1.499   7.588  0.7592 -2.5077  0.2773
 6080SOL     OW29875   3.531   0.187   0.931 -0.7307 -0.3721  0.8163
 6080SOL    HW129876   3.455   0.234   0.897 -0.1979  0.1982  0.4133
 6080SOL    HW229877   3.580   0.257   0.976  0.5296 -1.9966  2.0020
 6081SOL     OW29878   2.044   4.502  12.313 -0.2081 -0.1246 -0.3663
 6081SOL    HW129879   2.114   4.445  12.282 -0.0938  0.2349 -0.7673
 6081SOL    HW229880   2.016   4.461  12.395  0.7473  1.6096  0.8219
 6082SOL     OW29881   4.527   4.376  16.334  0.2525  0.1776  0.0288
 6082SOL    HW129882   4.600   4.360  16.274 -1.3993  2.2041 -2.5016
 6082SOL    HW229883   4.538   4.467  16.360  1.2708 -0.2273  1.0461
 6083SOL     OW29884   2.674   0.864   7.343 -0.0775  0.3120 -0.1863
 6083SOL    HW129885   2.756   0.914   7.343 -0.0634  0.2886 -1.3288
 6083SOL    HW229886   2.691   0.787   7.289 -2.3567  0.0708 -0.5630
 6084SOL     OW29887   2.882   2.218   3.844  0.6597 -0.3725  0.5580
 6084SOL    HW129888   2.876   2.208   3.749 -0.6532  0.3369  0.5695
 6084SOL    HW229889   2.925   2.136   3.869  1.1334 -0.3550 -0.1918
 6085SOL     OW29890   4.065   3.793  16.556 -0.0428  0.1153 -0.2944
 6085SOL    HW129891   4.009   3.763  16.627 -1.8776  2.1496 -0.8621
 6085SOL    HW229892   4.045   3.887  16.549 -0.8080 -0.1155 -1.3510
 6086SOL     OW29893   2.830   0.444   0.608 -0.5937  0.5973 -0.4188
 6086SOL    HW129894   2.907   0.493   0.638 -1.9588  1.2181  2.0134
 6086SOL    HW229895   2.845   0.355   0.638 -2.5767  0.5430  0.3827
 6087SOL     OW29896   4.171   2.859   2.012  0.4689  0.2041 -0.2251
 6087SOL    HW129897   4.265   2.863   2.030  0.7337 -1.0701 -1.3327
 6087SOL    HW229898   4.148   2.786   2.069  0.0797 -0.0077 -0.6660
 6088SOL     OW29899   0.135   1.580   8.353  0.2031 -0.1958  0.1748
 6088SOL    HW129900   0.167   1.671   8.350  2.4456 -0.9387  1.1366
 6088SOL    HW229901   0.100   1.569   8.441 -1.4024 -0.0743 -0.4519
 6089SOL     OW29902   0.278   1.205   0.349 -0.0082  0.3233 -0.6839
 6089SOL    HW129903   0.264   1.194   0.255  0.3252  0.8650 -0.7951
 6089SOL    HW229904   0.188   1.211   0.382 -0.2791  1.2715 -1.5891
 6090SOL     OW29905   3.765   2.989   6.432 -0.2733 -0.1483 -0.4067
 6090SOL    HW129906   3.701   2.975   6.363 -0.8452  1.4924 -0.2000
 6090SOL    HW229907   3.708   3.008   6.506  1.3037 -3.0002  1.5551
 6091SOL     OW29908   1.442   0.853  14.285  0.8826  0.4196  0.7824
 6091SOL    HW129909   1.521   0.878  14.237  0.4161  0.3067 -0.0277
 6091SOL    HW229910   1.388   0.822  14.213 -1.0076  0.5315  2.1513
 6092SOL     OW29911   0.097   2.832   6.670 -0.0464 -0.3735  0.1879
 6092SOL    HW129912   0.018   2.865   6.712 -0.0917  0.4588 -0.5523
 6092SOL    HW229913   0.053   2.775   6.607 -1.5016 -0.4174  1.2486
 6093SOL     OW29914   2.348   4.242   5.956 -0.6661 -0.8342  0.0150
 6093SOL    HW129915   2.270   4.290   5.984  0.4564  2.0200 -1.7163
 6093SOL    HW229916   2.356   4.288   5.872  1.3990  0.1814  0.7568
 6094SOL     OW29917   3.363   2.896  10.054  0.0681 -0.1970  0.4723
 6094SOL    HW129918   3.323   2.898   9.967 -2.6430  1.3411  1.7578
 6094SOL    HW229919   3.316   2.970  10.091  0.5119  0.8679 -1.1127
 6095SOL     OW29920   3.775   2.234   6.072 -0.2319 -0.1488 -0.0294
 6095SOL    HW129921   3.814   2.183   6.144 -0.5821  0.8002  0.8386
 6095SOL    HW229922   3.735   2.163   6.023 -3.2460  1.4951  0.0572
 6096SOL     OW29923   4.143   3.630  12.537  0.1021  0.2106 -0.0773
 6096SOL    HW129924   4.117   3.607  12.627  2.1376 -0.5878  0.3144
 6096SOL    HW229925   4.157   3.725  12.547 -1.0603  0.2685  1.1246
 6097SOL     OW29926   2.703   2.973   9.396  0.8239 -0.2762  0.7200
 6097SOL    HW129927   2.764   2.980   9.323  0.5407 -0.0841  0.5051
 6097SOL    HW229928   2.622   2.966   9.346  0.1434  0.5921  1.6908
 6098SOL     OW29929   3.967   4.490   2.879  0.0461  0.1650  0.1254
 6098SOL    HW129930   3.926   4.430   2.816 -0.1126  2.1342 -1.6247
 6098SOL    HW229931   3.930   4.573   2.851  0.7841  0.3362 -0.3561
 6099SOL     OW29932   3.978   4.376   8.676 -0.2240 -0.3728  0.0681
 6099SOL    HW129933   3.931   4.459   8.685 -2.0797 -1.2969 -1.1654
 6099SOL    HW229934   3.903   4.319   8.693 -0.4312  0.0367  0.5199
 6100SOL     OW29935   3.234   1.100   3.051  0.1124  0.2072  0.1455
 6100SOL    HW129936   3.311   1.103   3.107 -0.4037  0.2067  0.8449
 6100SOL    HW229937   3.225   1.006   3.038  0.4380  0.3632 -1.2585
 6101SOL     OW29938   0.588   3.715   3.153  0.1279 -0.1994 -0.2196
 6101SOL    HW129939   0.605   3.808   3.166 -0.8140 -0.0400 -0.1615
 6101SOL    HW229940   0.532   3.696   3.228 -1.5298 -0.3212 -1.5089
 6102SOL     OW29941   0.832   3.216   3.349  0.3207  1.0725  0.0780
 6102SOL    HW129942   0.915   3.172   3.329 -0.3325 -0.3378  0.4296
 6102SOL    HW229943   0.806   3.162   3.423 -0.4909  2.7521  1.0028
 6103SOL     OW29944   4.541   4.364   7.956 -0.8321 -0.2559  0.4243
 6103SOL    HW129945   4.633   4.361   7.983 -0.7591  2.5453  0.5172
 6103SOL    HW229946   4.498   4.356   8.041 -2.1075 -1.6532 -0.3620
 6104SOL     OW29947   3.697   3.399   3.757 -0.3276  0.4903 -0.7237
 6104SOL    HW129948   3.671   3.464   3.823 -0.7360 -0.8958  0.4667
 6104SOL    HW229949   3.792   3.409   3.768 -0.5997  0.7844  1.3439
 6105SOL     OW29950   2.977   0.945   2.441 -0.3647  0.4915 -0.1846
 6105SOL    HW129951   3.014   1.030   2.467  1.0444 -1.2579  3.6670
 6105SOL    HW229952   3.042   0.880   2.470 -1.6696  0.0265  1.7508
 6106SOL     OW29953   0.303   3.915   8.064 -0.0318 -0.0351 -0.1545
 6106SOL    HW129954   0.240   3.881   8.127 -2.6281  0.2181 -2.6152
 6106SOL    HW229955   0.358   3.837   8.071 -1.1543 -0.7574  0.6741
 6107SOL     OW29956   4.182   1.243  15.280 -0.3017 -0.0468 -0.3117
 6107SOL    HW129957   4.100   1.254  15.231  0.5228  2.8735 -1.0296
 6107SOL    HW229958   4.150   1.264  15.368  0.5013 -0.4641  0.0810
 6108SOL     OW29959   4.367   2.913   7.392  0.8062 -0.1323 -0.4002
 6108SOL    HW129960   4.363   3.008   7.395 -0.1481 -0.1811 -0.0171
 6108SOL    HW229961   4.324   2.892   7.309 -0.6220  0.4389  0.2028
 6109SOL     OW29962   1.112   1.170  10.841 -0.3570 -0.5638 -0.7669
 6109SOL    HW129963   1.138   1.092  10.792  1.1250 -0.0857 -0.7341
 6109SOL    HW229964   1.104   1.234  10.770 -0.9491 -0.4321 -0.5813
 6110SOL     OW29965   3.609   1.145  12.389 -0.2415 -0.4296  0.0745
 6110SOL    HW129966   3.678   1.146  12.456 -0.5734 -0.4632  0.4127
 6110SOL    HW229967   3.630   1.062  12.345  0.6933  0.5327 -1.2847
 6111SOL     OW29968   1.261   3.007  11.324 -0.0789 -0.0311  0.1529
 6111SOL    HW129969   1.299   2.941  11.266 -3.4423 -0.1328 -1.9358
 6111SOL    HW229970   1.282   3.082  11.269  1.6146 -2.4325 -2.4491
 6112SOL     OW29971   0.951   1.204   7.979  0.6677 -0.1317  0.4581
 6112SOL    HW129972   0.910   1.290   7.967  0.0943 -0.1071  2.6217
 6112SOL    HW229973   0.941   1.202   8.074 -2.5462  1.5822  0.1468
 6113SOL     OW29974   1.025   2.047  12.295 -0.3670 -0.7712  0.3512
 6113SOL    HW129975   1.107   2.092  12.273 -0.5561  0.7629  2.8662
 6113SOL    HW229976   1.010   2.060  12.388  1.3497 -0.0087  0.5123
 6114SOL     OW29977   2.616   2.987   8.321 -0.2075 -0.1621 -0.8829
 6114SOL    HW129978   2.699   2.981   8.274 -0.7840 -3.1345 -1.4673
 6114SOL    HW229979   2.560   2.970   8.246 -0.4678 -0.3983 -0.6346
 6115SOL     OW29980   0.927   3.395   2.867  0.5060 -0.8412  0.2254
 6115SOL    HW129981   1.006   3.449   2.861  0.8994 -1.6223 -1.5595
 6115SOL    HW229982   0.880   3.447   2.931  1.0091 -0.1295  0.0157
 6116SOL     OW29983   4.082   3.337   6.950 -0.1130 -0.2246  0.3698
 6116SOL    HW129984   4.027   3.404   6.990  1.0490 -0.1284  1.8029
 6116SOL    HW229985   4.088   3.271   7.019 -3.0812  1.1762  1.9454
 6117SOL     OW29986   4.665   4.112   8.159 -0.3907 -0.4462  0.0845
 6117SOL    HW129987   4.600   4.180   8.177 -0.8208 -0.4431 -1.5571
 6117SOL    HW229988   4.717   4.169   8.102 -2.0931  1.2645  0.2287
 6118SOL     OW29989   3.496   0.424  12.844  0.3662  0.2613 -0.2833
 6118SOL    HW129990   3.539   0.408  12.928  1.4463  0.8633 -0.7267
 6118SOL    HW229991   3.482   0.518  12.846  0.5917  0.2877 -0.0876
 6119SOL     OW29992   1.642   3.635   3.196 -0.0058  0.3106  0.3165
 6119SOL    HW129993   1.639   3.666   3.106  1.5651 -2.3117 -0.6240
 6119SOL    HW229994   1.555   3.667   3.221  0.2914  1.4775 -0.1600
 6120SOL     OW29995   0.029   4.425  10.225  0.6245 -0.1037  0.2698
 6120SOL    HW129996   4.700   4.451  10.163  0.0570 -3.1091 -0.3829
 6120SOL    HW229997   4.709   4.391  10.292  0.8526 -1.1500 -0.0618
 6121SOL     OW29998   2.797   3.822   7.704  0.1971  0.3352  0.5709
 6121SOL    HW129999   2.853   3.751   7.673 -0.0592  0.2029  0.4183
 6121SOL    HW230000   2.751   3.797   7.784  1.9353 -2.4077  0.7064
 6122SOL     OW30001   2.032   3.883   9.131  0.5734 -0.0175  0.2574
 6122SOL    HW130002   2.106   3.941   9.147 -0.6656  2.0035 -1.2887
 6122SOL    HW230003   2.073   3.798   9.114 -1.0673 -0.5464 -0.9722
 6123SOL     OW30004   1.476   3.422  14.823  0.1887  0.0033 -0.1965
 6123SOL    HW130005   1.564   3.460  14.816 -0.5709  2.1470  1.5728
 6123SOL    HW230006   1.423   3.492  14.862  1.3295  1.1076 -0.6254
 6124SOL     OW30007   3.169   3.478   8.658  0.0805  0.0343  0.2972
 6124SOL    HW130008   3.114   3.501   8.583 -0.6173  2.6271  1.6016
 6124SOL    HW230009   3.257   3.504   8.628 -0.4989  2.4182  0.6438
 6125SOL     OW30010   3.673   0.278   2.833  0.1358  0.2447  0.2730
 6125SOL    HW130011   3.682   0.204   2.892 -1.0713  0.1062  0.2885
 6125SOL    HW230012   3.692   0.235   2.749 -2.9399 -0.4750 -0.0379
 6126SOL     OW30013   0.573   0.826   5.368  0.0053 -0.1814 -0.3156
 6126SOL    HW130014   0.553   0.769   5.442  0.6500  3.7649  2.8737
 6126SOL    HW230015   0.558   0.774   5.289  0.5724 -1.8539  0.6705
 6127SOL     OW30016   1.864   3.231   5.672 -0.2960  0.5686 -0.0972
 6127SOL    HW130017   1.841   3.195   5.758  2.0801 -0.0700  0.2907
 6127SOL    HW230018   1.919   3.303   5.705  0.8297  0.0852 -0.9420
 6128SOL     OW30019   2.552   1.085  13.867  0.4344 -0.0634  0.1711
 6128SOL    HW130020   2.528   1.060  13.956 -3.6853  1.5750 -0.5092
 6128SOL    HW230021   2.642   1.053  13.866  0.7305  0.7357  0.7531
 6129SOL     OW30022   0.857   0.337   7.704  0.4418  0.1087 -0.6160
 6129SOL    HW130023   0.858   0.376   7.616  1.4057  0.0406 -0.6289
 6129SOL    HW230024   0.852   0.416   7.759 -1.0695  0.6656 -1.5292
 6130SOL     OW30025   1.901   3.529  14.358  0.4036 -0.4194 -0.0243
 6130SOL    HW130026   1.854   3.468  14.302  1.6907 -1.5930  0.1769
 6130SOL    HW230027   1.836   3.549  14.425  0.2148  0.7389 -0.5511
 6131SOL     OW30028   3.370   1.807   8.762 -0.0182 -0.1596  0.1240
 6131SOL    HW130029   3.457   1.822   8.724 -0.5506  0.3595 -0.8832
 6131SOL    HW230030   3.362   1.883   8.820 -2.6831  0.0981 -0.5797
 6132SOL     OW30031   3.707   1.663   9.574  0.0429 -0.4277  0.6781
 6132SOL    HW130032   3.792   1.619   9.575  0.3791  0.2136  0.7166
 6132SOL    HW230033   3.696   1.685   9.482  0.5596  2.1295  1.2067
 6133SOL     OW30034   0.128   4.435   6.277  0.3616 -0.0901 -0.1830
 6133SOL    HW130035   0.160   4.520   6.246 -1.8656  0.8528  0.1574
 6133SOL    HW230036   0.206   4.399   6.319  0.3911 -1.5967 -1.5302
 6134SOL     OW30037   4.656   1.281   2.257  0.8082 -1.0340  0.0839
 6134SOL    HW130038   0.006   1.249   2.242  0.6776 -0.6705 -1.5033
 6134SOL    HW230039   4.615   1.199   2.283  2.3435 -2.0086 -0.5934
 6135SOL     OW30040   1.816   4.214   7.723  0.2492  0.1583  0.6130
 6135SOL    HW130041   1.815   4.122   7.696 -0.9649  0.0707  0.9827
 6135SOL    HW230042   1.797   4.202   7.816  1.7993 -3.8381  0.4100
 6136SOL     OW30043   2.015   3.388   4.221 -0.1400 -0.1799  0.3846
 6136SOL    HW130044   2.095   3.436   4.198 -2.3934  3.1367 -0.6254
 6136SOL    HW230045   2.021   3.305   4.174 -1.4614  0.5185 -1.0268
 6137SOL     OW30046   3.421   4.351  16.189  0.0821  0.2583  0.1942
 6137SOL    HW130047   3.483   4.294  16.234 -0.9795 -1.3888 -0.4065
 6137SOL    HW230048   3.353   4.291  16.157 -0.2739  0.8751 -0.2284
 6138SOL     OW30049   2.377   3.846   8.268  0.1133  0.6543  0.8322
 6138SOL    HW130050   2.470   3.870   8.277  0.5861 -1.8957  2.7896
 6138SOL    HW230051   2.334   3.906   8.329  0.5001  1.3490  0.4181
 6139SOL     OW30052   0.942   2.555   1.288  0.1517  0.4487 -0.2298
 6139SOL    HW130053   0.969   2.488   1.351  0.2002  0.8245  0.1477
 6139SOL    HW230054   0.878   2.598   1.345 -1.9456 -2.3951 -0.4485
 6140SOL     OW30055   1.926   4.039  16.684  0.1109  0.1453  0.0307
 6140SOL    HW130056   1.890   4.121  16.719  2.1281  0.6510  0.8644
 6140SOL    HW230057   1.889   4.045  16.595  2.1949 -1.9164 -0.9698
 6141SOL     OW30058   0.173   0.997   3.628  0.6368 -1.0018  0.9151
 6141SOL    HW130059   0.158   0.903   3.634 -2.8429 -0.5637 -1.1596
 6141SOL    HW230060   0.123   1.040   3.698  2.0363 -2.0891  2.5755
 6142SOL     OW30061   4.692   4.365   4.836  0.3391  0.5171  0.0884
 6142SOL    HW130062   4.621   4.335   4.780 -0.3143 -0.8357  1.6425
 6142SOL    HW230063   4.714   4.438   4.778  0.4909  0.6335  0.2933
 6143SOL     OW30064   3.570   4.331   8.323  0.1333 -0.2958 -0.6803
 6143SOL    HW130065   3.585   4.251   8.375 -0.7662  0.2647  0.4570
 6143SOL    HW230066   3.476   4.330   8.305 -0.5537  1.5524  2.7080
 6144SOL     OW30067   1.839   1.234  16.019  0.4869  0.0240  0.0980
 6144SOL    HW130068   1.885   1.282  16.088 -1.9316 -0.9891  2.4121
 6144SOL    HW230069   1.759   1.286  16.015  0.2256 -0.5025 -1.3920
 6145SOL     OW30070   3.885   2.305   0.681  0.8888  0.3655  0.0073
 6145SOL    HW130071   3.916   2.316   0.771  1.3914  0.7761 -0.2176
 6145SOL    HW230072   3.904   2.211   0.675  1.6878  0.4564  0.9954
 6146SOL     OW30073   1.570   4.032   4.495  0.4342  0.4451  0.3899
 6146SOL    HW130074   1.611   3.964   4.549 -0.4314  0.0073  0.4955
 6146SOL    HW230075   1.549   3.976   4.421 -0.6092 -0.0586  1.0707
 6147SOL     OW30076   0.645   0.633  11.596  0.0001 -0.0575  0.4935
 6147SOL    HW130077   0.569   0.579  11.616  1.9509 -2.9371 -0.0040
 6147SOL    HW230078   0.656   0.695  11.668  0.6710  0.3875  0.0178
 6148SOL     OW30079   2.756   4.574   3.350  0.1292 -0.8523 -0.1519
 6148SOL    HW130080   2.788   4.572   3.260  0.7292  0.3910  0.0483
 6148SOL    HW230081   2.719   4.661   3.335 -0.1444 -0.7722  0.9572
 6149SOL     OW30082   2.147   0.312   9.120 -0.1615  0.1533 -0.7904
 6149SOL    HW130083   2.085   0.368   9.075 -1.1330  0.5873  1.0758
 6149SOL    HW230084   2.095   0.232   9.130 -1.0564  0.9583  0.9591
 6150SOL     OW30085   3.063   4.279   8.012  0.2919  0.0182 -0.3041
 6150SOL    HW130086   3.110   4.362   8.000 -0.2469  0.5364  1.1527
 6150SOL    HW230087   3.094   4.220   7.944  3.3801  0.0085  1.1317
 6151SOL     OW30088   1.579   4.220  12.073 -0.2086 -0.4420  0.4121
 6151SOL    HW130089   1.655   4.190  12.123  0.2331  2.4159  1.4781
 6151SOL    HW230090   1.602   4.182  11.988  0.1332 -0.0224  0.3148
 6152SOL     OW30091   1.486   3.101   3.325  0.1964  0.1554 -0.5708
 6152SOL    HW130092   1.566   3.130   3.368 -0.4367 -1.0199  1.4373
 6152SOL    HW230093   1.528   3.047   3.257 -2.4065 -1.3897 -0.9699
 6153SOL     OW30094   4.566   0.204   7.857 -0.0744 -0.1099  1.0224
 6153SOL    HW130095   4.529   0.290   7.878  0.7718 -0.0783  2.4632
 6153SOL    HW230096   4.553   0.159   7.941  1.5380  1.7459  2.2855
 6154SOL     OW30097   1.677   4.509   8.313 -0.4625  0.4823 -0.3192
 6154SOL    HW130098   1.736   4.507   8.389  2.8288 -0.3303 -2.9125
 6154SOL    HW230099   1.716   4.556   8.240 -0.5496  0.5553 -0.3195
 6155SOL     OW30100   2.866   4.514  16.934  0.0139  0.7621  0.2042
 6155SOL    HW130101   2.795   4.539  16.994  0.2855  1.5811  0.1843
 6155SOL    HW230102   2.831   4.534  16.847  1.5106  0.0324 -0.5586
 6156SOL     OW30103   1.448   4.177   1.878  0.1869 -0.1079  0.0772
 6156SOL    HW130104   1.537   4.198   1.848  0.5803 -2.5625 -0.4590
 6156SOL    HW230105   1.399   4.194   1.797  0.3639  0.6637  0.1290
 6157SOL     OW30106   0.600   3.556   7.325  0.0578 -0.1747 -0.2273
 6157SOL    HW130107   0.652   3.632   7.299 -0.7135  0.0526 -1.0935
 6157SOL    HW230108   0.656   3.531   7.399 -2.4969  1.7364  2.3432
 6158SOL     OW30109   1.498   1.393   3.415  0.1419  0.4646  0.1417
 6158SOL    HW130110   1.513   1.369   3.506  0.2536 -0.3097 -0.0767
 6158SOL    HW230111   1.526   1.314   3.368  2.1235  0.3027  1.6189
 6159SOL     OW30112   1.404   4.612  12.422 -0.3239 -0.4234  0.0556
 6159SOL    HW130113   1.365   4.659  12.348  0.5357  1.3694  0.7325
 6159SOL    HW230114   1.456   4.543  12.382 -0.3237 -1.4074  1.7444
 6160SOL     OW30115   4.363   1.710   5.494  0.2337  0.6481  0.6604
 6160SOL    HW130116   4.379   1.798   5.528  0.3084  0.6745  0.5595
 6160SOL    HW230117   4.404   1.662   5.566 -1.1709 -2.0129 -0.3318
 6161SOL     OW30118   1.434   1.955   8.195  0.0524 -0.5092  0.1240
 6161SOL    HW130119   1.359   2.002   8.233 -1.4699 -1.2234 -2.0167
 6161SOL    HW230120   1.434   1.993   8.107  3.2900  1.4462  0.9586
 6162SOL     OW30121   4.500   1.934   5.577 -0.2129 -0.3038  0.6942
 6162SOL    HW130122   4.438   1.983   5.523  0.9868  1.2919  0.7500
 6162SOL    HW230123   4.582   1.961   5.535  0.2500 -1.1680  1.0513
 6163SOL     OW30124   2.773   4.062  16.412 -0.5697  0.1039 -0.2371
 6163SOL    HW130125   2.700   4.010  16.447 -0.8135  1.0295  0.6354
 6163SOL    HW230126   2.750   4.081  16.321 -1.9036 -0.1233  0.0503
 6164SOL     OW30127   2.437   0.292   6.889  0.2412  0.7186  0.2827
 6164SOL    HW130128   2.346   0.275   6.864 -0.0776  1.3332  1.0115
 6164SOL    HW230129   2.470   0.269   6.802  1.0018  1.5143  0.3679
 6165SOL     OW30130   3.833   1.946   3.045  0.2808 -0.4804 -0.2147
 6165SOL    HW130131   3.756   1.983   3.090  2.1486  3.4151 -0.2218
 6165SOL    HW230132   3.911   1.980   3.088  1.7860 -1.9040 -1.8219
 6166SOL     OW30133   3.903   1.922   4.474  0.1372  0.0281  0.6204
 6166SOL    HW130134   3.954   1.842   4.487 -2.0470 -1.2312  1.2794
 6166SOL    HW230135   3.859   1.932   4.558  0.0428  0.4676  0.5188
 6167SOL     OW30136   4.274   0.568   7.167 -0.4555  0.0831  0.3297
 6167SOL    HW130137   4.357   0.597   7.129 -1.4060  0.5963 -1.3589
 6167SOL    HW230138   4.297   0.518   7.245  0.2072 -1.0773 -0.6125
 6168SOL     OW30139   2.844   2.827   3.045 -0.2212 -0.2839 -0.0394
 6168SOL    HW130140   2.802   2.769   2.982  1.5404 -0.4966 -1.0269
 6168SOL    HW230141   2.766   2.854   3.094 -0.2505  0.1792 -0.3364
 6169SOL     OW30142   4.204   4.557  13.330 -0.3189  0.1365 -0.2096
 6169SOL    HW130143   4.151   4.482  13.301 -0.7031  0.4603 -0.3371
 6169SOL    HW230144   4.154   4.577  13.409  1.0964  0.8268  0.5064
 6170SOL     OW30145   0.359   3.163  12.420 -0.4224 -0.2902  0.0843
 6170SOL    HW130146   0.264   3.150  12.428 -0.7141  1.3405 -0.6855
 6170SOL    HW230147   0.365   3.215  12.500  2.2962 -0.1403 -0.2053
 6171SOL     OW30148   2.705   2.372   4.738 -0.7999  0.3232  0.0827
 6171SOL    HW130149   2.763   2.316   4.790 -1.6871 -2.3557 -1.7724
 6171SOL    HW230150   2.719   2.341   4.648 -2.6375 -0.1086 -0.0545
 6172SOL     OW30151   0.108   3.559   6.706 -0.2118  0.2551 -0.1618
 6172SOL    HW130152   0.022   3.516   6.698 -1.0524  1.9209  0.0154
 6172SOL    HW230153   0.113   3.600   6.620 -1.8603 -1.0699 -0.9162
 6173SOL     OW30154   4.650   0.502  13.324  0.4225 -0.2323 -0.6582
 6173SOL    HW130155   4.626   0.411  13.308 -1.8958  0.0885  0.9963
 6173SOL    HW230156   0.005   0.502  13.304  0.7550  2.5822  0.8907
 6174SOL     OW30157   1.914   0.828   6.439 -0.2846  0.7447  0.2571
 6174SOL    HW130158   2.010   0.832   6.429 -0.1715 -2.4833  0.1003
 6174SOL    HW230159   1.901   0.734   6.452  1.2246  0.4187 -0.5761
 6175SOL     OW30160   3.764   2.020   9.297  0.6176  0.1323 -0.2137
 6175SOL    HW130161   3.799   2.108   9.307  1.1330 -0.1948  0.7984
 6175SOL    HW230162   3.671   2.040   9.301  0.2542 -1.0091 -2.4058
 6176SOL     OW30163   3.288   3.977   7.008  0.3176  0.4309  0.3060
 6176SOL    HW130164   3.284   3.894   6.960 -0.2363  0.1015  0.9314
 6176SOL    HW230165   3.196   3.995   6.986  0.4304  0.6152 -0.0150
 6177SOL     OW30166   3.359   1.828  13.112 -0.4094  0.3194 -0.0464
 6177SOL    HW130167   3.325   1.913  13.141  0.5795  1.4032 -2.0553
 6177SOL    HW230168   3.396   1.851  13.027  3.3811  1.0498  1.8288
 6178SOL     OW30169   3.067   2.031  13.480 -0.4102 -0.0863 -0.2207
 6178SOL    HW130170   3.077   2.107  13.424 -0.5985  0.2116  0.1496
 6178SOL    HW230171   3.117   2.051  13.559  0.7318 -0.4238 -0.8604
 6179SOL     OW30172   4.007   3.926   7.849  0.0883 -0.0119 -0.1955
 6179SOL    HW130173   4.005   4.013   7.889  2.7358 -0.3700  0.7048
 6179SOL    HW230174   4.100   3.907   7.857  0.2609  1.2602  0.8909
 6180SOL     OW30175   3.011   4.646  12.999 -0.1038  0.0319 -0.0115
 6180SOL    HW130176   2.924   4.652  12.962 -0.5666 -4.4946  0.2594
 6180SOL    HW230177   3.053   4.713  12.945  1.8940 -1.3811 -0.2285
 6181SOL     OW30178   1.885   1.625   8.432 -0.2955 -0.1155  0.0435
 6181SOL    HW130179   1.867   1.587   8.347 -1.5298  1.8069 -0.5449
 6181SOL    HW230180   1.932   1.704   8.404 -1.2909  0.2552 -0.5566
 6182SOL     OW30181   0.426   0.591   1.034  0.1233  0.1119 -0.3546
 6182SOL    HW130182   0.377   0.571   0.954  0.6087 -0.3668 -0.5291
 6182SOL    HW230183   0.510   0.621   1.000  0.2623  1.5746  1.2948
 6183SOL     OW30184   3.754   1.757  13.682  0.1290 -0.2223 -0.4629
 6183SOL    HW130185   3.797   1.821  13.626 -0.8777  0.6690 -0.2140
 6183SOL    HW230186   3.683   1.807  13.722 -0.0275 -1.7628  1.2033
 6184SOL     OW30187   0.275   1.307   3.082  0.2413 -0.3165  0.1250
 6184SOL    HW130188   0.334   1.261   3.022  0.3648 -1.6892  1.3033
 6184SOL    HW230189   0.325   1.301   3.163 -1.5223 -0.1736  1.2382
 6185SOL     OW30190   1.550   2.083   7.706  0.3656  0.5303 -0.1051
 6185SOL    HW130191   1.608   2.009   7.687  0.3559 -0.1275  2.4173
 6185SOL    HW230192   1.604   2.160   7.690 -0.2268  0.6095 -1.7170
 6186SOL     OW30193   2.673   1.158   7.826  0.1127 -0.3298 -0.0711
 6186SOL    HW130194   2.622   1.231   7.792 -1.5515 -2.0768 -1.2568
 6186SOL    HW230195   2.682   1.180   7.919 -2.9483 -2.5849  0.7492
 6187SOL     OW30196   0.066   0.500   5.480 -0.2810  0.0065  0.2738
 6187SOL    HW130197   0.152   0.457   5.475 -0.3959  0.1437 -2.6649
 6187SOL    HW230198   0.027   0.476   5.396 -0.0819 -1.4596  0.5919
 6188SOL     OW30199   1.559   4.478  16.623  0.4948 -0.0697 -0.1296
 6188SOL    HW130200   1.540   4.571  16.610 -1.2547 -0.3105  0.8021
 6188SOL    HW230201   1.473   4.460  16.661  0.6274 -0.4545 -0.0131
 6189SOL     OW30202   2.023   3.159   4.074  0.2673  0.2615 -0.2914
 6189SOL    HW130203   2.004   3.077   4.120 -1.0202  0.3041 -0.7478
 6189SOL    HW230204   2.105   3.127   4.037  0.5367 -0.5349  0.9978
 6190SOL     OW30205   2.659   2.509   9.070 -0.0005  0.3717  0.5991
 6190SOL    HW130206   2.716   2.449   9.118 -1.6200 -1.4200  0.2767
 6190SOL    HW230207   2.574   2.493   9.110  0.0993  0.7803  0.9806
 6191SOL     OW30208   0.161   2.271   4.044  0.3357  0.0168  0.4988
 6191SOL    HW130209   0.102   2.215   3.994  0.2271  0.4405  0.1506
 6191SOL    HW230210   0.225   2.297   3.977 -0.0575 -0.6458 -0.1338
 6192SOL     OW30211   2.586   4.046   2.384 -0.3065 -0.0513  0.2579
 6192SOL    HW130212   2.541   4.087   2.458 -0.0910  1.4220 -0.4329
 6192SOL    HW230213   2.677   4.044   2.414 -1.1693  2.8759  3.0516
 6193SOL     OW30214   1.098   2.688  15.995 -0.5696  0.3159 -0.3370
 6193SOL    HW130215   1.088   2.781  16.014  0.9375  0.7123 -1.5280
 6193SOL    HW230216   1.054   2.681  15.910 -0.7484  0.9411 -0.2938
 6194SOL     OW30217   2.809   0.239  15.018 -0.4666 -0.9025 -0.8066
 6194SOL    HW130218   2.761   0.321  15.012 -0.9307 -1.3013 -2.8528
 6194SOL    HW230219   2.736   0.177  15.027 -1.1423  0.1827  1.1501
 6195SOL     OW30220   3.364   2.425   0.741 -0.2179 -0.1542 -0.6586
 6195SOL    HW130221   3.348   2.391   0.653 -3.0066  0.3911 -0.3569
 6195SOL    HW230222   3.274   2.442   0.769 -0.0502 -2.2519  1.1822
 6196SOL     OW30223   1.884   4.298  16.777  0.1529 -0.0705  0.0905
 6196SOL    HW130224   1.972   4.334  16.763  0.3328 -0.4331  0.3048
 6196SOL    HW230225   1.873   4.311  16.871 -2.2589 -1.0147 -0.0607
 6197SOL     OW30226   1.685   1.857   7.657  0.1030  0.1970 -1.0756
 6197SOL    HW130227   1.624   1.784   7.668  1.0493 -0.3409  0.5589
 6197SOL    HW230228   1.738   1.824   7.584 -1.3664  0.4346 -2.2346
 6198SOL     OW30229   4.057   3.467   9.707 -0.0224  0.5502 -0.2571
 6198SOL    HW130230   4.144   3.481   9.744  0.9708  1.5689 -2.9415
 6198SOL    HW230231   4.052   3.373   9.692  0.1606  0.8751 -2.3773
 6199SOL     OW30232   1.580   2.106   3.459 -0.3807 -0.1765 -0.3964
 6199SOL    HW130233   1.544   2.154   3.533  3.0849  0.3836  0.9533
 6199SOL    HW230234   1.542   2.018   3.466 -1.8657  0.6436  1.9024
 6200SOL     OW30235   2.482   2.479   3.576  0.3854  0.1048  0.5327
 6200SOL    HW130236   2.571   2.459   3.546  1.1940  1.1959  2.1635
 6200SOL    HW230237   2.430   2.479   3.496 -0.5986  1.3277  1.1615
 6201SOL     OW30238   0.083   2.149   6.906  0.3346 -0.6311 -0.1807
 6201SOL    HW130239   4.736   2.125   6.871  0.0534 -2.3653  1.6494
 6201SOL    HW230240   0.057   2.220   6.965  0.9303  0.1218 -0.8321
 6202SOL     OW30241   2.381   0.761   4.870  0.5356  0.3002  0.2201
 6202SOL    HW130242   2.300   0.778   4.917  0.3152 -0.2307  0.0422
 6202SOL    HW230243   2.349   0.682   4.825  3.7056  0.2653 -2.0518
 6203SOL     OW30244   0.085   0.818  12.907 -0.0034 -0.2107  0.4280
 6203SOL    HW130245   0.069   0.872  12.830 -0.8108 -0.5452  0.3598
 6203SOL    HW230246   0.002   0.811  12.955 -0.5091  2.2629 -0.0791
 6204SOL     OW30247   4.176   0.444  16.682  0.5215 -0.1489  0.6185
 6204SOL    HW130248   4.110   0.510  16.704 -0.7072 -1.3120  0.4254
 6204SOL    HW230249   4.111   0.380  16.653 -1.5946  1.5317  1.6897
 6205SOL     OW30250   0.826   1.052  10.720  0.3456  0.2410 -0.3294
 6205SOL    HW130251   0.903   1.095  10.758 -0.1185  1.3026 -0.5805
 6205SOL    HW230252   0.822   0.960  10.745  0.7214 -0.3573 -2.5281
 6206SOL     OW30253   3.360   1.401   6.612 -0.0752  0.1245  0.4739
 6206SOL    HW130254   3.376   1.461   6.539 -1.5147 -0.1888 -0.0835
 6206SOL    HW230255   3.280   1.436   6.651 -0.0494  1.6238 -0.8103
 6207SOL     OW30256   1.640   2.639   7.091 -0.9414  0.1279  0.1417
 6207SOL    HW130257   1.704   2.573   7.066 -2.1876 -1.1735  0.4201
 6207SOL    HW230258   1.616   2.677   7.006 -0.8187 -1.8842 -0.7795
 6208SOL     OW30259   4.505   1.191  12.268  0.1679  0.5680 -0.2329
 6208SOL    HW130260   4.519   1.121  12.204  0.5027  1.8566 -1.5758
 6208SOL    HW230261   4.446   1.246  12.217 -0.7343  1.1170  1.3991
 6209SOL     OW30262   4.222   2.976   9.601  0.1511 -0.3063 -0.1897
 6209SOL    HW130263   4.284   2.916   9.643 -0.1641 -0.0902  0.5826
 6209SOL    HW230264   4.284   3.038   9.561  2.7725 -2.9412 -0.2056
 6210SOL     OW30265   1.054   3.121   2.873 -0.6748 -0.0578  0.2829
 6210SOL    HW130266   1.016   3.200   2.911 -2.2349 -0.6209 -0.1020
 6210SOL    HW230267   1.086   3.148   2.787 -1.0159  1.0507  0.5123
 6211SOL     OW30268   4.168   0.196  14.078  0.2066  0.6966 -0.2337
 6211SOL    HW130269   4.153   0.222  14.169 -0.2797 -0.3884 -0.0062
 6211SOL    HW230270   4.249   0.146  14.085 -0.0469  0.0232 -2.1181
 6212SOL     OW30271   0.680   2.652   8.076 -0.0863 -0.3419 -0.3533
 6212SOL    HW130272   0.657   2.583   8.014 -0.2301  1.1170 -1.9302
 6212SOL    HW230273   0.600   2.705   8.078  0.8177  1.0498 -0.8987
 6213SOL     OW30274   3.461   1.336   4.931 -0.0359  0.0717  0.6043
 6213SOL    HW130275   3.530   1.307   4.870 -1.4703  0.2310 -1.0946
 6213SOL    HW230276   3.389   1.301   4.879 -0.5304  4.1969 -1.5241
 6214SOL     OW30277   1.499   4.426  15.948  0.1031 -0.5557  0.1253
 6214SOL    HW130278   1.559   4.353  15.938 -0.7133 -1.1818 -0.2049
 6214SOL    HW230279   1.515   4.470  15.865  1.4133 -1.6183 -0.1784
 6215SOL     OW30280   1.340   1.819   3.473  0.7447  0.1479  0.1734
 6215SOL    HW130281   1.341   1.765   3.394 -1.2236 -1.4752  1.2585
 6215SOL    HW230282   1.316   1.903   3.436  0.1500  0.3018  0.9136
 6216SOL     OW30283   1.488   4.242  13.041  0.4339  0.4805 -0.5195
 6216SOL    HW130284   1.448   4.203  12.963 -2.2033  1.3821  0.3702
 6216SOL    HW230285   1.440   4.324  13.054 -0.9462 -0.8225  2.5605
 6217SOL     OW30286   0.880   2.472   6.046 -0.2985  0.3059 -0.5616
 6217SOL    HW130287   0.793   2.488   6.009 -0.6379 -0.0391  0.0908
 6217SOL    HW230288   0.850   2.443   6.132 -1.5940 -0.9566 -1.4422
 6218SOL     OW30289   4.051   4.351   2.117 -0.2184  0.2825  0.2713
 6218SOL    HW130290   3.986   4.291   2.081  1.4992 -1.4797  0.0630
 6218SOL    HW230291   4.035   4.440   2.087 -0.0984 -0.0757 -0.8483
 6219SOL     OW30292   3.352   0.398   3.540 -0.2865 -0.4461  0.3390
 6219SOL    HW130293   3.361   0.493   3.539  0.1401 -0.4863  0.3558
 6219SOL    HW230294   3.438   0.380   3.576  0.3431  1.0370 -0.4206
 6220SOL     OW30295   0.624   0.113   4.018 -0.1128  0.1611  0.6512
 6220SOL    HW130296   0.671   0.030   4.031  0.7656  0.5884  0.2170
 6220SOL    HW230297   0.690   0.173   3.983 -0.3877  0.7041  1.0616
 6221SOL     OW30298   2.711   2.762   8.881  0.3722 -1.0577 -0.2538
 6221SOL    HW130299   2.678   2.701   8.947 -0.0395  1.1963  1.6253
 6221SOL    HW230300   2.798   2.791   8.911 -0.4275 -1.1737  2.1864
 6222SOL     OW30301   1.005   1.798  11.086 -0.1494  0.3845  0.2563
 6222SOL    HW130302   1.064   1.728  11.056  1.6964  1.3517  1.6751
 6222SOL    HW230303   0.933   1.773  11.028  1.7318  2.5865 -2.9986
 6223SOL     OW30304   1.265   1.481   0.318 -0.2990  0.1828 -0.0544
 6223SOL    HW130305   1.227   1.565   0.346 -0.6427 -1.0224  3.1222
 6223SOL    HW230306   1.347   1.510   0.278  0.6716 -1.1393  0.9840
 6224SOL     OW30307   3.181   0.384   7.034  0.3683  0.2350 -0.9065
 6224SOL    HW130308   3.253   0.373   7.096  0.2837  0.2911 -0.7979
 6224SOL    HW230309   3.218   0.354   6.952  0.8919 -2.0241  0.1346
 6225SOL     OW30310   1.747   4.717  16.962  0.0699  0.5506  0.0953
 6225SOL    HW130311   1.839   4.720  16.988  0.0720 -0.0202  0.1557
 6225SOL    HW230312   1.762   4.686  16.872  0.6522  0.9458  0.0548
 6226SOL     OW30313   0.709   3.182   5.704 -0.4587  0.1209  0.3379
 6226SOL    HW130314   0.755   3.266   5.716  0.3610 -0.4633  1.3096
 6226SOL    HW230315   0.723   3.163   5.612  2.1704  0.5512  0.6430
 6227SOL     OW30316   0.658   2.387   4.391 -0.1348  0.3878  0.0761
 6227SOL    HW130317   0.582   2.422   4.344  0.2735  1.2037  0.0169
 6227SOL    HW230318   0.727   2.424   4.335  0.9180  0.4089  1.3754
 6228SOL     OW30319   3.703   2.236   1.539 -0.1237 -0.2879 -0.7210
 6228SOL    HW130320   3.719   2.327   1.511 -2.2905  0.2954 -0.0881
 6228SOL    HW230321   3.729   2.189   1.460 -0.1625 -1.0243 -0.2868
 6229SOL     OW30322   4.401   2.637   1.964 -0.1045 -0.4830 -0.3602
 6229SOL    HW130323   4.447   2.703   2.015 -2.1766 -1.9022  3.3524
 6229SOL    HW230324   4.467   2.603   1.904  2.3442  2.2519  0.7962
 6230SOL     OW30325   0.644   4.555   7.265  0.4363  0.1148 -0.2430
 6230SOL    HW130326   0.714   4.504   7.307 -1.3260 -2.2641 -0.2476
 6230SOL    HW230327   0.591   4.578   7.342 -1.0676  0.1323 -1.2900
 6231SOL     OW30328   3.327   2.950   4.303  0.6132 -1.2330 -0.1039
 6231SOL    HW130329   3.395   2.896   4.344  0.4283 -2.3028 -1.2416
 6231SOL    HW230330   3.333   2.914   4.215 -0.3712  0.6508 -0.9483
 6232SOL     OW30331   2.668   4.184   7.167 -0.3775 -0.4113  0.3849
 6232SOL    HW130332   2.730   4.233   7.220 -0.0699 -0.3332 -0.0517
 6232SOL    HW230333   2.714   4.188   7.083  0.3685  0.7946  0.8512
 6233SOL     OW30334   4.069   4.014   4.087 -0.4821  0.2747  0.0634
 6233SOL    HW130335   4.049   3.961   4.164 -1.7494  1.5758  0.6365
 6233SOL    HW230336   4.025   3.975   4.011 -0.0724 -0.9877  0.4768
 6234SOL     OW30337   2.489   3.690   9.001  0.4447  0.3601 -0.1727
 6234SOL    HW130338   2.410   3.744   8.990  0.3756  0.5148  1.0897
 6234SOL    HW230339   2.488   3.641   8.918 -1.0571  1.4536 -0.8131
 6235SOL     OW30340   2.094   3.561  14.552 -0.5379 -0.6491 -0.4932
 6235SOL    HW130341   2.031   3.559  14.480 -0.8402  1.2749 -0.2729
 6235SOL    HW230342   2.100   3.656  14.557  2.1889 -0.8828  0.6054
 6236SOL     OW30343   3.683   4.372  13.072 -0.3382  0.8160  0.0853
 6236SOL    HW130344   3.716   4.396  12.985 -2.9201  0.6969 -0.9197
 6236SOL    HW230345   3.745   4.303  13.097 -1.7718 -0.7162 -0.6366
 6237SOL     OW30346   1.180   1.003  14.941 -0.1405  0.0150 -0.0237
 6237SOL    HW130347   1.192   1.019  15.034  0.5047  0.9568 -0.2646
 6237SOL    HW230348   1.186   0.907  14.940  2.3535  0.1728 -0.5841
 6238SOL     OW30349   4.176   3.816   9.345  0.0154 -0.1099  0.1429
 6238SOL    HW130350   4.216   3.836   9.430  1.0733  0.3671 -0.4598
 6238SOL    HW230351   4.180   3.721   9.354 -0.6947  0.1447  3.2079
 6239SOL     OW30352   3.489   2.518   7.834  0.4183 -0.2185 -0.3094
 6239SOL    HW130353   3.518   2.439   7.880  0.3919  0.6540  1.2082
 6239SOL    HW230354   3.430   2.473   7.774  0.9340 -0.2459 -0.8030
 6240SOL     OW30355   4.520   3.531  12.503 -0.2504 -0.2600  0.0019
 6240SOL    HW130356   4.504   3.608  12.556 -0.7214 -0.7538  0.5703
 6240SOL    HW230357   4.428   3.507  12.495  0.0848 -0.9478 -1.9498
 6241SOL     OW30358   3.314   1.346  11.963 -0.3668  0.3115  0.3725
 6241SOL    HW130359   3.225   1.337  11.929  0.0585  0.6277 -0.8403
 6241SOL    HW230360   3.345   1.261  11.933  0.4076  0.5687  0.4391
 6242SOL     OW30361   2.382   4.052   9.694  0.5968  0.2151 -0.0504
 6242SOL    HW130362   2.296   4.014   9.708  0.6158  0.9197  1.9590
 6242SOL    HW230363   2.430   4.039   9.776 -0.1096  0.6540  0.4298
 6243SOL     OW30364   0.473   0.198   8.216  0.0003 -0.1556 -0.8442
 6243SOL    HW130365   0.465   0.267   8.149 -1.1406  0.8512  0.3313
 6243SOL    HW230366   0.530   0.226   8.287 -0.2913  1.9035 -1.4298
 6244SOL     OW30367   0.046   0.872  13.736 -0.4220 -0.4065  0.8909
 6244SOL    HW130368   0.037   0.939  13.668  2.0353 -0.8094  0.1606
 6244SOL    HW230369   0.084   0.804  13.680  1.4839 -0.1812  1.9020
 6245SOL     OW30370   0.919   2.069  11.664 -0.2597 -0.3037 -0.0273
 6245SOL    HW130371   0.859   2.033  11.730  0.0240  0.7028  0.7856
 6245SOL    HW230372   1.002   2.028  11.691 -2.5388 -1.8325  4.6474
 6246SOL     OW30373   0.738   1.864  17.643  0.6142 -0.0551 -0.2667
 6246SOL    HW130374   0.810   1.877  17.581  1.5579  2.5147  1.3572
 6246SOL    HW230375   0.670   1.817  17.594  1.0770 -1.7363  0.7100
 6247SOL     OW30376   0.485   2.464   9.427  0.3085 -0.6987  0.0726
 6247SOL    HW130377   0.501   2.382   9.474  1.0250 -1.0062 -0.6892
 6247SOL    HW230378   0.451   2.434   9.343 -1.7990 -0.0126  0.6970
 6248SOL     OW30379   4.201   4.407  12.514  0.2995 -0.7660 -0.5998
 6248SOL    HW130380   4.262   4.413  12.587 -2.4004 -1.3118  1.6774
 6248SOL    HW230381   4.235   4.484  12.468  0.2197  2.0027  3.9196
 6249SOL     OW30382   3.930   3.500   7.156  0.5387 -0.1170 -0.3474
 6249SOL    HW130383   4.018   3.527   7.183  1.0106 -1.2497 -0.7548
 6249SOL    HW230384   3.929   3.417   7.203  1.4889 -0.6822 -1.3186
 6250SOL     OW30385   3.403   2.893   4.036  0.0719  0.1599  0.5934
 6250SOL    HW130386   3.384   2.805   4.004 -1.0060  0.6987 -0.2439
 6250SOL    HW230387   3.345   2.948   3.983 -0.1741 -0.4499  0.2328
 6251SOL     OW30388   2.578   0.335   8.200 -0.5671 -0.1613 -0.6063
 6251SOL    HW130389   2.638   0.307   8.269 -2.4065  0.5370  1.2705
 6251SOL    HW230390   2.559   0.424   8.229 -1.3300 -0.5219 -0.0052
 6252SOL     OW30391   0.313   1.272   6.532 -0.2658  0.4407 -0.0975
 6252SOL    HW130392   0.327   1.313   6.446  2.4998 -0.8506 -0.2730
 6252SOL    HW230393   0.322   1.347   6.591  0.0286 -0.0659  0.4913
 6253SOL     OW30394   3.735   2.374   3.412  0.3868  0.4289  0.0862
 6253SOL    HW130395   3.731   2.468   3.432  1.3149  0.2997  0.9095
 6253SOL    HW230396   3.646   2.346   3.434  0.4783 -0.1715 -0.3181
 6254SOL     OW30397   3.558   1.831   6.576  0.1769  0.6235 -0.5416
 6254SOL    HW130398   3.558   1.901   6.510 -0.2954 -0.2251 -1.4385
 6254SOL    HW230399   3.652   1.823   6.594  0.1299 -0.6739 -0.9115
 6255SOL     OW30400   0.123   1.119   3.956 -0.2402  0.5039 -0.1884
 6255SOL    HW130401   0.079   1.198   3.986  1.2914  1.2444  0.0796
 6255SOL    HW230402   0.068   1.054   3.999  2.1169 -1.1580  0.3103
 6256SOL     OW30403   2.719   1.244   5.177  0.1194  0.2858 -0.4928
 6256SOL    HW130404   2.692   1.273   5.090 -0.9501  0.6896 -0.0234
 6256SOL    HW230405   2.661   1.170   5.193  0.2275  0.6338  1.5335
 6257SOL     OW30406   0.863   1.045   8.498  0.3013 -0.1120 -0.4683
 6257SOL    HW130407   0.897   1.115   8.443  0.4888  0.0877 -0.0954
 6257SOL    HW230408   0.854   1.100   8.575  0.5083  2.1018 -2.0290
 6258SOL     OW30409   0.930   4.596  13.003  0.2714 -0.2293  0.9946
 6258SOL    HW130410   0.943   4.531  12.934 -1.2518 -0.6074  1.0603
 6258SOL    HW230411   0.851   4.562  13.045  0.4759 -0.2186  1.3831
 6259SOL     OW30412   2.458   3.839  16.149 -0.0931  0.2271  0.0457
 6259SOL    HW130413   2.480   3.930  16.170 -0.1038  0.0946  0.6281
 6259SOL    HW230414   2.510   3.792  16.213 -0.9703  0.5086  0.9572
 6260SOL     OW30415   1.875   4.686   1.023  0.0417  0.5199  0.3537
 6260SOL    HW130416   1.876   4.728   0.937 -0.5488 -2.5411 -1.1187
 6260SOL    HW230417   1.966   4.700   1.050 -0.1984 -0.1805  1.4858
 6261SOL     OW30418   1.511   1.287  16.056 -0.1486 -0.3700 -0.6146
 6261SOL    HW130419   1.418   1.269  16.040  0.3966 -2.3431 -1.4877
 6261SOL    HW230420   1.521   1.335  15.974 -1.2670  0.2870 -0.3673
 6262SOL     OW30421   3.830   0.023   5.665  0.4930  0.0802  0.4797
 6262SOL    HW130422   3.886   0.071   5.605 -0.5898  0.9856  0.2059
 6262SOL    HW230423   3.887   0.015   5.741  1.6597  2.3975 -0.1808
 6263SOL     OW30424   1.376   1.603   8.287 -0.1305 -0.3745 -0.1105
 6263SOL    HW130425   1.332   1.534   8.236 -0.0488  0.1765 -0.9268
 6263SOL    HW230426   1.464   1.613   8.252 -0.0275  1.9490  0.8397
 6264SOL     OW30427   2.511   3.062   4.991 -0.6799 -0.2319  0.1295
 6264SOL    HW130428   2.604   3.065   4.970 -0.9150  0.1963 -0.8461
 6264SOL    HW230429   2.477   3.017   4.914  0.6702 -3.0086  1.1672
 6265SOL     OW30430   0.693   2.394   3.816  0.0483  0.6689  0.0049
 6265SOL    HW130431   0.688   2.302   3.839 -0.2912  1.3241  2.4739
 6265SOL    HW230432   0.683   2.424   3.906  1.4400  0.0048  0.3714
 6266SOL     OW30433   1.936   0.972   9.068 -0.2062  0.2293  0.1469
 6266SOL    HW130434   1.859   0.957   9.123  0.0615  1.2619  0.8098
 6266SOL    HW230435   1.911   1.045   9.012  1.4334  0.7562  0.0828
 6267SOL     OW30436   2.159   4.232   8.878 -0.2949  0.0736 -0.3037
 6267SOL    HW130437   2.136   4.282   8.956  0.3126  0.7276 -0.5370
 6267SOL    HW230438   2.239   4.189   8.907 -0.5126 -0.1429 -0.0237
 6268SOL     OW30439   4.229   2.589   5.405 -0.0124 -0.1940  0.0661
 6268SOL    HW130440   4.248   2.553   5.319  0.4874  1.3829 -0.4808
 6268SOL    HW230441   4.285   2.535   5.462  0.3590 -0.1824 -0.2942
 6269SOL     OW30442   4.278   3.110   2.596  0.1235 -0.1804  0.4526
 6269SOL    HW130443   4.370   3.137   2.598  0.4559 -1.0818 -2.0274
 6269SOL    HW230444   4.290   3.065   2.512  0.3137 -1.8283  1.3572
 6270SOL     OW30445   0.334   0.489   2.732  0.3279 -0.2047  0.2314
 6270SOL    HW130446   0.331   0.481   2.827  0.0029  1.3586  0.3529
 6270SOL    HW230447   0.382   0.409   2.714 -1.6209 -1.2188 -0.5154
 6271SOL     OW30448   0.116   3.397   3.608 -0.2591  0.4608 -0.0669
 6271SOL    HW130449   0.028   3.424   3.582 -1.4542 -1.9130  1.4711
 6271SOL    HW230450   0.135   3.322   3.551 -0.3433  1.5335 -1.5143
 6272SOL     OW30451   2.071   2.014   4.166  0.1139 -0.8356 -0.4412
 6272SOL    HW130452   2.069   1.991   4.259  1.1560 -0.0874 -0.2367
 6272SOL    HW230453   1.989   2.063   4.158  1.1645  1.1153  0.8099
 6273SOL     OW30454   0.066   2.843  14.491  0.5161 -0.1966  0.3557
 6273SOL    HW130455   0.117   2.767  14.518  0.2616  0.0468  1.5058
 6273SOL    HW230456   4.723   2.835  14.540  0.2845 -0.4346 -0.0664
 6274SOL     OW30457   3.883   1.667   6.832  0.0982  0.0962 -0.0800
 6274SOL    HW130458   3.940   1.593   6.812  1.2431  0.5872  1.3958
 6274SOL    HW230459   3.845   1.643   6.916  0.7346  2.1632  0.7884
 6275SOL     OW30460   4.034   4.407   4.561  0.5305  0.4845  0.1759
 6275SOL    HW130461   3.980   4.484   4.581  1.2612  1.1539 -0.4119
 6275SOL    HW230462   4.068   4.452   4.483  1.3462  0.0165  0.2632
 6276SOL     OW30463   3.444   0.434  16.597 -0.2844  0.1397 -0.8366
 6276SOL    HW130464   3.459   0.493  16.522  1.3255 -0.3897 -0.9463
 6276SOL    HW230465   3.501   0.361  16.572 -0.8966 -1.5674  2.8383
 6277SOL     OW30466   3.144   2.204  12.198 -0.4661 -0.1789  0.4965
 6277SOL    HW130467   3.210   2.192  12.266  1.4993 -1.2013 -1.5892
 6277SOL    HW230468   3.093   2.124  12.205 -0.8013  0.0649  0.8636
 6278SOL     OW30469   3.228   2.329   4.411 -0.3209 -0.4307  0.3610
 6278SOL    HW130470   3.256   2.245   4.448 -0.8831 -0.6377  0.3249
 6278SOL    HW230471   3.263   2.384   4.481 -0.7048  1.7522 -1.1458
 6279SOL     OW30472   1.431   2.264   7.059 -0.0074 -0.1849  0.4809
 6279SOL    HW130473   1.420   2.335   7.122 -0.3065  1.7352 -1.7027
 6279SOL    HW230474   1.417   2.303   6.972  0.1268 -0.8133  0.1754
 6280SOL     OW30475   1.185   3.730   1.410  0.0733  1.0298  0.1354
 6280SOL    HW130476   1.124   3.659   1.391  1.2498  0.0762 -0.1012
 6280SOL    HW230477   1.191   3.767   1.322 -1.5159  2.0580  0.4657
 6281SOL     OW30478   2.392   1.121   2.636 -0.2150  0.0677 -0.0008
 6281SOL    HW130479   2.373   1.205   2.679  1.5560  1.7093 -2.4348
 6281SOL    HW230480   2.403   1.154   2.547  0.5755  0.3666  0.2103
 6282SOL     OW30481   1.028   3.401  12.748  0.5585 -0.3810  0.3147
 6282SOL    HW130482   1.085   3.363  12.681 -0.1858  0.4790 -0.8037
 6282SOL    HW230483   0.965   3.334  12.774 -1.4580  1.4703  0.1672
 6283SOL     OW30484   1.113   4.502   5.976  0.0443 -0.3969 -0.2618
 6283SOL    HW130485   1.054   4.501   6.052 -0.3413 -1.8346 -0.5848
 6283SOL    HW230486   1.183   4.562   6.002  0.5388 -1.6868  1.4121
 6284SOL     OW30487   3.036   1.455   4.514 -0.3803  0.6433 -0.7560
 6284SOL    HW130488   3.093   1.391   4.471 -2.3450 -1.2473 -0.5382
 6284SOL    HW230489   3.037   1.426   4.605  1.3452  1.0772 -0.6414
 6285SOL     OW30490   2.949   0.231  14.731 -0.0713  0.2584 -0.4840
 6285SOL    HW130491   2.960   0.326  14.733 -0.3964  0.2281  1.9029
 6285SOL    HW230492   3.038   0.197  14.744 -0.5093 -0.9269 -0.6684
 6286SOL     OW30493   1.861   2.755   2.534  0.0097  0.2987 -0.7285
 6286SOL    HW130494   1.901   2.808   2.465  0.3515  0.5589 -0.3372
 6286SOL    HW230495   1.776   2.726   2.501 -0.5384  0.2534  0.6878
 6287SOL     OW30496   2.132   2.619   0.539  0.2688  0.0131 -0.6886
 6287SOL    HW130497   2.102   2.542   0.491  0.3375  1.5012 -3.0803
 6287SOL    HW230498   2.198   2.659   0.482  0.0628 -0.2287 -1.0906
 6288SOL     OW30499   3.224   1.784   6.244 -0.3417 -0.3385 -0.3013
 6288SOL    HW130500   3.172   1.794   6.164 -1.4523  3.0432  0.8829
 6288SOL    HW230501   3.180   1.709   6.285 -0.5849  0.1509  0.3191
 6289SOL     OW30502   3.134   2.812  10.404  0.6046 -0.1557  0.4988
 6289SOL    HW130503   3.168   2.750  10.469  1.7226 -1.2090 -1.0684
 6289SOL    HW230504   3.045   2.831  10.435  0.4825  1.9311 -1.1854
 6290SOL     OW30505   3.717   1.280   5.624  0.2081 -0.3736 -0.3030
 6290SOL    HW130506   3.673   1.294   5.708  0.2882 -0.9383 -0.1693
 6290SOL    HW230507   3.646   1.242   5.572 -0.1512  0.9999 -0.8320
 6291SOL     OW30508   3.499   1.581   3.383  0.1603 -0.3685 -0.4711
 6291SOL    HW130509   3.410   1.557   3.359 -0.4655  1.2058  0.2933
 6291SOL    HW230510   3.549   1.558   3.304 -1.0577 -0.8858 -1.0967
 6292SOL     OW30511   3.389   3.750   9.297 -0.1082  0.5942 -0.6294
 6292SOL    HW130512   3.445   3.784   9.227 -0.0263  0.2633 -0.7213
 6292SOL    HW230513   3.441   3.677   9.331 -0.5943  0.2764 -0.5700
 6293SOL     OW30514   3.781   4.056   0.912 -0.6081 -0.2963  0.1497
 6293SOL    HW130515   3.836   4.124   0.873 -0.0444  0.1063  1.6610
 6293SOL    HW230516   3.789   3.977   0.858 -2.6703  0.3314 -1.0392
 6294SOL     OW30517   1.708   4.516  15.509  0.7628 -0.0268  0.1343
 6294SOL    HW130518   1.623   4.485  15.542  1.6695 -3.1583 -0.4096
 6294SOL    HW230519   1.760   4.452  15.558  2.2906  1.3382  0.2879
 6295SOL     OW30520   0.986   2.084   6.823 -0.5889 -0.5014 -0.0287
 6295SOL    HW130521   1.057   2.049   6.877  1.4451  1.8729 -1.1310
 6295SOL    HW230522   0.965   2.163   6.872 -0.6960  1.1309 -2.6782
 6296SOL     OW30523   0.789   0.797   8.850  0.1640 -0.7708  0.6693
 6296SOL    HW130524   0.735   0.858   8.800  2.0703  1.3516  1.2238
 6296SOL    HW230525   0.812   0.865   8.914  0.1838  0.5276 -0.7358
 6297SOL     OW30526   0.762   1.109  12.563  0.7525 -0.7189  0.5068
 6297SOL    HW130527   0.721   1.093  12.478 -1.5275  1.1243  1.2957
 6297SOL    HW230528   0.692   1.074  12.618 -0.1949  3.0239  1.6112
 6298SOL     OW30529   2.281   1.052  13.305  0.0574  0.4264 -0.0295
 6298SOL    HW130530   2.351   1.113  13.328  1.0114  0.3945 -2.9631
 6298SOL    HW230531   2.214   1.110  13.268  0.1138 -0.4875 -1.5424
 6299SOL     OW30532   2.357   0.274   2.881 -0.0117  0.2128  0.4312
 6299SOL    HW130533   2.332   0.334   2.951 -1.3818 -0.7489  0.7580
 6299SOL    HW230534   2.312   0.198   2.917 -0.2394  1.4373  2.7003
 6300SOL     OW30535   4.248   2.429   9.503 -0.6868  0.4619 -0.0530
 6300SOL    HW130536   4.239   2.336   9.481  1.2354  0.6451 -1.6304
 6300SOL    HW230537   4.325   2.423   9.559 -0.3295 -1.4640 -0.7584
 6301SOL     OW30538   0.643   3.912   7.518 -0.0821  0.4049  0.8177
 6301SOL    HW130539   0.713   3.965   7.556  0.4670  0.1413  0.1575
 6301SOL    HW230540   0.562   3.951   7.552 -0.7296  0.4760 -0.7979
 6302SOL     OW30541   1.760   4.094   9.251 -0.4832 -0.3889  0.2498
 6302SOL    HW130542   1.707   4.050   9.317 -0.6662 -0.5371  0.0040
 6302SOL    HW230543   1.806   4.026   9.200 -0.1178 -0.1027  0.1960
 6303SOL     OW30544   1.686   1.118  12.928 -0.0018  0.2647 -0.1470
 6303SOL    HW130545   1.629   1.061  12.877 -0.1743 -1.0030  1.4755
 6303SOL    HW230546   1.611   1.167  12.963  2.2512  0.6784  4.0326
 6304SOL     OW30547   3.776   2.091   3.486 -0.1892  0.3313 -0.5966
 6304SOL    HW130548   3.778   2.187   3.485  1.9431  0.3028  1.4296
 6304SOL    HW230549   3.833   2.070   3.413  1.7179 -1.3484  1.3525
 6305SOL     OW30550   0.495   1.137  13.029 -0.2212 -0.3414  0.2121
 6305SOL    HW130551   0.407   1.100  13.038 -0.9475  1.2093 -0.4290
 6305SOL    HW230552   0.497   1.165  12.937  1.8074 -1.1731 -0.0090
 6306SOL     OW30553   2.151   3.635   9.093  0.2596 -0.3114 -0.4643
 6306SOL    HW130554   2.226   3.596   9.138 -0.3568 -1.2240 -0.2452
 6306SOL    HW230555   2.201   3.657   9.014  0.4179 -0.8374 -0.5094
 6307SOL     OW30556   2.165   2.136  14.483 -0.1004 -0.3639  0.3419
 6307SOL    HW130557   2.188   2.053  14.442  1.9940  0.3922  0.0184
 6307SOL    HW230558   2.099   2.166  14.420 -1.2095  0.0537  1.6931
 6308SOL     OW30559   0.713   1.852   8.166 -0.2392 -0.5708 -0.0388
 6308SOL    HW130560   0.780   1.866   8.099 -1.2746  2.5336 -0.4625
 6308SOL    HW230561   0.745   1.888   8.248 -2.2729 -0.4267  0.6917
 6309SOL     OW30562   0.796   2.310   0.637  0.0946 -0.7962  0.4886
 6309SOL    HW130563   0.834   2.388   0.596 -0.6837 -0.2813  0.7522
 6309SOL    HW230564   0.831   2.325   0.725 -2.3165  0.9241  1.1510
 6310SOL     OW30565   3.310   0.432   1.840 -0.0772  0.2200 -0.3283
 6310SOL    HW130566   3.338   0.440   1.749 -1.6758  1.6243 -0.6789
 6310SOL    HW230567   3.297   0.523   1.865  1.8842  0.1031  1.1448
 6311SOL     OW30568   1.982   2.166  14.287 -0.2021  0.1679  0.2344
 6311SOL    HW130569   2.012   2.083  14.251 -2.8502 -0.8388  0.3351
 6311SOL    HW230570   1.903   2.140  14.335 -1.3247  2.0564 -0.5567
 6312SOL     OW30571   3.078   4.530  10.716  0.4103 -0.5357  0.4110
 6312SOL    HW130572   3.052   4.608  10.764 -0.9114  0.4637 -1.9390
 6312SOL    HW230573   3.017   4.528  10.642 -0.7169  2.4717  1.2456
 6313SOL     OW30574   2.387   4.516   6.671  0.1980  0.2188  0.3559
 6313SOL    HW130575   2.446   4.532   6.597 -0.8065 -1.4814 -0.8090
 6313SOL    HW230576   2.303   4.514   6.625 -0.1314  0.0929  0.9607
 6314SOL     OW30577   1.428   2.789   2.771  0.4234 -0.4099  0.0898
 6314SOL    HW130578   1.339   2.818   2.788  0.3510 -0.7788  0.3572
 6314SOL    HW230579   1.436   2.707   2.820  0.3007  0.1447  1.0488
 6315SOL     OW30580   0.100   2.238   7.402  0.4113  0.0969  0.2793
 6315SOL    HW130581   0.016   2.192   7.410  0.8082 -0.5139  1.0233
 6315SOL    HW230582   0.070   2.328   7.413  0.0225  0.0307 -0.2785
 6316SOL     OW30583   4.592   4.724  11.755  0.3438 -0.6534 -0.1527
 6316SOL    HW130584   4.620   4.709  11.845  0.1813 -0.2624 -0.0388
 6316SOL    HW230585   4.673   0.021  11.719 -0.3193  2.2615  1.2755
 6317SOL     OW30586   2.792   0.358   9.050 -0.5274  0.0984  0.8376
 6317SOL    HW130587   2.826   0.329   9.134  0.1004 -2.4181 -0.2837
 6317SOL    HW230588   2.731   0.423   9.084  0.3877  0.4805  1.7260
 6318SOL     OW30589   4.472   3.672   8.252  0.6926 -0.1994  0.3277
 6318SOL    HW130590   4.487   3.721   8.333  1.5606 -1.5217  0.9762
 6318SOL    HW230591   4.512   3.726   8.184  1.3468 -0.7797  0.2542
 6319SOL     OW30592   2.249   2.778  17.682  0.5301 -0.6370  0.3768
 6319SOL    HW130593   2.324   2.803  17.628 -0.3782  0.5206 -0.3478
 6319SOL    HW230594   2.174   2.791  17.624  1.0125 -1.0448 -0.3408
 6320SOL     OW30595   0.762   0.438  16.475  0.4356  0.7757 -0.3208
 6320SOL    HW130596   0.693   0.467  16.416  1.1332  2.3156 -0.3548
 6320SOL    HW230597   0.789   0.524  16.507  1.2021 -0.2262  1.7820
 6321SOL     OW30598   4.702   2.603  14.761 -0.3129  0.3322 -0.3127
 6321SOL    HW130599   4.633   2.647  14.711  0.4460 -0.6403 -2.2223
 6321SOL    HW230600   0.042   2.640  14.721  1.8757 -2.0007  1.8149
 6322SOL     OW30601   1.424   1.356   2.830 -0.1163 -0.0749  0.7979
 6322SOL    HW130602   1.487   1.404   2.776 -0.9852 -0.2530 -0.3637
 6322SOL    HW230603   1.380   1.290   2.777 -0.6147  0.8041  0.1134
 6323SOL     OW30604   2.407   4.423   6.177 -0.1051  0.5346  0.3237
 6323SOL    HW130605   2.381   4.354   6.238 -0.5709  0.3206 -0.1236
 6323SOL    HW230606   2.422   4.369   6.100  0.0847  1.9507 -0.6224
 6324SOL     OW30607   2.103   0.785   2.301  0.1692  0.3956 -0.1633
 6324SOL    HW130608   2.110   0.852   2.233  1.7918  0.2191 -0.1705
 6324SOL    HW230609   2.157   0.824   2.371 -1.2034 -0.5583  1.4324
 6325SOL     OW30610   0.311   1.802   8.324  0.1683  0.3554  0.4682
 6325SOL    HW130611   0.337   1.777   8.413  0.1781 -1.8205 -0.1317
 6325SOL    HW230612   0.388   1.766   8.278  0.1014  1.1869 -0.2781
 6326SOL     OW30613   2.845   2.954   6.566 -0.6546 -0.1813 -0.3035
 6326SOL    HW130614   2.928   2.970   6.522 -1.3502 -2.0024 -2.2757
 6326SOL    HW230615   2.768   2.990   6.521  0.1786  2.1073  0.0744
 6327SOL     OW30616   1.061   1.356   4.474 -0.6105 -0.1110  0.7740
 6327SOL    HW130617   1.014   1.276   4.497 -0.1423 -0.1368  1.6581
 6327SOL    HW230618   1.003   1.424   4.441  1.4486  0.0227 -2.5220
 6328SOL     OW30619   3.868   3.924   2.097  0.4211  0.7457  0.0445
 6328SOL    HW130620   3.849   3.999   2.040  0.8386  0.7412 -0.1041
 6328SOL    HW230621   3.799   3.941   2.160  0.4121 -2.4714  0.8942
 6329SOL     OW30622   1.230   1.756   9.325 -0.0463  0.4639  0.4361
 6329SOL    HW130623   1.148   1.711   9.304 -0.2001  0.4813  0.9940
 6329SOL    HW230624   1.193   1.840   9.352 -1.9101 -0.2709  0.1949
 6330SOL     OW30625   2.271   0.331  13.252 -0.2685 -0.4821 -0.1292
 6330SOL    HW130626   2.282   0.239  13.279  0.6003  0.1524  1.6735
 6330SOL    HW230627   2.195   0.355  13.305 -0.6547 -1.6617 -0.1471
 6331SOL     OW30628   3.520   1.629   2.681  0.6062 -0.1025  0.2651
 6331SOL    HW130629   3.499   1.710   2.634  1.8163  0.3431  0.4792
 6331SOL    HW230630   3.435   1.609   2.720  2.3282 -1.1270  3.4603
 6332SOL     OW30631   4.161   4.374   2.572 -0.2200  0.2891 -0.0275
 6332SOL    HW130632   4.230   4.309   2.587 -1.9267 -0.9471  2.5610
 6332SOL    HW230633   4.180   4.436   2.643  0.0669 -0.5866  0.6638
 6333SOL     OW30634   2.688   2.461  13.964 -0.2366 -0.0365  0.0600
 6333SOL    HW130635   2.712   2.551  13.986 -2.6140  0.3545  1.0789
 6333SOL    HW230636   2.682   2.417  14.049  1.2804 -0.8810 -0.2689
 6334SOL     OW30637   1.411   0.770   3.291 -0.2635 -0.2582  0.3624
 6334SOL    HW130638   1.334   0.737   3.337 -1.2738  1.0730 -0.3966
 6334SOL    HW230639   1.484   0.724   3.334 -0.6578  1.8263  3.2486
 6335SOL     OW30640   4.221   3.053  13.634  0.2624  0.4009 -0.1936
 6335SOL    HW130641   4.243   3.128  13.689  0.1133 -0.1604  0.6221
 6335SOL    HW230642   4.232   3.084  13.544  1.4409 -1.0817 -0.5565
 6336SOL     OW30643   3.775   4.674   3.184  0.1990  0.4845 -0.4922
 6336SOL    HW130644   3.712   4.602   3.175  2.2747 -1.1369 -2.2747
 6336SOL    HW230645   3.747   4.729   3.111 -2.2900 -0.6280 -0.3705
 6337SOL     OW30646   1.763   1.556   6.192 -0.0662  0.2863 -0.2156
 6337SOL    HW130647   1.841   1.510   6.162 -0.7068  0.2260 -1.7927
 6337SOL    HW230648   1.772   1.537   6.285 -0.6236  0.5276 -0.1112
 6338SOL     OW30649   4.368   2.559   9.991  0.3468 -0.2191 -0.4006
 6338SOL    HW130650   4.415   2.610  10.058  0.9199  1.3564 -1.9935
 6338SOL    HW230651   4.325   2.618   9.930  0.0415 -0.3302 -0.2911
 6339SOL     OW30652   1.909   0.069   5.990 -0.2283 -0.6597  0.0636
 6339SOL    HW130653   1.947   4.723   5.966 -0.1174 -0.8370  0.8776
 6339SOL    HW230654   1.977   0.137   5.987  0.5222 -1.4645 -1.1428
 6340SOL     OW30655   4.041   4.604   1.999  0.5110 -0.2087 -0.5137
 6340SOL    HW130656   3.988   4.636   1.925 -1.6583 -3.3134 -0.3173
 6340SOL    HW230657   4.109   4.670   1.991  0.7338 -0.3295  0.4646
 6341SOL     OW30658   4.353   4.645   3.123 -0.8519 -0.1393 -0.4184
 6341SOL    HW130659   4.374   4.678   3.036 -0.0859 -0.9509 -0.5448
 6341SOL    HW230660   4.273   4.693   3.142  0.6767  0.8156  3.6514
 6342SOL     OW30661   0.546   3.821   6.660  0.0516 -0.1536 -0.0454
 6342SOL    HW130662   0.476   3.860   6.712 -1.2962 -1.0263 -1.2261
 6342SOL    HW230663   0.611   3.831   6.731 -0.2239  0.0867  0.1730
 6343SOL     OW30664   1.214   0.333   7.525  0.2518  0.3095  0.3751
 6343SOL    HW130665   1.266   0.413   7.520  2.1246 -0.9782 -0.9296
 6343SOL    HW230666   1.190   0.354   7.615 -0.0223  1.5016  0.0147
 6344SOL     OW30667   1.621   3.995   7.197 -0.0627 -0.5697 -0.3404
 6344SOL    HW130668   1.677   4.045   7.138  0.7688  0.6182  1.4183
 6344SOL    HW230669   1.581   3.931   7.138 -1.6776 -0.4226  0.5837
 6345SOL     OW30670   1.891   4.676   4.792 -0.2507  0.1849 -0.2184
 6345SOL    HW130671   1.873   4.645   4.703 -1.1372  0.9896 -0.3241
 6345SOL    HW230672   1.896   0.032   4.786 -1.3077  0.2817  0.3573
 6346SOL     OW30673   1.642   1.010  13.858  1.1529 -0.2140  0.2158
 6346SOL    HW130674   1.640   0.958  13.778  2.7384 -0.2028  0.1733
 6346SOL    HW230675   1.551   1.042  13.866  0.5467 -1.6022 -1.2668
 6347SOL     OW30676   2.471   1.313   5.861 -0.4312 -0.0759 -0.2069
 6347SOL    HW130677   2.503   1.234   5.817  0.5498 -0.1940  0.7245
 6347SOL    HW230678   2.514   1.317   5.946 -0.2782 -0.9067 -0.2459
 6348SOL     OW30679   1.579   0.326   8.054 -0.1982  0.3741  0.3131
 6348SOL    HW130680   1.536   0.290   8.131 -0.6818 -0.1972 -0.2134
 6348SOL    HW230681   1.647   0.261   8.034 -0.7825 -1.0714  2.9933
 6349SOL     OW30682   2.751   2.550   3.213  0.1873  0.0573 -0.8453
 6349SOL    HW130683   2.771   2.460   3.187 -1.0240 -0.3870 -0.2383
 6349SOL    HW230684   2.837   2.592   3.218  0.0658 -0.0434  1.9712
 6350SOL     OW30685   2.373   2.811   2.145 -0.0502 -0.0309  0.0265
 6350SOL    HW130686   2.373   2.771   2.058  0.5665 -1.3083  0.6248
 6350SOL    HW230687   2.341   2.898   2.120  3.2213  0.2479 -3.1824
 6351SOL     OW30688   0.518   3.004  10.566  0.1910 -0.5110 -0.1293
 6351SOL    HW130689   0.424   3.007  10.547 -0.0763  0.0627  1.2995
 6351SOL    HW230690   0.559   2.956  10.493 -0.8585  0.5412 -1.4162
 6352SOL     OW30691   2.658   4.486   4.587  0.2343  0.4052 -0.0433
 6352SOL    HW130692   2.564   4.469   4.592  0.3676 -0.2041  0.3673
 6352SOL    HW230693   2.697   4.399   4.592 -0.0055  0.2343 -1.1246
 6353SOL     OW30694   0.224   2.595  14.490  0.5365  0.3171  0.3956
 6353SOL    HW130695   0.257   2.511  14.523  1.5785  0.6768  0.2354
 6353SOL    HW230696   0.278   2.659  14.536  1.3853 -1.5858  2.0756
 6354SOL     OW30697   2.837   1.582   6.602  0.0785  0.5625 -0.6898
 6354SOL    HW130698   2.793   1.664   6.583 -0.0885  1.1074  2.1109
 6354SOL    HW230699   2.780   1.520   6.556 -1.6541  0.3507  1.7094
 6355SOL     OW30700   3.402   4.228  17.013 -0.3791  0.3754  0.4707
 6355SOL    HW130701   3.465   4.162  17.043  1.3222  1.3288 -0.9693
 6355SOL    HW230702   3.413   4.223  16.918 -0.1717 -1.4340  0.5892
 6356SOL     OW30703   2.644   4.680   5.570 -0.1568  0.1319 -0.3438
 6356SOL    HW130704   2.651   4.585   5.584  1.5800  0.1868 -0.8660
 6356SOL    HW230705   2.728   4.708   5.607 -0.3676  0.0341  0.2058
 6357SOL     OW30706   4.508   1.780   4.597  0.2257 -0.0899 -0.7715
 6357SOL    HW130707   4.433   1.817   4.644 -0.4372  1.0303 -2.6915
 6357SOL    HW230708   4.472   1.692   4.594 -0.6388  0.2473 -0.3946
 6358SOL     OW30709   3.315   4.687   2.556 -0.2029 -0.1409  0.0347
 6358SOL    HW130710   3.264   4.700   2.636 -1.2375 -2.1908 -0.2874
 6358SOL    HW230711   3.246   4.702   2.491 -1.2824 -0.4197  1.1224
 6359SOL     OW30712   3.440   4.041  16.065  0.3992  0.0218 -0.2073
 6359SOL    HW130713   3.360   4.078  16.102 -0.3273 -1.9330  0.1641
 6359SOL    HW230714   3.470   4.119  16.019  0.3037  1.9928  3.0740
 6360SOL     OW30715   4.350   3.640   7.965  0.0423 -0.3918 -0.2045
 6360SOL    HW130716   4.424   3.666   7.911  0.3078  0.7593  0.7013
 6360SOL    HW230717   4.376   3.657   8.055  0.3396  1.5143 -0.6396
 6361SOL     OW30718   2.020   4.115   0.109  0.1146 -0.3600  0.2052
 6361SOL    HW130719   2.014   4.210   0.094 -0.0909 -0.4255 -0.1497
 6361SOL    HW230720   1.926   4.094   0.107 -0.0581  0.1526  3.0978
 6362SOL     OW30721   3.134   3.582   9.897  0.3028 -0.4063  0.0951
 6362SOL    HW130722   3.106   3.629   9.975 -0.5015 -0.3504 -0.2297
 6362SOL    HW230723   3.064   3.519   9.881  1.5292 -1.3623 -1.5126
 6363SOL     OW30724   1.449   2.454   2.041  0.1123  0.7733 -0.3046
 6363SOL    HW130725   1.447   2.415   2.129  1.7098  0.9255 -0.2136
 6363SOL    HW230726   1.461   2.378   1.984 -0.6052 -1.7783  2.9227
 6364SOL     OW30727   0.164   1.400   4.706 -0.7963 -0.0974 -0.3273
 6364SOL    HW130728   0.186   1.491   4.688  0.3671 -0.4644 -0.7201
 6364SOL    HW230729   0.202   1.362   4.627 -1.8340 -0.6328 -0.5767
 6365SOL     OW30730   2.188   3.428   5.959  0.0744  0.5499  0.1603
 6365SOL    HW130731   2.156   3.340   5.979  0.0074  0.6372  0.4333
 6365SOL    HW230732   2.283   3.416   5.960  0.2782  2.2022  0.0356
 6366SOL     OW30733   2.947   4.191   8.246  0.3351  0.5010  0.8616
 6366SOL    HW130734   2.993   4.207   8.163  0.2347 -1.8838  0.3378
 6366SOL    HW230735   2.979   4.268   8.292 -0.3384  0.7818  0.8626
 6367SOL     OW30736   3.427   0.337   7.613 -0.8398 -0.2904 -0.0428
 6367SOL    HW130737   3.346   0.345   7.664 -0.8062  0.8114 -0.1701
 6367SOL    HW230738   3.420   0.406   7.548  1.6675  1.5615  1.6726
 6368SOL     OW30739   3.621   1.618   0.029 -0.2315 -0.1970  0.0004
 6368SOL    HW130740   3.698   1.563   0.036  0.5307  0.7629 -0.8915
 6368SOL    HW230741   3.658   1.701   0.059 -1.1123  0.2158 -0.0533
 6369SOL     OW30742   1.053   0.541   1.212 -0.1634  0.3008  0.0566
 6369SOL    HW130743   0.986   0.477   1.236 -0.9408  1.4382  0.8988
 6369SOL    HW230744   1.127   0.482   1.199 -0.4805 -0.0004 -0.4076
 6370SOL     OW30745   2.356   2.681   9.188 -0.3360 -0.3589 -0.2511
 6370SOL    HW130746   2.338   2.679   9.094 -0.1082  0.2743 -0.3078
 6370SOL    HW230747   2.262   2.672   9.206  0.1359  1.9920  3.4656
 6371SOL     OW30748   4.033   4.027  13.760 -0.8652  0.3150 -0.1433
 6371SOL    HW130749   4.103   3.964  13.779 -1.6550 -0.7149 -0.5911
 6371SOL    HW230750   4.062   4.057  13.674 -0.5012  0.3568 -0.0070
 6372SOL     OW30751   2.420   4.479   8.925 -0.4795  0.4152 -0.1452
 6372SOL    HW130752   2.409   4.446   9.014 -1.5577  0.3832 -0.2893
 6372SOL    HW230753   2.512   4.508   8.924  0.2486 -1.8377  0.3228
 6373SOL     OW30754   3.384   4.544  16.383  0.2706  0.2294  0.7319
 6373SOL    HW130755   3.405   4.477  16.318  0.2762  0.4710  0.4883
 6373SOL    HW230756   3.295   4.510  16.395  0.6825 -0.5121  1.7115
 6374SOL     OW30757   4.556   4.491   0.924 -0.2332  0.0578  0.1552
 6374SOL    HW130758   4.480   4.492   0.866 -0.1101 -1.0091 -0.0146
 6374SOL    HW230759   4.583   4.400   0.935  1.1437  0.2353 -1.8371
 6375SOL     OW30760   4.547   3.008   6.320  0.2077  0.6825  0.0023
 6375SOL    HW130761   4.619   3.040   6.266  1.6257  0.3492  1.6840
 6375SOL    HW230762   4.560   3.055   6.402  1.1546 -2.5695  1.7394
 6376SOL     OW30763   1.755   0.477   3.723 -0.6331  0.8117  0.0116
 6376SOL    HW130764   1.845   0.458   3.748  0.0901  0.3532 -2.9637
 6376SOL    HW230765   1.708   0.451   3.802 -1.3900 -2.3966 -1.5073
 6377SOL     OW30766   4.351   0.874   4.095 -0.5272 -0.0108 -0.2461
 6377SOL    HW130767   4.325   0.948   4.150  0.7395  0.7976 -0.7257
 6377SOL    HW230768   4.379   0.807   4.158  1.3189  1.3704  0.4156
 6378SOL     OW30769   4.484   1.174   9.529  0.5974 -0.3167  0.4459
 6378SOL    HW130770   4.442   1.248   9.573 -2.2093 -0.5989 -1.8035
 6378SOL    HW230771   4.432   1.104   9.568 -0.1422  0.7457  1.3681
 6379SOL     OW30772   3.921   1.672   1.081  0.5154 -0.9467 -0.2715
 6379SOL    HW130773   3.983   1.697   1.150  0.0292  0.6344 -0.4023
 6379SOL    HW230774   3.881   1.605   1.136  2.2479 -1.3591  0.4748
 6380SOL     OW30775   3.232   1.490   1.743 -0.1626 -0.0995 -0.1776
 6380SOL    HW130776   3.259   1.431   1.672  1.5048 -0.6211  0.8794
 6380SOL    HW230777   3.308   1.476   1.800  1.1484 -0.0157 -1.9123
 6381SOL     OW30778   4.652   0.763  13.239 -0.2469 -0.0194  1.2175
 6381SOL    HW130779   4.581   0.760  13.175  0.2892 -3.3170  0.8171
 6381SOL    HW230780   4.646   0.676  13.278  0.7266 -0.7689 -0.3171
 6382SOL     OW30781   4.435   1.607   4.250  0.0539 -0.0381  0.0476
 6382SOL    HW130782   4.503   1.543   4.230  2.8991  2.9654  0.0237
 6382SOL    HW230783   4.486   1.688   4.254 -0.8729  0.5424  0.3068
 6383SOL     OW30784   4.122   3.616  10.610  0.3575 -0.4290  0.2345
 6383SOL    HW130785   4.074   3.610  10.692 -0.6212 -0.7947 -0.3563
 6383SOL    HW230786   4.212   3.592  10.631  0.0310 -1.7891  0.1367
 6384SOL     OW30787   4.247   4.559   3.937  0.4343 -0.6053  0.8264
 6384SOL    HW130788   4.168   4.515   3.906  0.2360 -1.0737  1.9895
 6384SOL    HW230789   4.258   4.626   3.869 -0.6259 -0.5962  0.6685
 6385SOL     OW30790   0.169   2.119   5.844  0.4826  0.0001  0.0963
 6385SOL    HW130791   0.154   2.088   5.755  2.4686  2.8886 -1.2617
 6385SOL    HW230792   0.079   2.135   5.872 -0.3000 -0.9304 -1.9520
 6386SOL     OW30793   3.933   2.022   3.892  0.0421  0.0491  0.0750
 6386SOL    HW130794   3.904   2.039   3.802 -0.0507 -0.9459 -0.0788
 6386SOL    HW230795   3.849   1.988   3.924 -1.1155  0.6130 -2.3064
 6387SOL     OW30796   3.049   0.046  10.760  0.2675  0.1023  0.0484
 6387SOL    HW130797   3.077   0.118  10.817 -0.0557  1.9325 -2.0929
 6387SOL    HW230798   2.998   0.097  10.697  0.4764  1.0301  0.6252
 6388SOL     OW30799   1.539   3.798   6.240 -0.0389 -0.2861  0.5942
 6388SOL    HW130800   1.570   3.707   6.242  0.4056 -0.1054  1.8258
 6388SOL    HW230801   1.563   3.823   6.150  0.1109 -1.0392  0.4277
 6389SOL     OW30802   1.556   3.404   4.034 -0.4652  0.4163  0.3669
 6389SOL    HW130803   1.566   3.497   4.016  2.5399  0.5244  2.5417
 6389SOL    HW230804   1.648   3.376   4.026 -0.7347  0.3863 -2.9114
 6390SOL     OW30805   0.732   2.746   2.903  0.5322 -0.2482  0.5246
 6390SOL    HW130806   0.761   2.765   2.992  1.3249 -0.1313  0.2361
 6390SOL    HW230807   0.748   2.828   2.855 -2.3075  0.6198  1.0657
 6391SOL     OW30808   1.816   2.741  15.332  0.9870  0.0968 -0.1766
 6391SOL    HW130809   1.902   2.768  15.301  1.7256 -0.9700  0.9123
 6391SOL    HW230810   1.760   2.773  15.262  1.9628  3.2851  0.4928
 6392SOL     OW30811   3.189   4.338   2.766  0.4927 -0.0210  0.4736
 6392SOL    HW130812   3.121   4.294   2.818 -0.1744  1.9188  1.2200
 6392SOL    HW230813   3.135   4.374   2.696  1.6818  0.3223 -0.2530
 6393SOL     OW30814   4.171   1.484   7.978 -0.3313 -0.3194  0.0281
 6393SOL    HW130815   4.219   1.428   8.038  0.3111 -0.9656 -1.0901
 6393SOL    HW230816   4.236   1.500   7.909 -0.6986  0.1692 -0.2062
 6394SOL     OW30817   3.130   1.021   1.015  0.2790 -0.3407  0.1392
 6394SOL    HW130818   3.127   1.083   0.942 -3.1337  2.1199  2.3722
 6394SOL    HW230819   3.043   0.984   1.001  0.5314 -0.9004  0.0451
 6395SOL     OW30820   4.510   3.229   1.454  0.5679  0.3655 -0.3057
 6395SOL    HW130821   4.492   3.144   1.414  0.2929  1.1076 -1.7969
 6395SOL    HW230822   4.447   3.285   1.408  0.9982  0.1167 -1.2008
 6396SOL     OW30823   2.961   2.097  12.979  0.3406  0.1410  0.1128
 6396SOL    HW130824   2.927   2.095  13.069  2.0942 -0.0286  0.7715
 6396SOL    HW230825   2.999   2.009  12.974 -2.6270 -1.3123  2.9028
 6397SOL     OW30826   1.776   2.333   1.103 -0.2442 -0.3249 -0.8727
 6397SOL    HW130827   1.792   2.316   1.195 -1.0119 -0.6418 -0.7995
 6397SOL    HW230828   1.702   2.280   1.074 -0.1371 -0.6361 -0.5751
 6398SOL     OW30829   3.948   1.336   6.538 -0.2202 -0.0309  0.1935
 6398SOL    HW130830   3.967   1.363   6.628  2.0905 -1.5511  0.1690
 6398SOL    HW230831   3.869   1.284   6.553 -0.2499 -0.1334 -0.3153
 6399SOL     OW30832   4.215   3.808   6.514 -0.0334  0.1838 -0.2782
 6399SOL    HW130833   4.143   3.820   6.576 -0.5051 -0.0790 -0.7744
 6399SOL    HW230834   4.174   3.760   6.442  1.1241 -0.4188 -0.5386
 6400SOL     OW30835   4.465   4.122   7.817 -0.3569  0.6280 -0.4481
 6400SOL    HW130836   4.475   4.203   7.865 -0.6207 -0.0290  0.7083
 6400SOL    HW230837   4.389   4.136   7.760 -0.3937 -0.4451 -0.6648
 6401SOL     OW30838   4.296   2.922  12.803 -0.0396  0.4054  0.0041
 6401SOL    HW130839   4.384   2.923  12.842  0.0553  1.3135 -0.2528
 6401SOL    HW230840   4.290   2.838  12.758  0.2424 -1.5063  3.4994
 6402SOL     OW30841   1.624   0.064   4.994 -0.4778 -0.0359  0.3975
 6402SOL    HW130842   1.655   4.726   4.946 -1.2403 -0.3025  0.3254
 6402SOL    HW230843   1.561   0.101   4.932  0.1163 -1.0257 -0.8091
 6403SOL     OW30844   1.202   0.769  13.016 -0.2012  0.0862  0.5177
 6403SOL    HW130845   1.124   0.733  13.058 -1.3571  1.0208 -0.7992
 6403SOL    HW230846   1.270   0.703  13.030  1.2421  1.1381 -1.5203
 6404SOL     OW30847   4.119   0.605   3.755  0.2210 -0.1150 -0.6171
 6404SOL    HW130848   4.039   0.632   3.709 -1.5927 -1.8948  1.4859
 6404SOL    HW230849   4.185   0.614   3.687  2.0316 -0.7958  1.0571
 6405SOL     OW30850   0.458   3.277   8.198 -0.3910  0.3017 -0.0972
 6405SOL    HW130851   0.536   3.322   8.167 -1.9223  1.5847 -2.1072
 6405SOL    HW230852   0.477   3.185   8.178  0.1875  0.1592  1.0697
 6406SOL     OW30853   3.355   2.797  12.002  0.0188 -0.4576  0.0627
 6406SOL    HW130854   3.264   2.811  11.974 -1.0132 -3.4896  1.8253
 6406SOL    HW230855   3.343   2.822  12.094  1.6318  1.9285 -0.3915
 6407SOL     OW30856   4.625   4.500   8.638 -0.5169 -0.0279 -0.2710
 6407SOL    HW130857   4.578   4.423   8.669 -0.1684 -0.1644 -0.0875
 6407SOL    HW230858   4.564   4.550   8.583 -0.0007 -0.2068 -1.0087
 6408SOL     OW30859   1.671   3.344   8.744  0.3179  0.2266  0.3584
 6408SOL    HW130860   1.699   3.328   8.834 -2.3302  2.6106  1.6089
 6408SOL    HW230861   1.685   3.439   8.741  0.4240  0.1411 -2.0518
 6409SOL     OW30862   2.237   1.887   8.883 -0.4929 -0.0342  0.6423
 6409SOL    HW130863   2.160   1.904   8.830  1.1115  1.4778 -1.2245
 6409SOL    HW230864   2.270   1.975   8.866 -1.4700  0.4140  1.0611
 6410SOL     OW30865   4.605   2.023  15.685 -0.5583  0.0253 -0.3901
 6410SOL    HW130866   4.676   1.975  15.727 -1.8473 -0.2562  1.4470
 6410SOL    HW230867   4.573   2.074  15.760  2.0473 -0.5381  1.1136
 6411SOL     OW30868   0.522   2.707  10.442 -0.5453  0.2133  0.0855
 6411SOL    HW130869   0.612   2.675  10.445 -0.9219 -0.8673 -0.1182
 6411SOL    HW230870   0.487   2.702  10.532 -3.6878  0.5681 -1.1097
 6412SOL     OW30871   2.865   2.821   9.751  0.5127  0.6834  0.0913
 6412SOL    HW130872   2.770   2.811   9.745  0.3790  1.7272  0.4535
 6412SOL    HW230873   2.907   2.770   9.682  1.1204  1.8858 -0.4313
 6413SOL     OW30874   0.693   2.173   9.970 -0.4728  0.5337  0.2538
 6413SOL    HW130875   0.599   2.179   9.983 -0.5046 -0.7518  0.6454
 6413SOL    HW230876   0.719   2.239  10.034  1.2333 -0.5819  0.7294
 6414SOL     OW30877   0.802   3.587   1.375  0.2807 -0.0720  0.1793
 6414SOL    HW130878   0.889   3.591   1.336  1.0010 -2.3691  1.5626
 6414SOL    HW230879   0.754   3.592   1.292  1.0437  0.6220 -0.2138
 6415SOL     OW30880   4.477   2.737   5.659  0.4658 -0.0935 -0.6434
 6415SOL    HW130881   4.426   2.790   5.597  1.1130  1.4129  0.1180
 6415SOL    HW230882   4.539   2.798   5.698  0.6936  0.0146 -1.1752
 6416SOL     OW30883   2.924   4.037   7.100 -0.3475  0.1531  0.4990
 6416SOL    HW130884   2.970   3.994   7.172 -1.9845  1.1190  2.1235
 6416SOL    HW230885   2.978   4.110   7.072 -0.2778 -0.0632  0.0679
 6417SOL     OW30886   2.568   1.393  13.666  0.0807  0.0092  0.1099
 6417SOL    HW130887   2.639   1.329  13.661 -0.0226 -0.0113 -0.9906
 6417SOL    HW230888   2.490   1.338  13.666 -1.1035  1.6989 -0.3189
 6418SOL     OW30889   4.099   0.667   8.644 -0.2971  0.0281 -0.1846
 6418SOL    HW130890   4.070   0.745   8.598 -0.6062  0.4735  0.7543
 6418SOL    HW230891   4.186   0.651   8.607  1.0257  1.9494  2.1024
 6419SOL     OW30892   4.554   4.470   5.068  0.0775  0.0155  0.3586
 6419SOL    HW130893   4.633   4.519   5.092 -0.9201  0.6435  2.3774
 6419SOL    HW230894   4.582   4.421   4.990  0.3121 -1.6185  1.4671
 6420SOL     OW30895   4.536   3.483  14.784  0.2638  0.2366  0.0811
 6420SOL    HW130896   4.541   3.443  14.871  0.7283  1.3650  0.5754
 6420SOL    HW230897   4.531   3.577  14.805  0.2494  0.1878  0.2958
 6421SOL     OW30898   1.075   0.486   3.259 -0.7409 -0.7531  0.3024
 6421SOL    HW130899   1.119   0.546   3.320  1.7539  0.8735 -3.1178
 6421SOL    HW230900   1.119   0.523   3.183 -1.6326  0.2768  0.2703
 6422SOL     OW30901   3.182   1.166  12.986 -0.2862  0.4749 -0.2628
 6422SOL    HW130902   3.170   1.072  12.999  0.3198  0.5915  1.0655
 6422SOL    HW230903   3.197   1.188  13.078  1.1260 -0.6934 -0.2218
 6423SOL     OW30904   0.022   2.860   2.535  0.1055  0.3568  0.4273
 6423SOL    HW130905   0.103   2.859   2.587  1.3447  1.8156 -1.4922
 6423SOL    HW230906   4.692   2.852   2.602 -0.8426  0.0344 -0.5916
 6424SOL     OW30907   0.400   1.188  16.875 -0.6695  0.0537  0.4508
 6424SOL    HW130908   0.443   1.187  16.790  0.9420 -1.3334  1.2968
 6424SOL    HW230909   0.383   1.094  16.877 -3.0878  0.4430 -0.9482
 6425SOL     OW30910   1.696   3.292  11.826 -0.2909 -0.1358 -0.4411
 6425SOL    HW130911   1.663   3.205  11.802 -1.1424  0.0015  0.2503
 6425SOL    HW230912   1.789   3.275  11.839 -0.1465  0.1141 -1.1291
 6426SOL     OW30913   0.713   1.847   2.151  0.0094 -0.2462  0.1598
 6426SOL    HW130914   0.754   1.836   2.065  1.3414  0.8983  0.6447
 6426SOL    HW230915   0.765   1.916   2.192  3.6170 -1.3882 -2.4244
 6427SOL     OW30916   4.246   4.597  12.997  0.1799  0.2211 -0.2354
 6427SOL    HW130917   4.217   4.528  12.937 -0.9788 -0.5168  1.1633
 6427SOL    HW230918   4.217   4.549  13.075 -1.3011  2.7307  0.7446
 6428SOL     OW30919   2.867   2.369   9.182 -0.2705  0.5071  0.0738
 6428SOL    HW130920   2.926   2.386   9.109  0.1937 -1.7962 -0.0810
 6428SOL    HW230921   2.931   2.342   9.248 -0.0374 -1.2411 -0.8701
 6429SOL     OW30922   0.468   0.219   5.212 -0.0270  0.2478  0.2899
 6429SOL    HW130923   0.401   0.223   5.281  0.4964  1.0253  0.7635
 6429SOL    HW230924   0.532   0.155   5.243 -0.0566  1.1346  2.1739
 6430SOL     OW30925   1.033   0.186   7.328 -0.4092  0.1799  0.2054
 6430SOL    HW130926   1.017   0.183   7.234  0.4933  1.3139  0.0215
 6430SOL    HW230927   1.104   0.250   7.333  0.0365 -0.2596 -0.3601
 6431SOL     OW30928   4.182   3.858   7.109 -0.0746  0.4918 -0.2885
 6431SOL    HW130929   4.102   3.826   7.068 -0.1757  2.9889 -2.0527
 6431SOL    HW230930   4.172   3.953   7.110  1.1642  0.6176  0.3221
 6432SOL     OW30931   0.462   2.968   5.892  0.0336  0.3039 -0.1815
 6432SOL    HW130932   0.513   2.919   5.956 -2.2557 -0.6467  0.9212
 6432SOL    HW230933   0.499   3.051   5.922  1.1609 -0.2335 -0.0723
 6433SOL     OW30934   2.254   0.044   4.496  0.4537 -0.0710 -0.2016
 6433SOL    HW130935   2.313   0.013   4.428 -2.1794 -1.5681 -1.7848
 6433SOL    HW230936   2.176   4.731   4.479 -0.6812  2.0169 -1.3809
 6434SOL     OW30937   3.161   4.737   1.320 -0.6964 -0.3717 -0.0014
 6434SOL    HW130938   3.245   4.692   1.317 -0.6457 -0.1335 -2.1261
 6434SOL    HW230939   3.112   4.655   1.308 -0.5158 -0.6024  0.8856
 6435SOL     OW30940   2.999   3.754   6.509 -0.2612  0.1890  0.6057
 6435SOL    HW130941   2.915   3.757   6.465 -0.1094  1.0683  0.3837
 6435SOL    HW230942   3.041   3.690   6.452  1.0210  0.0221  1.7325
 6436SOL     OW30943   3.856   0.314  12.654 -0.4733  0.0310 -0.2852
 6436SOL    HW130944   3.787   0.270  12.605 -1.4497  2.2730 -0.9240
 6436SOL    HW230945   3.919   0.244  12.671  1.0917  1.6698  0.6414
 6437SOL     OW30946   1.909   2.485  11.831  0.2233 -0.1168 -0.8043
 6437SOL    HW130947   1.960   2.563  11.853 -2.3125  0.9259  1.3220
 6437SOL    HW230948   1.823   2.526  11.828  0.7051  0.8771 -1.1843
 6438SOL     OW30949   0.444   4.455   2.832 -0.3284 -0.5689  0.1912
 6438SOL    HW130950   0.518   4.395   2.824 -0.0408 -0.0892 -0.7578
 6438SOL    HW230951   0.418   4.449   2.924  0.0844  0.9746  0.4169
 6439SOL     OW30952   0.929   4.198   9.091 -0.4810 -0.0026 -0.4503
 6439SOL    HW130953   0.852   4.237   9.051 -0.0666  0.5973 -0.6514
 6439SOL    HW230954   0.961   4.266   9.151  0.1586 -2.2381  1.7745
 6440SOL     OW30955   2.707   4.175   4.602  0.0641  0.0138  0.2808
 6440SOL    HW130956   2.626   4.131   4.575 -0.0744  0.2987  0.2336
 6440SOL    HW230957   2.769   4.144   4.536 -0.0222 -0.7014  0.5369
 6441SOL     OW30958   2.542   3.000  15.671 -0.0152 -0.7560  0.1574
 6441SOL    HW130959   2.471   3.009  15.735  1.1765  1.5700  1.1376
 6441SOL    HW230960   2.621   3.004  15.726 -2.1594 -0.6824  3.2471
 6442SOL     OW30961   1.552   4.276   6.274  0.0204  0.6551  0.1588
 6442SOL    HW130962   1.485   4.345   6.272 -1.8109 -1.1094  0.9730
 6442SOL    HW230963   1.516   4.233   6.351  1.3236  1.9132  1.4551
 6443SOL     OW30964   0.792   0.005   7.134  0.6816  0.0907  0.1715
 6443SOL    HW130965   0.809   0.070   7.202 -0.8220  0.0236  0.6208
 6443SOL    HW230966   0.737   4.681   7.180 -0.6023  0.1573 -1.2546
 6444SOL     OW30967   2.346   0.174   8.120 -0.1991 -0.2451 -0.4717
 6444SOL    HW130968   2.423   0.228   8.137  0.5103 -0.6845 -2.2577
 6444SOL    HW230969   2.375   0.113   8.052  0.3507 -0.6567  0.1208
 6445SOL     OW30970   4.488   1.297   8.246 -0.5727  0.0164  0.5700
 6445SOL    HW130971   4.466   1.389   8.231  0.9742  0.3499  0.3039
 6445SOL    HW230972   4.568   1.306   8.298 -0.2519  0.8998 -0.0698
 6446SOL     OW30973   0.279   1.997   1.737 -0.7794 -0.1858 -0.1377
 6446SOL    HW130974   0.211   2.014   1.802 -1.4887 -0.6611 -0.7527
 6446SOL    HW230975   0.254   2.054   1.664 -1.2038 -0.3872 -0.1475
 6447SOL     OW30976   1.130   1.094  16.238 -0.1544  0.3400 -0.0832
 6447SOL    HW130977   1.041   1.126  16.225 -0.0669 -0.0512 -1.5832
 6447SOL    HW230978   1.139   1.111  16.332 -2.4118  1.8832 -0.1475
 6448SOL     OW30979   3.200   2.221   6.322  0.4578  0.1389 -0.2955
 6448SOL    HW130980   3.181   2.312   6.344  1.9781  0.9496 -2.2595
 6448SOL    HW230981   3.113   2.194   6.294  0.7859  0.1236 -1.2990
 6449SOL     OW30982   4.572   2.238   8.728 -0.1868 -0.0448  0.1314
 6449SOL    HW130983   4.494   2.219   8.781 -1.1851 -0.4297 -1.4713
 6449SOL    HW230984   4.565   2.170   8.660 -0.7473 -0.2567  0.4033
 6450SOL     OW30985   1.612   3.391   1.147  0.0385 -0.1400 -0.3234
 6450SOL    HW130986   1.578   3.387   1.057 -0.6345  0.8963 -0.1185
 6450SOL    HW230987   1.658   3.475   1.140  0.9285 -0.6919 -1.1433
 6451SOL     OW30988   0.930   1.845  17.443  0.1585 -0.2831 -0.2768
 6451SOL    HW130989   0.990   1.903  17.490  0.6671  0.6887 -2.1748
 6451SOL    HW230990   0.936   1.894  17.362  1.2670  1.0718  0.6150
 6452SOL     OW30991   0.142   4.154   3.187 -0.3871  0.3022 -0.0418
 6452SOL    HW130992   0.225   4.175   3.144 -0.3585 -2.1190 -1.1414
 6452SOL    HW230993   0.079   4.178   3.118 -0.5812  0.5511  0.2231
 6453SOL     OW30994   2.945   3.009  11.885  0.3158 -0.1705 -0.6280
 6453SOL    HW130995   2.989   2.926  11.904  1.5427  0.6405  0.0849
 6453SOL    HW230996   2.874   2.968  11.835 -1.3411 -0.8470  2.2641
 6454SOL     OW30997   1.425   3.591   7.657 -0.0571  0.7337 -0.1134
 6454SOL    HW130998   1.441   3.588   7.751  0.8102 -0.2052 -0.2885
 6454SOL    HW230999   1.411   3.497   7.643 -1.8884  0.7111  1.8106
 6455SOL     OW31000   3.228   0.150   4.020 -0.1233  0.3860 -0.2831
 6455SOL    HW131001   3.166   0.171   3.950 -2.6650  2.1651  2.4989
 6455SOL    HW231002   3.293   0.110   3.962  0.4868  0.5094  0.3202
 6456SOL     OW31003   2.021   2.098   1.094 -0.0361  0.4321 -0.0038
 6456SOL    HW131004   1.996   2.190   1.082 -3.0655 -0.3993 -0.1084
 6456SOL    HW231005   1.945   2.055   1.054 -0.8035  1.7303  0.0352
 6457SOL     OW31006   1.580   0.921   7.566 -0.1195 -0.3288  0.4732
 6457SOL    HW131007   1.538   0.847   7.521  0.0458  1.4283 -2.5665
 6457SOL    HW231008   1.590   0.875   7.649 -1.9473  0.5126  1.1730
 6458SOL     OW31009   2.266   3.143   3.136  0.0966 -0.6578  0.2442
 6458SOL    HW131010   2.240   3.235   3.136  3.8320  0.4202  2.3546
 6458SOL    HW231011   2.266   3.119   3.043 -0.3801 -1.3807  0.4365
 6459SOL     OW31012   0.154   4.659   4.454 -0.1092 -0.2055 -0.0724
 6459SOL    HW131013   0.123   0.011   4.453  1.9044  0.4817  0.2628
 6459SOL    HW231014   0.108   4.622   4.379 -1.0261  1.3608 -0.3041
 6460SOL     OW31015   1.087   0.661   8.232  0.2209 -0.4165 -0.1684
 6460SOL    HW131016   1.177   0.693   8.233  0.7887 -2.0534  0.4018
 6460SOL    HW231017   1.104   0.569   8.251 -0.2459 -0.1348  1.6955
 6461SOL     OW31018   1.690   3.656   0.148  0.1423 -0.1859  0.1067
 6461SOL    HW131019   1.628   3.710   0.196 -1.9883 -2.6063  0.0945
 6461SOL    HW231020   1.681   3.706   0.067  1.0929 -0.5515 -0.2366
 6462SOL     OW31021   0.049   0.296   7.185  0.6364  0.7452 -0.5128
 6462SOL    HW131022   0.060   0.227   7.119 -0.5802  0.5421 -0.5015
 6462SOL    HW231023   0.015   0.247   7.260 -1.6025  3.8327  0.4536
 6463SOL     OW31024   0.554   2.139   4.370  1.2227  0.2265  0.6144
 6463SOL    HW131025   0.578   2.230   4.389 -1.0527  1.0131 -0.2502
 6463SOL    HW231026   0.513   2.133   4.284  0.8549 -4.4096  1.1153
 6464SOL     OW31027   1.861   0.183  11.923 -0.4978  0.3150 -0.0392
 6464SOL    HW131028   1.870   0.152  12.013 -0.4519 -0.4572 -0.3142
 6464SOL    HW231029   1.789   0.127  11.894  0.0238 -0.2482 -0.2512
 6465SOL     OW31030   0.348   2.813   6.777  0.1343  0.0243  0.1925
 6465SOL    HW131031   0.377   2.893   6.820  0.6390 -0.0493 -0.0129
 6465SOL    HW231032   0.263   2.827   6.735  0.6972  1.8576 -0.3158
 6466SOL     OW31033   2.189   3.680  10.794  0.2727 -0.0008  0.5501
 6466SOL    HW131034   2.203   3.671  10.889  1.5445  0.9294  0.4645
 6466SOL    HW231035   2.095   3.667  10.792  0.5833 -1.9145 -1.2165
 6467SOL     OW31036   1.721   2.284   7.694  0.1467 -0.1006  0.0056
 6467SOL    HW131037   1.796   2.249   7.646  0.8310 -0.2252  1.1676
 6467SOL    HW231038   1.683   2.334   7.622  1.2959  1.3247  0.3639
 6468SOL     OW31039   1.035   4.588   7.156  0.0327 -0.2984 -0.1680
 6468SOL    HW131040   0.952   4.625   7.184  0.2858  0.0419  0.1249
 6468SOL    HW231041   1.069   4.563   7.241  0.3331 -0.8771 -0.4563
 6469SOL     OW31042   2.038   3.875   5.004  0.7156  0.8844  0.8255
 6469SOL    HW131043   2.095   3.861   5.080  1.1074 -0.7048  0.2354
 6469SOL    HW231044   2.093   3.833   4.938 -3.6417 -3.6055  0.0321
 6470SOL     OW31045   3.549   3.588   7.712 -0.3973 -0.2240 -0.1909
 6470SOL    HW131046   3.599   3.667   7.733 -1.6668  0.7856 -0.9351
 6470SOL    HW231047   3.507   3.609   7.628  1.2644 -2.0467 -1.4816
 6471SOL     OW31048   2.488   0.831   6.975 -0.6304 -0.0101 -0.2672
 6471SOL    HW131049   2.443   0.754   7.009  0.5624 -0.8584 -0.5925
 6471SOL    HW231050   2.547   0.790   6.912 -0.5343 -0.0730 -0.1376
 6472SOL     OW31051   1.826   0.966  15.990 -0.3441  0.4795 -0.4956
 6472SOL    HW131052   1.826   1.060  16.004  1.7835  0.3519  0.3936
 6472SOL    HW231053   1.746   0.953  15.940 -0.0449 -0.5030 -0.7245
 6473SOL     OW31054   3.115   3.165   0.455 -0.2881  0.3786 -0.2990
 6473SOL    HW131055   3.192   3.141   0.507 -0.7192  3.6742  1.8753
 6473SOL    HW231056   3.079   3.079   0.436 -0.0801  0.5837 -1.6043
 6474SOL     OW31057   4.712   1.942   8.924  0.2100  0.6016  0.1724
 6474SOL    HW131058   0.039   1.981   8.865  2.4099 -0.6280  1.7820
 6474SOL    HW231059   4.636   1.952   8.868 -0.5939 -0.9813  0.9975
 6475SOL     OW31060   1.607   4.261   4.359  0.1921  0.5494 -0.2089
 6475SOL    HW131061   1.588   4.191   4.421  0.9607  0.2633 -0.2925
 6475SOL    HW231062   1.584   4.221   4.275 -2.1567 -0.3270  0.8498
 6476SOL     OW31063   3.041   3.284  14.760  1.4177 -0.0928 -1.0394
 6476SOL    HW131064   3.005   3.258  14.675  0.2471  1.2758 -0.9475
 6476SOL    HW231065   3.095   3.362  14.742 -1.1478  1.3204 -2.4885
 6477SOL     OW31066   2.753   4.358   1.714 -0.3265 -0.8661 -0.3490
 6477SOL    HW131067   2.802   4.358   1.632  0.7252 -0.2698  0.2817
 6477SOL    HW231068   2.661   4.364   1.689 -0.2802  1.0794 -0.0126
 6478SOL     OW31069   0.246   3.945   2.879 -0.6274 -0.3653 -0.1805
 6478SOL    HW131070   0.234   4.038   2.897 -1.1888 -0.9164  2.4282
 6478SOL    HW231071   0.322   3.950   2.822 -0.2579  1.1523  0.4380
 6479SOL     OW31072   0.125   0.201   4.432  0.0067 -0.0895  0.0606
 6479SOL    HW131073   0.203   0.253   4.454 -2.3529  2.2980  2.6463
 6479SOL    HW231074   0.069   0.236   4.500  0.9790  1.4170  0.0836
 6480SOL     OW31075   3.638   3.201   7.383 -0.0543 -0.1016 -0.3593
 6480SOL    HW131076   3.693   3.259   7.436  0.0918 -0.2514 -0.3447
 6480SOL    HW231077   3.684   3.118   7.398  0.3844 -0.0918 -1.6139
 6481SOL     OW31078   1.954   0.415   9.484  0.3126 -0.4862 -0.0988
 6481SOL    HW131079   1.929   0.364   9.407  3.5288 -0.4281 -1.1755
 6481SOL    HW231080   2.046   0.395   9.496  0.6611  0.1769 -1.7729
 6482SOL     OW31081   4.398   3.659   9.429  0.0287 -0.0242  0.0671
 6482SOL    HW131082   4.440   3.742   9.409 -1.9027  0.9145 -0.0789
 6482SOL    HW231083   4.462   3.606   9.476 -0.6351 -0.3147  0.6438
 6483SOL     OW31084   3.180   0.974  13.572  0.3481 -0.1413 -0.3565
 6483SOL    HW131085   3.244   1.015  13.631 -1.2495  0.7329  0.7817
 6483SOL    HW231086   3.175   0.893  13.622  1.8697  0.3711  0.6493
 6484SOL     OW31087   2.920   3.713   5.227  0.0397 -0.1201 -0.2688
 6484SOL    HW131088   2.955   3.794   5.188  0.6343 -0.6515 -0.8365
 6484SOL    HW231089   2.973   3.710   5.307 -0.4571 -0.6626  0.0349
 6485SOL     OW31090   1.930   3.597   8.706  0.2662  0.4596 -0.3131
 6485SOL    HW131091   1.950   3.508   8.676 -0.7557  0.5711 -1.2890
 6485SOL    HW231092   1.982   3.651   8.646 -0.3848  0.5278 -0.8139
 6486SOL     OW31093   1.517   3.586   4.327  0.2695 -0.4486 -0.4023
 6486SOL    HW131094   1.505   3.569   4.420 -2.4442 -1.5951 -0.9611
 6486SOL    HW231095   1.602   3.544   4.318 -0.1223 -1.4501  0.6002
 6487SOL     OW31096   2.252   0.586   2.099 -0.1803 -0.3488 -1.2683
 6487SOL    HW131097   2.225   0.570   2.189  1.5690  0.4589 -0.6102
 6487SOL    HW231098   2.169   0.578   2.052  0.7041 -1.8648 -2.5772
 6488SOL     OW31099   0.002   3.526   6.227  0.3492  0.1496 -0.0251
 6488SOL    HW131100   4.660   3.562   6.264  0.1071  1.3789 -1.7797
 6488SOL    HW231101   0.020   3.608   6.181 -0.7099  0.6479  0.4703
 6489SOL     OW31102   4.660   1.197   6.008  0.0025  0.2798  0.4945
 6489SOL    HW131103   0.013   1.224   6.015  0.0901 -0.6269  3.1450
 6489SOL    HW231104   4.645   1.182   5.915 -3.4836 -2.3396  1.4744
 6490SOL     OW31105   0.773   1.757   4.513 -0.6873  0.0969  0.2567
 6490SOL    HW131106   0.745   1.773   4.603 -0.9779 -0.3772  0.2562
 6490SOL    HW231107   0.810   1.842   4.492  0.0165 -0.4347 -0.6665
 6491SOL     OW31108   3.236   0.257   6.500 -0.1372 -0.1300  0.4490
 6491SOL    HW131109   3.209   0.329   6.442 -3.3649 -1.9944 -0.3890
 6491SOL    HW231110   3.195   0.292   6.579  0.0252 -3.2297  1.8773
 6492SOL     OW31111   3.159   4.682   8.645 -0.2595 -0.1098 -0.2160
 6492SOL    HW131112   3.202   4.601   8.619  0.4938  0.8102 -1.8747
 6492SOL    HW231113   3.214   0.002   8.593  1.1365 -1.6310 -0.4425
 6493SOL     OW31114   0.717   4.092  10.437  0.2483  0.1064 -0.4121
 6493SOL    HW131115   0.767   4.167  10.468  1.2410 -0.4638 -0.6218
 6493SOL    HW231116   0.627   4.117  10.458 -0.6795 -2.2084 -1.6678
 6494SOL     OW31117   0.692   1.350   6.165  0.2068 -0.3156 -0.0681
 6494SOL    HW131118   0.637   1.364   6.088 -0.7885  2.0451  1.0790
 6494SOL    HW231119   0.774   1.383   6.127  0.9957  0.4461  2.3059
 6495SOL     OW31120   3.910   0.103   0.662  0.1533  0.1958 -0.6432
 6495SOL    HW131121   3.997   0.066   0.644  0.3379 -0.1513  0.9648
 6495SOL    HW231122   3.856   0.027   0.685 -2.0172  1.9013 -0.1548
 6496SOL     OW31123   2.676   2.142   5.646 -0.4260  0.3756 -0.3453
 6496SOL    HW131124   2.731   2.154   5.569 -1.9289 -1.4685 -1.7059
 6496SOL    HW231125   2.664   2.234   5.670  1.7829  0.2411  1.3239
 6497SOL     OW31126   0.516   0.092  11.151  0.0135  0.0456  0.1187
 6497SOL    HW131127   0.580   0.074  11.082  0.1326  0.2330  0.1808
 6497SOL    HW231128   0.452   0.023  11.131 -1.5242  0.7967  2.4703
 6498SOL     OW31129   0.632   3.988   2.546 -0.1786  0.1971 -0.2215
 6498SOL    HW131130   0.680   3.909   2.522  2.2116  1.2352  1.1633
 6498SOL    HW231131   0.703   4.049   2.564 -1.5455  1.4382  0.9556
 6499SOL     OW31132   4.266   2.359  17.080  0.5829 -0.6173 -0.1879
 6499SOL    HW131133   4.198   2.309  17.034 -1.2614  0.6951  1.0959
 6499SOL    HW231134   4.347   2.320  17.047  0.1612 -0.9797 -0.7858
 6500SOL     OW31135   4.084   3.231   9.381  0.2263 -0.4471  0.2281
 6500SOL    HW131136   4.169   3.229   9.336 -0.7400  1.5651 -1.6900
 6500SOL    HW231137   4.114   3.206   9.468  0.7903 -1.3108 -0.2153
 6501SOL     OW31138   4.334   2.824   5.440 -0.8174  0.0320  0.0361
 6501SOL    HW131139   4.297   2.736   5.445 -0.0647 -0.4572 -2.8940
 6501SOL    HW231140   4.337   2.840   5.346 -4.6785 -1.3133 -0.3520
 6502SOL     OW31141   3.693   0.733   5.734  0.0164 -0.6138 -0.1842
 6502SOL    HW131142   3.768   0.707   5.788 -1.3493  0.2941  2.1516
 6502SOL    HW231143   3.722   0.825   5.734 -1.5381 -0.1262  2.7778
 6503SOL     OW31144   1.257   4.474   2.902 -0.1498  0.2602 -0.3639
 6503SOL    HW131145   1.314   4.461   2.977 -1.0016  1.2088  0.4583
 6503SOL    HW231146   1.295   4.412   2.841 -2.2554 -1.8186  0.4314
 6504SOL     OW31147   1.116   4.014   8.956 -0.3136 -0.5292 -0.2986
 6504SOL    HW131148   1.074   3.997   8.871 -0.0030 -0.5445 -0.4493
 6504SOL    HW231149   1.039   4.050   8.999 -0.2671  0.4030 -0.9967
 6505SOL     OW31150   1.621   1.360   1.236  0.3226  0.0723  0.1469
 6505SOL    HW131151   1.704   1.316   1.218  0.3229 -0.7018  2.0759
 6505SOL    HW231152   1.549   1.308   1.199 -0.1969  0.8418  0.0574
 6506SOL     OW31153   0.340   3.286  13.382 -0.7742  0.1690  0.5888
 6506SOL    HW131154   0.384   3.217  13.333 -1.0236  0.2444  0.2599
 6506SOL    HW231155   0.394   3.362  13.357  1.7381 -1.8673 -0.1228
 6507SOL     OW31156   1.118   2.909   9.225  0.0195 -0.5665  0.0954
 6507SOL    HW131157   1.149   2.850   9.156 -1.0150 -1.4412  0.3794
 6507SOL    HW231158   1.034   2.866   9.240  1.1441 -2.7747  0.0453
 6508SOL     OW31159   2.374   2.217   1.473 -0.2311 -0.3150 -0.0504
 6508SOL    HW131160   2.306   2.264   1.425 -0.9807  1.1403  2.4210
 6508SOL    HW231161   2.335   2.130   1.480  0.1711 -0.5653 -0.9440
 6509SOL     OW31162   2.677   0.770   6.798  0.0415  0.0200  0.2096
 6509SOL    HW131163   2.746   0.748   6.860  0.6204  0.3215 -0.3344
 6509SOL    HW231164   2.726   0.807   6.725 -0.3318  0.4339  0.1637
 6510SOL     OW31165   1.858   4.067   3.821  0.4814  0.1970 -0.5183
 6510SOL    HW131166   1.883   4.144   3.770  3.0070  0.5796  1.3063
 6510SOL    HW231167   1.872   4.099   3.910  0.6160  0.5471 -0.6637
 6511SOL     OW31168   1.566   1.426   3.740 -0.4501  0.3609  0.2643
 6511SOL    HW131169   1.471   1.411   3.743 -0.1717 -1.3002  0.5219
 6511SOL    HW231170   1.586   1.419   3.833 -0.6150 -0.4628  0.2387
 6512SOL     OW31171   3.167   0.264  10.898  0.2626  0.2531  0.3588
 6512SOL    HW131172   3.148   0.347  10.942 -0.9525 -0.1080  0.5098
 6512SOL    HW231173   3.257   0.273  10.865  0.9224  1.2768  2.4728
 6513SOL     OW31174   4.337   3.550   8.904  0.6223 -0.0534  0.2166
 6513SOL    HW131175   4.296   3.636   8.916 -1.3446 -1.2080  1.6896
 6513SOL    HW231176   4.400   3.553   8.976  0.0837 -1.7636  0.7578
 6514SOL     OW31177   1.631   0.152   6.867 -0.1306 -0.0285 -0.6581
 6514SOL    HW131178   1.656   0.210   6.939  2.4908 -2.1485  0.1313
 6514SOL    HW231179   1.708   0.149   6.811 -0.0214 -1.3525 -0.4418
 6515SOL     OW31180   0.589   3.239   5.197  0.1019 -0.4754  0.0495
 6515SOL    HW131181   0.681   3.232   5.172  0.3903  1.5335  0.4848
 6515SOL    HW231182   0.587   3.335   5.198 -0.6356 -0.4937  0.5414
 6516SOL     OW31183   3.155   4.017   7.876  0.7626 -0.0424 -0.8947
 6516SOL    HW131184   3.232   4.035   7.930  0.7354 -1.8556 -0.2444
 6516SOL    HW231185   3.122   3.939   7.921 -1.9530  1.1892 -0.7402
 6517SOL     OW31186   3.501   0.424   4.424  0.3216 -0.2886 -0.1124
 6517SOL    HW131187   3.557   0.378   4.486  0.4428 -0.5150 -0.3916
 6517SOL    HW231188   3.415   0.384   4.433  0.2383  0.1300  0.9431
 6518SOL     OW31189   0.289   0.828   2.246 -0.4218  0.6913  0.2160
 6518SOL    HW131190   0.336   0.911   2.252  1.2682 -0.2559  0.2165
 6518SOL    HW231191   0.343   0.779   2.183 -2.7522 -2.9518  1.0598
 6519SOL     OW31192   0.653   2.161   5.324 -0.1496 -0.6759  0.8840
 6519SOL    HW131193   0.647   2.243   5.276 -0.7343 -1.4315 -0.3408
 6519SOL    HW231194   0.742   2.184   5.351  0.0775  0.6886 -1.0563
 6520SOL     OW31195   2.422   0.420   8.846 -0.1657  0.5467  0.2927
 6520SOL    HW131196   2.428   0.398   8.753 -0.0516 -0.6074  0.5675
 6520SOL    HW231197   2.514   0.410   8.870 -0.2055  1.7540  0.9521
 6521SOL     OW31198   1.021   1.699   5.158 -0.0361 -0.1881 -0.6951
 6521SOL    HW131199   1.084   1.699   5.086 -0.9401  1.6755 -1.4953
 6521SOL    HW231200   1.070   1.748   5.223  0.5884 -0.1811 -1.1725
 6522SOL     OW31201   0.003   2.604   5.820  0.9278 -0.4246  0.5158
 6522SOL    HW131202   0.002   2.540   5.748 -0.0610  0.2036 -0.0253
 6522SOL    HW231203   0.003   2.688   5.773  2.1198 -0.0789  1.1213
 6523SOL     OW31204   2.957   1.994   9.003  0.0382  0.1149 -0.1171
 6523SOL    HW131205   2.937   1.954   9.088 -3.7818  2.1405 -0.0867
 6523SOL    HW231206   2.970   1.912   8.955  1.2260  0.0453  0.3277
 6524SOL     OW31207   2.074   0.314  14.428 -0.3611  0.0612  0.1574
 6524SOL    HW131208   2.059   0.347  14.340 -2.3777  2.0960  1.2535
 6524SOL    HW231209   1.988   0.317  14.472 -0.3363  1.3631  0.1013
 6525SOL     OW31210   1.219   3.959  17.612  0.2413  0.0748 -0.5588
 6525SOL    HW131211   1.250   3.870  17.596 -0.9041 -0.2146 -1.1859
 6525SOL    HW231212   1.158   3.971  17.540  1.0162 -0.8329 -1.3564
 6526SOL     OW31213   2.651   0.974   8.152  0.1323  0.3000  0.0597
 6526SOL    HW131214   2.588   0.958   8.082  0.5150  0.2381 -0.2692
 6526SOL    HW231215   2.692   0.888   8.159 -1.8278 -0.4948  1.9712
 6527SOL     OW31216   2.637   3.507   3.357 -0.0084  0.0752  0.1534
 6527SOL    HW131217   2.596   3.421   3.350 -0.0091  0.0509  0.4757
 6527SOL    HW231218   2.563   3.562   3.383 -0.2186 -1.6195  3.0511
 6528SOL     OW31219   2.270   2.776   9.666  0.3537  0.2030  0.0649
 6528SOL    HW131220   2.265   2.863   9.626 -1.0243  0.5685  1.0507
 6528SOL    HW231221   2.241   2.718   9.595  0.6068  0.7690 -0.4970
 6529SOL     OW31222   4.509   3.655   8.664 -0.2099  0.6314 -0.4425
 6529SOL    HW131223   4.447   3.620   8.728 -0.0006  3.2835  1.1893
 6529SOL    HW231224   4.528   3.583   8.604 -0.2644 -0.3053  0.6574
 6530SOL     OW31225   4.175   4.187   0.828 -0.1425  0.4735  0.0056
 6530SOL    HW131226   4.087   4.213   0.803 -0.0659  0.0165 -0.7340
 6530SOL    HW231227   4.161   4.119   0.894  4.1149 -0.4387 -0.0047
 6531SOL     OW31228   4.479   0.746   8.317 -0.0418  0.5358 -0.0300
 6531SOL    HW131229   4.554   0.741   8.258  0.7009 -1.8475  1.1021
 6531SOL    HW231230   4.446   0.835   8.307  1.0533  1.1715  2.0046
 6532SOL     OW31231   0.854   3.106   6.493 -0.5026  0.2246  0.2526
 6532SOL    HW131232   0.879   3.016   6.515  1.1727  0.1952 -1.8660
 6532SOL    HW231233   0.936   3.147   6.467 -0.8345  0.3835 -0.5195
 6533SOL     OW31234   3.658   0.429   4.853  0.1608  0.7142  0.4089
 6533SOL    HW131235   3.638   0.518   4.882 -0.5187  0.1948  1.5685
 6533SOL    HW231236   3.691   0.381   4.929  1.0427  3.4095  1.7345
 6534SOL     OW31237   3.460   3.693   3.355  0.2033  0.4007  0.3412
 6534SOL    HW131238   3.449   3.697   3.450  1.5167  0.5090  0.4966
 6534SOL    HW231239   3.409   3.766   3.321  0.6460 -0.6206 -2.5454
 6535SOL     OW31240   3.948   2.554   5.349 -0.2025  0.0719 -0.2137
 6535SOL    HW131241   4.041   2.570   5.366 -0.1313 -0.0418 -0.4826
 6535SOL    HW231242   3.936   2.468   5.388  3.0229  0.4766  1.6716
 6536SOL     OW31243   3.173   0.364   7.732  0.0921  0.6568 -0.0828
 6536SOL    HW131244   3.105   0.412   7.780  1.6539  0.3334  2.4961
 6536SOL    HW231245   3.171   0.289   7.792  0.1647  1.8487  1.4188
 6537SOL     OW31246   0.464   0.506   7.611 -0.1495  0.9284  0.0176
 6537SOL    HW131247   0.394   0.510   7.547 -0.0717 -1.5681 -0.2279
 6537SOL    HW231248   0.496   0.416   7.602  0.4673  1.0681  0.7937
 6538SOL     OW31249   3.227   3.200   3.204  0.2943  0.1585  0.4678
 6538SOL    HW131250   3.190   3.286   3.187 -0.5918 -0.0976  1.1058
 6538SOL    HW231251   3.144   3.152   3.206  1.5068 -2.0566 -2.6412
 6539SOL     OW31252   0.874   2.851   3.228 -0.1684  0.4727 -0.0563
 6539SOL    HW131253   0.789   2.892   3.215  0.3827  1.2728 -1.1524
 6539SOL    HW231254   0.842   2.784   3.288 -0.7134  3.1611  2.6537
 6540SOL     OW31255   3.971   3.995   8.621 -0.6817  0.2355  0.1068
 6540SOL    HW131256   3.931   3.948   8.548 -0.1180  1.1055 -0.7725
 6540SOL    HW231257   3.921   3.959   8.694 -0.3922 -0.6298 -0.1296
 6541SOL     OW31258   1.919   0.260  14.904 -0.5025 -0.2426 -0.0854
 6541SOL    HW131259   1.827   0.285  14.906 -0.6871 -0.9862  0.5302
 6541SOL    HW231260   1.919   0.174  14.946 -2.4252 -0.4301 -0.4724
 6542SOL     OW31261   1.477   2.751   9.249 -0.5377 -0.1157 -0.0653
 6542SOL    HW131262   1.424   2.694   9.304  1.2861  0.4092  2.2182
 6542SOL    HW231263   1.503   2.703   9.171 -1.8712 -2.2828  0.8426
 6543SOL     OW31264   1.456   4.522  13.396 -0.0703  0.1510  0.0888
 6543SOL    HW131265   1.484   4.520  13.305 -2.6310 -2.3364 -0.6730
 6543SOL    HW231266   1.381   4.463  13.389  0.4963 -0.4284 -1.0326
 6544SOL     OW31267   0.472   2.138   4.133  0.4512 -0.3341  0.4948
 6544SOL    HW131268   0.462   2.201   4.062 -0.3671 -1.6541 -0.5701
 6544SOL    HW231269   0.544   2.083   4.103  0.9382  0.4458  0.2356
 6545SOL     OW31270   1.573   0.146  17.103 -0.2558 -0.2905 -0.3936
 6545SOL    HW131271   1.651   0.101  17.072  0.8876  0.5212  1.2439
 6545SOL    HW231272   1.580   0.224  17.047 -1.3952  2.0059  2.6358
 6546SOL     OW31273   1.993   1.157   8.252 -0.3160 -0.2251  0.0157
 6546SOL    HW131274   2.087   1.175   8.251 -0.6264  1.5282  1.9391
 6546SOL    HW231275   1.956   1.207   8.325 -0.3791 -0.9841  0.5073
 6547SOL     OW31276   3.502   3.738   4.393  0.4398  0.2546  0.0960
 6547SOL    HW131277   3.458   3.741   4.478  1.3328 -0.8557  0.5925
 6547SOL    HW231278   3.455   3.670   4.346  0.6698  1.6068 -2.1003
 6548SOL     OW31279   3.779   3.389   9.042 -0.3661  0.0960  0.2789
 6548SOL    HW131280   3.806   3.382   8.950  0.3196  1.5358  0.3708
 6548SOL    HW231281   3.870   3.376   9.069  0.1954 -1.8348 -2.4718
 6549SOL     OW31282   1.774   0.238   2.311  0.0067 -0.3180 -0.3282
 6549SOL    HW131283   1.711   0.167   2.325  0.2065 -0.7830 -1.7353
 6549SOL    HW231284   1.759   0.278   2.396 -2.8201  1.3561 -1.6074
 6550SOL     OW31285   3.994   0.206  16.602  0.0612 -0.2226  0.0412
 6550SOL    HW131286   3.927   0.171  16.661  0.1605 -0.1840  0.1770
 6550SOL    HW231287   3.987   0.147  16.527 -1.2180  1.7353 -1.3509
 6551SOL     OW31288   2.379   3.836   1.923 -0.6040  0.5745  0.0314
 6551SOL    HW131289   2.328   3.756   1.936  0.7166 -0.1022  1.1064
 6551SOL    HW231290   2.311   3.891   1.885 -0.7015  0.0909 -0.5070
 6552SOL     OW31291   1.454   1.113   2.991 -0.1066  0.2450  0.2464
 6552SOL    HW131292   1.494   1.052   2.929 -1.4561 -0.0404 -0.3216
 6552SOL    HW231293   1.466   1.197   2.947  0.6881 -0.9749 -1.8509
 6553SOL     OW31294   2.723   1.414   6.367 -0.3672  0.0666 -0.3777
 6553SOL    HW131295   2.659   1.473   6.406 -0.1263  0.7846 -1.0777
 6553SOL    HW231296   2.746   1.455   6.284  0.9574  0.6978  0.2974
 6554SOL     OW31297   3.674   4.082   5.229 -0.0073 -0.1224  0.3229
 6554SOL    HW131298   3.605   4.142   5.199  1.9617  2.7641  1.5991
 6554SOL    HW231299   3.679   4.116   5.318  1.3253  0.0410  0.1832
 6555SOL     OW31300   1.211   1.915   4.658 -0.0592  0.1515 -0.1410
 6555SOL    HW131301   1.271   1.988   4.640 -0.5716  0.4633 -0.5511
 6555SOL    HW231302   1.203   1.877   4.571 -0.5145 -0.1467  0.0316
 6556SOL     OW31303   4.333   2.730  14.237 -0.1915 -0.2946 -0.7626
 6556SOL    HW131304   4.426   2.722  14.255 -0.1273  2.3869  0.1743
 6556SOL    HW231305   4.325   2.822  14.210  2.2466  0.8002  2.2825
 6557SOL     OW31306   0.047   3.209   7.260  0.4352  0.0405 -0.2639
 6557SOL    HW131307   0.096   3.207   7.342 -0.0879 -0.3859  0.0320
 6557SOL    HW231308   0.048   3.299   7.227  0.8885  0.1668  0.1045
 6558SOL     OW31309   3.911   2.891   4.730 -0.3326  0.4226  0.1962
 6558SOL    HW131310   3.921   2.847   4.646  2.0506 -0.6280  1.0581
 6558SOL    HW231311   3.949   2.825   4.788  0.7128  0.7154 -0.1702
 6559SOL     OW31312   3.634   3.533  15.978 -0.1748  0.1403  0.2070
 6559SOL    HW131313   3.725   3.562  15.974 -0.6052  1.3497 -0.6070
 6559SOL    HW231314   3.584   3.612  15.998  1.8562  1.6636 -0.8114
 6560SOL     OW31315   0.431   3.799  17.355  0.3159 -0.1980  0.5103
 6560SOL    HW131316   0.338   3.809  17.377  0.6783 -0.3072  2.0682
 6560SOL    HW231317   0.419   3.831  17.265  3.9654  1.6466  0.6795
 6561SOL     OW31318   0.994   4.398   4.753  0.0845 -0.0215  0.9539
 6561SOL    HW131319   0.910   4.378   4.712  1.0928  0.1524 -1.2539
 6561SOL    HW231320   0.980   4.374   4.844 -0.7994  0.0830  0.8448
 6562SOL     OW31321   2.491   3.827   5.423 -0.0721  0.0023  0.1313
 6562SOL    HW131322   2.537   3.900   5.381 -0.3045 -1.0303 -1.9203
 6562SOL    HW231323   2.480   3.848   5.515 -1.3090 -0.8269  0.1700
 6563SOL     OW31324   3.949   1.256   8.088 -0.0613 -0.2124 -0.2280
 6563SOL    HW131325   3.948   1.225   8.178 -1.6277 -0.6622 -0.4077
 6563SOL    HW231326   4.043   1.267   8.071 -0.6750  2.1775 -2.0858
 6564SOL     OW31327   0.526   0.939   8.039 -0.2556  0.3896 -0.2824
 6564SOL    HW131328   0.485   0.993   7.972 -0.1357  1.7225  0.7055
 6564SOL    HW231329   0.583   0.997   8.091  0.1808  2.4705 -3.0911
 6565SOL     OW31330   1.209   0.984   4.678  0.0544  0.2037  0.1142
 6565SOL    HW131331   1.273   0.998   4.748  0.3192 -2.5026  0.3948
 6565SOL    HW231332   1.261   0.927   4.622  0.7818  0.6707  0.3159
 6566SOL     OW31333   1.064   1.040  17.098 -0.3500  0.3207 -0.3542
 6566SOL    HW131334   1.151   1.009  17.123 -1.8211 -2.0578  1.7591
 6566SOL    HW231335   1.075   1.134  17.082  0.5443  0.3846  0.6713
 6567SOL     OW31336   3.473   4.313   9.013 -0.3893  0.1529 -0.3400
 6567SOL    HW131337   3.520   4.236   9.046 -0.4643 -1.0786 -3.1090
 6567SOL    HW231338   3.389   4.275   8.989 -0.3373  0.3068 -0.7741
 6568SOL     OW31339   4.059   0.761   7.073 -0.4572 -0.4772  0.2139
 6568SOL    HW131340   4.124   0.721   7.130 -0.7413 -1.4117 -0.1123
 6568SOL    HW231341   3.976   0.746   7.118 -1.2876  1.3428 -0.7161
 6569SOL     OW31342   2.317   3.957   1.547 -0.6758  0.5650  0.2018
 6569SOL    HW131343   2.409   3.982   1.555 -0.5165 -0.0040  0.0916
 6569SOL    HW231344   2.279   4.001   1.623 -2.6339 -0.5758 -0.1073
 6570SOL     OW31345   3.594   0.216  16.521  0.1741 -0.5799 -0.4850
 6570SOL    HW131346   3.659   0.146  16.517 -1.2273 -1.9032 -0.5830
 6570SOL    HW231347   3.559   0.202  16.433  0.6565  1.5112 -0.9899
 6571SOL     OW31348   4.237   2.379   1.896 -0.0030  0.3350  0.4500
 6571SOL    HW131349   4.278   2.463   1.919  0.1404  0.3755  0.0561
 6571SOL    HW231350   4.317   2.335   1.869 -0.9872 -0.9433 -0.3550
 6572SOL     OW31351   1.778   4.206   5.147 -0.1297 -0.3545  0.0289
 6572SOL    HW131352   1.827   4.285   5.173 -2.7685  0.9168  1.1216
 6572SOL    HW231353   1.691   4.233   5.177 -0.1538  0.2256 -0.5584
 6573SOL     OW31354   0.683   3.971   7.246  0.4005  0.9524  0.3227
 6573SOL    HW131355   0.637   4.055   7.251 -1.9904 -0.3173 -0.3276
 6573SOL    HW231356   0.679   3.939   7.336  0.7872  1.3790  0.4915
 6574SOL     OW31357   4.593   1.102   3.130  0.1144 -0.0753 -0.6042
 6574SOL    HW131358   4.614   1.099   3.223 -0.4303  2.5683 -0.3997
 6574SOL    HW231359   4.547   1.186   3.132  0.3171 -0.0757  3.2089
 6575SOL     OW31360   0.977   4.094   4.078 -0.0122  0.7733  0.0343
 6575SOL    HW131361   0.959   4.016   4.132  1.6042 -0.0328 -0.6009
 6575SOL    HW231362   1.056   4.129   4.118 -1.0397  2.8381  0.2442
 6576SOL     OW31363   4.225   1.128   0.829 -0.4466  0.5375 -0.0556
 6576SOL    HW131364   4.206   1.040   0.795  2.3945  1.0366 -2.9873
 6576SOL    HW231365   4.164   1.128   0.902 -0.2413 -0.9905  0.1266
 6577SOL     OW31366   3.956   0.290  10.808  0.8577 -0.5787 -0.5022
 6577SOL    HW131367   3.940   0.197  10.792 -0.5669 -1.0777  3.7069
 6577SOL    HW231368   3.997   0.318  10.726  1.2743 -0.2370 -0.1739
 6578SOL     OW31369   0.659   0.457   8.937  0.6875  0.3541 -0.1246
 6578SOL    HW131370   0.577   0.462   8.986  1.4780  2.2638  0.9902
 6578SOL    HW231371   0.717   0.491   9.005  2.1329  1.6251 -2.0130
 6579SOL     OW31372   2.184   1.250  11.695 -0.2789  0.3227  0.0826
 6579SOL    HW131373   2.143   1.302  11.763 -0.3833  0.2242  0.0947
 6579SOL    HW231374   2.107   1.222  11.645  0.2827  0.0163 -0.6187
 6580SOL     OW31375   3.521   1.737   7.445  0.1993  0.5868 -0.1865
 6580SOL    HW131376   3.430   1.765   7.449  0.4572  1.5703 -1.1319
 6580SOL    HW231377   3.566   1.814   7.479 -2.1765  1.7405  0.3352
 6581SOL     OW31378   1.234   4.326   8.856  0.0307 -0.1299  0.2963
 6581SOL    HW131379   1.232   4.422   8.857  0.5842 -0.1180  0.4171
 6581SOL    HW231380   1.141   4.307   8.846 -0.1159  1.1626 -0.8676
 6582SOL     OW31381   1.844   2.077   1.694 -0.1002  0.4484  0.3783
 6582SOL    HW131382   1.845   2.011   1.624 -1.6289 -2.2605  2.8874
 6582SOL    HW231383   1.879   2.032   1.771 -0.3637 -1.7321 -0.7745
 6583SOL     OW31384   4.205   4.431   9.609 -0.3959  0.1626  0.1083
 6583SOL    HW131385   4.241   4.518   9.591  1.8652 -0.7193  0.3834
 6583SOL    HW231386   4.133   4.450   9.669 -0.4556 -0.0587  0.1054
 6584SOL     OW31387   1.037   2.300  16.466  0.0233 -0.2610 -0.1988
 6584SOL    HW131388   1.028   2.387  16.504  3.5568 -0.8859  2.0922
 6584SOL    HW231389   1.028   2.322  16.374 -2.2772 -1.3365 -0.2376
 6585SOL     OW31390   2.479   2.639   2.500  0.7307  0.8479 -0.3866
 6585SOL    HW131391   2.405   2.604   2.548 -0.8598  0.6608 -2.9595
 6585SOL    HW231392   2.497   2.581   2.426  1.3880 -1.0885  1.2888
 6586SOL     OW31393   0.406   2.940   2.982 -0.2897  0.2637  0.0988
 6586SOL    HW131394   0.358   3.019   2.957  0.1007  0.6063  0.4265
 6586SOL    HW231395   0.338   2.901   3.037 -1.2778 -0.0113 -1.3222
 6587SOL     OW31396   1.062   2.877  10.582 -0.4190  0.5044 -0.8937
 6587SOL    HW131397   1.051   2.868  10.677 -0.7665 -0.5859 -1.0466
 6587SOL    HW231398   1.146   2.923  10.580  0.3718 -0.9635 -1.4782
 6588SOL     OW31399   3.523   2.422  14.913 -0.0409  0.5275  0.2937
 6588SOL    HW131400   3.606   2.375  14.916 -0.2114  0.0960 -1.3000
 6588SOL    HW231401   3.477   2.396  14.993  1.3924 -1.6868  0.4128
 6589SOL     OW31402   4.390   1.936   1.587  0.0658 -0.0109  0.1720
 6589SOL    HW131403   4.387   2.022   1.546  0.1848 -0.1386 -0.1066
 6589SOL    HW231404   4.297   1.930   1.607  0.6948 -0.5901  2.9682
 6590SOL     OW31405   3.847   1.590  16.079  0.3387  0.6694 -0.2981
 6590SOL    HW131406   3.831   1.498  16.099  2.1498  0.5980  0.7952
 6590SOL    HW231407   3.852   1.584  15.984  0.0897  1.3564 -0.3566
 6591SOL     OW31408   0.984   0.055  15.419 -1.0273  0.3121  0.1623
 6591SOL    HW131409   0.973   4.728  15.487 -0.6879  0.9760  0.8611
 6591SOL    HW231410   0.940   0.133  15.454 -0.3254  0.9040 -0.2549
 6592SOL     OW31411   2.296   2.109   1.877  0.3151  0.5994  0.3374
 6592SOL    HW131412   2.244   2.079   1.802  0.9853 -0.8603  0.4654
 6592SOL    HW231413   2.220   2.126   1.934 -0.0220  1.4921 -0.3692
 6593SOL     OW31414   4.247   0.327   8.665 -0.5242 -0.5798  0.6460
 6593SOL    HW131415   4.229   0.354   8.575 -0.2295 -0.2908  0.6752
 6593SOL    HW231416   4.172   0.356   8.717 -2.7636 -0.8003 -2.4341
 6594SOL     OW31417   0.421   2.611   3.846  0.4670 -0.1128 -0.2805
 6594SOL    HW131418   0.504   2.621   3.800  0.0348  1.7451 -0.6494
 6594SOL    HW231419   0.433   2.661   3.926 -1.1207  1.2479 -0.9101
 6595SOL     OW31420   4.394   1.512  15.090 -0.4970  0.6659  0.1666
 6595SOL    HW131421   4.390   1.423  15.126 -0.9345  0.5210 -0.2441
 6595SOL    HW231422   4.489   1.525  15.080 -0.4564  2.5857  2.8782
 6596SOL     OW31423   2.234   4.646   6.124  0.2012 -0.2011  0.1904
 6596SOL    HW131424   2.248   4.737   6.099 -3.5116 -0.1088 -1.5555
 6596SOL    HW231425   2.323   4.611   6.111  0.8649  1.7710 -0.5031
 6597SOL     OW31426   2.527   0.411  14.044  0.6878  0.0140  0.4685
 6597SOL    HW131427   2.438   0.378  14.030 -0.6871  3.9564  0.0561
 6597SOL    HW231428   2.567   0.391  13.959  2.9868 -0.6619  1.7017
 6598SOL     OW31429   2.857   2.750  15.269  0.3712  0.4172 -0.3831
 6598SOL    HW131430   2.880   2.785  15.183 -1.2434  1.6867 -0.3015
 6598SOL    HW231431   2.879   2.660  15.246  1.1390  0.7536 -0.9391
 6599SOL     OW31432   2.048   2.702   5.648  0.6848  0.1683 -0.4694
 6599SOL    HW131433   2.129   2.651   5.645  0.0958 -0.6579 -2.2900
 6599SOL    HW231434   2.068   2.781   5.597 -0.8885  0.4016 -0.7221
 6600SOL     OW31435   3.218   2.750   7.760 -0.1898  0.3546 -0.1496
 6600SOL    HW131436   3.131   2.748   7.799 -0.7065  1.1967 -1.2391
 6600SOL    HW231437   3.259   2.814   7.818 -0.5429 -0.3627  0.8806
 6601SOL     OW31438   1.889   1.423   5.910  0.8700  0.0925 -0.3445
 6601SOL    HW131439   1.891   1.421   6.006 -0.6149  0.3327 -0.3066
 6601SOL    HW231440   1.955   1.485   5.877  0.0950  0.4554 -1.1820
 6602SOL     OW31441   0.316   3.043  14.456 -0.4283 -0.1293 -0.4865
 6602SOL    HW131442   0.284   3.131  14.435  0.2839  0.1664 -0.3025
 6602SOL    HW231443   0.235   2.991  14.449 -0.1343 -0.3981 -1.9975
 6603SOL     OW31444   4.515   1.116  15.235  0.3758  0.0756  0.7880
 6603SOL    HW131445   4.441   1.127  15.174  2.0769 -2.5952 -1.7667
 6603SOL    HW231446   4.536   1.206  15.257  2.4359 -0.2583  0.1457
 6604SOL     OW31447   1.029   3.182   2.555 -0.1129  1.0963 -0.0495
 6604SOL    HW131448   0.936   3.163   2.548  0.5983 -1.2872 -2.7536
 6604SOL    HW231449   1.052   3.239   2.482  1.4156 -0.7068 -0.9649
 6605SOL     OW31450   4.023   3.868  11.120  0.6429 -0.7460  0.3610
 6605SOL    HW131451   3.983   3.951  11.143  4.0238  0.2081  2.8103
 6605SOL    HW231452   3.965   3.805  11.164  0.1908 -0.6621 -0.1150
 6606SOL     OW31453   2.945   2.060   2.530 -0.0896 -0.0857  0.0139
 6606SOL    HW131454   2.904   2.067   2.444  1.9743  2.3659 -0.7462
 6606SOL    HW231455   3.031   2.079   2.493 -0.1296  0.5556  0.2515
 6607SOL     OW31456   1.041   1.834   3.619 -0.7214 -0.0832 -0.3513
 6607SOL    HW131457   1.066   1.742   3.611  0.8885  0.2709  0.6080
 6607SOL    HW231458   1.119   1.879   3.588  0.2056  0.3538  2.6110
 6608SOL     OW31459   0.743   4.521   3.302 -0.6086 -0.6093  0.3778
 6608SOL    HW131460   0.684   4.590   3.333  1.5747  1.3072  0.2536
 6608SOL    HW231461   0.692   4.470   3.239 -0.7084  0.1533 -0.1623
 6609SOL     OW31462   0.357   3.887   4.008  0.2666 -0.4838  0.3015
 6609SOL    HW131463   0.296   3.958   4.028  0.5779  0.2268 -1.2628
 6609SOL    HW231464   0.397   3.920   3.927 -0.2106  1.2959  0.7891
 6610SOL     OW31465   4.065   2.495   0.585  0.0292 -0.1586 -0.1064
 6610SOL    HW131466   3.988   2.441   0.603  0.2551 -0.0350  1.2506
 6610SOL    HW231467   4.120   2.453   0.651 -0.2941  0.0488  0.2941
 6611SOL     OW31468   2.876   4.301   9.584 -0.2258 -0.0344 -0.9125
 6611SOL    HW131469   2.787   4.299   9.620  0.2676  0.9551  0.3588
 6611SOL    HW231470   2.924   4.236   9.636 -0.0691  2.2125  1.7546
 6612SOL     OW31471   2.239   2.153   0.382  0.8834 -0.1959  0.6266
 6612SOL    HW131472   2.308   2.141   0.317  1.1155 -0.5464  0.9412
 6612SOL    HW231473   2.245   2.088   0.452  0.7810 -0.9613 -0.0905
 6613SOL     OW31474   2.616   4.516   7.988  0.6894  0.4981  0.0975
 6613SOL    HW131475   2.618   4.603   8.029 -3.2642  0.5357  0.2156
 6613SOL    HW231476   2.521   4.512   7.976  0.8331 -1.2217 -0.4657
 6614SOL     OW31477   0.300   2.741   6.092 -0.8339 -0.3898  0.3504
 6614SOL    HW131478   0.388   2.725   6.126 -2.1042 -0.5987  3.5849
 6614SOL    HW231479   0.329   2.794   6.018 -1.7127 -1.8517 -1.0415
 6615SOL     OW31480   2.067   4.428  15.108  0.2619 -0.0903  0.1004
 6615SOL    HW131481   2.103   4.360  15.165  0.7615  0.6641  0.6934
 6615SOL    HW231482   1.973   4.417  15.120  0.1804  0.9596  0.3838
 6616SOL     OW31483   3.221   4.549   7.214 -0.6041  0.0674  0.2263
 6616SOL    HW131484   3.185   4.634   7.188 -3.4602 -1.5287 -0.9370
 6616SOL    HW231485   3.313   4.550   7.188 -0.0978 -1.4406  1.9591
 6617SOL     OW31486   0.800   0.000   2.169 -0.1218 -0.3920 -0.2488
 6617SOL    HW131487   0.805   4.644   2.179  1.0817 -0.2460  0.4908
 6617SOL    HW231488   0.716   0.021   2.209  1.5068 -1.6012  3.8558
 6618SOL     OW31489   3.242   4.494  13.016  0.4203 -0.0276  0.3646
 6618SOL    HW131490   3.156   4.530  12.995  0.3714 -0.9120 -0.9409
 6618SOL    HW231491   3.292   4.576  13.024  2.7499 -1.6940  2.9258
 6619SOL     OW31492   3.148   3.868   8.970  0.3567  0.2443 -0.2633
 6619SOL    HW131493   3.242   3.881   8.955  0.1315  0.1345 -1.7412
 6619SOL    HW231494   3.127   3.813   8.896  1.4819  0.2324 -0.5769
 6620SOL     OW31495   3.698   1.577   5.338 -0.3651 -0.1148 -0.2516
 6620SOL    HW131496   3.752   1.570   5.417  3.3131 -0.1609 -2.7563
 6620SOL    HW231497   3.629   1.512   5.346 -2.0052  1.7568  0.7942
 6621SOL     OW31498   3.677   2.555   6.816  0.4626  0.3320  0.1062
 6621SOL    HW131499   3.719   2.515   6.740  1.3955  0.0454  0.7896
 6621SOL    HW231500   3.587   2.549   6.781  0.7747  2.8611 -1.1529
 6622SOL     OW31501   3.453   0.221  17.054 -0.4218 -0.4696 -0.1300
 6622SOL    HW131502   3.450   0.299  16.999  0.1110  0.2735  0.8882
 6622SOL    HW231503   3.431   0.159  16.985 -0.6447 -0.4545 -0.0731
 6623SOL     OW31504   1.979   3.389   2.579 -0.2181 -0.4776  0.1291
 6623SOL    HW131505   1.949   3.299   2.588  0.6680 -0.7053  0.8208
 6623SOL    HW231506   2.074   3.376   2.587 -0.0678  0.4018 -0.1636
 6624SOL     OW31507   1.712   3.003   4.652 -0.3025 -0.5377  0.3616
 6624SOL    HW131508   1.787   3.039   4.604 -1.4163  0.5231 -0.5857
 6624SOL    HW231509   1.662   2.965   4.580  0.9189 -0.0014 -0.7660
 6625SOL     OW31510   2.572   3.478   3.732  0.3584  0.1381 -0.3793
 6625SOL    HW131511   2.563   3.456   3.825  2.1317  0.0175 -0.2291
 6625SOL    HW231512   2.532   3.565   3.724 -0.7908 -0.4242 -0.7886
 6626SOL     OW31513   2.056   0.489  11.066  0.4428  0.5119  0.1285
 6626SOL    HW131514   1.973   0.461  11.027  0.8585  2.5766 -2.3124
 6626SOL    HW231515   2.037   0.579  11.093 -2.2666  0.4348 -1.4153
 6627SOL     OW31516   1.389   4.731  12.183 -0.5282  0.1758  0.2536
 6627SOL    HW131517   1.439   4.694  12.110 -0.3129  0.8773  0.0427
 6627SOL    HW231518   1.387   0.085  12.159 -1.0022  0.3971  1.1681
 6628SOL     OW31519   0.485   0.810   9.110 -0.1937 -0.1598 -0.4284
 6628SOL    HW131520   0.577   0.825   9.088 -0.1954  2.5360  1.4479
 6628SOL    HW231521   0.459   0.896   9.142 -0.2799 -0.7098  0.9699
 6629SOL     OW31522   0.274   0.910   4.748  0.0090  0.0351  0.3514
 6629SOL    HW131523   0.319   0.966   4.812  0.4479 -0.2250  0.2673
 6629SOL    HW231524   0.304   0.952   4.667 -1.0804  0.5616  0.2139
 6630SOL     OW31525   1.994   2.037   9.440 -0.5373 -0.7778  0.8354
 6630SOL    HW131526   2.025   1.952   9.470 -0.9679 -1.5597 -0.9987
 6630SOL    HW231527   1.908   2.006   9.415 -0.8782  0.3271  0.6330
 6631SOL     OW31528   2.049   0.696   7.984  0.1327 -0.3044 -0.3370
 6631SOL    HW131529   2.055   0.648   8.066 -3.5045 -0.4417 -0.1419
 6631SOL    HW231530   2.075   0.786   8.002  1.3349 -0.7485  0.1371
 6632SOL     OW31531   2.854   3.464  11.545 -0.1245  0.2885  0.0815
 6632SOL    HW131532   2.796   3.470  11.621 -0.1811 -0.1786  0.0711
 6632SOL    HW231533   2.919   3.399  11.568 -0.4103 -0.3018 -0.7883
 6633SOL     OW31534   2.558   1.108   6.836  0.1334 -0.4134 -0.2519
 6633SOL    HW131535   2.579   1.016   6.854 -0.4167 -0.1457  1.7165
 6633SOL    HW231536   2.606   1.129   6.756 -1.2915  0.6971 -0.8158
 6634SOL     OW31537   4.193   4.137   3.707 -0.2673 -0.8029 -0.2819
 6634SOL    HW131538   4.263   4.198   3.683 -1.9543  0.4735 -2.0155
 6634SOL    HW231539   4.148   4.124   3.623 -1.0596 -0.7577  0.1294
 6635SOL     OW31540   3.549   3.121   6.661 -0.1401  0.0656 -0.1094
 6635SOL    HW131541   3.620   3.180   6.686  0.4024 -0.6062 -0.0815
 6635SOL    HW231542   3.528   3.154   6.574  1.5999  1.2034 -0.0909
 6636SOL     OW31543   4.324   3.407   4.107  0.6075  0.1657 -0.1883
 6636SOL    HW131544   4.274   3.486   4.085 -0.1591 -0.2552  0.0462
 6636SOL    HW231545   4.412   3.414   4.070 -0.2668  0.0282 -2.3219
 6637SOL     OW31546   3.359   1.596   8.493 -0.4590 -0.0201  0.7724
 6637SOL    HW131547   3.365   1.662   8.562  0.0732 -0.8373  1.5046
 6637SOL    HW231548   3.270   1.563   8.505 -0.1458 -0.9339  0.5753
 6638SOL     OW31549   3.569   0.965   6.724  0.2748 -0.0620  0.3490
 6638SOL    HW131550   3.563   0.995   6.633 -1.5635 -0.1255  0.4507
 6638SOL    HW231551   3.619   0.883   6.723  3.2410  1.7759  0.6184
 6639SOL     OW31552   4.251   1.894   1.305 -0.4448 -0.4210  0.4564
 6639SOL    HW131553   4.283   1.829   1.368 -0.5809 -0.3584  0.5912
 6639SOL    HW231554   4.276   1.968   1.361  1.8305 -1.1835  0.4330
 6640SOL     OW31555   4.727   3.468   4.788  0.2619 -0.0639  0.7589
 6640SOL    HW131556   4.663   3.440   4.853  1.4297 -0.4089  1.7619
 6640SOL    HW231557   4.686   3.553   4.770  1.7737  1.0465  2.5345
 6641SOL     OW31558   0.987   4.693   6.741  0.5614  0.4953  0.1966
 6641SOL    HW131559   0.901   4.733   6.749 -0.2817 -1.5983  1.5724
 6641SOL    HW231560   0.988   4.655   6.829 -3.0029 -0.2475 -0.0799
 6642SOL     OW31561   1.186   1.814   1.771 -0.4899  0.1100  0.2787
 6642SOL    HW131562   1.122   1.747   1.749 -0.3657  0.2068 -0.3865
 6642SOL    HW231563   1.132   1.889   1.796 -1.2291 -0.1753 -0.4571
 6643SOL     OW31564   0.011   4.335  16.167 -0.2007 -0.3418  0.1690
 6643SOL    HW131565   0.081   4.293  16.218  0.7578 -1.6542 -2.2588
 6643SOL    HW231566   0.017   4.286  16.085 -1.5829 -1.5515  0.8016
 6644SOL     OW31567   2.481   1.649   9.002 -0.0841  0.4582 -0.3015
 6644SOL    HW131568   2.542   1.583   8.968 -0.9757  0.3265 -1.6662
 6644SOL    HW231569   2.455   1.687   8.918 -0.7322 -0.0216 -0.3267
 6645SOL     OW31570   2.303   1.433  10.882 -0.0466 -0.5605 -1.0538
 6645SOL    HW131571   2.323   1.519  10.845 -4.3216  0.2874 -1.3946
 6645SOL    HW231572   2.210   1.419  10.866 -0.3423  1.1871 -0.9032
 6646SOL     OW31573   2.068   3.211   2.324 -0.0028 -0.1459  0.1155
 6646SOL    HW131574   2.123   3.287   2.343 -0.4195 -0.1708  1.3859
 6646SOL    HW231575   1.996   3.256   2.279  1.2256  0.2609 -1.4389
 6647SOL     OW31576   4.707   3.385   1.177 -0.5485  0.4765 -0.7804
 6647SOL    HW131577   0.032   3.432   1.231  1.0610  0.7305 -2.8580
 6647SOL    HW231578   4.736   3.295   1.191  2.8668  1.3201 -2.4289
 6648SOL     OW31579   3.727   3.506  12.223 -0.4281  0.3594 -0.7087
 6648SOL    HW131580   3.683   3.546  12.297  1.1359 -1.8837  1.4114
 6648SOL    HW231581   3.702   3.415  12.236  1.3744  0.2971  2.1572
 6649SOL     OW31582   4.490   0.826   1.347  0.4089 -0.0374 -0.6754
 6649SOL    HW131583   4.397   0.835   1.329  0.0727 -0.5305  0.8436
 6649SOL    HW231584   4.489   0.737   1.383 -1.4404 -0.6645 -2.3156
 6650SOL     OW31585   1.406   3.377   7.886 -0.2136  0.0786  0.4731
 6650SOL    HW131586   1.333   3.376   7.824  0.5778  2.1155 -0.4814
 6650SOL    HW231587   1.383   3.450   7.944  0.8394 -1.1413  2.4302
 6651SOL     OW31588   4.000   2.653   7.940  0.6749 -0.3287 -0.9411
 6651SOL    HW131589   4.038   2.741   7.935  1.2767 -0.5940 -1.0148
 6651SOL    HW231590   3.937   2.667   8.011  0.6350 -0.1466 -1.0137
 6652SOL     OW31591   4.045   0.762  14.860  0.2491 -0.3250 -0.1419
 6652SOL    HW131592   4.129   0.776  14.903  0.2822  3.2154 -1.3749
 6652SOL    HW231593   4.029   0.670  14.882  1.0927 -0.8037 -1.5039
 6653SOL     OW31594   3.539   1.411   3.825 -0.1067  0.1609  0.1202
 6653SOL    HW131595   3.494   1.393   3.742  1.2013 -0.2576 -0.5003
 6653SOL    HW231596   3.517   1.504   3.833  0.3213  0.2731 -0.0212
 6654SOL     OW31597   1.963   2.417   8.426  0.3024 -0.2978 -0.0262
 6654SOL    HW131598   1.886   2.449   8.379  0.2369  2.2597  1.8242
 6654SOL    HW231599   2.007   2.501   8.436 -0.3767  0.1487 -0.7525
 6655SOL     OW31600   3.095   2.205   8.957  0.0388 -0.1110  0.0329
 6655SOL    HW131601   3.029   2.137   8.966  0.1689 -0.3372 -0.7544
 6655SOL    HW231602   3.140   2.160   8.886 -0.7388 -1.9280  0.7042
 6656SOL     OW31603   2.437   4.062  17.536 -0.4711  0.0632  0.0401
 6656SOL    HW131604   2.473   4.057  17.624  0.0093 -0.2550 -0.1754
 6656SOL    HW231605   2.495   3.994  17.503 -0.6202  0.0821 -0.2626
 6657SOL     OW31606   1.418   4.611   4.251  0.2733 -0.1140  0.0827
 6657SOL    HW131607   1.326   4.625   4.274  0.7088  0.1045  1.6808
 6657SOL    HW231608   1.407   4.586   4.159  0.0027  1.5453 -0.3495
 6658SOL     OW31609   0.689   4.179   1.486 -0.3378  0.8650 -0.3349
 6658SOL    HW131610   0.658   4.152   1.572  0.6482  2.8424  0.6484
 6658SOL    HW231611   0.639   4.121   1.430  0.4548  0.3477 -0.5119
 6659SOL     OW31612   2.502   0.581   0.945  0.3589  0.6987  0.0785
 6659SOL    HW131613   2.507   0.512   1.011 -1.7067  0.4023 -0.0657
 6659SOL    HW231614   2.411   0.566   0.919  0.3661  2.5641 -1.0421
 6660SOL     OW31615   0.925   1.148   4.236 -0.4245 -0.1210  0.0689
 6660SOL    HW131616   0.945   1.130   4.328  1.3378 -3.0438 -0.8927
 6660SOL    HW231617   0.991   1.096   4.192 -1.1587  0.4417 -1.7038
 6661SOL     OW31618   2.004   1.616   7.919  0.4000  0.2376 -0.4113
 6661SOL    HW131619   2.025   1.700   7.959  0.2247 -0.4721  1.1652
 6661SOL    HW231620   2.088   1.604   7.876  0.3685  1.0608 -0.7054
 6662SOL     OW31621   0.577   2.503   6.183  0.0720  0.2369 -0.2839
 6662SOL    HW131622   0.610   2.561   6.252  2.4308 -0.9897 -0.4018
 6662SOL    HW231623   0.577   2.420   6.232  0.5027  0.3834 -0.0364
 6663SOL     OW31624   4.286   0.144   6.436 -0.2080 -0.3756 -0.5247
 6663SOL    HW131625   4.251   0.175   6.520 -0.8224  0.4991 -1.1064
 6663SOL    HW231626   4.257   0.220   6.385 -2.4793  0.3205  1.8378
 6664SOL     OW31627   3.809   3.545   9.305  0.0942 -0.1256  0.4422
 6664SOL    HW131628   3.810   3.527   9.211 -0.3888 -0.8877  0.5755
 6664SOL    HW231629   3.874   3.614   9.320  0.6907 -0.6546  0.3059
 6665SOL     OW31630   4.528   1.300  12.942 -0.1089  0.2598  0.0492
 6665SOL    HW131631   4.476   1.251  12.878 -1.9785 -0.7089  2.2763
 6665SOL    HW231632   4.477   1.380  12.956  0.7279  0.6272  0.9740
 6666SOL     OW31633   1.960   3.924   4.057 -0.2729 -0.4496 -0.1441
 6666SOL    HW131634   1.893   3.899   3.994 -0.3637  1.3231 -0.7670
 6666SOL    HW231635   1.935   3.863   4.126 -0.1418 -0.6131 -0.2431
 6667SOL     OW31636   3.508   3.498  12.426  0.3752  0.0181  0.3232
 6667SOL    HW131637   3.446   3.501  12.498  0.2784 -2.8158  0.3573
 6667SOL    HW231638   3.462   3.566  12.375 -0.7727 -2.3325 -1.8060
 6668SOL     OW31639   1.157   2.721  11.918 -0.0569  0.0403 -0.0557
 6668SOL    HW131640   1.212   2.645  11.936  0.1962  0.1898 -0.1890
 6668SOL    HW231641   1.069   2.683  11.920  0.5410 -1.3626 -0.5476
 6669SOL     OW31642   4.288   3.924   5.754 -0.1551 -0.1115 -0.0421
 6669SOL    HW131643   4.245   4.007   5.732 -0.3820 -0.3679 -0.5640
 6669SOL    HW231644   4.216   3.863   5.772 -0.3270 -0.0439 -0.4985
 6670SOL     OW31645   1.922   3.183   5.955 -0.1627 -0.2727 -0.0214
 6670SOL    HW131646   1.881   3.117   6.009 -1.5326 -0.4880 -1.3273
 6670SOL    HW231647   2.014   3.158   5.947  0.0344  0.7182 -0.8460
 6671SOL     OW31648   0.448   3.190   1.833  0.2753 -0.2555  0.3996
 6671SOL    HW131649   0.394   3.252   1.882  0.3236 -0.0207  0.1540
 6671SOL    HW231650   0.471   3.139   1.910  0.1217  0.7741  1.1284
 6672SOL     OW31651   3.294   4.341  17.411 -0.3798 -0.2039 -0.5427
 6672SOL    HW131652   3.310   4.427  17.449  1.4216 -0.8684  0.1961
 6672SOL    HW231653   3.289   4.358  17.317  0.9291  1.0216 -0.3927
 6673SOL     OW31654   4.735   2.383   6.241  0.1753 -0.0523  0.3661
 6673SOL    HW131655   0.089   2.402   6.226 -0.1318 -0.4735 -2.0495
 6673SOL    HW231656   4.701   2.471   6.225 -1.2285 -0.4464  1.2528
 6674SOL     OW31657   1.725   2.531   0.035  0.1190 -0.4283 -0.4642
 6674SOL    HW131658   1.692   2.474   0.105 -2.9139  0.6966 -0.9934
 6674SOL    HW231659   1.685   2.472  17.725  0.1356 -1.0012  0.0577
 6675SOL     OW31660   3.380   1.781   2.274  0.5409  0.2153 -0.8974
 6675SOL    HW131661   3.421   1.806   2.191  2.4521 -1.5784 -0.5058
 6675SOL    HW231662   3.455   1.732   2.307 -0.2220 -1.7239 -2.0796
 6676SOL     OW31663   4.099   3.220  15.478 -0.1535  0.0262  0.6799
 6676SOL    HW131664   4.026   3.167  15.446  0.0492 -0.9787  1.8812
 6676SOL    HW231665   4.145   3.219  15.395  0.8370 -1.4309  1.2444
 6677SOL     OW31666   2.371   2.442   7.678  0.1328  0.5302  0.7546
 6677SOL    HW131667   2.380   2.498   7.601 -0.2275  0.6262  0.7834
 6677SOL    HW231668   2.440   2.470   7.739  1.9186 -1.3265 -0.4415
 6678SOL     OW31669   1.443   0.675  15.767 -0.3078  0.6810 -0.0498
 6678SOL    HW131670   1.430   0.656  15.860 -0.7567  1.0472 -0.0362
 6678SOL    HW231671   1.376   0.742  15.751 -1.3133  0.0482  1.4832
 6679SOL     OW31672   3.429   0.790   5.698  0.1930 -0.7318 -0.5341
 6679SOL    HW131673   3.523   0.788   5.712  0.1683  1.8273  0.0564
 6679SOL    HW231674   3.418   0.736   5.619 -2.2906  1.1136 -1.4687
 6680SOL     OW31675   0.224   1.935   9.113  0.1669  0.2349 -0.0389
 6680SOL    HW131676   0.135   1.933   9.146  0.3132  0.5007  0.3756
 6680SOL    HW231677   0.241   2.028   9.125  0.9716  0.2756 -1.4650
 6681SOL     OW31678   1.640   3.468   5.251  0.3574 -0.5240 -1.0359
 6681SOL    HW131679   1.730   3.483   5.223  0.5726 -0.6830 -0.4284
 6681SOL    HW231680   1.606   3.475   5.162 -1.1009 -1.1944 -0.5287
 6682SOL     OW31681   0.119   0.282  17.127  0.2875  0.0516 -0.1317
 6682SOL    HW131682   0.123   0.358  17.069  3.0004 -0.8191 -1.0740
 6682SOL    HW231683   0.199   0.237  17.099  0.8877  0.1106  1.4678
 6683SOL     OW31684   4.419   2.081   4.525 -0.5198 -0.1904 -0.1842
 6683SOL    HW131685   4.369   2.036   4.592  0.2620 -1.4070 -0.4076
 6683SOL    HW231686   4.420   2.015   4.455 -1.6548 -0.6481  0.2332
 6684SOL     OW31687   0.290   2.124   3.416  0.3127 -0.7273 -0.1655
 6684SOL    HW131688   0.274   2.087   3.330 -0.1877  0.2387 -0.4877
 6684SOL    HW231689   0.382   2.099   3.426  0.5317 -0.1801 -0.8339
 6685SOL     OW31690   3.477   4.524   5.532 -0.8763 -0.2340  0.0998
 6685SOL    HW131691   3.477   4.617   5.507 -0.0000 -0.2720 -0.0174
 6685SOL    HW231692   3.427   4.477   5.465 -1.2978 -0.3570  0.4946
 6686SOL     OW31693   3.451   0.774   9.707 -0.0985  0.4211 -0.2048
 6686SOL    HW131694   3.434   0.840   9.775 -1.2030  0.7424 -0.8060
 6686SOL    HW231695   3.544   0.755   9.722 -0.3402 -0.9684 -0.4524
 6687SOL     OW31696   0.011   2.499   2.537 -0.0837  0.0541  0.6221
 6687SOL    HW131697   0.067   2.422   2.543 -0.4721 -0.2357  0.4866
 6687SOL    HW231698   0.048   2.546   2.613 -0.0799  3.0362 -1.2040
 6688SOL     OW31699   0.865   0.749   3.262  0.1080 -0.3485 -0.0238
 6688SOL    HW131700   0.869   0.770   3.169 -0.5488  0.6011  0.1618
 6688SOL    HW231701   0.923   0.816   3.297 -1.2033  0.5863  0.3698
 6689SOL     OW31702   4.072   2.223   1.449  0.1615 -0.1054  0.5366
 6689SOL    HW131703   4.047   2.315   1.454  1.2949  0.2469 -0.2671
 6689SOL    HW231704   4.029   2.195   1.368 -2.1062  0.7564  1.4310
 6690SOL     OW31705   1.322   3.887   5.825  0.2674 -0.0399 -0.0988
 6690SOL    HW131706   1.330   3.813   5.764 -2.1203  0.3743 -0.8896
 6690SOL    HW231707   1.352   3.949   5.759 -1.0080  1.0415  0.3654
 6691SOL     OW31708   1.267   4.366  14.562  0.3803  0.0078 -0.0345
 6691SOL    HW131709   1.285   4.423  14.637 -0.6671 -0.1843  0.3686
 6691SOL    HW231710   1.172   4.376  14.569  0.5420  2.4220 -1.1879
 6692SOL     OW31711   4.512   2.448  13.188 -0.6779 -0.1934  0.2385
 6692SOL    HW131712   4.467   2.530  13.208  0.7997  0.4641  0.8618
 6692SOL    HW231713   4.545   2.460  13.098  0.3125  1.5980  0.8339
 6693SOL     OW31714   4.482   4.370   9.641  0.1674 -0.2038  0.2297
 6693SOL    HW131715   4.506   4.459   9.614  0.6540  0.6201  3.2690
 6693SOL    HW231716   4.394   4.357   9.606  0.1005  1.9628 -0.4422
 6694SOL     OW31717   2.199   0.053   7.826 -0.1345 -0.2651 -0.1388
 6694SOL    HW131718   2.236   4.704   7.838 -0.2093  0.0418  2.3557
 6694SOL    HW231719   2.133   0.032   7.761 -0.6898  1.5574 -0.1430
 6695SOL     OW31720   0.354   3.882   4.327  0.1594  0.3784 -0.3102
 6695SOL    HW131721   0.277   3.930   4.299 -1.4977 -0.9324  2.0264
 6695SOL    HW231722   0.422   3.925   4.276  1.6226 -0.9098  0.5457
 6696SOL     OW31723   4.493   3.489   7.681 -0.4999  0.1973  0.3694
 6696SOL    HW131724   4.587   3.506   7.684 -0.8293  2.0539  0.2931
 6696SOL    HW231725   4.465   3.580   7.686  2.4647  1.1725 -1.1096
 6697SOL     OW31726   1.548   2.696   8.041  0.4459  0.0676  0.0713
 6697SOL    HW131727   1.481   2.723   7.978  1.3849  0.9412 -0.5399
 6697SOL    HW231728   1.617   2.676   7.978  2.2531 -0.6548  2.2808
 6698SOL     OW31729   1.629   1.375  17.557  0.5220  0.2291 -0.2033
 6698SOL    HW131730   1.629   1.423  17.474  2.9264 -2.8233 -2.0031
 6698SOL    HW231731   1.539   1.378  17.589  0.1861 -0.3630 -1.0924
 6699SOL     OW31732   3.771   2.876   5.880  0.3412 -0.3334  0.0722
 6699SOL    HW131733   3.834   2.836   5.820  1.2568  1.5284 -0.2262
 6699SOL    HW231734   3.748   2.799   5.932  2.3065 -0.5393  0.6337
 6700SOL     OW31735   1.596   2.527   8.288 -0.0770 -0.4487  0.2307
 6700SOL    HW131736   1.687   2.508   8.266  0.3044  0.0073  1.4074
 6700SOL    HW231737   1.564   2.571   8.209  2.1050  0.8483  0.0673
 6701SOL     OW31738   0.151   2.899  16.323 -0.2500 -0.0531 -0.2910
 6701SOL    HW131739   0.068   2.912  16.277  0.1021  0.1234 -0.8778
 6701SOL    HW231740   0.203   2.855  16.257 -0.7615 -1.3848  0.1933
 6702SOL     OW31741   2.864   0.545  13.924  0.1428  0.2712  0.0011
 6702SOL    HW131742   2.850   0.613  13.858  0.2346 -0.7046 -1.0311
 6702SOL    HW231743   2.885   0.475  13.863  0.5981  0.5313 -0.1464
 6703SOL     OW31744   0.581   3.022  12.018  0.3428 -0.0412 -0.1819
 6703SOL    HW131745   0.580   2.983  12.106 -1.3236  1.2052  0.3406
 6703SOL    HW231746   0.652   2.976  11.973  2.0687  0.6193  1.8581
 6704SOL     OW31747   4.739   2.764   9.523 -0.0833 -0.1573  0.5131
 6704SOL    HW131748   0.077   2.711   9.504 -0.2191  0.1234 -0.8395
 6704SOL    HW231749   4.683   2.691   9.549  3.5154 -2.8433  0.6955
 6705SOL     OW31750   3.763   0.842   1.513  0.3459  0.3948 -0.2779
 6705SOL    HW131751   3.811   0.778   1.566 -0.1325  2.0120  2.1091
 6705SOL    HW231752   3.836   0.903   1.504  0.3119  0.1991 -2.0506
 6706SOL     OW31753   1.665   1.116   5.924 -0.4022 -0.1543 -0.4634
 6706SOL    HW131754   1.637   1.186   5.866  1.9021  1.9569  1.0060
 6706SOL    HW231755   1.756   1.109   5.894 -0.3258  0.4222 -0.3538
 6707SOL     OW31756   3.692   2.953  13.702 -0.1464 -0.5162  0.1109
 6707SOL    HW131757   3.694   2.999  13.786  1.2236 -0.3162 -0.0232
 6707SOL    HW231758   3.787   2.945  13.694  0.1343  3.2171 -0.3224
 6708SOL     OW31759   0.843   1.056   6.244  0.0940  0.3612 -0.3722
 6708SOL    HW131760   0.844   1.137   6.194 -2.2139  0.4709 -0.2354
 6708SOL    HW231761   0.748   1.046   6.256 -0.3114  4.2197 -0.3496
 6709SOL     OW31762   1.250   2.868   7.630  0.0592  0.5818  0.6307
 6709SOL    HW131763   1.156   2.851   7.632  0.1675 -0.0366  0.4212
 6709SOL    HW231764   1.268   2.902   7.542 -1.1228  0.6204  0.4076
 6710SOL     OW31765   0.610   2.015  13.775 -0.1577 -0.2863  0.3080
 6710SOL    HW131766   0.672   1.945  13.753 -0.7947 -0.9043  0.4948
 6710SOL    HW231767   0.615   1.992  13.868  0.2297  1.1340  0.6372
 6711SOL     OW31768   3.714   4.553   1.820 -0.6651  0.2365  0.6657
 6711SOL    HW131769   3.653   4.625   1.834 -0.9787  0.2327 -0.7655
 6711SOL    HW231770   3.658   4.476   1.813 -1.3311  0.9164 -1.3765
 6712SOL     OW31771   1.058   1.713   3.950  0.3829  0.5145  0.1202
 6712SOL    HW131772   0.969   1.679   3.940  0.3901 -0.1863  2.3106
 6712SOL    HW231773   1.106   1.653   3.893  0.0852 -0.5199  0.9524
 6713SOL     OW31774   4.553   0.070   4.673  0.3797  0.0688 -0.2264
 6713SOL    HW131775   4.624   0.006   4.675 -0.3658 -0.7026  1.7106
 6713SOL    HW231776   4.483   0.030   4.725 -2.3178  2.9047 -1.6537
 6714SOL     OW31777   1.179   4.078  16.865  0.0161 -0.4390 -0.1767
 6714SOL    HW131778   1.273   4.062  16.872 -0.0402 -0.8258 -0.3036
 6714SOL    HW231779   1.165   4.029  16.784 -2.7699 -0.9163  0.5891
 6715SOL     OW31780   1.256   1.207   9.311  0.4533 -0.2534 -0.0242
 6715SOL    HW131781   1.260   1.303   9.306 -1.3817 -0.3193 -2.7866
 6715SOL    HW231782   1.337   1.180   9.267 -1.5225 -3.0119 -1.9153
 6716SOL     OW31783   0.200   3.070   6.954 -0.6683 -0.0632 -0.4227
 6716SOL    HW131784   0.289   3.079   6.919  0.0297 -1.6859  0.9692
 6716SOL    HW231785   0.154   3.145   6.916 -0.4129 -0.9568 -2.4790
 6717SOL     OW31786   0.187   2.416   8.096  0.6206 -0.0495 -0.2146
 6717SOL    HW131787   0.107   2.456   8.061 -0.6059 -2.1375  0.2048
 6717SOL    HW231788   0.158   2.327   8.116  0.0303  0.4252  1.0322
 6718SOL     OW31789   1.426   0.922   8.346 -0.2493  0.2459 -0.2841
 6718SOL    HW131790   1.510   0.892   8.312 -0.6604 -1.6351  0.3627
 6718SOL    HW231791   1.369   0.870   8.289 -0.4114  0.1328 -0.0182
 6719SOL     OW31792   0.341   4.018  10.862  0.0088  0.1997  0.1868
 6719SOL    HW131793   0.291   4.039  10.941 -1.6756 -2.1952 -0.2325
 6719SOL    HW231794   0.398   3.951  10.899  0.0484  0.0609 -0.1250
 6720SOL     OW31795   4.134   1.212   5.368 -0.3246 -0.1318  0.8411
 6720SOL    HW131796   4.181   1.206   5.285 -1.2849  0.0183  0.2848
 6720SOL    HW231797   4.174   1.292   5.402  2.7730 -1.7674  1.0405
 6721SOL     OW31798   1.105   2.047  15.493 -0.1978  0.5345  0.2380
 6721SOL    HW131799   1.118   2.065  15.399  0.0679  1.0244  0.3713
 6721SOL    HW231800   1.190   2.072  15.529  0.3780 -1.7542  0.4843
 6722SOL     OW31801   0.629   2.745  11.464 -0.0636 -0.7083 -0.3238
 6722SOL    HW131802   0.607   2.658  11.496 -0.6794  0.2358  1.8313
 6722SOL    HW231803   0.724   2.743  11.476 -0.0102  1.6382 -0.3437
 6723SOL     OW31804   4.617   1.891   1.723  0.1584 -0.3404  0.2857
 6723SOL    HW131805   4.641   1.855   1.638 -2.3294 -3.7324  0.9776
 6723SOL    HW231806   4.526   1.909   1.698  0.1362 -0.3647  0.3464
 6724SOL     OW31807   1.923   1.411   2.434 -0.5034  0.6317  0.1042
 6724SOL    HW131808   1.937   1.366   2.517  0.6316  1.1506  0.1861
 6724SOL    HW231809   1.955   1.345   2.372  0.7719 -0.2189  1.6678
 6725SOL     OW31810   0.538   1.056   5.221 -0.0821  0.0134 -0.2246
 6725SOL    HW131811   0.552   0.979   5.277 -0.9483 -1.2741 -1.7552
 6725SOL    HW231812   0.624   1.097   5.227 -0.2588  0.4069 -0.3600
 6726SOL     OW31813   3.439   1.370   6.250 -0.5018 -0.0744  0.0804
 6726SOL    HW131814   3.417   1.447   6.302 -1.6967 -0.0317 -0.4963
 6726SOL    HW231815   3.379   1.306   6.286  1.5023 -2.3563 -0.6095
 6727SOL     OW31816   1.915   1.770   6.430  0.0987 -0.6748 -0.5467
 6727SOL    HW131817   1.943   1.808   6.514 -1.2335  2.0900 -1.3640
 6727SOL    HW231818   1.996   1.739   6.389  0.3349  1.6819 -1.8005
 6728SOL     OW31819   0.788   1.002   9.770  0.3085  0.1548  0.1556
 6728SOL    HW131820   0.759   0.914   9.742 -0.0049  0.7273 -1.3352
 6728SOL    HW231821   0.745   1.019   9.854  1.5222  1.1017  0.5679
 6729SOL     OW31822   0.497   1.143   6.959 -0.0429 -0.7952  0.1624
 6729SOL    HW131823   0.551   1.154   7.037  1.5747 -2.1545 -0.7562
 6729SOL    HW231824   0.533   1.209   6.899 -2.6379 -1.2481 -1.9249
 6730SOL     OW31825   0.936   0.406  12.668 -0.6747 -0.1975  0.1167
 6730SOL    HW131826   1.000   0.352  12.622 -1.4047 -1.3771  0.4777
 6730SOL    HW231827   0.942   0.485  12.614  0.0132  1.6608  2.9279
 6731SOL     OW31828   3.041   0.929  16.825  0.2027  0.9709  0.5808
 6731SOL    HW131829   2.990   0.945  16.904 -0.7783 -1.6949  0.4824
 6731SOL    HW231830   3.018   0.840  16.797  0.2736  0.7359  1.2691
 6732SOL     OW31831   0.934   1.359  11.245  0.3996 -0.0794  0.2798
 6732SOL    HW131832   0.855   1.381  11.293  0.6815 -1.2636  1.2893
 6732SOL    HW231833   0.993   1.364  11.319 -0.1467  2.0737  0.5550
 6733SOL     OW31834   3.148   0.458   2.103  0.2277 -0.0731 -0.4774
 6733SOL    HW131835   3.192   0.513   2.039 -3.2961  3.6591  0.2762
 6733SOL    HW231836   3.183   0.491   2.187  0.2567 -2.3476  0.3965
 6734SOL     OW31837   2.631   2.006  14.680 -0.0033 -0.2345 -0.1939
 6734SOL    HW131838   2.555   2.053  14.646  0.9386 -0.6597 -2.8950
 6734SOL    HW231839   2.591   1.920  14.675 -0.5525  0.0928 -1.3939
 6735SOL     OW31840   2.133   3.651   3.609  0.1444 -0.0964 -0.1942
 6735SOL    HW131841   2.151   3.661   3.702  1.2090 -1.0537 -0.3056
 6735SOL    HW231842   2.077   3.574   3.607  1.4193 -1.0273  0.3093
 6736SOL     OW31843   3.063   1.726   4.069 -0.0508  0.1326  0.1273
 6736SOL    HW131844   3.067   1.676   4.151  1.9640  0.6547  0.3254
 6736SOL    HW231845   3.152   1.761   4.068 -0.4514  1.2487  3.0956
 6737SOL     OW31846   3.975   2.090   3.259  0.3173  0.3536  0.4279
 6737SOL    HW131847   4.068   2.068   3.260 -0.3691 -2.5044  0.4161
 6737SOL    HW231848   3.988   2.183   3.240  1.4979  0.4053  1.4496
 6738SOL     OW31849   1.159   2.657   2.743 -0.3239 -0.3836  0.0809
 6738SOL    HW131850   1.068   2.683   2.727 -1.1899 -1.6060  3.0694
 6738SOL    HW231851   1.188   2.737   2.787  0.0822  0.0516 -0.9774
 6739SOL     OW31852   0.207   3.008   5.800 -0.1447  0.4855 -0.9700
 6739SOL    HW131853   0.239   3.036   5.714 -0.8391 -0.5986 -1.5754
 6739SOL    HW231854   0.283   2.985   5.853  0.5624 -0.3087 -2.3406
 6740SOL     OW31855   2.968   3.963   4.859 -0.1567 -0.6661  0.1834
 6740SOL    HW131856   2.923   3.919   4.787 -0.7770 -0.9566  0.7510
 6740SOL    HW231857   2.922   3.948   4.942 -1.9493  0.3653 -0.6192
 6741SOL     OW31858   2.529   3.545  11.890  0.4246 -0.1063 -0.1235
 6741SOL    HW131859   2.455   3.522  11.946 -0.2245 -0.7489 -1.2452
 6741SOL    HW231860   2.572   3.606  11.949  0.1649 -1.5562  1.5567
 6742SOL     OW31861   2.468   2.025   5.497 -0.1778 -0.7140 -0.1886
 6742SOL    HW131862   2.522   2.028   5.418  1.8081 -0.4531  1.1765
 6742SOL    HW231863   2.529   2.062   5.560 -0.5974 -0.2803 -0.0303
 6743SOL     OW31864   3.344   3.771   5.411 -0.0703  0.5139 -0.0581
 6743SOL    HW131865   3.333   3.704   5.343  0.8816  1.6561 -1.3530
 6743SOL    HW231866   3.439   3.775   5.420 -0.0898  0.9968 -0.0504
 6744SOL     OW31867   4.077   3.828   2.622 -0.3259  0.3458  0.0488
 6744SOL    HW131868   4.051   3.920   2.631  1.8712  0.9903 -0.1413
 6744SOL    HW231869   4.019   3.795   2.554 -0.1857 -1.4502  0.7860
 6745SOL     OW31870   3.605   4.696  16.154  0.3759  0.5417 -0.3443
 6745SOL    HW131871   3.638   4.675  16.066 -1.2692 -1.5717 -0.4427
 6745SOL    HW231872   3.654   4.640  16.214 -0.3198 -0.6730 -0.9172
 6746SOL     OW31873   0.799   2.665   8.331 -0.1531 -0.0431  0.1470
 6746SOL    HW131874   0.757   2.645   8.247  0.2806  0.8656 -0.2872
 6746SOL    HW231875   0.764   2.753   8.346 -0.9196 -0.7306  2.3921
 6747SOL     OW31876   0.167   0.438   4.071  0.4679  0.3603  0.2523
 6747SOL    HW131877   0.078   0.452   4.103  0.8969  0.1809  1.5150
 6747SOL    HW231878   0.178   0.349   4.104  1.3533  0.6112  0.6351
 6748SOL     OW31879   4.355   0.771  17.751  0.9336  0.2374 -0.0687
 6748SOL    HW131880   4.449   0.789   0.005  0.4518  4.2463 -4.3314
 6748SOL    HW231881   4.327   0.861   0.015 -0.5922 -0.2389 -0.0396
 6749SOL     OW31882   1.976   1.576   3.083  0.1596 -0.4647  0.1363
 6749SOL    HW131883   1.964   1.659   3.130 -0.3344  0.4523 -1.6074
 6749SOL    HW231884   1.903   1.520   3.109 -1.4360  2.0097  0.9658
 6750SOL     OW31885   1.707   3.352   3.703 -0.1746  0.0428  0.5039
 6750SOL    HW131886   1.659   3.291   3.759 -1.1306 -0.0211 -0.4024
 6750SOL    HW231887   1.642   3.375   3.637  1.6448 -0.9569 -1.6418
 6751SOL     OW31888   2.130   3.154   7.181  0.3901  0.1307  0.0619
 6751SOL    HW131889   2.130   3.140   7.086  0.9068  2.3048 -0.2461
 6751SOL    HW231890   2.203   3.214   7.194  2.5426 -1.8702 -2.7218
 6752SOL     OW31891   3.703   2.377   7.511  0.6185  0.3730  0.0551
 6752SOL    HW131892   3.622   2.418   7.481  0.2059  0.3337  1.1226
 6752SOL    HW231893   3.762   2.446   7.539  1.3107  0.0969 -0.7281
 6753SOL     OW31894   3.357   2.595   6.323 -0.3179  0.3584  0.9139
 6753SOL    HW131895   3.275   2.551   6.346 -0.7116  0.9498  0.6337
 6753SOL    HW231896   3.421   2.523   6.322 -1.0741 -0.3135  0.1670
 6754SOL     OW31897   3.044   2.427   6.750  0.5236  0.2769  0.2408
 6754SOL    HW131898   3.097   2.359   6.708 -2.1390 -0.2171 -2.3417
 6754SOL    HW231899   2.968   2.369   6.747 -0.6866  1.7931  1.8938
 6755SOL     OW31900   2.868   1.548   3.402 -0.0943  0.2504 -0.0592
 6755SOL    HW131901   2.907   1.527   3.487  0.1754 -0.3219 -0.3238
 6755SOL    HW231902   2.779   1.523   3.428 -0.1242  0.3548 -0.0583
 6756SOL     OW31903   2.328   1.794  16.391 -0.3611 -0.7016 -0.2508
 6756SOL    HW131904   2.422   1.778  16.383  0.2160  2.3721  0.4720
 6756SOL    HW231905   2.324   1.888  16.373  1.3254 -0.6322 -0.3514
 6757SOL     OW31906   1.567   2.997   3.080 -0.4447  0.0307 -0.2470
 6757SOL    HW131907   1.503   3.051   3.033 -1.3409 -0.2392  0.6515
 6757SOL    HW231908   1.621   2.955   3.013  1.5223  3.5560 -0.8278
 6758SOL     OW31909   2.542   2.927   2.534  0.1542  0.7084 -0.0368
 6758SOL    HW131910   2.598   2.940   2.610 -0.4785 -0.9252  0.6959
 6758SOL    HW231911   2.490   2.851   2.561 -0.0005  0.3991 -1.1904
 6759SOL     OW31912   2.417   2.904  13.257  0.0758  0.7203  0.4784
 6759SOL    HW131913   2.383   2.935  13.341 -0.1937  0.1202  0.5880
 6759SOL    HW231914   2.352   2.938  13.195 -1.3714 -2.6634  0.1387
 6760SOL     OW31915   4.580   0.614   3.163  0.1727 -0.3494  0.0018
 6760SOL    HW131916   4.656   0.669   3.142  0.5824 -0.3990  1.3401
 6760SOL    HW231917   4.520   0.678   3.201 -0.9962 -0.1875 -2.1394
 6761SOL     OW31918   0.848   0.336   1.248  0.3971  0.1308 -0.3931
 6761SOL    HW131919   0.818   0.390   1.322  4.5747  0.4583  1.0691
 6761SOL    HW231920   0.764   0.321   1.204  0.5505 -0.3262 -0.5322
 6762SOL     OW31921   4.669   0.623   4.754  0.3016  0.1494 -0.2062
 6762SOL    HW131922   4.574   0.624   4.765  0.3755  2.7803  0.2485
 6762SOL    HW231923   4.700   0.580   4.834 -0.4267 -0.2483 -0.1386
 6763SOL     OW31924   4.556   3.662   4.741  0.2620  0.3098  0.8182
 6763SOL    HW131925   4.468   3.652   4.707  1.5768 -2.2995 -1.7908
 6763SOL    HW231926   4.599   3.713   4.672  1.0166 -1.1051  0.2522
 6764SOL     OW31927   4.631   2.748   3.213  0.1881  0.1486 -0.1768
 6764SOL    HW131928   4.544   2.716   3.187  0.3376 -0.4377  0.0486
 6764SOL    HW231929   4.614   2.750   3.307 -0.8618  3.1066 -0.4232
 6765SOL     OW31930   0.332   1.795   3.928 -0.0332 -0.0377  0.7434
 6765SOL    HW131931   0.423   1.797   3.897 -0.0685 -1.0902  0.5604
 6765SOL    HW231932   0.288   1.855   3.869  0.6836  0.3084  0.5593
 6766SOL     OW31933   4.199   1.146   2.093  0.0758  0.0572 -1.2275
 6766SOL    HW131934   4.221   1.111   2.180 -0.9330 -1.6057 -1.6278
 6766SOL    HW231935   4.234   1.235   2.096  0.8240 -0.2787 -0.0590
 6767SOL     OW31936   1.611   1.493   9.200  0.1592  0.5790  0.6448
 6767SOL    HW131937   1.642   1.582   9.215 -0.6874  1.1854 -1.1829
 6767SOL    HW231938   1.674   1.438   9.246  0.0988  0.0396  0.0810
 6768SOL     OW31939   1.754   1.381   1.723  0.1497 -0.7028 -0.1763
 6768SOL    HW131940   1.791   1.440   1.788  0.4461 -0.8549 -0.2050
 6768SOL    HW231941   1.660   1.400   1.728  0.1828 -0.2343 -1.4489
 6769SOL     OW31942   4.466   1.861   9.818 -0.2170  0.0336 -0.5448
 6769SOL    HW131943   4.427   1.816   9.894 -0.5599  1.1467 -0.0648
 6769SOL    HW231944   4.389   1.888   9.769 -0.9584  1.3317  1.3549
 6770SOL     OW31945   3.509   0.374  16.024 -0.0040 -0.2275 -0.0375
 6770SOL    HW131946   3.590   0.375  16.076 -0.1268  0.9633  0.1131
 6770SOL    HW231947   3.533   0.345  15.936  0.2424  0.0018 -0.0468
 6771SOL     OW31948   4.445   3.662  16.360 -0.2326 -0.0156 -0.2010
 6771SOL    HW131949   4.380   3.593  16.368  1.0253 -1.2545 -0.6641
 6771SOL    HW231950   4.422   3.712  16.281  0.8162  0.4757 -0.1963
 6772SOL     OW31951   0.135   3.107   2.120  0.0636  0.5504 -0.2121
 6772SOL    HW131952   0.101   3.027   2.161 -0.6337 -0.4051 -2.6520
 6772SOL    HW231953   0.064   3.171   2.126  1.5920  2.2686 -0.7738
 6773SOL     OW31954   0.484   2.188   2.829 -0.1576  0.1259  0.2726
 6773SOL    HW131955   0.400   2.229   2.850  1.1094  1.4957  2.6647
 6773SOL    HW231956   0.454   2.117   2.773 -2.6575  1.4385 -0.0689
 6774SOL     OW31957   4.381   0.337  11.240 -0.8755  0.3364 -0.3832
 6774SOL    HW131958   4.327   0.359  11.317 -0.4691 -0.6471  0.1759
 6774SOL    HW231959   4.370   0.415  11.185  0.8162 -0.3615 -1.7135
 6775SOL     OW31960   2.475   1.762   5.421  0.0716  0.3100  0.5709
 6775SOL    HW131961   2.454   1.776   5.329  1.0093 -0.1018  0.3033
 6775SOL    HW231962   2.476   1.855   5.445 -1.5144  0.7523 -1.1064
 6776SOL     OW31963   0.708   0.692  11.330  0.5452  0.1771  0.6716
 6776SOL    HW131964   0.790   0.668  11.374  0.2291 -0.2592  1.0108
 6776SOL    HW231965   0.647   0.682  11.403 -0.3203  0.2014 -0.0547
 6777SOL     OW31966   3.509   3.582  10.114 -0.3540  0.3651 -0.0948
 6777SOL    HW131967   3.481   3.668  10.145 -1.8002  0.0044 -0.3753
 6777SOL    HW231968   3.598   3.601  10.085 -0.3424  1.4392  0.6547
 6778SOL     OW31969   2.667   3.742  13.157  0.2113  0.3901 -0.5065
 6778SOL    HW131970   2.643   3.784  13.074 -0.7510 -0.3948 -0.6310
 6778SOL    HW231971   2.599   3.765  13.220  0.0385  1.5932 -1.1220
 6779SOL     OW31972   4.411   1.360   2.592 -0.1947 -0.4418 -0.1068
 6779SOL    HW131973   4.348   1.301   2.634 -2.0683  0.1609 -2.0333
 6779SOL    HW231974   4.452   1.398   2.669  0.2213 -0.0479 -0.5264
 6780SOL     OW31975   4.553   3.176  11.637  0.4435 -0.1298  0.4642
 6780SOL    HW131976   4.645   3.176  11.608  0.2153  2.8125 -0.2613
 6780SOL    HW231977   4.510   3.229  11.570 -0.4812  0.6327  1.6810
 6781SOL     OW31978   1.626   2.275   5.198  0.0716  0.1183  0.0798
 6781SOL    HW131979   1.713   2.260   5.160 -0.4332  0.3772 -1.1990
 6781SOL    HW231980   1.651   2.297   5.288  0.8619 -0.6739  0.0515
 6782SOL     OW31981   2.556   4.043   8.007 -0.5699 -0.0995  0.0854
 6782SOL    HW131982   2.492   4.096   8.055 -1.9433 -1.5611 -0.1781
 6782SOL    HW231983   2.616   4.118   8.008 -0.9722  0.2347 -2.2953
 6783SOL     OW31984   1.057   3.946  17.396 -0.6772 -0.3029  1.0231
 6783SOL    HW131985   1.123   3.950  17.326 -0.3495  0.6434  1.3743
 6783SOL    HW231986   0.980   3.979  17.349 -0.1320 -0.3356  0.0883
 6784SOL     OW31987   3.886   0.714   5.898 -0.0739  0.0076 -0.3852
 6784SOL    HW131988   3.878   0.695   5.992  0.7455  0.7900 -0.1457
 6784SOL    HW231989   3.979   0.739   5.895  0.0102 -0.3258 -0.5071
 6785SOL     OW31990   3.816   4.224  13.265 -0.3188 -0.2313 -0.6763
 6785SOL    HW131991   3.748   4.231  13.333  1.0730 -0.3904  0.7350
 6785SOL    HW231992   3.820   4.129  13.251  0.9576 -0.1833 -0.5862
 6786SOL     OW31993   0.151   4.330   5.293  0.2650  0.2368 -0.1743
 6786SOL    HW131994   0.218   4.397   5.281 -0.2059  0.6178 -0.7057
 6786SOL    HW231995   0.142   4.288   5.207  0.8622 -0.3059  0.0280
 6787SOL     OW31996   1.728   3.643   1.216 -0.6434 -0.1448 -0.0509
 6787SOL    HW131997   1.695   3.724   1.177  0.2019  1.5111  2.6598
 6787SOL    HW231998   1.777   3.679   1.290 -2.2761  1.3103  0.3161
 6788SOL     OW31999   2.811   3.792   7.215  0.0024 -0.1038 -0.0148
 6788SOL    HW132000   2.793   3.884   7.234  1.4018 -0.0610  1.0703
 6788SOL    HW232001   2.720   3.763   7.220  0.0582 -0.5032 -1.2146
 6789SOL     OW32002   3.817   3.243   4.904  0.1618  0.3692  0.6236
 6789SOL    HW132003   3.783   3.203   4.824 -0.1025 -1.3248  1.5806
 6789SOL    HW232004   3.757   3.317   4.917  1.3463  1.1880  1.4390
 6790SOL     OW32005   2.632   0.785   3.199  0.1468 -0.7473  0.0023
 6790SOL    HW132006   2.572   0.859   3.188 -0.8157 -1.5418 -0.0810
 6790SOL    HW232007   2.689   0.786   3.123  0.3109  0.8926  0.1347
 6791SOL     OW32008   0.234   1.919   6.802 -0.5246  0.6509  0.1848
 6791SOL    HW132009   0.181   1.993   6.772 -1.0672 -0.2087 -0.9885
 6791SOL    HW232010   0.308   1.919   6.741 -0.7006 -0.8338 -0.0083
 6792SOL     OW32011   3.649   0.032   4.126  0.0869  0.0130  0.6902
 6792SOL    HW132012   3.561   0.011   4.097 -0.0119  0.6717  0.5118
 6792SOL    HW232013   3.662   0.122   4.097  1.7000 -0.8475 -1.2601
 6793SOL     OW32014   0.088   3.466   3.189 -0.3757 -0.0700  0.6850
 6793SOL    HW132015   0.118   3.495   3.276  0.6649 -2.2029  1.0287
 6793SOL    HW232016   0.006   3.424   3.215 -1.5404  2.5165  1.2357
 6794SOL     OW32017   2.119   0.347  11.865  0.6001 -0.2669 -0.0185
 6794SOL    HW132018   2.046   0.285  11.860 -0.9245  1.3370  2.2092
 6794SOL    HW232019   2.193   0.297  11.831  1.0996 -0.7011  1.6639
 6795SOL     OW32020   4.341   0.766   2.369 -0.3897 -0.4401  0.0049
 6795SOL    HW132021   4.404   0.705   2.331  0.7055 -0.2256  1.4454
 6795SOL    HW232022   4.385   0.801   2.447  2.7931 -1.3298 -1.3981
 6796SOL     OW32023   3.094   0.507   8.111 -0.1102  0.1923 -0.8053
 6796SOL    HW132024   3.032   0.542   8.047 -0.3968  0.8303 -0.1742
 6796SOL    HW232025   3.172   0.512   8.056 -1.0935  0.0990 -2.2275
 6797SOL     OW32026   4.432   0.266   7.127 -0.2707  0.4918  0.3303
 6797SOL    HW132027   4.511   0.307   7.092 -1.0793  1.4063 -0.4411
 6797SOL    HW232028   4.429   0.301   7.216 -2.4052 -1.5472  1.0509
 6798SOL     OW32029   1.083   2.609   6.923  0.1119  0.1649 -0.0556
 6798SOL    HW132030   1.083   2.703   6.943  0.0502  0.4211 -1.3007
 6798SOL    HW232031   0.989   2.600   6.910  0.1460  1.6149 -1.2497
 6799SOL     OW32032   3.995   4.080  12.727 -0.1959 -0.1594 -0.2695
 6799SOL    HW132033   3.915   4.031  12.743 -0.9082  1.7306  2.1586
 6799SOL    HW232034   3.975   4.171  12.750 -1.8396 -0.4050 -0.7359
 6800SOL     OW32035   0.798   4.569   0.601  0.2759 -0.2966  0.3030
 6800SOL    HW132036   0.841   4.531   0.678 -1.1500  0.5526  1.5241
 6800SOL    HW232037   0.779   4.485   0.559  0.6409 -0.0621 -0.3187
 6801SOL     OW32038   0.673   1.481   4.156 -0.4984 -0.0410  0.1322
 6801SOL    HW132039   0.714   1.460   4.240  0.9806 -0.9913 -0.8163
 6801SOL    HW232040   0.736   1.542   4.117 -1.5988  1.8642  1.4130
 6802SOL     OW32041   2.413   0.809   1.271  0.1166  0.0487  0.6982
 6802SOL    HW132042   2.482   0.801   1.205 -0.3351  0.4742  0.1719
 6802SOL    HW232043   2.346   0.754   1.231 -0.4092 -0.0079  1.6529
 6803SOL     OW32044   1.557   1.820   3.202 -0.0659  0.1134 -0.3684
 6803SOL    HW132045   1.625   1.823   3.269 -2.6299 -2.7096  2.3749
 6803SOL    HW232046   1.558   1.725   3.185  1.9778  0.0342  0.1739
 6804SOL     OW32047   1.212   4.482   0.632  0.3653  0.3305  0.0736
 6804SOL    HW132048   1.277   4.547   0.607  1.4803 -0.3024  1.3729
 6804SOL    HW232049   1.182   4.454   0.546  1.1972 -1.1970  0.2861
 6805SOL     OW32050   2.837   3.343   3.987  0.0806 -0.3624  0.5196
 6805SOL    HW132051   2.874   3.385   3.909 -1.5841 -1.3409 -0.8074
 6805SOL    HW232052   2.919   3.336   4.036  0.8611 -0.8378 -0.8388
 6806SOL     OW32053   1.987   3.093  13.287  0.3122  0.1976  0.0109
 6806SOL    HW132054   1.984   3.174  13.337 -0.8600 -2.0581  3.6242
 6806SOL    HW232055   2.080   3.077  13.271  0.1350 -1.1807  0.3696
 6807SOL     OW32056   1.155   0.811  15.723 -0.0504 -0.1500  0.4767
 6807SOL    HW132057   1.107   0.728  15.731  1.5309 -1.2433 -1.2933
 6807SOL    HW232058   1.152   0.829  15.629 -1.9806  0.3028  0.6307
 6808SOL     OW32059   0.680   1.030   4.221  0.0512  0.5872 -0.0750
 6808SOL    HW132060   0.757   1.086   4.209  0.7800  0.2124  2.8879
 6808SOL    HW232061   0.704   0.948   4.178  1.4597  0.8769  0.1568
 6809SOL     OW32062   3.417   2.290   8.693  0.1732 -0.0762  0.0907
 6809SOL    HW132063   3.360   2.354   8.736 -1.6101 -0.3001 -1.9454
 6809SOL    HW232064   3.468   2.349   8.637 -0.5005  1.9113  1.5699
 6810SOL     OW32065   0.710   2.345  11.277  0.2691  0.2160 -0.0966
 6810SOL    HW132066   0.659   2.387  11.347  0.6412 -1.8306  1.3975
 6810SOL    HW232067   0.795   2.385  11.294  0.2089  1.0117 -1.6642
 6811SOL     OW32068   0.006   1.026  13.198  0.0998 -0.4515 -0.6465
 6811SOL    HW132069   4.707   0.938  13.201  0.4973 -0.6012 -0.0571
 6811SOL    HW232070   4.732   1.061  13.286  0.5001  0.3665 -0.9146
 6812SOL     OW32071   0.463   2.820   6.457 -0.0160  0.0867  0.2167
 6812SOL    HW132072   0.512   2.738   6.465 -2.1771 -1.3494 -1.1594
 6812SOL    HW232073   0.373   2.788   6.464  0.0434 -0.3115 -0.8376
 6813SOL     OW32074   2.113   1.876   3.948 -0.1487 -0.0534 -0.4163
 6813SOL    HW132075   2.160   1.797   3.978  1.2600  1.2307  0.7515
 6813SOL    HW232076   2.083   1.921   4.027  0.5601 -0.0258 -0.1536
 6814SOL     OW32077   2.916   2.450  10.982  0.0134  0.0571  0.0004
 6814SOL    HW132078   2.826   2.422  10.999  0.2071  0.5267  1.7899
 6814SOL    HW232079   2.924   2.503  11.061  0.9222 -1.3829  0.8677
 6815SOL     OW32080   0.345   0.465  12.533 -0.6999  0.0742  0.1525
 6815SOL    HW132081   0.256   0.433  12.545 -0.1899 -1.1339  0.6803
 6815SOL    HW232082   0.409   0.394  12.530 -1.2589 -0.3937 -0.6321
 6816SOL     OW32083   2.364   4.517   5.134 -0.0991  0.2134  0.2270
 6816SOL    HW132084   2.366   4.492   5.226  1.0128 -0.6779 -0.0423
 6816SOL    HW232085   2.284   4.470   5.110 -0.5334  1.5381 -0.9731
 6817SOL     OW32086   1.217   2.397   6.843 -0.1581 -1.0412  0.0362
 6817SOL    HW132087   1.304   2.426   6.814  0.1484 -2.0431 -0.0509
 6817SOL    HW232088   1.171   2.477   6.867 -3.1993 -2.8074  0.1545
 6818SOL     OW32089   4.284   0.834  14.977  0.1138  0.2357 -0.2699
 6818SOL    HW132090   4.287   0.784  15.058  0.1038 -1.8265 -1.5548
 6818SOL    HW232091   4.270   0.917  15.023 -0.2650 -0.7695  1.4151
 6819SOL     OW32092   3.575   2.931   6.232  0.6579 -0.3796 -0.6382
 6819SOL    HW132093   3.511   2.993   6.197  2.3566  1.3882 -0.6633
 6819SOL    HW232094   3.560   2.853   6.179  0.9056 -0.7380 -0.1883
 6820SOL     OW32095   2.160   2.262   8.588  0.1005  0.0190  0.1378
 6820SOL    HW132096   2.120   2.327   8.646 -0.9224 -1.6854  1.3323
 6820SOL    HW232097   2.095   2.262   8.517 -0.5512  0.0113  0.7379
 6821SOL     OW32098   3.705   3.767   9.702 -0.1275 -0.8650 -0.1008
 6821SOL    HW132099   3.792   3.791   9.735  0.0113  0.0723 -1.1311
 6821SOL    HW232100   3.675   3.841   9.649 -1.2347  0.1045  1.9310
 6822SOL     OW32101   2.283   2.136   8.818 -0.5833 -0.2278  0.1656
 6822SOL    HW132102   2.374   2.154   8.796 -0.6054  0.3691  0.5649
 6822SOL    HW232103   2.240   2.153   8.734  0.4104  1.2958 -0.0378
 6823SOL     OW32104   2.891   0.748   9.180  0.4447  0.3434  0.0041
 6823SOL    HW132105   2.946   0.698   9.119  0.2634  0.7467 -0.4913
 6823SOL    HW232106   2.815   0.690   9.176 -0.8979  2.0716  0.4743
 6824SOL     OW32107   1.776   4.115   7.006 -0.0956  0.3073  0.3452
 6824SOL    HW132108   1.776   4.035   6.954 -1.6876  0.6875 -0.2334
 6824SOL    HW232109   1.867   4.143   7.010  0.5089 -1.5077 -0.5442
 6825SOL     OW32110   4.056   1.956   8.792  0.2994 -0.0893  0.0115
 6825SOL    HW132111   4.113   1.920   8.860 -3.2224 -1.1818  2.3799
 6825SOL    HW232112   4.025   2.027   8.847 -1.1278  0.6170 -1.7236
 6826SOL     OW32113   1.312   0.884   1.673  0.0139  0.0846  0.2112
 6826SOL    HW132114   1.287   0.880   1.580  2.5841 -0.5922 -0.4452
 6826SOL    HW232115   1.261   0.961   1.697  1.2695  0.8427  0.4601
 6827SOL     OW32116   3.370   2.593   7.165 -0.1326 -0.0018 -0.5278
 6827SOL    HW132117   3.349   2.687   7.161  1.8555  0.4434 -0.1531
 6827SOL    HW232118   3.401   2.595   7.255 -0.0901  0.8750 -0.5575
 6828SOL     OW32119   3.664   1.176   7.436 -0.3339  0.3839 -0.3374
 6828SOL    HW132120   3.629   1.143   7.519 -1.6488 -0.6417 -1.3160
 6828SOL    HW232121   3.685   1.266   7.462  1.5116 -0.1552  0.0443
 6829SOL     OW32122   1.330   2.693   6.313 -0.1537  0.0550 -0.3423
 6829SOL    HW132123   1.369   2.720   6.230 -0.2435  1.9644  0.2407
 6829SOL    HW232124   1.296   2.777   6.344 -0.9973 -0.1022 -0.8429
 6830SOL     OW32125   3.469   2.790  10.702 -0.0418  0.4040  0.0849
 6830SOL    HW132126   3.551   2.765  10.660  0.3489  0.0141  1.0788
 6830SOL    HW232127   3.500   2.826  10.786  0.1449 -0.5892  0.4336
 6831SOL     OW32128   3.773   0.682  12.941 -0.2531  0.2171 -0.1943
 6831SOL    HW132129   3.682   0.679  12.911 -0.4208 -0.8985  0.4296
 6831SOL    HW232130   3.780   0.718  13.029  2.8185  2.0602 -1.1826
 6832SOL     OW32131   0.089   2.405   5.651  0.0109 -0.5439  0.0126
 6832SOL    HW132132   0.142   2.421   5.729  2.3815 -1.7199 -1.3584
 6832SOL    HW232133   0.133   2.465   5.590  0.3907  0.0232  0.8350
 6833SOL     OW32134   3.466   4.614   8.137  0.0357  0.3899 -0.5447
 6833SOL    HW132135   3.503   4.547   8.079  1.6842  0.9326 -0.1243
 6833SOL    HW232136   3.489   4.699   8.100 -0.0656  0.1994 -1.0376
 6834SOL     OW32137   0.295   3.418   4.020  0.9571  0.3886  0.2599
 6834SOL    HW132138   0.307   3.360   4.095  0.1147 -1.8542 -1.3446
 6834SOL    HW232139   0.310   3.498   4.070  1.3546  1.4135 -1.4662
 6835SOL     OW32140   1.593   2.836   4.807  0.3962 -0.4298  0.3701
 6835SOL    HW132141   1.642   2.895   4.749 -0.1671 -0.3477 -0.0277
 6835SOL    HW232142   1.563   2.771   4.744 -3.8506  0.4183  1.5499
 6836SOL     OW32143   0.768   2.939  15.825 -0.3536 -0.0620 -0.6537
 6836SOL    HW132144   0.700   2.904  15.884  0.2454 -1.4613 -0.7910
 6836SOL    HW232145   0.797   3.012  15.879  1.1816  0.1158 -1.7381
 6837SOL     OW32146   1.229   2.341   1.268  0.3247 -0.0514 -0.8364
 6837SOL    HW132147   1.323   2.328   1.260  0.1065 -2.2739  0.3482
 6837SOL    HW232148   1.204   2.294   1.188  0.5063  1.0880 -1.5595
 6838SOL     OW32149   1.777   3.174   1.137  0.8585 -0.3909 -0.3984
 6838SOL    HW132150   1.732   3.257   1.152 -1.0880 -1.3466 -0.8267
 6838SOL    HW232151   1.756   3.154   1.046  3.9748 -0.1765 -1.1612
 6839SOL     OW32152   0.800   3.204   1.517  0.2929 -0.3982 -0.2236
 6839SOL    HW132153   0.815   3.160   1.600 -0.6717  0.0023  0.1651
 6839SOL    HW232154   0.771   3.290   1.546 -1.8319 -0.6543 -1.5445
 6840SOL     OW32155   3.545   0.356  13.121 -0.3004 -0.8944 -0.4396
 6840SOL    HW132156   3.487   0.281  13.136 -1.4944  0.0209 -0.4534
 6840SOL    HW232157   3.485   0.425  13.148 -0.8244 -1.7893  0.6932
 6841SOL     OW32158   3.783   3.407   8.163  0.3146 -0.5805 -0.0294
 6841SOL    HW132159   3.774   3.355   8.083  0.9231  0.9601 -1.1005
 6841SOL    HW232160   3.824   3.350   8.228  1.5339 -0.0045 -0.2857
 6842SOL     OW32161   1.549   0.171   9.230  0.1683  0.3512 -0.2522
 6842SOL    HW132162   1.562   0.261   9.258 -1.2665 -0.7504  3.9178
 6842SOL    HW232163   1.616   0.144   9.166  1.1612  0.2147  0.8481
 6843SOL     OW32164   3.561   4.514   9.316  0.1461  0.4048  0.0790
 6843SOL    HW132165   3.653   4.497   9.340  0.2353  0.2120 -0.4050
 6843SOL    HW232166   3.573   4.585   9.253 -0.3882 -0.0895 -0.5717
 6844SOL     OW32167   2.640   3.543   7.126 -0.9977 -0.2079 -0.4011
 6844SOL    HW132168   2.709   3.498   7.174  0.1018  1.2255 -0.6469
 6844SOL    HW232169   2.605   3.596   7.197 -0.6685 -2.5848  1.5346
 6845SOL     OW32170   2.236   1.173   1.383  0.0538 -0.3473  0.0699
 6845SOL    HW132171   2.281   1.253   1.355 -1.0392  1.4973  3.6164
 6845SOL    HW232172   2.156   1.211   1.420  1.0210  0.7442  1.0205
 6846SOL     OW32173   2.551   3.368   6.502  0.2561 -0.2776  0.4549
 6846SOL    HW132174   2.547   3.401   6.412  1.3781  0.9805  0.8636
 6846SOL    HW232175   2.591   3.443   6.545 -0.1212 -0.1565  0.5907
 6847SOL     OW32176   2.575   4.372   3.968 -0.3394 -0.6943 -0.5751
 6847SOL    HW132177   2.512   4.330   4.026 -0.3091  0.0508 -0.0082
 6847SOL    HW232178   2.635   4.298   3.954  1.3059  0.3261  1.0302
 6848SOL     OW32179   4.577   0.583  11.078 -0.1757  0.1357 -0.1310
 6848SOL    HW132180   4.495   0.547  11.044 -0.3515 -1.0961  1.5700
 6848SOL    HW232181   4.650   0.533  11.041 -2.5831 -1.9177 -2.1366
 6849SOL     OW32182   4.232   0.899  11.301 -0.0330  0.1650 -0.2251
 6849SOL    HW132183   4.168   0.844  11.346  1.0139  0.6785  1.8619
 6849SOL    HW232184   4.201   0.988  11.320 -2.4508 -1.2441  2.4354
 6850SOL     OW32185   4.644   1.070  15.514 -0.8820  0.3293 -0.3631
 6850SOL    HW132186   4.698   0.991  15.522 -0.0867  0.8346 -0.6844
 6850SOL    HW232187   4.612   1.059  15.424  1.1602  1.8377 -1.2977
 6851SOL     OW32188   3.818   2.800   0.786  0.3712  0.2884 -0.5118
 6851SOL    HW132189   3.785   2.711   0.795  0.1513  0.4883  0.6023
 6851SOL    HW232190   3.869   2.802   0.705 -3.0266 -0.6470 -2.6988
 6852SOL     OW32191   2.208   4.105   7.554  0.0649 -0.0532  0.4952
 6852SOL    HW132192   2.179   4.195   7.542 -1.4975 -0.7415 -0.8936
 6852SOL    HW232193   2.188   4.089   7.646  0.6598 -5.1466 -0.2607
 6853SOL     OW32194   2.850   1.549   8.286  0.0700  0.2179 -0.2629
 6853SOL    HW132195   2.852   1.627   8.341 -0.7006 -0.1179  0.2452
 6853SOL    HW232196   2.756   1.531   8.273 -0.2259  0.1157  1.9996
 6854SOL     OW32197   2.235   1.792   4.918 -0.2649  0.2055  0.1739
 6854SOL    HW132198   2.185   1.780   4.838 -0.7175  1.1262  0.3178
 6854SOL    HW232199   2.170   1.765   4.982  0.0383  2.1876  1.3221
 6855SOL     OW32200   1.913   0.328  17.581 -0.0840  0.2783  0.1361
 6855SOL    HW132201   1.949   0.364  17.500  1.2603 -1.9978 -0.2492
 6855SOL    HW232202   1.985   0.305  17.640 -0.5073 -1.3178  0.0079
 6856SOL     OW32203   0.507   0.464   8.126 -1.0093 -0.5198 -0.3212
 6856SOL    HW132204   0.487   0.536   8.066  2.2684  1.2923  0.7531
 6856SOL    HW232205   0.602   0.467   8.136 -1.2123 -0.3527  1.4911
 6857SOL     OW32206   2.471   2.007  12.748  0.0858  0.0106 -0.2028
 6857SOL    HW132207   2.473   2.102  12.763 -0.4518  0.1502 -1.0011
 6857SOL    HW232208   2.550   1.972  12.790  1.3831  0.0987 -2.5790
 6858SOL     OW32209   2.060   4.266   0.399  0.2944 -0.1940  0.3070
 6858SOL    HW132210   1.971   4.270   0.363 -0.4267 -1.3451  1.9736
 6858SOL    HW232211   2.056   4.201   0.469  1.7727  1.3256  1.8097
 6859SOL     OW32212   3.989   0.609  15.257  0.0907 -0.7635  0.1219
 6859SOL    HW132213   3.977   0.611  15.162  1.7166 -1.8602 -0.0950
 6859SOL    HW232214   3.899   0.620  15.290  0.1014  1.4406 -0.6023
 6860SOL     OW32215   1.164   0.526   9.207  0.4242  0.0299 -0.0613
 6860SOL    HW132216   1.256   0.528   9.180 -0.3215  2.2222 -2.4798
 6860SOL    HW232217   1.134   0.616   9.218 -0.2652 -0.2258  0.1469
 6861SOL     OW32218   3.254   0.010  15.251  0.0280 -0.1893 -0.6670
 6861SOL    HW132219   3.258   0.039  15.342  4.0619  1.4994 -1.3558
 6861SOL    HW232220   3.214   0.077  15.196  1.3254  0.3795 -0.9254
 6862SOL     OW32221   0.793   1.249  15.518 -0.1023  0.0826  0.1431
 6862SOL    HW132222   0.742   1.323  15.486  0.1753  0.1547 -0.1327
 6862SOL    HW232223   0.881   1.287  15.512  0.6249 -1.6621 -0.2788
 6863SOL     OW32224   0.128   0.706   3.303 -0.2715  0.6436  0.4992
 6863SOL    HW132225   0.184   0.772   3.262 -1.4531 -0.1934 -2.4111
 6863SOL    HW232226   0.078   0.756   3.368 -2.4900 -1.5680  0.4945
 6864SOL     OW32227   0.546   0.126   0.735 -0.5595 -0.2775 -0.0209
 6864SOL    HW132228   0.585   0.097   0.653  2.1657  1.7784  0.5358
 6864SOL    HW232229   0.616   0.092   0.791 -0.2013  0.6713  0.1134
 6865SOL     OW32230   1.714   4.609  10.327 -0.0755 -0.5385 -0.4561
 6865SOL    HW132231   1.784   4.672  10.343 -1.7500  1.1390  0.2480
 6865SOL    HW232232   1.642   4.672  10.320 -0.1208 -0.5290  0.1067
 6866SOL     OW32233   3.448   4.236  15.127  0.0925 -0.3684  0.6237
 6866SOL    HW132234   3.513   4.306  15.121 -2.3266  1.7338 -0.7738
 6866SOL    HW232235   3.392   4.258  15.201  1.2473  2.8505  0.5321
 6867SOL     OW32236   1.599   0.056   9.706 -0.2908 -0.0130 -0.2295
 6867SOL    HW132237   1.641   4.709   9.694 -1.2129 -0.4344 -0.4677
 6867SOL    HW232238   1.645   0.121   9.652 -0.1715 -1.9730 -2.5421
 6868SOL     OW32239   0.009   1.151   7.812  0.2090 -0.5273  0.3548
 6868SOL    HW132240   4.655   1.162   7.793  0.3936  0.9979  0.3543
 6868SOL    HW232241   0.041   1.234   7.777  0.7561 -0.6361  0.5858
 6869SOL     OW32242   4.382   3.080   8.386  0.2882 -0.0546  0.2183
 6869SOL    HW132243   4.401   2.995   8.346  0.3746  1.8209 -3.6928
 6869SOL    HW232244   4.450   3.137   8.350 -0.9534  0.8854 -0.6442
 6870SOL     OW32245   2.859   3.514   4.336 -0.2802  0.8085  0.1797
 6870SOL    HW132246   2.804   3.436   4.327  0.8653  0.1985 -1.5927
 6870SOL    HW232247   2.937   3.480   4.379 -0.1785  0.5626 -0.1969
 6871SOL     OW32248   2.543   3.887  11.994 -0.7777 -0.2227  0.2774
 6871SOL    HW132249   2.453   3.907  11.968  0.4516  3.5874 -1.0134
 6871SOL    HW232250   2.596   3.900  11.915 -0.5317 -1.8406  0.1734
 6872SOL     OW32251   3.507   4.293  10.451  0.5260 -0.2710  0.3227
 6872SOL    HW132252   3.459   4.314  10.531 -0.0348 -0.1304 -0.0435
 6872SOL    HW232253   3.492   4.370  10.396 -0.2163 -0.0967  0.7704
 6873SOL     OW32254   1.728   4.298  16.533  0.5856  0.5442 -0.0694
 6873SOL    HW132255   1.686   4.380  16.557 -1.6668  0.0543 -2.3646
 6873SOL    HW232256   1.799   4.286  16.597  1.2371  2.0458 -0.5340
 6874SOL     OW32257   0.915   4.171  16.829 -0.0734 -0.7663  0.3074
 6874SOL    HW132258   1.000   4.128  16.832  0.6927  0.6959 -0.6443
 6874SOL    HW232259   0.903   4.205  16.741 -0.9781 -0.0721  0.6968
 6875SOL     OW32260   1.382   4.528  11.400 -0.1074  0.0137  0.0048
 6875SOL    HW132261   1.378   4.433  11.410 -0.6509 -0.0792 -1.1613
 6875SOL    HW232262   1.444   4.546  11.470 -0.5201 -1.8483  0.8704
 6876SOL     OW32263   2.242   3.477   4.749  0.4796 -0.2281  0.2626
 6876SOL    HW132264   2.257   3.501   4.657 -0.1221  1.2660  0.5568
 6876SOL    HW232265   2.187   3.549   4.779  0.5616 -0.3641  0.7379
 6877SOL     OW32266   0.074   3.813   3.747 -0.3659  0.0241  0.0896
 6877SOL    HW132267   0.113   3.730   3.773 -0.6057  0.5078  2.0576
 6877SOL    HW232268   0.034   3.778   3.667  1.2410  1.3259 -1.2797
 6878SOL     OW32269   0.088   1.423  10.180 -0.5340  0.4021  0.1896
 6878SOL    HW132270   4.736   1.404  10.157 -0.1367  0.7716 -1.6927
 6878SOL    HW232271   0.136   1.347  10.147 -0.5812  0.7428 -0.6637
 6879SOL     OW32272   4.344   4.713   7.984  0.9130 -0.0098 -0.5895
 6879SOL    HW132273   4.300   0.052   7.948  0.1633  0.0138  0.3645
 6879SOL    HW232274   4.423   0.005   8.028 -0.2632  0.4283  1.2165
 6880SOL     OW32275   1.932   0.319   3.243  0.0246  0.0581 -0.6675
 6880SOL    HW132276   1.857   0.273   3.281  1.4303 -1.9332 -0.3122
 6880SOL    HW232277   1.992   0.301   3.315  0.8284 -0.0297 -1.3529
 6881SOL     OW32278   0.407   1.061   2.300  0.1554 -0.1696  0.2941
 6881SOL    HW132279   0.423   1.149   2.335  1.4962 -0.4035  0.2623
 6881SOL    HW232280   0.471   1.013   2.351  0.1321  0.1664  0.6376
 6882SOL     OW32281   3.440   4.338   8.676 -0.1764  0.0027  0.6621
 6882SOL    HW132282   3.364   4.345   8.618  0.2506  4.4968  0.6415
 6882SOL    HW232283   3.426   4.248   8.707  0.2928 -0.3096 -0.0147
 6883SOL     OW32284   1.743   4.445   7.270 -0.2106 -0.7443  0.3286
 6883SOL    HW132285   1.677   4.414   7.207 -0.0111  0.0462 -0.2691
 6883SOL    HW232286   1.821   4.397   7.240  0.2418  0.5815 -0.6007
 6884SOL     OW32287   3.753   4.338   4.914  0.0302  0.0549  0.2504
 6884SOL    HW132288   3.666   4.312   4.884  0.0560  1.0845 -0.6953
 6884SOL    HW232289   3.805   4.277   4.861 -0.2356 -0.7654  0.9264
 6885SOL     OW32290   1.992   0.410   2.992  0.2278  0.4587  0.1553
 6885SOL    HW132291   1.937   0.392   3.069 -0.0831  1.7896  0.2593
 6885SOL    HW232292   2.081   0.425   3.023  0.5403 -0.5706 -0.2745
 6886SOL     OW32293   1.918   4.419   4.912 -0.7083 -0.1198 -0.2280
 6886SOL    HW132294   1.842   4.422   4.969  0.4428  0.9918  1.2653
 6886SOL    HW232295   1.901   4.498   4.861  3.1137 -0.3140 -1.8075
 6887SOL     OW32296   2.024   0.154  13.108 -0.1272  0.2836 -0.1178
 6887SOL    HW132297   1.995   0.233  13.153 -3.3848 -0.4982 -0.8484
 6887SOL    HW232298   2.079   0.111  13.174  2.9759 -0.2114 -3.0462
 6888SOL     OW32299   2.031   1.303   1.702  0.2064 -0.0525 -0.1508
 6888SOL    HW132300   1.935   1.308   1.697  0.2504  1.2312  0.3285
 6888SOL    HW232301   2.046   1.397   1.691  1.8209 -0.3224 -0.2806
 6889SOL     OW32302   3.745   2.517   0.795 -0.3918  0.0649 -0.5093
 6889SOL    HW132303   3.805   2.508   0.869  0.2775  0.5341 -1.0004
 6889SOL    HW232304   3.782   2.441   0.750  2.0680  1.4347 -0.7816
 6890SOL     OW32305   2.607   1.081   5.731 -0.3001 -0.4240  0.4526
 6890SOL    HW132306   2.664   1.151   5.701 -1.4594  0.5975  0.6643
 6890SOL    HW232307   2.582   1.049   5.644 -1.8387 -0.8359  1.0434
 6891SOL     OW32308   3.271   1.039   4.325 -0.4907  0.4938 -0.0281
 6891SOL    HW132309   3.319   1.084   4.255 -0.5090  2.1388  1.0191
 6891SOL    HW232310   3.223   0.979   4.267  0.7470  1.5715 -2.1670
 6892SOL     OW32311   0.385   2.950  16.453 -0.0649 -0.4109  0.4332
 6892SOL    HW132312   0.394   2.856  16.463 -0.8067 -0.6232 -0.9350
 6892SOL    HW232313   0.305   2.946  16.400  0.2616 -0.9095 -0.0152
 6893SOL     OW32314   4.674   2.205   2.836  0.1960  0.1289  0.2827
 6893SOL    HW132315   4.691   2.299   2.844 -2.8496  0.5118  2.0327
 6893SOL    HW232316   4.615   2.186   2.909  0.5430  0.2663  0.5952
 6894SOL     OW32317   2.899   1.689   3.054  0.1047 -0.0929 -0.0822
 6894SOL    HW132318   2.941   1.604   3.069  0.0371 -0.6327 -2.8642
 6894SOL    HW232319   2.910   1.740   3.134  0.9240 -0.4921  0.0654
 6895SOL     OW32320   0.330   4.667  15.519 -0.2904 -0.4313 -0.1745
 6895SOL    HW132321   0.245   4.693  15.554 -1.1299  0.6387 -3.0629
 6895SOL    HW232322   0.391   4.715  15.576 -0.1065 -1.3943  0.4397
 6896SOL     OW32323   4.097   2.698   1.167  0.0663 -0.1654 -0.7241
 6896SOL    HW132324   4.146   2.764   1.215 -0.8514  0.2859 -0.4033
 6896SOL    HW232325   4.062   2.640   1.235  0.1652  1.8456  1.0395
 6897SOL     OW32326   2.769   2.010   3.061  0.2900  0.7488  0.2333
 6897SOL    HW132327   2.731   1.928   3.028  1.6931  1.7487 -3.8482
 6897SOL    HW232328   2.782   1.984   3.152 -0.8066 -2.0413 -0.4059
 6898SOL     OW32329   0.533   0.615   5.109 -0.0089  0.8373  0.1443
 6898SOL    HW132330   0.449   0.643   5.074  0.7902  2.0578 -0.7880
 6898SOL    HW232331   0.505   0.578   5.193  2.3208  3.1011  1.9112
 6899SOL     OW32332   3.618   0.372   1.907 -0.1591 -0.3659  0.2161
 6899SOL    HW132333   3.557   0.299   1.897 -1.1565  0.2250  1.8954
 6899SOL    HW232334   3.695   0.320   1.930  0.0962 -0.4071 -0.7467
 6900SOL     OW32335   1.211   0.661   3.480 -0.1353  0.2445  0.0101
 6900SOL    HW132336   1.146   0.708   3.532 -1.6497  0.4814 -2.1049
 6900SOL    HW232337   1.237   0.599   3.548  0.2140 -0.4497 -0.7552
 6901SOL     OW32338   0.164   4.368   7.171 -0.0019 -0.7082 -0.7923
 6901SOL    HW132339   0.159   4.280   7.134 -0.6704 -1.8819  2.0318
 6901SOL    HW232340   0.070   4.373   7.188 -0.1668  1.6034 -2.4303
 6902SOL     OW32341   0.402   2.185   5.994 -0.5819 -0.3649  0.3120
 6902SOL    HW132342   0.364   2.212   6.078 -0.2760  0.8040  0.0745
 6902SOL    HW232343   0.313   2.169   5.961 -0.0991 -1.8858 -0.2307
 6903SOL     OW32344   2.624   4.442  17.134 -0.5993  0.2252  0.4815
 6903SOL    HW132345   2.532   4.467  17.145 -1.7398 -3.3717 -0.9702
 6903SOL    HW232346   2.619   4.347  17.129  0.6327  0.1801  0.2087
 6904SOL     OW32347   1.483   0.342   7.124 -0.3177 -0.4001  0.1982
 6904SOL    HW132348   1.453   0.427   7.092 -0.0955  0.5869  2.6220
 6904SOL    HW232349   1.413   0.289   7.085  0.4748 -0.3412 -1.3138
 6905SOL     OW32350   3.794   4.250   5.456 -0.3222  0.0382  0.0337
 6905SOL    HW132351   3.824   4.330   5.413  1.3766  0.3427  1.7883
 6905SOL    HW232352   3.714   4.272   5.504 -0.6185 -0.6127 -0.1690
 6906SOL     OW32353   2.727   1.699   9.278  0.1194  0.5985  0.7406
 6906SOL    HW132354   2.722   1.636   9.206  1.2014  0.6381  0.6175
 6906SOL    HW232355   2.674   1.653   9.343 -1.0467 -0.5993 -1.0734
 6907SOL     OW32356   2.487   4.052   4.267  0.4047 -0.1347 -0.0479
 6907SOL    HW132357   2.518   3.999   4.341  1.3877 -3.5107 -2.8873
 6907SOL    HW232358   2.420   3.992   4.233 -0.5325 -0.3476  2.1742
 6908SOL     OW32359   1.764   4.428   4.181  0.1939 -0.2417  0.2450
 6908SOL    HW132360   1.825   4.372   4.134 -0.4363 -0.8436  0.1324
 6908SOL    HW232361   1.716   4.360   4.229  0.3951 -0.8697 -0.4347
 6909SOL     OW32362   3.877   2.279   5.129 -0.3593 -0.5871 -0.0216
 6909SOL    HW132363   3.853   2.211   5.192  4.0276 -0.3713  1.8593
 6909SOL    HW232364   3.822   2.355   5.147  0.0055 -0.4259  0.4048
 6910SOL     OW32365   0.952   0.206   7.902 -0.1583 -0.8823 -0.0217
 6910SOL    HW132366   0.883   0.140   7.898 -0.4031 -0.6648  0.6537
 6910SOL    HW232367   0.943   0.257   7.821 -1.2557  0.1338  0.7407
 6911SOL     OW32368   4.423   0.514  14.611 -0.0140 -0.0537 -0.0107
 6911SOL    HW132369   4.492   0.554  14.664 -1.3850  1.9771  0.2323
 6911SOL    HW232370   4.441   0.556  14.527  1.0140  0.0949  0.2768
 6912SOL     OW32371   0.109   2.363   4.302  0.0321  0.6487  0.4391
 6912SOL    HW132372   0.123   2.454   4.275 -3.7968  1.3183  0.7052
 6912SOL    HW232373   0.134   2.314   4.223 -0.5628  0.4596  0.3659
 6913SOL     OW32374   1.636   2.734   6.379 -0.7509 -0.1438 -0.0854
 6913SOL    HW132375   1.546   2.701   6.378 -0.0913 -1.7975 -2.6646
 6913SOL    HW232376   1.685   2.663   6.338  1.2304 -1.4846  4.6177
 6914SOL     OW32377   4.068   2.646  12.026 -0.6700  0.1105 -0.7002
 6914SOL    HW132378   4.065   2.636  12.122 -0.7179 -1.4425 -0.8563
 6914SOL    HW232379   4.129   2.579  11.996 -0.0159  0.6005 -0.4575
 6915SOL     OW32380   0.246   4.430   9.408 -0.0726 -0.1085  0.8286
 6915SOL    HW132381   0.303   4.505   9.425 -1.4176  1.4068 -1.4114
 6915SOL    HW232382   0.271   4.413   9.317 -1.9898  1.1439  0.0748
 6916SOL     OW32383   3.076   2.461   6.015 -0.4114 -0.0975  0.5594
 6916SOL    HW132384   2.995   2.430   5.975 -0.5310  1.4266 -0.3701
 6916SOL    HW232385   3.054   2.533   6.074 -0.9112 -0.2208  0.5198
 6917SOL     OW32386   2.685   3.956   2.848 -0.2665  0.0443 -0.4486
 6917SOL    HW132387   2.747   4.028   2.846 -0.2618  0.0331 -0.7676
 6917SOL    HW232388   2.711   3.901   2.774 -1.6459 -1.9661  0.5379
 6918SOL     OW32389   1.176   0.133   5.961  0.0604 -0.3396  0.6769
 6918SOL    HW132390   1.244   0.081   6.005 -0.1901 -1.8616 -0.7049
 6918SOL    HW232391   1.227   0.206   5.927  1.0239 -0.9784  0.7276
 6919SOL     OW32392   0.933   3.697   9.107 -0.0539 -0.2116 -0.7607
 6919SOL    HW132393   0.918   3.611   9.068  0.1810 -0.7025  0.2442
 6919SOL    HW232394   1.024   3.711   9.080  0.7539 -2.8931  0.6206
 6920SOL     OW32395   2.206   1.807  14.675  0.1380  0.0988  0.0062
 6920SOL    HW132396   2.176   1.852  14.755 -0.9182 -2.1431  0.8634
 6920SOL    HW232397   2.190   1.716  14.699 -1.4309 -0.1065 -1.8602
 6921SOL     OW32398   3.218   0.745   5.909  0.4138 -0.7133 -0.0112
 6921SOL    HW132399   3.282   0.779   5.845  0.9912 -1.3424  0.2283
 6921SOL    HW232400   3.247   0.654   5.916 -1.4743 -1.4270 -1.3105
 6922SOL     OW32401   4.670   1.993   3.055 -0.0044  0.1325  0.1254
 6922SOL    HW132402   4.670   2.065   3.118  2.1595 -0.1142  0.4121
 6922SOL    HW232403   0.016   1.989   3.012  0.1795 -0.9919  0.6007
 6923SOL     OW32404   2.912   0.591  14.851 -0.2385  0.2839  0.1474
 6923SOL    HW132405   2.842   0.526  14.863 -1.1051  1.2424  0.2704
 6923SOL    HW232406   2.972   0.560  14.783  0.1707 -0.7092  0.9586
 6924SOL     OW32407   2.201   3.464   8.857 -0.2584  0.0034 -0.1888
 6924SOL    HW132408   2.107   3.446   8.870 -0.2975 -1.2937 -2.2238
 6924SOL    HW232409   2.204   3.550   8.814  0.6221 -0.3509 -0.8377
 6925SOL     OW32410   4.730   4.544   4.624 -0.1909  0.5321 -0.4061
 6925SOL    HW132411   0.054   4.590   4.569  0.3670 -2.2521 -2.1149
 6925SOL    HW232412   4.670   4.517   4.554  0.0963 -0.6865 -0.1868
 6926SOL     OW32413   4.460   3.134   6.690  0.1657  0.3801  0.1472
 6926SOL    HW132414   4.460   3.193   6.615 -0.4132 -0.7958 -0.7614
 6926SOL    HW232415   4.387   3.168   6.741 -0.9913 -0.9260 -0.6552
 6927SOL     OW32416   2.356   1.280  14.974  0.1905  0.4686  0.5526
 6927SOL    HW132417   2.295   1.312  15.040  0.8421 -0.2878  1.5364
 6927SOL    HW232418   2.339   1.343  14.904  0.6424  0.8904  0.8229
 6928SOL     OW32419   2.883   1.809   3.302  0.4320  0.1134 -0.2360
 6928SOL    HW132420   2.872   1.726   3.348  2.4238 -0.9317 -1.6198
 6928SOL    HW232421   2.803   1.858   3.319 -0.8683 -2.5764  1.2860
 6929SOL     OW32422   3.659   2.553   5.726  0.0954 -0.4450 -0.1922
 6929SOL    HW132423   3.746   2.565   5.764 -0.1934  1.8582 -0.2738
 6929SOL    HW232424   3.611   2.523   5.804 -0.0988  2.5169  0.8278
 6930SOL     OW32425   1.338   3.381   0.131 -0.1197 -0.0270 -1.0239
 6930SOL    HW132426   1.268   3.385   0.065 -0.9342  2.4351  0.0080
 6930SOL    HW232427   1.306   3.451   0.187 -0.5277 -0.0980 -1.1705
 6931SOL     OW32428   3.658   2.920   4.871 -0.4097  0.0268 -0.9019
 6931SOL    HW132429   3.737   2.928   4.816  0.2511 -3.0898 -0.4117
 6931SOL    HW232430   3.694   2.928   4.959  0.2330  1.3963 -1.2903
 6932SOL     OW32431   2.584   2.789   9.564  0.5594  0.3424  0.1338
 6932SOL    HW132432   2.629   2.858   9.514 -0.2162 -0.4234 -1.6083
 6932SOL    HW232433   2.492   2.812   9.554  0.4773  0.3493  0.8997
 6933SOL     OW32434   2.332   2.871   2.798 -0.0376 -0.2707 -0.0632
 6933SOL    HW132435   2.319   2.965   2.795  0.1219 -0.1798  1.7067
 6933SOL    HW232436   2.244   2.852   2.831  0.9468 -1.0522  2.1327
 6934SOL     OW32437   3.194   0.916   3.935 -0.4212 -0.2960  0.0209
 6934SOL    HW132438   3.217   0.841   3.880 -0.2287 -0.8957  0.9137
 6934SOL    HW232439   3.218   0.987   3.875  0.3765 -0.7229 -0.1794
 6935SOL     OW32440   0.752   3.518   6.070 -0.4786  0.0026 -0.8203
 6935SOL    HW132441   0.799   3.449   6.023 -0.1253  0.9161 -1.8245
 6935SOL    HW232442   0.744   3.476   6.155  0.6212  0.6374 -0.4049
 6936SOL     OW32443   4.617   4.692  14.299 -0.2437 -0.7708 -0.2505
 6936SOL    HW132444   4.577   0.006  14.230  1.2054  0.4213 -0.1765
 6936SOL    HW232445   4.693   0.008  14.318 -1.1615  0.6213 -0.5979
 6937SOL     OW32446   0.397   3.430   3.216  0.6733  0.1666  0.2239
 6937SOL    HW132447   0.348   3.512   3.217  2.7761  1.3975  1.5205
 6937SOL    HW232448   0.443   3.428   3.299 -0.7190  1.7014  1.0204
 6938SOL     OW32449   3.996   0.446   5.031 -0.0852 -0.2302  0.3038
 6938SOL    HW132450   4.039   0.433   5.116 -0.3900  0.2316  0.5294
 6938SOL    HW232451   3.993   0.542   5.037  1.4633 -0.1280 -0.6830
 6939SOL     OW32452   1.388   2.590  15.038  0.1938  0.3383 -0.0753
 6939SOL    HW132453   1.341   2.672  15.045  0.9197  0.8921 -1.5878
 6939SOL    HW232454   1.482   2.611  15.032  0.3574 -0.4620 -0.3371
 6940SOL     OW32455   2.824   4.042   8.499  0.2753  0.6000  0.0497
 6940SOL    HW132456   2.905   3.995   8.519  0.0341  0.1203 -0.0918
 6940SOL    HW232457   2.842   4.087   8.417  2.3618  2.7322  1.6818
 6941SOL     OW32458   0.933   3.191  10.139 -0.0733 -0.1135  0.6067
 6941SOL    HW132459   0.892   3.212  10.223 -2.4230  2.2802 -1.1518
 6941SOL    HW232460   0.974   3.273  10.111  0.3693 -1.0205 -1.3613
 6942SOL     OW32461   4.731   2.825  14.962  0.1827  0.0909  0.2827
 6942SOL    HW132462   4.716   2.743  14.915  1.8923  0.3116 -0.6769
 6942SOL    HW232463   0.086   2.844  14.948 -0.6922  2.4092 -2.4024
 6943SOL     OW32464   4.442   0.333  14.322 -0.4874 -0.0482  0.2904
 6943SOL    HW132465   4.492   0.405  14.361 -0.0242 -0.7369  0.9645
 6943SOL    HW232466   4.353   0.367  14.317 -1.0665 -1.6081 -0.1913
 6944SOL     OW32467   3.985   3.883   6.689  0.1814 -0.4219 -0.5345
 6944SOL    HW132468   4.020   3.827   6.758 -1.5274 -3.2451 -1.9547
 6944SOL    HW232469   3.894   3.906   6.706  0.6148  1.5036 -0.7885
 6945SOL     OW32470   1.158   1.165  16.493  0.0053 -0.0783 -0.4392
 6945SOL    HW132471   1.183   1.087  16.542 -1.5201  0.1302  0.6527
 6945SOL    HW232472   1.192   1.238  16.545  0.3600 -0.5225 -0.0524
 6946SOL     OW32473   1.289   2.870   5.231  0.0302  0.4461 -0.1191
 6946SOL    HW132474   1.357   2.881   5.164  1.8817 -1.0487  1.5095
 6946SOL    HW232475   1.348   2.872   5.306  1.5402  2.3024 -1.3769
 6947SOL     OW32476   3.532   0.854  13.672 -0.0573  0.4768 -0.2610
 6947SOL    HW132477   3.594   0.838  13.743  1.0876 -3.0604 -2.0741
 6947SOL    HW232478   3.450   0.855  13.721  1.0726  0.2103  1.6342
 6948SOL     OW32479   2.478   0.636   6.456 -0.6268  0.3113 -0.0321
 6948SOL    HW132480   2.408   0.590   6.502 -0.3370  0.8669  0.9726
 6948SOL    HW232481   2.450   0.639   6.365 -2.2670  2.9507  0.5649
 6949SOL     OW32482   3.304   0.832  10.844  0.1994 -0.1519  0.1474
 6949SOL    HW132483   3.302   0.926  10.863  1.7521 -0.4694  1.7630
 6949SOL    HW232484   3.384   0.823  10.793  0.4330  0.3766  0.4143
 6950SOL     OW32485   0.415   0.787  16.796  0.1420  0.0906 -0.0734
 6950SOL    HW132486   0.506   0.795  16.825 -1.0266  0.3813  3.5196
 6950SOL    HW232487   0.362   0.817  16.870 -1.9229 -0.7209 -1.2213
 6951SOL     OW32488   1.730   1.154   5.204 -0.1420 -0.1137  0.4463
 6951SOL    HW132489   1.784   1.107   5.141  0.6404 -1.3601  2.0504
 6951SOL    HW232490   1.688   1.093   5.264  1.5113 -0.2235  1.4780
 6952SOL     OW32491   4.494   3.276  13.074  0.6866 -0.0947 -0.0030
 6952SOL    HW132492   4.470   3.211  13.140  0.3014  1.1247  1.0514
 6952SOL    HW232493   4.499   3.357  13.124 -0.2274  1.8331 -3.0369
 6953SOL     OW32494   0.012   1.177   9.657 -0.5691  0.1791  0.1086
 6953SOL    HW132495   0.036   1.241   9.724  0.5103 -0.3931  0.2547
 6953SOL    HW232496   4.667   1.200   9.615 -1.3423 -0.5665  1.2367
 6954SOL     OW32497   0.014   1.757   4.443 -0.1725  0.2086  0.0014
 6954SOL    HW132498   4.669   1.779   4.484 -0.5985  0.2166 -0.8926
 6954SOL    HW232499   0.063   1.738   4.524 -0.3727 -0.0810  0.0550
 6955SOL     OW32500   3.567   0.507   3.145  0.5260  0.6169  0.0877
 6955SOL    HW132501   3.489   0.491   3.093  1.6693  1.1311 -1.7967
 6955SOL    HW232502   3.547   0.482   3.235 -1.3524  2.0193  0.0576
 6956SOL     OW32503   4.324   3.350   9.700 -0.7111  0.2290 -0.5462
 6956SOL    HW132504   4.390   3.413   9.669  1.3902 -0.0445  3.2662
 6956SOL    HW232505   4.335   3.280   9.636  0.1660  0.4832 -0.6719
 6957SOL     OW32506   4.332   2.441  17.436  0.2650  0.6050 -0.1529
 6957SOL    HW132507   4.400   2.388  17.477  0.5808  1.6036  0.6054
 6957SOL    HW232508   4.259   2.419  17.494  1.6889  0.1926  1.4634
 6958SOL     OW32509   2.046   0.666  17.502  0.6630  0.4842  0.7669
 6958SOL    HW132510   2.136   0.691  17.481  1.0434 -1.3578  0.1983
 6958SOL    HW232511   2.062   0.582  17.547  2.1524  1.7836  2.6546
 6959SOL     OW32512   3.464   1.665  10.711 -0.5663 -0.0797  0.4114
 6959SOL    HW132513   3.455   1.639  10.619  1.1402 -1.9153  0.7805
 6959SOL    HW232514   3.415   1.748  10.711 -0.5729 -0.0852  2.0463
 6960SOL     OW32515   0.293   3.676   6.896  0.0470  0.0155  0.4382
 6960SOL    HW132516   0.341   3.746   6.853  0.7908 -0.2218  0.8738
 6960SOL    HW232517   0.208   3.695   6.857 -0.2736  1.4895  1.8955
 6961SOL     OW32518   2.214   2.712   0.787 -0.0847 -0.2247 -0.2621
 6961SOL    HW132519   2.172   2.660   0.718 -1.4559 -0.7914  1.0083
 6961SOL    HW232520   2.135   2.765   0.798 -1.0707 -1.8002  0.1195
 6962SOL     OW32521   4.204   0.702   8.141 -0.3117  0.5485 -0.1543
 6962SOL    HW132522   4.262   0.667   8.210 -0.4950  0.2955 -0.1274
 6962SOL    HW232523   4.255   0.711   8.061 -1.1317  2.1018 -0.4878
 6963SOL     OW32524   2.308   3.242   7.906  0.4546  0.6681  0.1447
 6963SOL    HW132525   2.376   3.308   7.898 -1.2822  2.4077 -0.2222
 6963SOL    HW232526   2.320   3.202   7.820  0.5221 -0.0095  0.4657
 6964SOL     OW32527   2.753   2.438   3.529  0.5351 -0.0302  0.2356
 6964SOL    HW132528   2.783   2.351   3.556 -0.3061  1.0701  4.8255
 6964SOL    HW232529   2.830   2.464   3.478  1.0392 -0.0731  0.9642
 6965SOL     OW32530   3.999   1.536  16.495 -0.4534  0.7985 -0.2389
 6965SOL    HW132531   4.011   1.447  16.528 -2.8186 -0.7166 -3.5184
 6965SOL    HW232532   4.033   1.528  16.406 -1.7388  1.3155 -0.7724
 6966SOL     OW32533   4.281   0.885  15.365 -0.2013 -0.5442 -0.4862
 6966SOL    HW132534   4.375   0.898  15.381 -0.8272  1.3211  1.6371
 6966SOL    HW232535   4.287   0.812  15.303 -1.0087 -0.6773 -0.4052
 6967SOL     OW32536   1.758   4.234   8.974  0.3161  0.5054 -0.4416
 6967SOL    HW132537   1.724   4.151   9.007 -1.0458  0.8747 -0.9018
 6967SOL    HW232538   1.674   4.272   8.946 -0.6333 -0.1467  1.4894
 6968SOL     OW32539   4.528   0.069   5.309  0.3926  0.1404  0.0021
 6968SOL    HW132540   4.571   0.122   5.376 -0.3602  0.8578 -0.0911
 6968SOL    HW232541   4.441   0.081   5.347  0.4928  0.3965  0.1555
 6969SOL     OW32542   1.483   1.705  11.489 -0.3765 -0.3350 -0.2490
 6969SOL    HW132543   1.402   1.738  11.452  0.2966  0.8183 -0.6717
 6969SOL    HW232544   1.523   1.651  11.421  0.5211  2.2563 -1.7747
 6970SOL     OW32545   2.084   1.575   5.073  0.4949  0.1259 -0.5773
 6970SOL    HW132546   2.009   1.609   5.121 -0.1636 -1.3380 -0.5638
 6970SOL    HW232547   2.156   1.591   5.133 -1.1477  0.1051  1.4277
 6971SOL     OW32548   1.475   1.357   7.184 -0.1560  0.6040 -0.5611
 6971SOL    HW132549   1.384   1.382   7.168 -1.0852 -0.4706  3.0496
 6971SOL    HW232550   1.481   1.410   7.263  0.2012  0.3915 -0.4419
 6972SOL     OW32551   3.338   1.021   5.764  0.1841 -0.3747 -0.1645
 6972SOL    HW132552   3.371   0.935   5.737 -0.4332 -0.0490 -1.9211
 6972SOL    HW232553   3.423   1.062   5.782 -0.0577  0.1195 -0.1643
 6973SOL     OW32554   3.703   3.611   1.785  0.1909 -0.5055 -0.7220
 6973SOL    HW132555   3.663   3.559   1.855  0.7028  0.9558  0.6657
 6973SOL    HW232556   3.624   3.656   1.752 -1.2170 -2.6797 -0.2903
 6974SOL     OW32557   3.560   0.141   8.031  0.4537 -0.1707  0.1002
 6974SOL    HW132558   3.538   0.130   7.939  0.4986 -0.7276  0.1563
 6974SOL    HW232559   3.637   0.193   8.010 -0.6928  1.9981  1.2888
 6975SOL     OW32560   3.526   4.171   7.764  0.2402 -0.1099 -0.5422
 6975SOL    HW132561   3.567   4.175   7.677  2.3180  0.5572  0.4797
 6975SOL    HW232562   3.606   4.158   7.814 -0.7527  2.3860  1.6899
 6976SOL     OW32563   0.140   1.527   7.879  0.3337  0.3882 -0.2764
 6976SOL    HW132564   0.232   1.541   7.855 -0.2209 -0.4738 -3.0041
 6976SOL    HW232565   0.154   1.482   7.962  3.2966  1.4636 -0.1828
 6977SOL     OW32566   2.691   1.382   0.389 -0.1912 -0.0870 -0.3116
 6977SOL    HW132567   2.609   1.345   0.357  0.0170 -0.8153  0.0007
 6977SOL    HW232568   2.682   1.476   0.371 -1.5534 -0.3587 -1.0215
 6978SOL     OW32569   4.565   2.669   8.768 -0.0230 -0.8236  0.9796
 6978SOL    HW132570   4.652   2.645   8.801 -0.7162 -3.5080  0.8560
 6978SOL    HW232571   4.586   2.752   8.724 -2.3657 -0.8479 -0.1888
 6979SOL     OW32572   4.242   0.114   9.372 -0.0375  0.1881  0.1760
 6979SOL    HW132573   4.198   0.033   9.398 -0.3863  0.3933  0.2183
 6979SOL    HW232574   4.165   0.171   9.368 -0.0755  0.2993  2.4153
 6980SOL     OW32575   3.673   4.424   2.122 -0.2315  0.0395 -0.7852
 6980SOL    HW132576   3.674   4.448   2.029  0.9106  1.1382 -0.4826
 6980SOL    HW232577   3.602   4.480   2.151  0.1239  0.6388 -1.0779
 6981SOL     OW32578   0.042   0.870   2.348 -0.0819 -0.1273 -0.2281
 6981SOL    HW132579   0.037   0.782   2.387 -0.2890 -0.5960 -1.3274
 6981SOL    HW232580   0.106   0.851   2.280  1.6286 -0.4098  1.4747
 6982SOL     OW32581   3.088   3.762  12.350 -0.3401 -0.2686 -0.5899
 6982SOL    HW132582   3.024   3.808  12.295  0.7806  1.2067 -0.6674
 6982SOL    HW232583   3.129   3.699  12.290  0.1426 -0.1386 -0.4014
 6983SOL     OW32584   3.952   1.544  13.119  0.3001  0.3603 -1.2564
 6983SOL    HW132585   3.862   1.570  13.103 -0.1502  0.4622  1.4523
 6983SOL    HW232586   3.960   1.499  13.035  0.2609  0.6486 -1.4161
 6984SOL     OW32587   3.727   1.752  15.568 -0.5820  0.6801  0.5082
 6984SOL    HW132588   3.789   1.731  15.497 -0.0464  0.2119  1.1109
 6984SOL    HW232589   3.662   1.793  15.512 -0.1213  0.7022 -0.0134
 6985SOL     OW32590   3.138   0.348   9.090 -0.1671  0.0181 -0.2910
 6985SOL    HW132591   3.103   0.321   9.175 -0.2403 -0.0766 -0.3512
 6985SOL    HW232592   3.079   0.420   9.069 -0.7699 -0.3612  0.1032
 6986SOL     OW32593   0.774   0.919   2.671 -0.1394  0.4106 -0.0546
 6986SOL    HW132594   0.761   0.874   2.754 -0.6056 -0.2810 -0.4982
 6986SOL    HW232595   0.788   1.010   2.696 -0.4256  0.9560 -1.9017
 6987SOL     OW32596   1.095   3.705  16.878 -0.1026 -0.9731  0.2571
 6987SOL    HW132597   1.182   3.741  16.894 -0.9135  0.4622  1.3491
 6987SOL    HW232598   1.038   3.775  16.911  1.1300  0.8332 -1.4886
 6988SOL     OW32599   4.507   4.396  12.925 -0.3024  0.1586  0.0650
 6988SOL    HW132600   4.528   4.428  13.013 -0.9306  0.9316 -0.0672
 6988SOL    HW232601   4.594   4.377  12.888 -0.1751  1.9718 -0.5906
 6989SOL     OW32602   2.639   0.535  17.346 -0.0255  0.4860 -0.2281
 6989SOL    HW132603   2.569   0.500  17.402  1.5990 -0.3989  1.2634
 6989SOL    HW232604   2.683   0.455  17.316 -0.2208 -0.2547  1.4623
 6990SOL     OW32605   2.682   2.259   3.004 -0.1606  0.1481  0.0076
 6990SOL    HW132606   2.624   2.226   2.936 -1.1596 -0.4963  1.1686
 6990SOL    HW232607   2.673   2.178   3.055 -2.3107 -0.9730 -2.1912
 6991SOL     OW32608   3.132   4.426  16.888  0.1501  0.1216 -0.0159
 6991SOL    HW132609   3.037   4.419  16.900  0.2800 -0.0716  0.9121
 6991SOL    HW232610   3.165   4.394  16.972 -1.5165 -3.1511 -0.6290
 6992SOL     OW32611   2.430   1.532   3.264 -0.6456 -0.4285 -0.1338
 6992SOL    HW132612   2.407   1.488   3.346  1.6509 -1.8208 -0.2164
 6992SOL    HW232613   2.355   1.504   3.212 -0.3128  0.4452 -1.0651
 6993SOL     OW32614   0.418   2.260   3.648 -0.0221 -0.4812 -0.1418
 6993SOL    HW132615   0.478   2.315   3.596 -0.7002  1.6390  1.2999
 6993SOL    HW232616   0.336   2.282   3.604 -0.7944 -0.7543  1.1840
 6994SOL     OW32617   2.371   3.433   0.772  0.3270  0.0024 -0.3351
 6994SOL    HW132618   2.412   3.385   0.844 -1.8317  1.4261  1.8832
 6994SOL    HW232619   2.354   3.357   0.717 -1.1266  0.1114 -0.0436
 6995SOL     OW32620   0.512   4.523   1.690  0.2142  0.0599  0.0810
 6995SOL    HW132621   0.471   4.604   1.721 -1.3156 -0.5836 -0.2561
 6995SOL    HW232622   0.582   4.522   1.756  0.2025 -0.0233  0.0927
 6996SOL     OW32623   1.632   0.761   4.011  0.0579 -0.0730  0.7576
 6996SOL    HW132624   1.691   0.738   4.082  0.0702  1.1279  1.1364
 6996SOL    HW232625   1.677   0.826   3.957  1.6231  0.7846  3.1140
 6997SOL     OW32626   1.721   4.622   6.400 -0.3609 -0.0557  0.1329
 6997SOL    HW132627   1.776   4.700   6.393  0.7844 -0.7914  0.9670
 6997SOL    HW232628   1.678   4.613   6.485 -0.6441 -2.3314 -0.2719
 6998SOL     OW32629   2.242   2.680   5.291  0.5926 -0.6527 -0.0237
 6998SOL    HW132630   2.158   2.650   5.257 -0.5132  1.9002  0.4568
 6998SOL    HW232631   2.222   2.734   5.368 -1.8014  1.5438 -2.2196
 6999SOL     OW32632   3.421   4.689   0.948  0.2511  0.6260  0.2694
 6999SOL    HW132633   3.363   4.726   1.015  0.7566 -1.8825  2.0724
 6999SOL    HW232634   3.468   0.033   0.938  0.7878  0.3425  0.5031
 7000SOL     OW32635   1.983   1.348   5.363 -0.2005  0.3165 -0.4246
 7000SOL    HW132636   2.023   1.434   5.362 -0.8237  0.6131 -0.0682
 7000SOL    HW232637   1.891   1.370   5.347 -0.0785  1.2795  0.2472
 7001SOL     OW32638   2.667   4.288   2.933 -0.6359  0.5128  0.1885
 7001SOL    HW132639   2.614   4.368   2.942 -1.1288  0.2605 -0.4856
 7001SOL    HW232640   2.626   4.232   2.998  1.2286  0.7073  1.5190
 7002SOL     OW32641   3.937   3.703   2.347  0.5146 -0.3373  0.2467
 7002SOL    HW132642   4.027   3.702   2.314  0.2189  0.3551 -0.5550
 7002SOL    HW232643   3.916   3.621   2.302  0.7401  0.0762 -0.6119
 7003SOL     OW32644   2.432   2.884   0.660 -0.6011  0.4901  0.6861
 7003SOL    HW132645   2.389   2.873   0.574  2.0458 -5.2807  0.1371
 7003SOL    HW232646   2.391   2.815   0.712  0.3581 -0.7814 -0.2638
 7004SOL     OW32647   4.350   0.972   3.161 -0.0342  0.6725  0.2067
 7004SOL    HW132648   4.282   1.036   3.140 -0.2060  0.5422  0.3617
 7004SOL    HW232649   4.431   1.019   3.141 -0.1672  0.6400 -0.3837
 7005SOL     OW32650   3.766   1.972   2.771 -0.2281 -0.9976  0.1977
 7005SOL    HW132651   3.806   1.939   2.852  0.3144  0.4130  0.5077
 7005SOL    HW232652   3.709   2.043   2.802  0.5154 -0.7816  1.0695
 7006SOL     OW32653   3.394   2.772  10.319  0.3304  0.2371  0.1163
 7006SOL    HW132654   3.400   2.798  10.227 -2.2476 -1.4561 -0.5524
 7006SOL    HW232655   3.300   2.789  10.329  0.1681 -0.0655 -0.9082
 7007SOL     OW32656   0.365   1.184   3.552  0.1954 -0.3892  0.2432
 7007SOL    HW132657   0.276   1.157   3.574  0.3774 -0.3923  0.9909
 7007SOL    HW232658   0.392   1.097   3.521  1.6896 -0.0382  0.5676
 7008SOL     OW32659   1.087   2.072   8.804  0.0530 -0.0888  0.0808
 7008SOL    HW132660   1.004   2.026   8.792  0.5494 -1.0188  0.2124
 7008SOL    HW232661   1.140   2.005   8.848 -0.0907  0.1334  0.6002
 7009SOL     OW32662   1.168   0.155   4.016  0.1987 -0.5688  0.0197
 7009SOL    HW132663   1.199   0.159   4.107 -1.3119 -0.2943  0.5223
 7009SOL    HW232664   1.229   0.214   3.972 -1.2917  2.7842  2.5016
 7010SOL     OW32665   3.658   3.211   7.099 -0.1025 -0.0714 -0.1098
 7010SOL    HW132666   3.632   3.207   7.191  0.3730  1.8094  0.0937
 7010SOL    HW232667   3.752   3.229   7.105 -0.5225  1.1155  2.8801
 7011SOL     OW32668   2.044   2.715   7.943  0.6101  0.1659 -0.2813
 7011SOL    HW132669   2.042   2.624   7.912 -0.5800 -0.1754  0.8011
 7011SOL    HW232670   2.110   2.715   8.011 -1.3075  0.2178  1.5868
 7012SOL     OW32671   1.394   4.393  13.645  0.3845  0.2719  0.0966
 7012SOL    HW132672   1.430   4.440  13.570 -2.3432  1.1511 -0.6558
 7012SOL    HW232673   1.373   4.462  13.708  0.7917 -0.1376  0.6847
 7013SOL     OW32674   0.536   4.095   2.039  0.6931  0.7641 -0.0233
 7013SOL    HW132675   0.619   4.080   2.083 -0.7576 -2.3363  1.7047
 7013SOL    HW232676   0.472   4.072   2.107  0.5118 -0.1446 -0.4911
 7014SOL     OW32677   0.503   2.257   8.814  0.1934 -0.7962 -0.1841
 7014SOL    HW132678   0.553   2.338   8.815  0.3370 -0.9389  2.5902
 7014SOL    HW232679   0.443   2.274   8.741 -0.3696  0.6860  0.6322
 7015SOL     OW32680   2.079   4.190   4.318 -0.1198  0.3622  0.2726
 7015SOL    HW132681   2.065   4.220   4.408  0.9651 -3.1792  1.6096
 7015SOL    HW232682   2.115   4.102   4.323 -1.1568 -0.1734 -1.5263
 7016SOL     OW32683   0.420   3.554  10.365  0.0401 -0.0204  0.0643
 7016SOL    HW132684   0.402   3.476  10.418 -1.3839  0.2326 -0.0606
 7016SOL    HW232685   0.515   3.570  10.364  0.2523 -1.1623  1.4343
 7017SOL     OW32686   1.445   3.344   4.733  0.4862  0.8543  0.1770
 7017SOL    HW132687   1.369   3.375   4.684  1.3590 -0.6026 -2.1079
 7017SOL    HW232688   1.409   3.264   4.770  0.0824  1.6664  1.5571
 7018SOL     OW32689   2.890   0.571   6.208  0.3218  0.3657 -0.1053
 7018SOL    HW132690   2.822   0.634   6.186 -0.2282 -0.0545  0.3877
 7018SOL    HW232691   2.946   0.574   6.131 -0.6610 -0.9569 -0.8666
 7019SOL     OW32692   4.572   1.257   1.777 -0.2407  0.3559 -0.0592
 7019SOL    HW132693   4.491   1.236   1.731  0.2684  0.7458 -1.1435
 7019SOL    HW232694   4.607   1.168   1.772  1.0525  0.8046  1.0085
 7020SOL     OW32695   4.043   0.149  13.171  0.3110  0.0515  0.4255
 7020SOL    HW132696   3.983   0.075  13.161  3.6142 -2.4460 -0.9433
 7020SOL    HW232697   3.991   0.224  13.141 -0.4896 -1.2754 -1.4840
 7021SOL     OW32698   1.714   0.921   6.291  0.1171 -0.3658  0.4889
 7021SOL    HW132699   1.749   0.874   6.215  0.3031  0.8691 -0.1781
 7021SOL    HW232700   1.783   0.909   6.357  0.2249  1.3075  0.6620
 7022SOL     OW32701   2.539   0.434   5.331  0.4588 -0.3561  0.1476
 7022SOL    HW132702   2.489   0.356   5.354  0.0716  0.2323  1.3382
 7022SOL    HW232703   2.467   0.497   5.324 -0.2913 -1.3617 -1.1869
 7023SOL     OW32704   0.635   3.101   4.064  0.1215 -0.2397 -0.2677
 7023SOL    HW132705   0.569   3.149   4.014 -0.3229  0.5650  1.0731
 7023SOL    HW232706   0.707   3.093   4.002  1.7604  2.2353  1.3291
 7024SOL     OW32707   3.873   0.764   5.212 -0.6215  0.0951 -0.1052
 7024SOL    HW132708   3.923   0.802   5.285 -1.6037  0.1369  0.5444
 7024SOL    HW232709   3.935   0.769   5.139  0.4461 -0.7098  0.7386
 7025SOL     OW32710   0.474   1.773   0.466 -0.3812 -0.1592  0.1109
 7025SOL    HW132711   0.401   1.721   0.498  0.5837 -1.4239  0.2467
 7025SOL    HW232712   0.547   1.711   0.469 -0.5755 -0.4469 -1.3494
 7026SOL     OW32713   3.288   0.840   1.699 -0.7117 -0.1689  0.8233
 7026SOL    HW132714   3.243   0.840   1.614  2.0308  2.5596 -0.6486
 7026SOL    HW232715   3.359   0.903   1.686  0.1395 -1.4309 -0.7182
 7027SOL     OW32716   3.700   3.343  17.161  0.3366 -1.0024 -0.6046
 7027SOL    HW132717   3.698   3.249  17.181  0.6814 -0.8911 -0.0398
 7027SOL    HW232718   3.610   3.363  17.134  0.5201  0.2806 -0.2642
 7028SOL     OW32719   0.349   0.040   3.182  0.0501 -0.2533 -0.9309
 7028SOL    HW132720   0.293   0.095   3.128  1.6280  2.6973  0.4397
 7028SOL    HW232721   0.305   0.046   3.267 -0.8969 -3.7156 -1.1671
 7029SOL     OW32722   3.787   4.052  13.496  1.1344  0.3643 -0.7812
 7029SOL    HW132723   3.847   4.099  13.554 -0.7336 -0.5858  1.9402
 7029SOL    HW232724   3.701   4.061  13.537  1.0445 -0.4989 -0.7732
 7030SOL     OW32725   0.570   2.565   6.460  0.5327 -0.5066 -0.3461
 7030SOL    HW132726   0.487   2.521   6.476 -1.2207  2.2187 -2.0134
 7030SOL    HW232727   0.621   2.526   6.531  0.2467 -0.9313 -0.3756
 7031SOL     OW32728   0.520   2.514  13.325 -0.4964  1.0809  0.0318
 7031SOL    HW132729   0.440   2.539  13.371  0.7147  1.2158  2.0555
 7031SOL    HW232730   0.583   2.533  13.395 -0.4707  1.5314 -0.1166
 7032SOL     OW32731   4.354   0.654   8.528 -0.2201  0.0874  0.3520
 7032SOL    HW132732   4.387   0.695   8.448 -3.1621  1.0832 -0.3787
 7032SOL    HW232733   4.434   0.614   8.560  1.2132  1.4899 -1.4855
 7033SOL     OW32734   3.681   3.584   7.046 -0.5541  0.3934  0.3288
 7033SOL    HW132735   3.632   3.583   7.128  0.0467  1.4110  0.7072
 7033SOL    HW232736   3.762   3.544   7.077  0.1144  2.7692  1.6600
 7034SOL     OW32737   3.893   1.978   7.729 -0.3132  0.0008  0.2452
 7034SOL    HW132738   3.881   2.033   7.806  0.4661  0.6109 -0.0664
 7034SOL    HW232739   3.828   1.910   7.746  0.0183 -0.8338 -1.8417
 7035SOL     OW32740   2.731   4.608  16.091  0.8073 -1.0737  0.4129
 7035SOL    HW132741   2.812   4.659  16.095 -0.4286  1.0013 -1.2191
 7035SOL    HW232742   2.672   4.684  16.093  3.2429  0.8260 -0.2995
 7036SOL     OW32743   3.259   0.140   8.475 -0.2977  0.1694 -0.0901
 7036SOL    HW132744   3.338   0.099   8.439  0.6645  0.5460  1.5780
 7036SOL    HW232745   3.262   0.228   8.438 -0.4189  1.0714  2.0596
 7037SOL     OW32746   2.498   3.122   0.556  0.0196  0.3935 -0.4483
 7037SOL    HW132747   2.411   3.156   0.536 -0.4561 -0.3741  0.3033
 7037SOL    HW232748   2.476   3.056   0.622  0.7987  0.5563 -0.0127
 7038SOL     OW32749   3.564   1.525   4.563  0.1117 -0.2831  0.0660
 7038SOL    HW132750   3.622   1.542   4.638  1.2743  0.8223 -1.0965
 7038SOL    HW232751   3.622   1.484   4.499  0.4691  1.0923 -0.5053
 7039SOL     OW32752   1.619   3.460   0.636 -0.1478  0.5779 -0.1664
 7039SOL    HW132753   1.710   3.472   0.608  0.2602 -0.9570  0.5183
 7039SOL    HW232754   1.581   3.424   0.556 -0.9888  1.0464  0.0148
 7040SOL     OW32755   1.522   2.358   7.927  0.5562  0.0021  0.0038
 7040SOL    HW132756   1.552   2.294   7.863 -0.5228 -1.3770  0.8767
 7040SOL    HW232757   1.604   2.399   7.953 -0.0111  1.9565 -1.2006
 7041SOL     OW32758   1.233   2.568   1.892  0.1810 -0.1371  0.1673
 7041SOL    HW132759   1.299   2.537   1.955  1.4095  1.3965 -0.3835
 7041SOL    HW232760   1.179   2.611   1.958 -0.9666  0.6050 -1.2567
 7042SOL     OW32761   2.054   3.465   1.607 -0.0145  0.0479 -0.9029
 7042SOL    HW132762   2.130   3.410   1.626  0.0417  1.1328  2.0050
 7042SOL    HW232763   2.054   3.463   1.511  0.8715 -0.5623 -0.8902
 7043SOL     OW32764   3.521   1.134   9.068  0.3544  0.0947 -0.5329
 7043SOL    HW132765   3.461   1.065   9.097 -0.6298  1.9030  1.7149
 7043SOL    HW232766   3.506   1.141   8.974 -0.5048  0.8770 -0.3400
 7044SOL     OW32767   0.345   1.748   7.649 -0.4444  0.1414 -0.0147
 7044SOL    HW132768   0.299   1.664   7.646  0.9455 -0.6466  0.3906
 7044SOL    HW232769   0.287   1.810   7.692 -2.3554 -1.9392  0.3596
 7045SOL     OW32770   0.733   2.889  10.261 -0.1471 -0.7031 -0.6858
 7045SOL    HW132771   0.722   2.975  10.302  1.1130 -0.1586 -1.4582
 7045SOL    HW232772   0.790   2.848  10.326 -2.4746  0.1525  1.8652
 7046SOL     OW32773   4.244   1.683  14.959 -0.2015 -0.4364 -0.3987
 7046SOL    HW132774   4.233   1.686  14.864 -0.2002  0.9683 -0.3475
 7046SOL    HW232775   4.311   1.615  14.971  1.9176  1.3841 -1.9150
 7047SOL     OW32776   1.536   2.689  12.052  0.8029  0.6286 -0.2739
 7047SOL    HW132777   1.466   2.624  12.063 -0.1118  1.4055 -1.5166
 7047SOL    HW232778   1.572   2.675  12.139 -0.4274  0.2494  0.1766
 7048SOL     OW32779   2.912   4.092   1.878  0.0707 -0.2960 -0.2146
 7048SOL    HW132780   2.954   4.068   1.961 -0.9494  2.0508  0.9973
 7048SOL    HW232781   2.841   4.028   1.876 -0.2329  0.0397 -0.1473
 7049SOL     OW32782   2.244   0.587   4.139 -0.4283 -0.2751  0.3410
 7049SOL    HW132783   2.151   0.565   4.138 -0.0930 -1.6693  0.1782
 7049SOL    HW232784   2.259   0.537   4.219 -0.0329  0.1556  0.5395
 7050SOL     OW32785   2.280   0.221   3.266  0.5795 -1.2008 -0.1340
 7050SOL    HW132786   2.213   0.225   3.334 -1.2318 -0.0664 -1.9723
 7050SOL    HW232787   2.357   0.256   3.310  1.0694 -2.2047 -0.1933
 7051SOL     OW32788   1.686   3.417  17.397  0.1858  0.8175 -0.0170
 7051SOL    HW132789   1.719   3.339  17.441 -1.4172  0.9988  1.5361
 7051SOL    HW232790   1.616   3.439  17.459  0.9885  0.3457  1.0536
 7052SOL     OW32791   2.347   3.025  14.251  0.1076 -0.0989  0.3929
 7052SOL    HW132792   2.315   2.941  14.218 -0.2843  0.4470 -0.6145
 7052SOL    HW232793   2.293   3.081  14.196 -3.0064 -1.3149  2.2021
 7053SOL     OW32794   0.127   3.843   7.865 -0.0019  0.7714  0.8587
 7053SOL    HW132795   0.204   3.800   7.827 -1.7145 -1.1156 -0.5078
 7053SOL    HW232796   0.167   3.896   7.933 -0.3737  1.5516  0.4705
 7054SOL     OW32797   0.388   1.750   9.885 -0.2718 -0.4588 -0.0395
 7054SOL    HW132798   0.322   1.688   9.917  0.5261 -0.6912  1.1811
 7054SOL    HW232799   0.463   1.706   9.926 -1.2217  0.3889  2.6188
 7055SOL     OW32800   0.993   0.128   2.338  0.1157 -0.1952  0.0171
 7055SOL    HW132801   0.919   0.079   2.303 -1.4323  0.6959  1.9903
 7055SOL    HW232802   0.970   0.216   2.308  0.9691 -0.5550 -1.6568
 7056SOL     OW32803   3.750   2.714   5.394  0.4195 -0.0716 -0.3706
 7056SOL    HW132804   3.834   2.674   5.371 -0.9388 -2.8922 -0.5325
 7056SOL    HW232805   3.713   2.628   5.416 -0.7216  0.4622 -0.2167
 7057SOL     OW32806   3.307   3.462   9.167  0.2698  0.3659  0.1241
 7057SOL    HW132807   3.384   3.406   9.160  1.1601  1.6051  0.0033
 7057SOL    HW232808   3.271   3.423   9.247  4.7484  1.5571  2.7466
 7058SOL     OW32809   3.957   1.269   0.424  0.0187 -0.3425  0.0147
 7058SOL    HW132810   3.882   1.312   0.466 -0.8743 -2.4874  0.6442
 7058SOL    HW232811   3.908   1.247   0.344 -0.4467 -0.9172  0.4561
 7059SOL     OW32812   1.899   4.546   1.831  0.2305 -0.6159  0.1950
 7059SOL    HW132813   1.990   4.562   1.854  0.5396 -0.2683 -1.2696
 7059SOL    HW232814   1.852   4.630   1.835 -1.2705 -1.4142 -0.6185
 7060SOL     OW32815   0.684   2.128   5.923 -0.0289  0.3677  0.0798
 7060SOL    HW132816   0.691   2.168   5.836 -2.8208  1.3254  0.2837
 7060SOL    HW232817   0.590   2.139   5.935 -0.1434  0.2869 -0.7838
 7061SOL     OW32818   4.253   2.840   1.360 -0.1216 -0.1905  0.0961
 7061SOL    HW132819   4.246   2.807   1.450 -4.8621 -1.0372 -0.5913
 7061SOL    HW232820   4.182   2.905   1.360  0.3812  0.3632  2.9219
 7062SOL     OW32821   1.701   0.189   9.512 -0.2207  0.5781 -0.0389
 7062SOL    HW132822   1.750   0.171   9.431 -1.6211  0.4871 -0.8662
 7062SOL    HW232823   1.648   0.264   9.486 -1.3370 -0.4670 -0.7740
 7063SOL     OW32824   3.981   1.128   2.924  0.4385  0.0276  0.1208
 7063SOL    HW132825   4.039   1.107   2.997  0.8284 -3.5618 -1.1953
 7063SOL    HW232826   3.976   1.223   2.934 -0.0356  0.0159 -0.0041
 7064SOL     OW32827   1.743   0.950   9.237  0.0274  0.8214  0.0301
 7064SOL    HW132828   1.661   0.998   9.244 -1.1512 -1.3495  0.7357
 7064SOL    HW232829   1.723   0.872   9.289 -2.1792  2.4784  1.6760
 7065SOL     OW32830   1.987   3.415   3.638  0.2698  0.1697  0.1549
 7065SOL    HW132831   1.905   3.422   3.688  1.6993  1.2264  2.3218
 7065SOL    HW232832   1.971   3.331   3.595 -0.0542  0.1478  0.3159
 7066SOL     OW32833   4.386   1.762   5.978 -0.6484  0.1832  0.0366
 7066SOL    HW132834   4.421   1.851   5.978 -0.1574  0.0015 -1.7983
 7066SOL    HW232835   4.298   1.778   6.011 -0.4709 -1.1760  1.1611
 7067SOL     OW32836   3.392   0.042   3.010  0.5373 -0.2936 -0.0665
 7067SOL    HW132837   3.460   4.716   3.026 -0.3149 -1.3093 -0.4920
 7067SOL    HW232838   3.313   4.728   2.996 -1.0286  1.5103  2.0312
 7068SOL     OW32839   1.080   1.266   7.495 -0.0219  0.2274  0.5518
 7068SOL    HW132840   1.133   1.188   7.514  1.1485  0.7327 -0.5963
 7068SOL    HW232841   1.116   1.299   7.412 -1.4134  1.6002  0.5060
 7069SOL     OW32842   4.322   0.323  17.243  0.4764 -0.3092  0.6694
 7069SOL    HW132843   4.412   0.351  17.232  0.5754 -0.4242  1.2107
 7069SOL    HW232844   4.291   0.385  17.309  1.0336  2.6944 -1.9079
 7070SOL     OW32845   4.158   3.923   6.131  1.0634 -0.4593  0.0354
 7070SOL    HW132846   4.093   3.952   6.195  0.0554  0.0873 -1.2517
 7070SOL    HW232847   4.100   3.898   6.059  2.4998  1.8287 -1.8743
 7071SOL     OW32848   1.856   2.478   8.159 -0.0102 -0.3290 -0.5589
 7071SOL    HW132849   1.829   2.395   8.118  1.4820 -1.4526  0.7101
 7071SOL    HW232850   1.951   2.472   8.149  0.0274  0.7003 -0.7213
 7072SOL     OW32851   1.698   0.242   1.415  0.0643  0.0557 -0.2299
 7072SOL    HW132852   1.725   0.249   1.324  0.0306 -0.3312 -0.2677
 7072SOL    HW232853   1.764   0.180   1.446  0.6229  0.3134 -0.9171
 7073SOL     OW32854   0.725   4.014   7.870  0.2787  0.1652 -0.0892
 7073SOL    HW132855   0.767   4.002   7.956  1.7791  0.7664 -0.7498
 7073SOL    HW232856   0.753   3.933   7.829  1.3420  0.3174  0.3249
 7074SOL     OW32857   2.130   1.214   6.628 -0.1938 -0.0021  0.4991
 7074SOL    HW132858   2.125   1.235   6.721  1.0783 -2.6705  1.1685
 7074SOL    HW232859   2.183   1.135   6.639 -2.2057 -1.2295  1.4271
 7075SOL     OW32860   1.302   2.064   7.174 -0.3954 -0.3174  0.2020
 7075SOL    HW132861   1.353   2.143   7.156 -2.3593  1.2137  1.2859
 7075SOL    HW232862   1.332   2.037   7.261  1.1150  0.4137 -0.1031
 7076SOL     OW32863   1.653   0.095  14.443  0.3576 -0.4135 -0.5749
 7076SOL    HW132864   1.610   0.104  14.358  2.3840  0.4447 -1.4866
 7076SOL    HW232865   1.577   0.082  14.500  1.2971  0.6465  0.9491
 7077SOL     OW32866   2.598   1.278   4.073  0.1991  0.1565 -0.6614
 7077SOL    HW132867   2.641   1.325   4.144 -1.3125 -2.3979  1.9623
 7077SOL    HW232868   2.628   1.189   4.090 -0.1817 -0.1623 -1.6523
 7078SOL     OW32869   2.807   1.276  13.533 -0.0525  0.1104  0.3101
 7078SOL    HW132870   2.796   1.370  13.524 -0.2403  0.2323  1.7573
 7078SOL    HW232871   2.874   1.272  13.465  0.3880  3.8990  0.5154
 7079SOL     OW32872   0.183   2.512   5.326  0.3176 -0.0812  0.2050
 7079SOL    HW132873   0.169   2.444   5.261 -1.3735  0.9883 -0.5623
 7079SOL    HW232874   0.142   2.589   5.285 -1.5532  0.0763  2.3575
 7080SOL     OW32875   4.281   0.906   9.988  0.0435 -0.2617  0.1024
 7080SOL    HW132876   4.346   0.919  10.057 -1.5433 -3.1816  2.1813
 7080SOL    HW232877   4.320   0.933   9.905 -1.6093  0.5790 -0.3865
 7081SOL     OW32878   0.333   3.757   8.743  0.2347  0.1147 -0.4678
 7081SOL    HW132879   0.239   3.739   8.753 -0.1118  1.5481 -1.0544
 7081SOL    HW232880   0.360   3.730   8.831 -0.5727  1.1531  0.1132
 7082SOL     OW32881   1.229   0.094  17.521 -0.0298 -0.1111 -0.2048
 7082SOL    HW132882   1.271   0.135  17.445  2.4482 -0.0374  1.2019
 7082SOL    HW232883   1.144   0.135  17.534  0.4206  0.7295  0.0978
 7083SOL     OW32884   4.471   2.004   8.238  0.0421 -0.1800  0.4833
 7083SOL    HW132885   4.504   2.027   8.151 -1.3970  0.1757  0.0344
 7083SOL    HW232886   4.412   1.931   8.222 -0.3752 -0.0897  1.6292
 7084SOL     OW32887   2.285   2.328   6.223 -0.2766 -0.9330  0.7467
 7084SOL    HW132888   2.315   2.361   6.307  1.0141  0.5412 -0.2778
 7084SOL    HW232889   2.319   2.391   6.160 -1.6809 -2.4816 -1.5936
 7085SOL     OW32890   1.879   1.808   7.442  0.5682 -1.0105  0.0236
 7085SOL    HW132891   1.950   1.833   7.383  0.4578  0.8346  0.6935
 7085SOL    HW232892   1.806   1.805   7.379  0.4559  0.3768  0.1011
 7086SOL     OW32893   3.562   2.734   6.029 -0.0921  0.2153 -0.0968
 7086SOL    HW132894   3.584   2.643   6.045  1.0002  0.8798  2.1906
 7086SOL    HW232895   3.473   2.733   5.994 -1.6984 -3.0242  4.0462
 7087SOL     OW32896   4.109   0.839   1.073  0.0202 -0.2947 -0.5233
 7087SOL    HW132897   4.174   0.868   1.009 -0.0716 -3.2308 -1.9379
 7087SOL    HW232898   4.155   0.837   1.157 -1.0369 -2.1510  0.0169
 7088SOL     OW32899   0.852   3.183   3.868  0.3937  0.2816 -0.4042
 7088SOL    HW132900   0.937   3.211   3.903 -0.6537  1.3492  1.2647
 7088SOL    HW232901   0.800   3.258   3.895  1.1096  0.1833  1.2436
 7089SOL     OW32902   2.267   2.376   2.855  0.9776 -0.4276  0.4447
 7089SOL    HW132903   2.278   2.283   2.832 -0.3698 -0.4773  0.0122
 7089SOL    HW232904   2.293   2.422   2.775  0.2394 -1.7821 -0.5745
 7090SOL     OW32905   3.594   1.276   1.991 -0.2867  0.7540 -0.0634
 7090SOL    HW132906   3.582   1.340   2.061 -1.0266  0.9236 -0.3542
 7090SOL    HW232907   3.574   1.194   2.038 -0.4374  1.7996  1.6872
 7091SOL     OW32908   4.132   1.454  17.381  0.6616 -0.1725  0.5589
 7091SOL    HW132909   4.093   1.442  17.294  1.9790 -1.6834  0.1811
 7091SOL    HW232910   4.090   1.397  17.445 -0.0570 -0.4800 -0.1902
 7092SOL     OW32911   4.208   2.596  10.309  0.0224 -0.4475 -0.5552
 7092SOL    HW132912   4.197   2.663  10.241 -3.6047 -0.3815  0.1039
 7092SOL    HW232913   4.299   2.569  10.298 -0.1844 -1.5243  0.4519
 7093SOL     OW32914   3.401   4.195   1.650 -0.0762  0.3197 -0.0967
 7093SOL    HW132915   3.318   4.241   1.661 -1.1758 -1.7279  0.3129
 7093SOL    HW232916   3.367   4.107   1.665  1.7099 -0.2312  0.7283
 7094SOL     OW32917   0.360   2.802   1.524  0.4113 -0.1081 -0.6184
 7094SOL    HW132918   0.266   2.788   1.512  0.4740 -0.8136 -0.3038
 7094SOL    HW232919   0.353   2.866   1.596  0.6485 -0.7407 -0.0357
 7095SOL     OW32920   4.280   2.659   8.757  0.5117 -0.4870  0.1670
 7095SOL    HW132921   4.269   2.752   8.739 -0.1280 -0.1479  2.3269
 7095SOL    HW232922   4.374   2.658   8.743  0.4552 -0.5423 -0.2227
 7096SOL     OW32923   4.045   4.131   5.412  0.2590  0.1057 -0.0470
 7096SOL    HW132924   4.010   4.071   5.346  0.5130  1.3990 -1.3827
 7096SOL    HW232925   3.970   4.190   5.407  0.4205  0.4709  1.9207
 7097SOL     OW32926   3.817   0.276  13.446 -0.0775 -0.0256 -0.8345
 7097SOL    HW132927   3.798   0.343  13.380 -0.7050  0.2691 -0.3597
 7097SOL    HW232928   3.726   0.249  13.458  0.3207 -0.5738  0.8665
 7098SOL     OW32929   4.232   0.419   6.328 -0.2379 -0.1577  0.0469
 7098SOL    HW132930   4.276   0.500   6.353  0.4133 -0.0946 -1.3122
 7098SOL    HW232931   4.281   0.391   6.251 -1.9367  0.9267 -1.4144
 7099SOL     OW32932   2.242   0.450   0.985  0.2099  0.3093 -0.0002
 7099SOL    HW132933   2.173   0.513   0.965  1.1113  1.0597 -0.7422
 7099SOL    HW232934   2.203   0.363   0.994  2.0687 -0.4350  0.8912
 7100SOL     OW32935   0.647   0.343   6.926  0.3450  0.0170  0.0443
 7100SOL    HW132936   0.706   0.303   6.862  0.6524  0.4250  0.0751
 7100SOL    HW232937   0.680   0.307   7.008 -0.8831  0.6949  0.8383
 7101SOL     OW32938   4.191   0.497   3.991 -0.1449 -0.2764 -0.1367
 7101SOL    HW132939   4.131   0.538   4.053 -1.2420 -0.0507 -1.3465
 7101SOL    HW232940   4.185   0.556   3.915  1.4501  1.3408  1.0077
 7102SOL     OW32941   1.921   1.733   4.276 -0.1966  0.0609  0.1117
 7102SOL    HW132942   1.876   1.810   4.311 -0.4617  0.1994 -0.5428
 7102SOL    HW232943   1.849   1.695   4.225 -0.4882  0.8346 -0.0492
 7103SOL     OW32944   2.315   3.571  13.398  0.0203  0.1026  0.0533
 7103SOL    HW132945   2.391   3.627  13.382  0.0720 -0.3816 -1.4058
 7103SOL    HW232946   2.362   3.503  13.447  0.6583  0.5824  0.1144
 7104SOL     OW32947   3.191   2.518  12.966 -0.2382  0.7196 -0.2596
 7104SOL    HW132948   3.180   2.526  12.871 -0.0370  0.7664 -0.2781
 7104SOL    HW232949   3.280   2.549  12.981 -0.1302  0.3130 -0.0831
 7105SOL     OW32950   3.410   2.903   7.859  1.1290  0.1025  0.2727
 7105SOL    HW132951   3.450   2.961   7.793 -0.2511 -0.3971 -1.0064
 7105SOL    HW232952   3.482   2.842   7.876  1.5309  0.3947 -0.3630
 7106SOL     OW32953   0.638   1.135   7.245 -0.0004 -0.8610  0.1670
 7106SOL    HW132954   0.587   1.156   7.323 -0.5741 -0.6995 -0.2452
 7106SOL    HW232955   0.720   1.133   7.294  0.3937  0.3425 -0.4490
 7107SOL     OW32956   2.468   2.880   8.805  0.0677 -0.4012  0.3831
 7107SOL    HW132957   2.545   2.828   8.825  0.9368  0.8393  0.2875
 7107SOL    HW232958   2.488   2.921   8.720 -1.5827 -0.0106  0.1763
 7108SOL     OW32959   1.416   0.254   6.116  0.1456  0.1729 -0.7632
 7108SOL    HW132960   1.493   0.196   6.114 -0.2828 -0.3737 -1.3321
 7108SOL    HW232961   1.383   0.259   6.027 -0.7520  1.2104 -0.3672
 7109SOL     OW32962   3.033   4.031  17.488 -0.1672 -0.2007  0.1379
 7109SOL    HW132963   3.023   4.067  17.400  0.5107  0.9422  0.5221
 7109SOL    HW232964   3.115   4.071  17.516  0.3491 -0.5795 -0.8428
 7110SOL     OW32965   1.467   2.217   4.584 -0.0749  0.0672 -0.0401
 7110SOL    HW132966   1.518   2.286   4.540 -1.3970  0.2107 -1.3683
 7110SOL    HW232967   1.400   2.276   4.619 -1.0702 -1.1739  0.1423
 7111SOL     OW32968   3.401   3.911  13.144  0.3607 -0.2682  0.4522
 7111SOL    HW132969   3.374   3.980  13.204  2.3599  2.8785 -2.3258
 7111SOL    HW232970   3.320   3.895  13.095  0.1719 -2.7915  1.5532
 7112SOL     OW32971   2.696   1.169   2.452 -1.2994 -0.3643  0.1919
 7112SOL    HW132972   2.717   1.171   2.546 -0.6680  1.1219  0.0252
 7112SOL    HW232973   2.737   1.245   2.412  1.5109 -1.1880  1.4937
 7113SOL     OW32974   2.064   1.254  14.040 -0.2598  0.1612 -0.2490
 7113SOL    HW132975   2.100   1.235  13.953 -3.9171 -1.3894 -1.4018
 7113SOL    HW232976   1.988   1.197  14.029 -0.0192 -0.0639 -0.7342
 7114SOL     OW32977   4.616   2.795   1.150  0.0226 -0.1761 -0.4385
 7114SOL    HW132978   4.600   2.722   1.210 -2.5056  0.0343 -0.8904
 7114SOL    HW232979   4.622   2.745   1.068 -0.0206 -0.8273 -0.0417
 7115SOL     OW32980   1.222   2.150   9.305 -0.0572  0.1574 -0.1104
 7115SOL    HW132981   1.158   2.189   9.245 -0.1401  1.6763  0.9849
 7115SOL    HW232982   1.163   2.091   9.352 -0.5667 -0.1156 -1.0836
 7116SOL     OW32983   3.438   3.484   3.189 -0.4663 -0.4160  0.3068
 7116SOL    HW132984   3.342   3.488   3.184 -0.4328  0.1709  0.1138
 7116SOL    HW232985   3.443   3.546   3.262  0.9184 -0.7646  0.4982
 7117SOL     OW32986   1.309   0.450   1.205 -0.7760  0.1564 -0.0624
 7117SOL    HW132987   1.396   0.447   1.165  0.1610  0.5944  1.9725
 7117SOL    HW232988   1.325   0.414   1.292  0.2058  0.4026 -0.1375
 7118SOL     OW32989   1.041   2.769   7.303 -0.2953  0.3084 -0.3875
 7118SOL    HW132990   0.956   2.770   7.348 -0.7885 -0.7548 -1.3034
 7118SOL    HW232991   1.089   2.703   7.353  0.3035 -0.0687 -1.4809
 7119SOL     OW32992   2.289   2.223  16.395  0.5246 -0.0462 -0.1120
 7119SOL    HW132993   2.383   2.204  16.400  0.9583  1.9735 -0.6866
 7119SOL    HW232994   2.264   2.196  16.483 -1.1506 -0.8558 -0.8291
 7120SOL     OW32995   4.409   0.237   2.439  0.1771 -0.2288  0.1016
 7120SOL    HW132996   4.334   0.295   2.455  0.8491  0.4899  0.6385
 7120SOL    HW232997   4.370   0.161   2.483 -2.6266  1.2080  0.1103
 7121SOL     OW32998   0.592   2.947   7.245 -0.4588 -0.0359  0.2060
 7121SOL    HW132999   0.621   3.034   7.220 -0.0672 -0.7309 -1.7364
 7121SOL    HW233000   0.497   2.942   7.250 -0.3786 -1.8058  0.0804
 7122SOL     OW33001   3.834   4.668   7.104 -0.0621  0.1721  0.1389
 7122SOL    HW133002   3.866   4.590   7.060  0.5990  0.8905 -0.6563
 7122SOL    HW233003   3.879   4.736   7.054  0.0705 -0.0784 -0.0792
 7123SOL     OW33004   0.323   0.783   9.699  0.4436  0.2965  0.0342
 7123SOL    HW133005   0.329   0.848   9.629 -1.7512  1.0589  0.5615
 7123SOL    HW233006   0.388   0.818   9.761  0.9084 -1.7095  0.6580
 7124SOL     OW33007   2.754   0.776   6.023 -0.3297 -0.5203 -0.1381
 7124SOL    HW133008   2.663   0.802   6.010 -0.1510 -0.9571 -2.3607
 7124SOL    HW233009   2.783   0.762   5.933  1.6983  1.4824  0.1976
 7125SOL     OW33010   0.578   4.727   8.805  0.4308  0.2810  0.3388
 7125SOL    HW133011   0.546   0.065   8.757  0.4372  1.0871  1.6278
 7125SOL    HW233012   0.510   4.712   8.871  0.7183  0.3938  0.6637
 7126SOL     OW33013   0.509   2.026   0.366 -0.5514 -0.3150  0.4631
 7126SOL    HW133014   0.557   2.058   0.443 -1.0016 -1.8874  1.4145
 7126SOL    HW233015   0.485   1.937   0.392 -0.5573  0.2067  2.2358
 7127SOL     OW33016   1.237   0.714   7.971 -0.0737  0.0467  0.0260
 7127SOL    HW133017   1.215   0.800   7.936 -0.7505  1.1194  3.1442
 7127SOL    HW233018   1.281   0.673   7.895  0.0627  0.3354 -0.0510
 7128SOL     OW33019   2.040   4.213   6.937  0.2075 -0.5126 -0.1899
 7128SOL    HW133020   2.130   4.182   6.931  0.7717  0.2094  4.0030
 7128SOL    HW233021   2.050   4.294   6.889 -3.7473  1.9246  3.0484
 7129SOL     OW33022   1.365   4.033  12.495  0.1119 -0.3841 -0.3395
 7129SOL    HW133023   1.332   3.963  12.439  0.7968 -1.8911  1.1445
 7129SOL    HW233024   1.393   4.079  12.416  1.2440 -3.3536 -1.6558
 7130SOL     OW33025   2.111   2.319  11.906 -0.2447  0.0005  0.0415
 7130SOL    HW133026   2.097   2.248  11.844 -1.2680 -0.1491  0.4322
 7130SOL    HW233027   2.023   2.356  11.900  1.0333  3.1393  0.7472
 7131SOL     OW33028   0.860   1.373   2.908  0.0355 -0.0964  0.5163
 7131SOL    HW133029   0.938   1.424   2.930  0.8384 -1.3477  0.5582
 7131SOL    HW233030   0.814   1.383   2.991 -0.9910 -0.1489 -0.0493
 7132SOL     OW33031   1.367   0.158   6.798 -0.0453 -0.1005  0.6972
 7132SOL    HW133032   1.338   0.188   6.884 -0.4571  0.7235  0.2680
 7132SOL    HW233033   1.459   0.141   6.817  0.1203  0.5625  0.4830
 7133SOL     OW33034   1.260   0.180   4.293 -0.0256 -0.0982  0.3640
 7133SOL    HW133035   1.200   0.118   4.335 -1.6056  2.5625  1.9590
 7133SOL    HW233036   1.228   0.264   4.325 -0.5092 -0.7468  1.5678
 7134SOL     OW33037   2.366   0.381   4.977 -0.2984  0.1776 -0.1205
 7134SOL    HW133038   2.338   0.296   4.944  2.9476 -0.7144 -0.5794
 7134SOL    HW233039   2.461   0.384   4.964 -0.4094  0.2768 -0.8939
 7135SOL     OW33040   2.035   0.063   9.093  0.0827  0.4777  0.3354
 7135SOL    HW133041   2.017   4.707   9.092 -2.2100  0.9067  1.5154
 7135SOL    HW233042   2.085   0.076   9.012  2.5926  0.6619  1.9437
 7136SOL     OW33043   3.080   2.278   8.119 -0.0708  0.4611 -0.0705
 7136SOL    HW133044   3.072   2.341   8.190  0.4637 -0.8327  1.1259
 7136SOL    HW233045   3.158   2.231   8.149 -0.5475 -1.5546 -1.9405
 7137SOL     OW33046   1.844   3.187   8.236  0.0912 -0.2703 -0.1019
 7137SOL    HW133047   1.922   3.240   8.223 -1.3780  2.0039  0.3090
 7137SOL    HW233048   1.867   3.108   8.189 -0.8397 -1.1716  0.9518
 7138SOL     OW33049   0.316   2.581   7.470  0.2520  0.1780 -0.3978
 7138SOL    HW133050   0.364   2.647   7.521  1.5151 -1.4491  0.5168
 7138SOL    HW233051   0.231   2.624   7.469  0.0470 -0.1693  2.4224
 7139SOL     OW33052   2.986   3.004   3.544 -0.3259 -0.6643 -0.7861
 7139SOL    HW133053   3.025   2.917   3.549  0.0118 -0.4431  0.3927
 7139SOL    HW233054   2.925   2.984   3.473 -1.1429 -1.8226  0.2396
 7140SOL     OW33055   1.061   1.923  13.972 -0.0669 -0.7477  0.0843
 7140SOL    HW133056   1.106   1.845  13.941  2.1583  1.5364 -2.5284
 7140SOL    HW233057   1.006   1.889  14.042  0.1960 -0.6623  0.3350
 7141SOL     OW33058   1.848   1.981  14.633  0.1012  0.1226 -0.0373
 7141SOL    HW133059   1.823   1.889  14.636 -2.3399  0.6971 -2.4567
 7141SOL    HW233060   1.937   1.964  14.665 -0.1056  0.2194  0.5900
 7142SOL     OW33061   2.389   1.533   5.680 -0.3143 -0.3670  0.6485
 7142SOL    HW133062   2.413   1.465   5.743  1.2889 -2.2607 -1.9921
 7142SOL    HW233063   2.370   1.469   5.611  1.5258 -0.6319  0.4041
 7143SOL     OW33064   3.225   1.074   8.967 -0.5181  0.5511 -0.0672
 7143SOL    HW133065   3.153   1.023   9.005 -1.1125 -0.2342 -2.1746
 7143SOL    HW233066   3.282   1.006   8.930  1.5709  0.3022  3.7010
 7144SOL     OW33067   3.395   3.859   8.877 -0.1437  0.0893  0.1544
 7144SOL    HW133068   3.443   3.851   8.959 -0.2324  1.0600  0.3082
 7144SOL    HW233069   3.395   3.769   8.846 -1.1783 -0.5525  2.0747
 7145SOL     OW33070   0.484   0.953   3.769  0.1796  0.7769 -0.4679
 7145SOL    HW133071   0.577   0.933   3.785  0.7706  2.6212 -1.4984
 7145SOL    HW233072   0.489   0.936   3.675  1.7805  0.4358 -0.3259
 7146SOL     OW33073   1.580   0.481   3.947 -0.0882  0.4360 -0.3372
 7146SOL    HW133074   1.528   0.558   3.967  0.8945  1.6910 -2.5944
 7146SOL    HW233075   1.509   0.430   3.908 -1.2787  0.1162  2.2855
 7147SOL     OW33076   3.554   2.605  17.679  0.7018  0.3051 -0.0828
 7147SOL    HW133077   3.581   2.678  17.735  1.5296 -0.1893  0.1739
 7147SOL    HW233078   3.461   2.625  17.667  0.6639 -0.3091 -0.8075
 7148SOL     OW33079   4.722   4.323   9.462 -0.5664 -0.4095 -0.0961
 7148SOL    HW133080   4.683   4.407   9.488  0.8128  0.2009 -0.0041
 7148SOL    HW233081   0.074   4.347   9.443 -0.4844 -1.1708 -0.6816
 7149SOL     OW33082   0.360   2.755  13.803  0.0192  0.1664 -0.1903
 7149SOL    HW133083   0.335   2.846  13.821  1.3207  0.8619 -1.8825
 7149SOL    HW233084   0.456   2.766  13.801 -0.1816  1.6526 -1.5705
 7150SOL     OW33085   0.402   3.749  16.199 -0.2366 -0.0759  0.4770
 7150SOL    HW133086   0.315   3.781  16.222 -0.2942  1.1759 -1.4250
 7150SOL    HW233087   0.376   3.711  16.114 -0.5584 -0.3202  0.6848
 7151SOL     OW33088   1.202   1.220  14.149  0.3861 -0.2871  0.1457
 7151SOL    HW133089   1.123   1.181  14.187  0.8697  0.0712  1.5080
 7151SOL    HW233090   1.245   1.257  14.226  1.9729  1.3514 -1.5180
 7152SOL     OW33091   4.101   3.547   8.760  0.1869 -0.3462 -0.3374
 7152SOL    HW133092   4.187   3.558   8.801 -0.6379  1.1243  1.0071
 7152SOL    HW233093   4.092   3.615   8.694  1.4301  1.5227  1.3840
 7153SOL     OW33094   4.445   4.635   6.431  0.1547 -0.1231  0.2380
 7153SOL    HW133095   4.406   4.713   6.392  0.8109  0.5006  0.8413
 7153SOL    HW233096   4.372   4.588   6.470 -1.2688  0.8552 -1.2346
 7154SOL     OW33097   0.162   2.828   3.708  0.4491  0.2611 -0.0338
 7154SOL    HW133098   0.096   2.833   3.777 -1.3524 -1.4431 -1.6563
 7154SOL    HW233099   0.204   2.913   3.724 -0.1834  0.7238 -0.7941
 7155SOL     OW33100   3.903   2.958   2.350 -0.7792 -0.5521 -0.1151
 7155SOL    HW133101   3.834   2.977   2.286  0.2230 -0.0956 -1.0613
 7155SOL    HW233102   3.862   2.882   2.392  1.0310 -0.7936  1.2276
 7156SOL     OW33103   4.316   0.952   7.149 -0.5394 -0.1161  0.0633
 7156SOL    HW133104   4.322   0.863   7.113 -1.6995 -1.1390  2.4615
 7156SOL    HW233105   4.226   0.982   7.147 -1.3932 -2.7117 -0.7947
 7157SOL     OW33106   4.713   0.484   2.146 -0.0694 -0.1576 -0.4680
 7157SOL    HW133107   0.059   0.486   2.103  0.1211 -0.0448 -0.0889
 7157SOL    HW233108   4.721   0.410   2.207 -1.9129 -0.6395 -0.8130
 7158SOL     OW33109   4.296   4.020   8.862 -0.0165 -0.1006  0.1030
 7158SOL    HW133110   4.282   4.094   8.803 -2.7290 -1.5066 -0.9978
 7158SOL    HW233111   4.327   4.063   8.942 -2.8881  1.1097  0.5634
 7159SOL     OW33112   1.033   1.154  14.403 -0.3529  0.3572  0.3004
 7159SOL    HW133113   1.019   1.131  14.495  1.1209  0.2220  0.4902
 7159SOL    HW233114   1.119   1.195  14.408 -0.1715  0.0813 -0.4213
 7160SOL     OW33115   0.628   0.767   6.338  0.0256  0.4915  0.2813
 7160SOL    HW133116   0.621   0.758   6.433  0.1593  2.1173  0.4457
 7160SOL    HW233117   0.546   0.725   6.310 -0.2486  0.2764  1.4043
 7161SOL     OW33118   1.288   2.113   5.436 -0.0440  0.4331  0.3124
 7161SOL    HW133119   1.252   2.101   5.524  0.5211 -0.5345  0.4099
 7161SOL    HW233120   1.382   2.100   5.449  0.2219  1.2441 -0.8819
 7162SOL     OW33121   1.349   4.238  12.804  0.2126  0.4573  0.5576
 7162SOL    HW133122   1.325   4.266  12.716  3.1723 -0.3734 -0.4964
 7162SOL    HW233123   1.368   4.324  12.843 -2.7320  0.9780  0.8724
 7163SOL     OW33124   0.698   2.107   3.965 -0.3064 -0.6919  0.1809
 7163SOL    HW133125   0.767   2.041   3.951  0.5513  0.3125 -0.3295
 7163SOL    HW233126   0.656   2.089   3.881 -0.6374 -0.1215  0.2248
 7164SOL     OW33127   0.633   2.147   2.572  0.0793  0.1468 -0.0029
 7164SOL    HW133128   0.623   2.176   2.663  1.1014 -3.2357  1.2063
 7164SOL    HW233129   0.543   2.138   2.542 -0.5848  0.4201  1.9306
 7165SOL     OW33130   0.373   0.843   8.673  0.8992  0.4652  0.3257
 7165SOL    HW133131   0.428   0.767   8.657  2.7905  2.1198 -1.1080
 7165SOL    HW233132   0.384   0.878   8.585 -1.7554  1.3962  0.3599
 7166SOL     OW33133   3.748   2.654   4.115  0.4483  0.4439  0.2016
 7166SOL    HW133134   3.826   2.617   4.073 -0.0807  1.1692 -1.4394
 7166SOL    HW233135   3.780   2.736   4.154  1.0570  0.5096 -0.4306
 7167SOL     OW33136   0.750   2.859   4.957  0.4426  0.2532 -0.6293
 7167SOL    HW133137   0.676   2.916   4.980  0.6214 -0.0557  0.7192
 7167SOL    HW233138   0.765   2.814   5.040 -1.6325  1.5844  0.4580
 7168SOL     OW33139   2.774   2.491   5.388  0.2730 -0.0310  0.3840
 7168SOL    HW133140   2.753   2.415   5.333 -1.1576 -0.1261  1.0623
 7168SOL    HW233141   2.869   2.486   5.375 -0.0276 -2.3884 -0.9102
 7169SOL     OW33142   0.365   0.665  14.915  0.1505 -0.2746  0.3316
 7169SOL    HW133143   0.348   0.742  14.969  2.2461  0.0395  0.5461
 7169SOL    HW233144   0.442   0.692  14.866  0.0895 -0.3462  0.1974
 7170SOL     OW33145   1.970   2.086  16.431 -0.0277 -0.2539 -0.0544
 7170SOL    HW133146   1.930   2.010  16.390  2.2230  0.4946 -3.6731
 7170SOL    HW233147   1.951   2.066  16.522  2.7470  0.7538  0.7615
 7171SOL     OW33148   1.779   4.500   0.470 -0.0910 -0.0296 -0.3303
 7171SOL    HW133149   1.816   4.470   0.553  0.6092  1.9108  0.0751
 7171SOL    HW233150   1.771   4.424   0.412 -1.1666  1.3838 -2.0696
 7172SOL     OW33151   0.447   1.028  12.221  0.1589 -0.7272  0.3997
 7172SOL    HW133152   0.381   1.093  12.245 -0.8694 -1.4440 -0.4571
 7172SOL    HW233153   0.524   1.069  12.260  0.0476 -0.6446  0.5345
 7173SOL     OW33154   2.233   2.716   3.157 -0.0499  0.2855  0.2008
 7173SOL    HW133155   2.231   2.625   3.129 -0.1406  1.1868 -2.6667
 7173SOL    HW233156   2.152   2.734   3.205 -1.5801  0.1517 -2.3586
 7174SOL     OW33157   2.649   2.991   5.363  0.3685  0.5400  0.1463
 7174SOL    HW133158   2.741   2.968   5.367  0.3724 -0.4321 -5.7454
 7174SOL    HW233159   2.594   2.915   5.383  2.0052 -0.9576 -1.0705
 7175SOL     OW33160   1.910   2.805   4.717  0.1052 -0.3778 -0.2672
 7175SOL    HW133161   1.842   2.870   4.702  0.5234  0.6172  2.0565
 7175SOL    HW233162   1.944   2.839   4.800  2.4523 -0.1744 -1.3204
 7176SOL     OW33163   0.780   0.564   6.528 -0.6845 -0.1506 -0.0329
 7176SOL    HW133164   0.721   0.489   6.540  0.2466 -0.8866 -0.0062
 7176SOL    HW233165   0.725   0.640   6.548  0.1957  1.3511 -3.2771
 7177SOL     OW33166   2.698   4.184   4.901  0.1061  0.6931  0.2444
 7177SOL    HW133167   2.698   4.203   4.807  0.1482 -0.7510 -0.0457
 7177SOL    HW233168   2.717   4.269   4.941  0.5326  0.6594  0.1228
 7178SOL     OW33169   0.057   0.824  14.048  0.1341 -0.0901  0.2073
 7178SOL    HW133170   0.115   0.897  14.031  1.7385 -1.6258 -0.8893
 7178SOL    HW233171   0.019   0.807  13.962  0.3864  3.2797 -0.5566
 7179SOL     OW33172   4.464   0.754   2.630 -0.1500 -0.2496 -0.4002
 7179SOL    HW133173   4.494   0.666   2.653 -1.0573 -0.1398  1.2487
 7179SOL    HW233174   4.537   0.811   2.654 -0.5392 -0.5237  1.4315
 7180SOL     OW33175   1.521   2.416  14.275 -0.2051  0.2983 -0.5286
 7180SOL    HW133176   1.573   2.384  14.202  0.9956 -0.0615  0.4724
 7180SOL    HW233177   1.430   2.393  14.261 -0.4225  0.5841  0.3933
 7181SOL     OW33178   3.898   0.099   4.241  1.0231  0.0096  0.2352
 7181SOL    HW133179   3.950   0.018   4.244  0.3944 -0.4528 -1.6721
 7181SOL    HW233180   3.816   0.088   4.195  0.2553  0.1167  1.5760
 7182SOL     OW33181   0.633   3.139   6.004 -0.1510 -0.2056 -0.2356
 7182SOL    HW133182   0.583   3.213   6.040  1.6575  1.9403 -2.0693
 7182SOL    HW233183   0.710   3.183   5.968 -1.2752  0.8254 -1.4134
 7183SOL     OW33184   2.943   1.413  10.096 -0.3177 -0.2479 -0.2401
 7183SOL    HW133185   2.955   1.372  10.010  1.8028 -1.2577  0.5465
 7183SOL    HW233186   2.941   1.505  10.069 -0.3412  0.3875  1.9531
 7184SOL     OW33187   2.731   2.098   1.695  0.2222 -0.4111  1.4060
 7184SOL    HW133188   2.826   2.099   1.703  0.5069 -0.8853 -1.8544
 7184SOL    HW233189   2.730   2.127   1.604 -1.9877  0.5623  1.7243
 7185SOL     OW33190   4.637   0.422  10.735  0.1979 -0.0004 -0.1796
 7185SOL    HW133191   4.727   0.401  10.707  0.8214  0.7502  1.2742
 7185SOL    HW233192   4.654   0.434  10.828  0.8954 -0.4889 -0.2467
 7186SOL     OW33193   1.683   2.549   4.954  0.2981  0.7733  0.4648
 7186SOL    HW133194   1.777   2.568   4.959  0.8451 -0.6589 -3.7689
 7186SOL    HW233195   1.689   2.460   4.919  1.8120  1.6579 -1.5145
 7187SOL     OW33196   1.383   0.815   2.299 -0.3997 -0.0178 -0.1764
 7187SOL    HW133197   1.358   0.907   2.292  1.9834  0.5820 -0.6477
 7187SOL    HW233198   1.383   0.791   2.392 -0.3212  0.4871 -0.0486
 7188SOL     OW33199   0.555   3.684   4.020 -0.0087  0.3448  0.1453
 7188SOL    HW133200   0.529   3.776   4.009  1.4000  0.7039 -0.1570
 7188SOL    HW233201   0.516   3.634   3.949 -3.2163  2.7328  0.2466
 7189SOL     OW33202   2.481   3.393  13.531 -0.2094  0.5145  0.2214
 7189SOL    HW133203   2.519   3.346  13.605 -0.2665 -1.3670 -0.9454
 7189SOL    HW233204   2.522   3.334  13.468 -1.2252  0.4559 -0.3869
 7190SOL     OW33205   0.510   1.683   8.206 -0.0741  0.4058 -0.0854
 7190SOL    HW133206   0.588   1.738   8.208 -0.5299  1.0782 -0.6833
 7190SOL    HW233207   0.503   1.647   8.117 -2.5593  0.6840 -0.0027
 7191SOL     OW33208   2.576   2.341   4.435 -0.5106  0.4496  0.3609
 7191SOL    HW133209   2.666   2.308   4.438 -0.7117 -0.2835 -1.5578
 7191SOL    HW233210   2.535   2.275   4.380 -2.2464  1.3947  0.5220
 7192SOL     OW33211   2.749   0.466  14.181 -0.2732 -0.1056 -0.4874
 7192SOL    HW133212   2.664   0.433  14.152 -0.0107 -0.0138 -1.3728
 7192SOL    HW233213   2.794   0.475  14.097  1.0753  1.7476  0.4219
 7193SOL     OW33214   0.835   1.224   9.649 -0.6176  0.0262  0.5528
 7193SOL    HW133215   0.841   1.276   9.729  3.4867 -0.6600  0.6855
 7193SOL    HW233216   0.802   1.142   9.685 -4.8995  0.9720 -1.1126
 7194SOL     OW33217   2.265   2.739   8.929  0.6049 -0.0382  0.0565
 7194SOL    HW133218   2.188   2.796   8.927  0.7039  0.0147 -1.8908
 7194SOL    HW233219   2.329   2.804   8.900 -0.4882  0.7739 -0.5539
 7195SOL     OW33220   2.076   3.791   7.929  0.0957  0.1086 -0.7437
 7195SOL    HW133221   2.155   3.741   7.949 -0.1338 -0.1040 -0.3774
 7195SOL    HW233222   2.021   3.729   7.881 -1.1421 -1.5173  2.7600
 7196SOL     OW33223   2.961   3.965   2.739  0.0771 -0.4743 -0.3134
 7196SOL    HW133224   3.034   4.010   2.695  0.0747  0.9900  1.1573
 7196SOL    HW233225   2.994   3.877   2.757 -0.8483 -0.7635 -0.0279
 7197SOL     OW33226   4.465   4.510  14.444 -0.4305  0.0577 -0.9404
 7197SOL    HW133227   4.510   4.575  14.390 -0.3667  0.5894 -0.2478
 7197SOL    HW233228   4.388   4.564  14.465 -0.3898  0.2164 -1.1966
 7198SOL     OW33229   0.544   1.711  15.953 -0.1022  0.1611 -0.6106
 7198SOL    HW133230   0.550   1.615  15.957  1.3143  0.2430 -0.8350
 7198SOL    HW233231   0.470   1.727  16.012  0.9092 -2.7095  1.4730
 7199SOL     OW33232   3.646   1.700   2.355 -0.3300 -0.5579  0.1547
 7199SOL    HW133233   3.688   1.741   2.430  0.2657 -0.4822 -0.2279
 7199SOL    HW233234   3.690   1.750   2.286 -0.5159 -0.2068  0.2916
 7200SOL     OW33235   1.307   3.699  17.525 -0.4378 -0.2223  0.6534
 7200SOL    HW133236   1.227   3.661  17.487  0.5619 -0.1444 -1.5453
 7200SOL    HW233237   1.311   3.773  17.464 -0.9489 -0.6220  0.1281
 7201SOL     OW33238   1.595   2.996   6.326 -0.2118  0.0068 -0.5332
 7201SOL    HW133239   1.613   2.907   6.354 -2.8139 -0.5167 -0.5393
 7201SOL    HW233240   1.534   3.025   6.394 -2.1260 -0.1756 -2.1711
 7202SOL     OW33241   2.196   2.500  16.408 -0.0139  0.1226 -0.0028
 7202SOL    HW133242   2.251   2.435  16.364 -0.2823 -1.2581  1.7001
 7202SOL    HW233243   2.133   2.519  16.338 -1.0035  0.4538  0.9824
 7203SOL     OW33244   1.601   3.985   2.558 -0.2561  0.1939  0.0213
 7203SOL    HW133245   1.660   3.914   2.532 -1.8812 -0.9795 -0.4610
 7203SOL    HW233246   1.645   4.035   2.627  0.6670  0.2552 -0.6150
 7204SOL     OW33247   0.518   2.491   9.828 -0.6999 -0.4631  0.3896
 7204SOL    HW133248   0.611   2.515   9.830 -0.3850 -1.7039  0.1887
 7204SOL    HW233249   0.519   2.399   9.852  0.6595 -0.4496  0.4221
 7205SOL     OW33250   1.241   3.421   4.560  0.0436 -0.2468  0.2834
 7205SOL    HW133251   1.226   3.419   4.465  1.4581 -0.7252  0.0828
 7205SOL    HW233252   1.205   3.504   4.591  1.0486 -0.7795  2.8655
 7206SOL     OW33253   4.621   2.831   7.343  0.1085  0.6491  0.2391
 7206SOL    HW133254   4.529   2.855   7.357  0.3270  1.6571 -0.0730
 7206SOL    HW233255   4.639   2.887   7.268  2.7789 -0.0625  0.3476
 7207SOL     OW33256   2.041   4.612   2.511 -0.0152 -0.2801 -0.1618
 7207SOL    HW133257   2.048   4.666   2.590 -0.8922 -0.6225  0.1423
 7207SOL    HW233258   2.039   4.686   2.450  0.2083 -1.1410 -1.2038
 7208SOL     OW33259   3.795   1.434  13.798 -0.0141  0.2196  0.4970
 7208SOL    HW133260   3.748   1.452  13.879 -0.5545  1.2808 -0.0550
 7208SOL    HW233261   3.884   1.448  13.829 -0.3312  0.4422  1.3077
 7209SOL     OW33262   3.678   1.223   2.651 -0.1942 -0.2537 -0.0788
 7209SOL    HW133263   3.714   1.287   2.589  0.6973  1.4812  2.2723
 7209SOL    HW233264   3.593   1.223   2.608  0.2082  0.1614 -0.8775
 7210SOL     OW33265   1.507   0.666   2.691  0.1028 -0.4355  0.1998
 7210SOL    HW133266   1.418   0.684   2.661  1.4101  2.1988 -2.1649
 7210SOL    HW233267   1.501   0.571   2.696 -0.9655 -0.3175  1.1917
 7211SOL     OW33268   2.119   1.481   6.620  0.0930  0.6113 -0.4003
 7211SOL    HW133269   2.156   1.513   6.703 -0.9824 -0.6264  0.5631
 7211SOL    HW233270   2.146   1.389   6.621 -2.1480 -0.0445 -0.2333
 7212SOL     OW33271   1.481   3.906  13.628 -0.4317  0.0664 -0.4088
 7212SOL    HW133272   1.487   3.970  13.698 -2.6933  1.3294 -1.3482
 7212SOL    HW233273   1.492   3.819  13.666  0.2288  1.9879  3.7754
 7213SOL     OW33274   3.445   1.111   9.674 -0.0278 -0.2749 -0.2294
 7213SOL    HW133275   3.479   1.200   9.660 -2.0871  0.4618 -0.5774
 7213SOL    HW233276   3.452   1.064   9.591 -0.0080 -1.6107  0.5279
 7214SOL     OW33277   2.293   1.731   1.984  0.0843 -0.1717  0.2375
 7214SOL    HW133278   2.311   1.695   1.897  1.5867 -0.0238  0.4857
 7214SOL    HW233279   2.231   1.667   2.019 -2.2484  2.1256  0.3836
 7215SOL     OW33280   1.724   0.452   9.651  0.1229 -0.3317  0.9676
 7215SOL    HW133281   1.739   0.362   9.677  1.7614 -0.5301 -0.6413
 7215SOL    HW233282   1.787   0.442   9.579  1.0968  0.7404  1.6698
 7216SOL     OW33283   4.173   0.334   1.147  0.7864  0.0764 -0.2122
 7216SOL    HW133284   4.100   0.395   1.133  0.6773  0.0293  0.1464
 7216SOL    HW233285   4.153   0.275   1.074  2.5855  1.5340 -1.8800
 7217SOL     OW33286   2.784   0.041  16.634 -0.0289 -0.3820  0.0684
 7217SOL    HW133287   2.706   0.038  16.578 -0.6964  0.1526  0.9637
 7217SOL    HW233288   2.734   0.029  16.715  0.6831  0.5174  0.6419
 7218SOL     OW33289   2.377   2.629   7.453 -0.2860  0.1883  0.2200
 7218SOL    HW133290   2.417   2.703   7.407  1.5511 -2.2430 -2.0818
 7218SOL    HW233291   2.413   2.548   7.416  1.2861  0.6078  0.8312
 7219SOL     OW33292   0.796   3.615   6.567  0.0408 -0.3213 -0.6822
 7219SOL    HW133293   0.830   3.704   6.554  3.2315 -1.6134 -1.0237
 7219SOL    HW233294   0.705   3.638   6.586  0.0516 -0.7804 -0.0908
 7220SOL     OW33295   1.711   2.510  14.995 -0.0633  0.0944 -0.1555
 7220SOL    HW133296   1.785   2.570  14.985 -0.1264  0.1750 -0.1387
 7220SOL    HW233297   1.717   2.486  15.088  2.2995 -0.9623 -0.5794
 7221SOL     OW33298   0.139   1.047   2.650  0.2008 -0.3315  0.3226
 7221SOL    HW133299   0.094   1.093   2.580 -0.6581 -0.8721  0.5123
 7221SOL    HW233300   0.097   1.087   2.726  0.5692 -2.3191  1.5631
 7222SOL     OW33301   2.190   3.127   8.173  0.2282  0.1768  0.5258
 7222SOL    HW133302   2.247   3.139   8.097  1.4851  1.0838  1.6219
 7222SOL    HW233303   2.135   3.199   8.142 -1.2169 -1.7178 -1.3778
 7223SOL     OW33304   3.455   3.010   7.150 -0.4968 -0.4404 -0.4512
 7223SOL    HW133305   3.457   3.016   7.055  1.1938 -1.4095 -0.4924
 7223SOL    HW233306   3.469   3.101   7.177 -1.0326 -0.8508  1.2567
 7224SOL     OW33307   3.088   0.458  16.643 -0.1156 -0.0340 -0.3544
 7224SOL    HW133308   3.047   0.373  16.660  0.3690 -0.2396 -0.2360
 7224SOL    HW233309   3.137   0.434  16.564  0.7575 -1.4430  0.6198
 7225SOL     OW33310   4.293   1.555  14.444 -0.0988  0.3695  0.0494
 7225SOL    HW133311   4.292   1.502  14.364 -0.1221  0.0753  0.2428
 7225SOL    HW233312   4.213   1.520  14.482  0.2748 -1.2816 -0.6844
 7226SOL     OW33313   4.274   0.862   1.675 -0.1858  0.0171  0.9240
 7226SOL    HW133314   4.348   0.819   1.631 -1.6330 -0.8742 -0.6471
 7226SOL    HW233315   4.312   0.865   1.762  2.3879  0.9498 -0.2329
 7227SOL     OW33316   2.879   4.314   2.267  0.0467 -0.1824  0.7496
 7227SOL    HW133317   2.818   4.242   2.250  0.0771 -0.0129 -0.0917
 7227SOL    HW233318   2.962   4.279   2.235  1.0780  1.8971  1.1383
 7228SOL     OW33319   0.904   3.782  14.720 -0.5142 -0.2267 -0.0792
 7228SOL    HW133320   0.885   3.875  14.725 -1.8680 -0.4556 -1.2993
 7228SOL    HW233321   0.967   3.790  14.648  0.7494  0.4954  1.1054
 7229SOL     OW33322   3.096   3.285  10.378 -0.3234 -0.4973 -0.4387
 7229SOL    HW133323   3.113   3.378  10.365  0.8843 -1.0714 -3.0023
 7229SOL    HW233324   3.100   3.279  10.473 -0.0049  1.8809 -0.2893
 7230SOL     OW33325   1.141   4.286   2.612 -0.6778 -0.7246  0.2845
 7230SOL    HW133326   1.088   4.296   2.533  2.8637  1.6311 -1.7728
 7230SOL    HW233327   1.228   4.262   2.582 -0.4812 -0.6232  0.7699
 7231SOL     OW33328   3.300   0.774   7.965 -0.1916  0.0414  0.7610
 7231SOL    HW133329   3.282   0.844   8.028  2.5753  0.5515  0.9713
 7231SOL    HW233330   3.395   0.778   7.955 -0.1533 -0.5537  0.9165
 7232SOL     OW33331   0.922   0.054   1.526 -0.2748 -0.2943  0.5598
 7232SOL    HW133332   0.912   0.149   1.527 -1.5118 -0.4733  3.3496
 7232SOL    HW233333   0.842   0.029   1.571 -0.3055 -0.1672  0.5757
 7233SOL     OW33334   1.074   4.651   4.700 -0.1536  0.3486  0.0416
 7233SOL    HW133335   1.057   4.561   4.727 -2.6893  0.5349 -0.9696
 7233SOL    HW233336   0.998   4.696   4.737 -0.1667  2.1210 -2.1599
 7234SOL     OW33337   2.930   2.634   5.149  0.3060 -0.1828 -0.1909
 7234SOL    HW133338   2.977   2.602   5.226 -0.1718  0.4682  0.3767
 7234SOL    HW233339   2.895   2.546   5.136  2.0666 -1.0339  0.8809
 7235SOL     OW33340   3.077   1.900   2.181 -0.3302 -0.0519  0.0109
 7235SOL    HW133341   3.110   1.944   2.103  1.0247 -0.4540  0.3570
 7235SOL    HW233342   3.110   1.966   2.243 -2.3900  1.0883 -0.0991
 7236SOL     OW33343   1.215   4.371   6.886  0.1421  0.4008 -0.1355
 7236SOL    HW133344   1.227   4.339   6.797  1.3363 -0.5296  0.3406
 7236SOL    HW233345   1.197   4.289   6.933  1.6922 -0.5732 -1.2412
 7237SOL     OW33346   3.563   1.833   8.068 -0.2030 -0.1861 -0.6279
 7237SOL    HW133347   3.634   1.769   8.067 -1.1246 -1.2044 -0.6492
 7237SOL    HW233348   3.481   1.786   8.057 -0.0806 -0.3671 -0.7902
 7238SOL     OW33349   2.266   0.208   6.392 -0.7502 -0.2359  0.2829
 7238SOL    HW133350   2.222   0.123   6.385 -1.3450 -0.0244  1.5282
 7238SOL    HW233351   2.230   0.236   6.476 -0.0298 -0.7450  0.7727
 7239SOL     OW33352   3.839   1.694   7.918  0.1641  0.5910 -0.3315
 7239SOL    HW133353   3.824   1.785   7.944 -2.3497  0.2108 -0.4538
 7239SOL    HW233354   3.818   1.640   7.995  3.4305 -0.5937 -0.2714
 7240SOL     OW33355   2.900   0.482   1.416 -0.5140 -0.8533  0.1491
 7240SOL    HW133356   2.858   0.521   1.340 -0.7115 -1.0325  0.1681
 7240SOL    HW233357   2.831   0.453   1.475 -1.4044 -1.0725 -1.0028
 7241SOL     OW33358   0.805   1.834   4.816 -0.0019 -0.5555 -0.1104
 7241SOL    HW133359   0.882   1.889   4.832  0.4232 -0.6950 -1.7035
 7241SOL    HW233360   0.825   1.756   4.867 -3.6473 -1.7648 -0.4944
 7242SOL     OW33361   1.435   1.326   8.554  0.0392  0.1265 -0.3595
 7242SOL    HW133362   1.508   1.371   8.513  0.4724  0.1471  0.4229
 7242SOL    HW233363   1.397   1.276   8.482  4.1704 -1.4454 -1.4291
 7243SOL     OW33364   0.197   2.149   9.280 -0.2480 -0.5059 -0.0205
 7243SOL    HW133365   0.165   2.228   9.324  0.2094 -0.8529  0.9411
 7243SOL    HW233366   0.185   2.083   9.348 -1.0106 -0.1668  0.1679
 7244SOL     OW33367   1.575   3.880   5.971  0.2794  0.3200 -0.6946
 7244SOL    HW133368   1.571   3.974   5.990 -1.0848 -0.4929  2.8999
 7244SOL    HW233369   1.482   3.869   5.952 -0.0487 -2.1081  2.3906
 7245SOL     OW33370   1.802   1.597   1.905  0.3218 -0.3054 -0.3660
 7245SOL    HW133371   1.713   1.579   1.937 -0.4920  2.4885 -1.1066
 7245SOL    HW233372   1.781   1.672   1.850  0.8469  0.0182 -0.1234
 7246SOL     OW33373   4.037   0.634  16.021  1.1045 -0.3350  0.6166
 7246SOL    HW133374   4.102   0.696  15.987 -0.2913  0.7847 -0.0013
 7246SOL    HW233375   4.029   0.572  15.949 -1.3769  0.4681  0.2078
 7247SOL     OW33376   4.711   2.035  16.975 -0.2674  0.0376  0.2706
 7247SOL    HW133377   4.617   2.054  16.982 -0.3806 -0.3119 -0.3180
 7247SOL    HW233378   4.735   2.073  16.891  0.2043 -0.7205  0.0625
 7248SOL     OW33379   2.237   1.952   1.421  0.0330 -0.0008 -0.1541
 7248SOL    HW133380   2.166   1.921   1.365  1.9459 -1.5748 -1.6810
 7248SOL    HW233381   2.293   1.874   1.418 -1.4924 -1.1193  0.6297
 7249SOL     OW33382   2.493   2.073   7.414  0.0821  0.2738  0.4850
 7249SOL    HW133383   2.557   2.060   7.345 -1.0976 -0.1466 -0.5267
 7249SOL    HW233384   2.555   2.125   7.465 -0.0244 -0.2620  1.1705
 7250SOL     OW33385   4.543   1.380   1.078  0.6697  0.2236 -0.6567
 7250SOL    HW133386   4.533   1.309   1.015  0.5963  0.2479 -0.6727
 7250SOL    HW233387   4.476   1.365   1.144  2.1529  0.2460  0.8590
 7251SOL     OW33388   1.893   3.055   7.834 -0.4769 -0.1064 -0.2081
 7251SOL    HW133389   1.809   3.034   7.793  0.6187  0.3302 -2.6680
 7251SOL    HW233390   1.884   3.025   7.925 -0.6130 -0.6696 -0.4067
 7252SOL     OW33391   2.992   4.429   8.362  0.0028 -0.3222  0.0684
 7252SOL    HW133392   2.995   4.522   8.339  0.2394 -0.8379 -2.0022
 7252SOL    HW233393   2.902   4.429   8.395  0.8947  0.3851  2.4966
 7253SOL     OW33394   2.967   2.735   9.053 -0.4974 -0.4802  0.2176
 7253SOL    HW133395   2.931   2.704   9.136  0.9484 -1.9387  0.2905
 7253SOL    HW233396   2.954   2.659   8.996 -0.6980  1.1765 -1.9872
 7254SOL     OW33397   4.407   0.625   6.764 -0.8690  0.4097  0.1185
 7254SOL    HW133398   4.322   0.588   6.738 -0.5262  0.7739 -1.5286
 7254SOL    HW233399   4.440   0.646   6.677 -1.9313 -0.5647 -0.5268
 7255SOL     OW33400   2.865   3.782   3.897 -0.0399 -0.2231 -0.1256
 7255SOL    HW133401   2.829   3.744   3.817  0.4559 -0.7043 -0.1146
 7255SOL    HW233402   2.956   3.803   3.879  0.1434  0.9100  2.1562
 7256SOL     OW33403   1.429   0.685   7.059  0.3673 -0.0175 -0.4473
 7256SOL    HW133404   1.403   0.695   6.968  0.9223  1.1376 -0.4786
 7256SOL    HW233405   1.524   0.684   7.045  0.2124 -0.8725 -1.5228
 7257SOL     OW33406   0.925   1.696   6.183 -0.5204 -0.0242  0.2592
 7257SOL    HW133407   1.012   1.724   6.211 -0.9275  1.7923 -0.3545
 7257SOL    HW233408   0.879   1.767   6.228 -1.2115 -1.7566  2.3356
 7258SOL     OW33409   1.313   0.548   8.562 -0.1898 -0.1927 -0.0812
 7258SOL    HW133410   1.352   0.624   8.604  1.1308 -1.0843  0.3117
 7258SOL    HW233411   1.390   0.508   8.521 -1.2079 -2.3137  0.0457
 7259SOL     OW33412   1.074   0.458   7.120 -0.1184  0.0215 -0.1394
 7259SOL    HW133413   0.998   0.457   7.062  0.5173 -1.6294 -0.9531
 7259SOL    HW233414   1.110   0.372   7.101  1.5961  0.4720  1.0703
 7260SOL     OW33415   2.105   0.240   7.999 -0.3851  0.3341 -0.3358
 7260SOL    HW133416   2.118   0.181   7.924 -2.2278  0.1785 -0.5454
 7260SOL    HW233417   2.148   0.188   8.066  0.5479 -1.0331 -1.9939
 7261SOL     OW33418   0.083   0.298   1.327  0.2685  0.2159 -0.2195
 7261SOL    HW133419   0.148   0.289   1.257 -0.1927  1.8959 -0.8643
 7261SOL    HW233420   0.084   0.392   1.343 -1.3713  0.3354 -0.8364
 7262SOL     OW33421   1.372   0.707   8.198 -0.2677  0.0080 -0.5933
 7262SOL    HW133422   1.328   0.686   8.116 -0.7083 -1.1951 -0.0517
 7262SOL    HW233423   1.465   0.697   8.176 -0.1165  2.3748 -1.0656
 7263SOL     OW33424   2.521   1.012  10.870  0.0708 -0.3982 -0.0048
 7263SOL    HW133425   2.518   1.105  10.893 -1.3467 -0.1665 -1.0507
 7263SOL    HW233426   2.603   0.981  10.907 -0.2399  0.1833  1.1593
 7264SOL     OW33427   3.900   3.059  15.359  0.5096  0.3588  0.0565
 7264SOL    HW133428   3.824   3.116  15.345  2.9395  3.1311 -1.6551
 7264SOL    HW233429   3.863   2.971  15.369 -0.6749  0.9665  1.0166
 7265SOL     OW33430   0.988   3.186   4.542  0.4549  0.0509 -0.5149
 7265SOL    HW133431   0.996   3.200   4.636  2.9427  2.2482 -1.0498
 7265SOL    HW233432   1.033   3.102   4.529 -0.5525 -0.6417  0.5306
 7266SOL     OW33433   0.463   3.052   8.902 -0.2186  0.4202 -0.1020
 7266SOL    HW133434   0.549   3.020   8.874  0.1415  1.9740 -0.7860
 7266SOL    HW233435   0.467   3.036   8.996 -1.2075  0.1037 -0.1078
 7267SOL     OW33436   3.308   0.186   4.482  0.1926  0.1395  0.1013
 7267SOL    HW133437   3.333   0.110   4.535  0.5192  0.3434  0.2394
 7267SOL    HW233438   3.253   0.149   4.413  0.6872 -2.2563  0.9734
 7268SOL     OW33439   2.152   1.185  13.784  0.7460 -0.6997 -0.1512
 7268SOL    HW133440   2.093   1.156  13.714 -0.3674  2.2245 -0.4056
 7268SOL    HW233441   2.134   1.278  13.774  4.7033  0.0124 -0.5399
 7269SOL     OW33442   3.663   1.480   6.087 -0.5232  0.3244  0.0558
 7269SOL    HW133443   3.601   1.421   6.129  1.1072 -0.1983  1.6707
 7269SOL    HW233444   3.737   1.451   6.139 -1.6605  1.1539  2.1214
 7270SOL     OW33445   2.731   3.116   3.653 -0.2153 -0.0314  0.2429
 7270SOL    HW133446   2.693   3.115   3.565 -0.3278  1.4477  0.2771
 7270SOL    HW233447   2.823   3.131   3.632  0.2907  0.1791  2.6253
 7271SOL     OW33448   4.585   4.673   5.612 -0.4582  0.4657  0.1613
 7271SOL    HW133449   4.645   4.617   5.661  1.1027  0.4537 -1.7555
 7271SOL    HW233450   4.579   4.624   5.529 -0.0077 -1.2274  1.1256
 7272SOL     OW33451   1.494   0.922   5.774 -0.6333 -0.4625 -0.1393
 7272SOL    HW133452   1.556   0.871   5.722 -0.1982 -1.0632  0.9657
 7272SOL    HW233453   1.546   0.975   5.833 -1.7828  2.2217 -1.5526
 7273SOL     OW33454   3.281   3.988   9.399 -0.1472 -0.3604 -0.3859
 7273SOL    HW133455   3.304   3.960   9.488 -0.5260  2.9821  0.7315
 7273SOL    HW233456   3.309   3.909   9.351 -2.0111 -0.3652 -1.4573
 7274SOL     OW33457   0.197   0.829   1.914 -0.3046 -0.5208  0.1975
 7274SOL    HW133458   0.108   0.851   1.940 -0.4676 -1.5462  0.4964
 7274SOL    HW233459   0.194   0.733   1.919  1.7361 -0.6759 -1.1947
 7275SOL     OW33460   0.406   3.490   9.513  0.0416 -0.3440  0.1484
 7275SOL    HW133461   0.474   3.517   9.450  0.1847  1.8777  1.2549
 7275SOL    HW233462   0.340   3.558   9.504  0.6342 -0.0074 -1.6384
 7276SOL     OW33463   0.175   4.275   5.000 -0.3752  0.1159  0.0134
 7276SOL    HW133464   0.133   4.304   4.918  0.2467 -1.7115 -0.9475
 7276SOL    HW233465   0.100   4.224   5.030 -0.5114  0.6465  0.5707
 7277SOL     OW33466   2.448   1.651   6.174  0.0058  0.0934  0.2741
 7277SOL    HW133467   2.356   1.670   6.189  0.0497  2.1646 -2.1060
 7277SOL    HW233468   2.454   1.665   6.079  2.9924  0.2462  0.4953
 7278SOL     OW33469   3.612   3.131   4.702  0.4638  0.1187  0.3266
 7278SOL    HW133470   3.602   3.051   4.753  0.9501  0.2013  0.5519
 7278SOL    HW233471   3.537   3.185   4.730 -0.9676 -2.8391  2.1982
 7279SOL     OW33472   4.607   1.633   2.098 -0.2575  0.0181 -0.2125
 7279SOL    HW133473   4.607   1.556   2.041  0.0819  1.1585 -1.7554
 7279SOL    HW233474   4.612   1.585   2.180 -0.8615 -1.0692 -0.8171
 7280SOL     OW33475   2.306   2.115   1.111  0.2417 -0.3348 -0.5674
 7280SOL    HW133476   2.312   2.069   1.194  1.5854 -1.2558 -1.1861
 7280SOL    HW233477   2.211   2.120   1.097 -0.2679 -0.0296  3.0266
 7281SOL     OW33478   2.593   4.045   0.010 -0.3652  0.4597 -0.7283
 7281SOL    HW133479   2.636   3.979   0.064  0.1887  2.4991  1.3201
 7281SOL    HW233480   2.655   4.116   0.027  1.4422 -1.0745 -0.8296
 7282SOL     OW33481   3.571   3.593   5.942  0.7152  1.3130  0.0739
 7282SOL    HW133482   3.497   3.550   5.900  1.0588  1.3506 -0.5712
 7282SOL    HW233483   3.566   3.684   5.915  0.8665  0.8512 -1.5106
 7283SOL     OW33484   1.232   0.435   5.341  0.0259 -0.1606 -0.1806
 7283SOL    HW133485   1.192   0.363   5.293  2.1136 -2.1502  1.0592
 7283SOL    HW233486   1.221   0.504   5.276 -1.0665  1.3788  1.6318
 7284SOL     OW33487   2.065   3.438  17.190  0.9168  0.0949  0.2577
 7284SOL    HW133488   2.056   3.347  17.221  1.5606 -0.6739 -1.8075
 7284SOL    HW233489   2.074   3.477  17.277 -3.2255 -1.4299  1.3736
 7285SOL     OW33490   4.044   3.981   1.821  0.5828  0.2497 -0.0496
 7285SOL    HW133491   3.977   4.037   1.860 -1.1239 -1.6867 -0.2072
 7285SOL    HW233492   4.001   3.922   1.759  2.4392 -1.5600  0.3705
 7286SOL     OW33493   2.481   3.418   5.874  0.3033  0.2213 -0.2645
 7286SOL    HW133494   2.502   3.326   5.857  0.2699  0.5443 -2.0763
 7286SOL    HW233495   2.549   3.445   5.935  0.2997  2.9076 -1.4503
 7287SOL     OW33496   0.080   4.727  15.577  0.5011 -0.0048 -1.1216
 7287SOL    HW133497   0.064   0.043  15.500  1.1852  0.8248 -0.6741
 7287SOL    HW233498   0.009   4.663  15.572  0.1469  0.2635  0.5288
 7288SOL     OW33499   4.133   0.280   1.547 -0.9124 -0.6278 -0.3584
 7288SOL    HW133500   4.161   0.285   1.455  0.9708 -0.9217  0.1886
 7288SOL    HW233501   4.038   0.285   1.535 -0.5016 -0.2194 -3.4878
 7289SOL     OW33502   2.432   4.057  10.216 -0.0759 -0.1146  0.1095
 7289SOL    HW133503   2.494   4.033  10.285  0.1748  0.1588 -0.0180
 7289SOL    HW233504   2.420   4.150  10.237  2.3046 -0.1150  1.5458
 7290SOL     OW33505   3.819   2.263   8.122 -0.7069  0.7172 -0.7966
 7290SOL    HW133506   3.770   2.252   8.204  0.6676 -2.1480 -0.3422
 7290SOL    HW233507   3.899   2.290   8.168 -2.2288  2.1917  0.9847
 7291SOL     OW33508   3.999   3.517   6.046 -0.0151  0.4138 -0.6355
 7291SOL    HW133509   3.907   3.524   6.072  1.1673  2.5923  2.9104
 7291SOL    HW233510   3.989   3.562   5.962  0.4587 -0.0629 -0.9495
 7292SOL     OW33511   2.728   2.437   7.574 -0.2074 -0.1364 -0.5397
 7292SOL    HW133512   2.682   2.417   7.493 -0.2756  0.8041 -0.7313
 7292SOL    HW233513   2.695   2.364   7.626  0.4313 -0.4533 -0.5766
 7293SOL     OW33514   0.817   1.580   3.930 -0.2582 -0.0945  0.0911
 7293SOL    HW133515   0.810   1.528   3.849  0.0687  1.0767 -0.6840
 7293SOL    HW233516   0.864   1.515   3.982 -0.6920  1.4867  2.4229
 7294SOL     OW33517   4.171   4.497   4.949 -0.1699  0.0859 -0.2410
 7294SOL    HW133518   4.171   4.410   4.909  1.7263  0.4764 -1.0687
 7294SOL    HW233519   4.194   4.484   5.041 -1.2488  0.7831  0.1274
 7295SOL     OW33520   2.419   2.370   9.095 -0.1838  0.2951  0.3380
 7295SOL    HW133521   2.409   2.300   9.159 -0.7023  0.8179  0.8243
 7295SOL    HW233522   2.433   2.321   9.014  0.0282 -0.6304  0.9353
 7296SOL     OW33523   4.372   4.225   2.608 -0.1019 -0.3473  0.8015
 7296SOL    HW133524   4.425   4.247   2.531 -3.2820  3.0440 -0.4302
 7296SOL    HW233525   4.390   4.131   2.603  1.4448 -0.0079 -0.2392
 7297SOL     OW33526   1.538   4.092   4.156 -0.3509  0.5894 -0.1581
 7297SOL    HW133527   1.550   4.062   4.065 -0.6043  0.2223 -0.0720
 7297SOL    HW233528   1.485   4.022   4.193 -0.1557  0.8223  0.5547
 7298SOL     OW33529   3.404   3.120   6.128  1.3075 -0.1892  0.1520
 7298SOL    HW133530   3.351   3.200   6.121  0.3355 -0.6585  2.0236
 7298SOL    HW233531   3.447   3.128   6.043  0.4397  2.4779 -0.0600
 7299SOL     OW33532   3.036   0.902   7.556  0.3220 -0.7634  0.2826
 7299SOL    HW133533   3.035   0.911   7.652  2.1416  1.4041  0.0789
 7299SOL    HW233534   3.120   0.943   7.537 -0.4154  0.5234 -0.1797
 7300SOL     OW33535   0.273   0.925   8.295 -0.3594 -0.2237 -0.2015
 7300SOL    HW133536   0.331   0.960   8.362  0.0378  1.0384 -1.2114
 7300SOL    HW233537   0.272   1.002   8.238  1.6433 -0.7808 -0.9932
 7301SOL     OW33538   3.747   1.592   8.155 -0.1012 -0.2304  0.4480
 7301SOL    HW133539   3.714   1.603   8.243 -3.6824 -0.8077 -0.8377
 7301SOL    HW233540   3.839   1.566   8.162  0.0102  0.2815  0.8447
 7302SOL     OW33541   1.981   0.425   3.874 -0.8138  0.2205  0.5374
 7302SOL    HW133542   2.064   0.379   3.888 -0.7822  0.0519 -0.2475
 7302SOL    HW233543   1.967   0.435   3.968 -0.4170  4.6567  0.1193
 7303SOL     OW33544   0.657   0.652   3.753  0.1786  0.2359  0.2200
 7303SOL    HW133545   0.726   0.600   3.794 -1.3942 -3.3731 -1.6923
 7303SOL    HW233546   0.577   0.617   3.792 -0.4953 -0.1536 -1.4735
 7304SOL     OW33547   3.302   3.587   7.290  0.5407  0.5845 -0.3817
 7304SOL    HW133548   3.256   3.510   7.324 -2.0431  2.1504 -0.3260
 7304SOL    HW233549   3.223   3.638   7.273  0.8269  0.9358 -0.6443
 7305SOL     OW33550   3.086   2.657   4.273 -1.0778 -0.1430  0.6206
 7305SOL    HW133551   3.066   2.744   4.308 -1.0309 -0.0210  0.3527
 7305SOL    HW233552   3.088   2.678   4.179  0.9317  0.3403  0.7599
 7306SOL     OW33553   2.712   0.228   3.697 -0.0923  0.2662  0.3587
 7306SOL    HW133554   2.680   0.148   3.656 -0.1029 -0.3208  1.5164
 7306SOL    HW233555   2.630   0.242   3.745  0.7349  1.1693  1.5130
 7307SOL     OW33556   1.062   2.686   5.111 -0.5880  0.1060  0.3837
 7307SOL    HW133557   1.000   2.729   5.170  1.7277  1.5870  1.7607
 7307SOL    HW233558   1.137   2.746   5.115 -1.6298  1.4491 -0.4673
 7308SOL     OW33559   0.465   2.095   2.326 -0.2020 -0.1062 -0.1878
 7308SOL    HW133560   0.442   2.002   2.327 -3.2204  0.6053 -2.1561
 7308SOL    HW233561   0.421   2.109   2.242  2.1692 -0.3531 -1.4820
 7309SOL     OW33562   0.367   3.691   7.795  0.6478 -0.2906 -0.2325
 7309SOL    HW133563   0.367   3.596   7.811 -1.2301 -0.1753  0.4562
 7309SOL    HW233564   0.400   3.719   7.880  2.6571  0.2428 -1.1899
 7310SOL     OW33565   1.592   3.045  11.797  0.7771  0.1422  0.0404
 7310SOL    HW133566   1.597   2.981  11.726  1.6854  0.4771 -0.1924
 7310SOL    HW233567   1.528   3.006  11.857 -0.5717  2.5394  0.1815
 7311SOL     OW33568   0.178   0.671   6.722 -0.2587  0.0808 -0.3575
 7311SOL    HW133569   0.177   0.579   6.748 -1.7884  0.7686  2.0663
 7311SOL    HW233570   0.240   0.661   6.650  1.6112 -2.6494  1.6127
 7312SOL     OW33571   0.532   3.764  11.209  0.1421 -0.1130  0.4154
 7312SOL    HW133572   0.475   3.758  11.133  0.8498  0.0526 -0.1282
 7312SOL    HW233573   0.482   3.809  11.277 -0.0165  0.7913 -0.2908
 7313SOL     OW33574   0.472   1.197  17.160 -0.2350  0.0582  0.4610
 7313SOL    HW133575   0.450   1.230  17.073  1.9238  1.5176  0.4703
 7313SOL    HW233576   0.565   1.177  17.152 -0.6798 -0.8322 -2.4641
 7314SOL     OW33577   0.061   4.073   7.278 -0.3537  0.4384 -0.3570
 7314SOL    HW133578   0.103   4.123   7.348  0.6679 -0.0371 -0.6391
 7314SOL    HW233579   0.108   3.990   7.268  0.8856  1.4516 -2.7901
 7315SOL     OW33580   1.694   2.848   8.223 -0.5190 -0.0512  0.1512
 7315SOL    HW133581   1.645   2.797   8.158 -0.1366  2.0276 -1.7693
 7315SOL    HW233582   1.621   2.867   8.282 -0.5654 -0.0621  0.0979
 7316SOL     OW33583   4.027   1.723   5.644  0.4731  0.2154 -0.3952
 7316SOL    HW133584   4.041   1.811   5.679  1.7309 -0.7470  1.4907
 7316SOL    HW233585   4.064   1.668   5.713  2.1303 -0.6585 -1.9601
 7317SOL     OW33586   2.737   4.014   7.408  0.4448  0.3593  0.2797
 7317SOL    HW133587   2.655   4.026   7.456 -1.7784 -1.5591 -3.0354
 7317SOL    HW233588   2.717   4.069   7.332  0.8100 -0.5055 -0.4492
 7318SOL     OW33589   3.421   0.783   3.282 -0.3877 -0.6224 -0.7633
 7318SOL    HW133590   3.506   0.742   3.265 -0.8719 -1.7743 -0.4135
 7318SOL    HW233591   3.393   0.740   3.363  0.0110 -2.0574 -1.3794
 7319SOL     OW33592   3.134   2.060   1.983  0.0650 -0.0578  0.3756
 7319SOL    HW133593   3.110   2.142   2.027  0.4955  0.6176 -0.6412
 7319SOL    HW233594   3.173   2.098   1.904 -0.4561  0.8394  0.5536
 7320SOL     OW33595   4.156   0.940   6.270  0.0449  0.3529 -0.2066
 7320SOL    HW133596   4.245   0.923   6.300 -0.2661 -1.4514 -0.2620
 7320SOL    HW233597   4.114   0.994   6.337 -0.8969 -0.1789 -0.3547
 7321SOL     OW33598   1.422   1.496  10.685  0.3565 -0.5681  0.0734
 7321SOL    HW133599   1.398   1.585  10.712 -2.6498 -1.7440  1.3242
 7321SOL    HW233600   1.470   1.476  10.766 -2.2914 -5.7918  0.3470
 7322SOL     OW33601   0.871   3.772   7.922  0.3278  0.4918  0.6733
 7322SOL    HW133602   0.876   3.686   7.963  1.4886  0.8637  1.3014
 7322SOL    HW233603   0.963   3.775   7.895  0.7568  0.7822  2.2007
 7323SOL     OW33604   2.503   2.821  15.120 -0.4007  0.0389  0.5656
 7323SOL    HW133605   2.568   2.752  15.115  0.2860  0.4806  3.6018
 7323SOL    HW233606   2.452   2.815  15.039 -3.0838 -0.1885  2.2730
 7324SOL     OW33607   0.185   2.484   3.749  0.0019 -0.0666 -0.0039
 7324SOL    HW133608   0.223   2.512   3.666  0.0312  0.7272  0.2824
 7324SOL    HW233609   0.249   2.522   3.809  1.8310 -1.9914 -0.7197
 7325SOL     OW33610   1.069   1.443   6.316  0.4527  0.6128  0.0953
 7325SOL    HW133611   1.040   1.354   6.336  1.4106  0.4780  0.9049
 7325SOL    HW233612   1.014   1.455   6.239  1.4798 -2.1442 -1.0566
 7326SOL     OW33613   0.405   2.113   2.068 -0.0745  0.9118  0.0096
 7326SOL    HW133614   0.466   2.159   2.011 -1.5537  1.0728 -1.4325
 7326SOL    HW233615   0.319   2.150   2.045  0.9183  1.4768 -2.7393
 7327SOL     OW33616   3.524   1.845   9.667  0.1924  0.3543 -0.5028
 7327SOL    HW133617   3.572   1.868   9.746  1.0906  0.1083 -0.9776
 7327SOL    HW233618   3.559   1.761   9.637 -0.6999 -0.2050  0.0181
 7328SOL     OW33619   1.058   1.079   9.187 -0.8798 -0.0658  0.6759
 7328SOL    HW133620   1.124   1.115   9.246 -1.4555 -1.8686  2.4552
 7328SOL    HW233621   0.980   1.133   9.201  1.1156  2.6314  1.3488
 7329SOL     OW33622   1.554   4.195   4.785 -0.3495 -0.1649 -0.0974
 7329SOL    HW133623   1.508   4.219   4.865 -1.8282  0.4825 -1.1395
 7329SOL    HW233624   1.541   4.269   4.726 -1.3119 -0.1797  0.0964
 7330SOL     OW33625   1.508   0.975   2.715  0.0364 -0.4118  0.0242
 7330SOL    HW133626   1.519   0.882   2.697 -2.5806 -0.0353 -3.5925
 7330SOL    HW233627   1.581   1.005   2.661  0.6563 -0.9969  0.5442
 7331SOL     OW33628   0.997   3.657  16.629  0.0543 -0.1690 -0.0310
 7331SOL    HW133629   1.020   3.664  16.721 -2.2946  0.9869  0.4639
 7331SOL    HW233630   0.990   3.561  16.625  1.4143 -0.3364  1.7420
 7332SOL     OW33631   3.712   0.154   9.493 -0.4006  0.2625  0.1197
 7332SOL    HW133632   3.661   0.224   9.535  0.8184 -0.1747  2.3292
 7332SOL    HW233633   3.789   0.185   9.446 -0.3190  0.1863  0.2040
 7333SOL     OW33634   2.981   0.642   5.101 -0.1999  0.0625 -0.3555
 7333SOL    HW133635   3.069   0.678   5.091 -0.8828  1.7189 -0.2754
 7333SOL    HW233636   2.935   0.725   5.102  1.5093  1.0341 -1.8350
 7334SOL     OW33637   3.638   0.267   5.639  0.2931  0.4008 -0.2159
 7334SOL    HW133638   3.690   0.205   5.691  3.1187  2.1104 -0.9782
 7334SOL    HW233639   3.598   0.323   5.705  0.8625 -0.0911  0.5455
 7335SOL     OW33640   4.203   0.400   2.442  0.3502  0.3208  0.4739
 7335SOL    HW133641   4.140   0.364   2.380  1.4664 -1.2462  0.2552
 7335SOL    HW233642   4.189   0.495   2.436  1.2931  0.4064 -0.3280
 7336SOL     OW33643   0.583   0.732   3.199 -0.5696  0.0607  0.0424
 7336SOL    HW133644   0.587   0.710   3.292  3.0041  0.2523 -0.0574
 7336SOL    HW233645   0.673   0.728   3.168 -1.0791  0.5332 -1.4607
 7337SOL     OW33646   2.694   2.564   2.272  0.3905 -0.2246  0.2738
 7337SOL    HW133647   2.691   2.658   2.289  1.2038 -0.3439  1.0623
 7337SOL    HW233648   2.612   2.552   2.225 -0.2382  0.2643  1.2615
 7338SOL     OW33649   1.773   0.641   1.846 -0.1661 -0.3746 -0.5451
 7338SOL    HW133650   1.841   0.708   1.847  1.7905 -2.3549 -0.7961
 7338SOL    HW233651   1.699   0.675   1.797 -0.2932  0.7991  0.4606
 7339SOL     OW33652   4.432   0.126  14.137  0.2363 -0.0953 -0.5897
 7339SOL    HW133653   4.485   0.156  14.063  0.1367 -0.3753 -0.7773
 7339SOL    HW233654   4.411   0.206  14.185 -1.7566 -0.0129 -1.5941
 7340SOL     OW33655   3.837   1.720   4.216  0.0661 -0.4089  0.3736
 7340SOL    HW133656   3.810   1.741   4.127  1.7616  0.8241  0.1606
 7340SOL    HW233657   3.806   1.792   4.271  0.0292  0.7117 -1.1392
 7341SOL     OW33658   2.957   3.010   7.385 -0.0755 -1.0886  0.2627
 7341SOL    HW133659   2.971   2.940   7.448  0.8549 -0.3321  0.8945
 7341SOL    HW233660   3.034   3.005   7.329 -1.1137  2.1976 -1.4804
 7342SOL     OW33661   4.108   0.371  10.593 -0.1690  0.3600  0.6205
 7342SOL    HW133662   4.186   0.320  10.573 -0.8439 -0.7411  0.8108
 7342SOL    HW233663   4.145   0.449  10.552 -3.1255  1.3411 -0.1541
 7343SOL     OW33664   3.598   2.015   5.997 -0.3626 -0.0914  0.8084
 7343SOL    HW133665   3.513   2.055   6.015 -0.5649 -0.5514  0.8641
 7343SOL    HW233666   3.579   1.923   6.012  0.6029  0.0513  2.8492
 7344SOL     OW33667   3.497   0.906   3.727 -0.5448 -0.6049 -0.4416
 7344SOL    HW133668   3.449   0.987   3.745  1.5482 -0.3269  3.8778
 7344SOL    HW233669   3.561   0.932   3.660 -0.2181 -1.4936 -0.4733
 7345SOL     OW33670   2.696   2.787  14.404  0.4698 -0.0181 -0.0671
 7345SOL    HW133671   2.632   2.842  14.449 -0.9951  0.2602 -2.5090
 7345SOL    HW233672   2.655   2.700  14.396  0.7742 -0.0500 -1.2810
 7346SOL     OW33673   2.719   3.200   8.656 -0.3970  0.3133  1.0766
 7346SOL    HW133674   2.714   3.223   8.749  0.3453  0.5247  1.0657
 7346SOL    HW233675   2.811   3.183   8.636 -0.2180  1.5595  0.8334
 7347SOL     OW33676   3.030   3.539   8.407 -0.3428  0.1349  0.0273
 7347SOL    HW133677   2.944   3.498   8.417 -1.0704  1.8914  1.0075
 7347SOL    HW233678   3.031   3.557   8.313  1.4304  0.5324  0.1187
 7348SOL     OW33679   3.240   4.280   9.563  0.1551  0.2131  0.6735
 7348SOL    HW133680   3.173   4.271   9.495  3.1090 -2.1081 -1.8879
 7348SOL    HW233681   3.192   4.232   9.632 -0.4107 -0.6513 -0.3192
 7349SOL     OW33682   4.317   2.382   9.254 -0.2706  0.3494  0.0610
 7349SOL    HW133683   4.307   2.423   9.339  0.6317  0.5723  0.0623
 7349SOL    HW233684   4.370   2.446   9.206 -0.9180 -1.9852 -3.8349
 7350SOL     OW33685   1.192   2.115   8.258  0.2631 -0.4375  0.2709
 7350SOL    HW133686   1.231   2.189   8.213 -2.1183  0.3112 -0.5836
 7350SOL    HW233687   1.182   2.146   8.348 -2.5696 -0.8319  0.1046
 7351SOL     OW33688   4.513   2.720  10.155  0.5243 -0.2129  0.0517
 7351SOL    HW133689   4.605   2.747  10.153  0.8415 -1.0899  3.7510
 7351SOL    HW233690   4.474   2.806  10.167 -2.0010 -1.5789  1.5058
 7352SOL     OW33691   0.990   1.214   6.375 -0.3214 -0.1668  0.0117
 7352SOL    HW133692   1.079   1.180   6.369 -0.4566 -0.8082  1.6571
 7352SOL    HW233693   0.946   1.136   6.341  0.0989  0.4457 -1.8921
 7353SOL     OW33694   2.017   0.857  16.129  0.0089  0.0881 -0.2856
 7353SOL    HW133695   2.059   0.790  16.076 -1.1940  0.7304 -2.0517
 7353SOL    HW233696   1.954   0.908  16.077 -0.6579 -2.1151 -1.6074
 7354SOL     OW33697   3.020   0.302  10.603  0.3957 -0.0846  0.0384
 7354SOL    HW133698   3.021   0.368  10.672 -1.0518  0.3837 -0.3769
 7354SOL    HW233699   3.087   0.338  10.545  0.1795 -0.2653 -0.3247
 7355SOL     OW33700   3.722   0.848  14.546  0.8231 -0.2899 -0.3304
 7355SOL    HW133701   3.749   0.934  14.577  1.0137 -0.1580 -0.8560
 7355SOL    HW233702   3.694   0.818  14.632 -1.2700 -0.3819 -1.0471
 7356SOL     OW33703   0.190   1.037  11.755 -0.1231  0.1818 -0.1062
 7356SOL    HW133704   0.227   0.994  11.833  0.1125 -2.6369 -1.7953
 7356SOL    HW233705   0.236   1.002  11.679  0.9620  1.2790  0.0487
 7357SOL     OW33706   2.660   1.373   0.674  0.1392  0.3072  0.2605
 7357SOL    HW133707   2.670   1.365   0.579  3.3077  0.7854  0.5596
 7357SOL    HW233708   2.748   1.369   0.711  1.6405  1.4810 -3.1197
 7358SOL     OW33709   0.872   2.488   4.218 -0.3630  0.4704  0.4870
 7358SOL    HW133710   0.813   2.493   4.143  0.6146 -0.0892 -0.3336
 7358SOL    HW233711   0.934   2.558   4.197 -0.0124 -0.4974 -1.6952
 7359SOL     OW33712   2.970   1.276   6.362 -0.1095  0.5398 -0.4358
 7359SOL    HW133713   2.994   1.259   6.272 -0.4510  0.5337 -0.5271
 7359SOL    HW233714   2.874   1.283   6.361  0.0022  2.0408 -0.7570
 7360SOL     OW33715   4.581   0.827   9.628 -0.1686 -0.2222 -0.2385
 7360SOL    HW133716   4.644   0.873   9.572  1.6565 -3.1577 -0.6279
 7360SOL    HW233717   4.648   0.769   9.664 -0.1255 -0.5769 -0.8795
 7361SOL     OW33718   3.960   4.453   0.529  0.2839 -0.1059 -0.2050
 7361SOL    HW133719   4.054   4.465   0.535  0.2096 -0.4425  1.4097
 7361SOL    HW233720   3.959   4.372   0.478 -0.1697  0.6206 -1.3802
 7362SOL     OW33721   3.143   2.571   3.789  0.2193 -0.1045 -0.1590
 7362SOL    HW133722   3.084   2.586   3.862  1.3325 -1.1332  0.9601
 7362SOL    HW233723   3.109   2.492   3.747 -2.3130 -0.5632  2.8272
 7363SOL     OW33724   1.343   2.664   5.848 -0.0494 -0.4786 -0.7493
 7363SOL    HW133725   1.343   2.760   5.845 -1.4283 -0.4062  1.6411
 7363SOL    HW233726   1.263   2.653   5.899  1.3303 -2.6233  0.9634
 7364SOL     OW33727   0.225   3.727   4.539 -0.1755  0.4523 -0.0519
 7364SOL    HW133728   0.265   3.770   4.463 -1.8169 -0.0299 -1.1711
 7364SOL    HW233729   0.278   3.647   4.537 -0.8154  0.0140  0.8763
 7365SOL     OW33730   1.039   4.465   5.705  0.2907  0.1132 -0.2744
 7365SOL    HW133731   1.056   4.430   5.792 -0.0482 -1.7849 -0.9640
 7365SOL    HW233732   0.958   4.509   5.731 -0.4412 -0.2277 -1.9409
 7366SOL     OW33733   0.392   2.445  11.920  0.2848  0.0529  0.8391
 7366SOL    HW133734   0.337   2.368  11.932  2.5655 -1.8451 -0.7108
 7366SOL    HW233735   0.334   2.521  11.915 -0.4373 -0.5579 -0.1186
 7367SOL     OW33736   2.185   0.277   3.955 -0.0691  0.2280  0.0259
 7367SOL    HW133737   2.152   0.220   4.025 -1.1009  1.0406  0.2004
 7367SOL    HW233738   2.271   0.289   3.994 -0.2083  2.7947 -0.4325
 7368SOL     OW33739   3.767   1.214   6.891  0.4702 -0.9601 -0.0990
 7368SOL    HW133740   3.764   1.192   6.798  1.1624  1.1213 -0.6225
 7368SOL    HW233741   3.679   1.250   6.903  1.3670  0.4381  2.1861
 7369SOL     OW33742   3.796   0.008  16.540  0.1701 -0.0023 -0.0169
 7369SOL    HW133743   3.818   4.682  16.473 -3.3521 -1.9141  0.6698
 7369SOL    HW233744   3.817   4.704  16.623  1.5934  0.9891  0.1323
 7370SOL     OW33745   3.590   1.407   3.150 -0.1282 -0.5443  0.0999
 7370SOL    HW133746   3.591   1.359   3.067 -0.0183  1.2328 -0.9418
 7370SOL    HW233747   3.570   1.493   3.112 -2.0035 -0.5120  1.1606
 7371SOL     OW33748   0.158   0.195   8.019  0.2791 -0.2950  0.3151
 7371SOL    HW133749   0.195   0.178   7.932 -1.7264 -1.5156 -0.2962
 7371SOL    HW233750   0.134   0.107   8.048  3.5610 -1.1192  0.5709
 7372SOL     OW33751   4.618   4.413   7.176  0.5059  0.6427 -0.2641
 7372SOL    HW133752   4.563   4.485   7.148  1.6836  1.2000 -1.1382
 7372SOL    HW233753   4.576   4.383   7.256 -1.9524  2.1556 -0.9887
 7373SOL     OW33754   0.117   0.704   0.619  0.2760 -0.4310  0.0955
 7373SOL    HW133755   0.106   0.779   0.562  0.9014 -1.1110 -0.9127
 7373SOL    HW233756   0.116   0.630   0.558  0.8652 -0.3030 -0.0647
 7374SOL     OW33757   2.911   3.293  17.131  0.0994 -0.0658 -0.1621
 7374SOL    HW133758   2.943   3.216  17.084  0.1678 -0.5114  0.6061
 7374SOL    HW233759   2.928   3.366  17.072 -1.9774 -0.5388 -1.3279
 7375SOL     OW33760   0.482   3.840   7.088  0.6007 -0.1720  1.0053
 7375SOL    HW133761   0.556   3.864   7.144  1.6201  3.9873 -2.1431
 7375SOL    HW233762   0.416   3.801   7.145 -1.0700  2.0459  0.6140
 7376SOL     OW33763   3.862   0.437   0.374  0.3673 -0.4992  0.8559
 7376SOL    HW133764   3.819   0.429   0.289  0.8967  2.9620  0.2421
 7376SOL    HW233765   3.792   0.403   0.431  0.8934 -1.9488  0.6321
 7377SOL     OW33766   1.435   1.333   2.361 -0.0886 -0.9025 -0.6714
 7377SOL    HW133767   1.360   1.389   2.380  1.0803  0.8532 -1.2954
 7377SOL    HW233768   1.489   1.359   2.436 -1.7216 -0.4816  0.3656
 7378SOL     OW33769   2.477   2.401   4.926 -0.1676  0.4163 -0.3866
 7378SOL    HW133770   2.460   2.493   4.945 -0.2676  0.2860  0.1608
 7378SOL    HW233771   2.547   2.410   4.862  1.3367 -1.4544  1.0204
 7379SOL     OW33772   2.747   2.150   7.275 -0.2006  0.1102  0.3910
 7379SOL    HW133773   2.827   2.139   7.326 -1.7612 -1.3944  2.5128
 7379SOL    HW233774   2.747   2.236   7.233 -0.6303  0.7687  1.7465
 7380SOL     OW33775   2.236   2.643  10.560  0.3910 -0.4503  0.0686
 7380SOL    HW133776   2.158   2.662  10.508 -1.0423  0.8982  2.7733
 7380SOL    HW233777   2.265   2.572  10.501  2.2289 -0.8343  1.4417
 7381SOL     OW33778   0.352   2.075   8.203  0.7642  0.1594 -0.0960
 7381SOL    HW133779   0.426   2.135   8.213 -0.9345  2.6463 -2.5303
 7381SOL    HW233780   0.347   2.041   8.292  1.0407  1.0436  0.2505
 7382SOL     OW33781   4.599   3.805   9.087 -0.1995  0.5634  0.7339
 7382SOL    HW133782   4.683   3.842   9.114 -1.5482  2.2476  2.7473
 7382SOL    HW233783   4.548   3.886   9.087 -3.7714 -1.7024  0.6599
 7383SOL     OW33784   1.187   3.293   9.155 -0.0708 -0.4115 -0.0419
 7383SOL    HW133785   1.244   3.222   9.186 -0.1321  0.3209  1.7894
 7383SOL    HW233786   1.248   3.365   9.143 -0.5883  0.1852  0.8615
 7384SOL     OW33787   0.341   0.536   8.354  0.8310 -0.1603 -0.0424
 7384SOL    HW133788   0.368   0.526   8.263  2.7783  1.3914  0.3715
 7384SOL    HW233789   0.421   0.562   8.399  0.6929  1.1446 -0.5741
 7385SOL     OW33790   0.815   4.099   5.347  0.3777  0.1342 -0.0582
 7385SOL    HW133791   0.856   4.121   5.431 -0.2554  1.3112 -0.0610
 7385SOL    HW233792   0.896   4.086   5.298  0.7685  2.5323 -0.0534
 7386SOL     OW33793   4.230   4.481   2.814 -0.1797  0.1783  0.1435
 7386SOL    HW133794   4.277   4.420   2.870  1.1520 -0.1397 -1.3369
 7386SOL    HW233795   4.141   4.470   2.848  0.3130  0.9981  1.7053
 7387SOL     OW33796   1.892   2.450   1.995 -0.2813  0.7816  0.2276
 7387SOL    HW133797   1.819   2.500   2.032 -1.0067  1.2709 -1.8810
 7387SOL    HW233798   1.867   2.362   2.025 -2.2072  1.4430  0.5401
 7388SOL     OW33799   1.710   3.380  13.214 -0.5694 -0.1898  0.1199
 7388SOL    HW133800   1.665   3.304  13.252 -0.7057  0.2283  0.8004
 7388SOL    HW233801   1.645   3.419  13.156  1.2828  1.8956 -0.5343
 7389SOL     OW33802   1.470   4.215   3.797 -0.5167  0.1813  0.3107
 7389SOL    HW133803   1.520   4.149   3.845 -0.2884  0.1121 -0.0184
 7389SOL    HW233804   1.380   4.182   3.800  0.3426 -2.1847  0.1083
 7390SOL     OW33805   1.638   2.495   5.698  0.3186 -0.7076  0.7346
 7390SOL    HW133806   1.594   2.453   5.625 -0.2881 -0.7058  1.0987
 7390SOL    HW233807   1.591   2.459   5.774 -0.4303 -2.3532 -0.5301
 7391SOL     OW33808   1.830   0.245  16.001 -0.2939  0.2761  0.3341
 7391SOL    HW133809   1.742   0.225  15.969 -0.3587  2.2474 -0.7144
 7391SOL    HW233810   1.814   0.337  16.022  0.1748  0.9854 -2.4230
 7392SOL     OW33811   4.534   0.803   9.151 -0.1322 -0.3901  0.5672
 7392SOL    HW133812   4.600   0.734   9.157  1.3307  1.0169  0.9130
 7392SOL    HW233813   4.585   0.871   9.107 -2.7460  1.0117 -0.2396
 7393SOL     OW33814   1.418   4.048   7.438 -0.0351  0.3845  0.0130
 7393SOL    HW133815   1.339   4.025   7.389  0.9679 -1.6434 -0.6391
 7393SOL    HW233816   1.466   4.084   7.363 -0.7054 -0.1342 -0.6693
 7394SOL     OW33817   0.934   2.407  15.968 -0.2670  0.5931  0.0326
 7394SOL    HW133818   0.840   2.401  15.952 -0.1856 -0.6142  0.0475
 7394SOL    HW233819   0.957   2.494  15.933  0.7529  0.7020  0.9858
 7395SOL     OW33820   2.582   1.558   2.262  0.1665  0.3389 -0.1902
 7395SOL    HW133821   2.513   1.522   2.207 -0.2851  0.4150  0.3271
 7395SOL    HW233822   2.558   1.650   2.270 -1.4281  0.1529 -2.8258
 7396SOL     OW33823   1.405   0.854   4.159  0.1898 -0.3547 -0.4952
 7396SOL    HW133824   1.345   0.780   4.168 -2.0011  1.4700 -0.0390
 7396SOL    HW233825   1.477   0.818   4.107  0.0463 -1.8345  0.3394
 7397SOL     OW33826   2.660   3.959   0.470 -0.3345 -0.2950 -0.1115
 7397SOL    HW133827   2.575   3.944   0.511 -0.1609 -0.0707  0.3335
 7397SOL    HW233828   2.679   3.883   0.415  0.6769  0.7857 -1.2705
 7398SOL     OW33829   3.769   3.102   2.140 -0.2949 -0.0598 -0.3241
 7398SOL    HW133830   3.686   3.139   2.169 -1.4029 -3.2716  0.6922
 7398SOL    HW233831   3.829   3.175   2.131 -0.0311 -0.4123 -1.4787
 7399SOL     OW33832   0.982   1.821   2.926  0.4868 -0.3533  0.2090
 7399SOL    HW133833   1.056   1.866   2.967 -0.5733  3.4997 -2.1688
 7399SOL    HW233834   0.915   1.880   2.959  0.0831 -0.1863 -0.9068
 7400SOL     OW33835   1.848   4.560   9.422 -0.8580 -0.1538  0.4342
 7400SOL    HW133836   1.819   4.490   9.363  1.6424 -0.1592 -0.7692
 7400SOL    HW233837   1.779   4.554   9.488 -1.6880 -2.0589 -0.6065
 7401SOL     OW33838   3.391   1.398  10.777  0.1917  0.1572  0.1874
 7401SOL    HW133839   3.417   1.487  10.801  1.4063 -0.1137 -0.1499
 7401SOL    HW233840   3.315   1.415  10.721  0.1826 -1.8385 -0.3986
 7402SOL     OW33841   1.808   1.420   3.194 -0.1218 -0.5938  0.6029
 7402SOL    HW133842   1.810   1.333   3.154 -0.1695 -0.1614 -0.3483
 7402SOL    HW233843   1.860   1.421   3.274 -0.2453  0.8287  0.6726
 7403SOL     OW33844   2.997   1.024   6.699 -0.1998 -0.4501  0.4717
 7403SOL    HW133845   2.973   1.074   6.777 -0.9656  1.4780 -1.0110
 7403SOL    HW233846   3.086   0.998   6.724  0.4813  0.8261 -0.6392
 7404SOL     OW33847   2.597   1.568   7.859 -0.2986  0.3551 -0.0208
 7404SOL    HW133848   2.569   1.495   7.805  0.1168  1.2787 -1.4881
 7404SOL    HW233849   2.541   1.558   7.935 -0.7733 -1.9970 -0.6813
 7405SOL     OW33850   3.343   4.371  10.651  0.4713 -0.3054 -0.3362
 7405SOL    HW133851   3.385   4.361  10.737 -1.0991 -3.4130  0.0681
 7405SOL    HW233852   3.258   4.410  10.669  0.9097  1.0186 -1.1603
 7406SOL     OW33853   0.380   0.719  12.602 -0.0540 -0.3541 -0.1641
 7406SOL    HW133854   0.360   0.628  12.582 -1.9610 -0.0651  0.4725
 7406SOL    HW233855   0.353   0.722  12.694  0.5487 -0.8680  0.0274
 7407SOL     OW33856   1.322   0.922  16.857 -0.2117 -0.4957 -0.3822
 7407SOL    HW133857   1.251   0.982  16.835  1.0215  1.8646  2.1819
 7407SOL    HW233858   1.321   0.932  16.952 -0.5196  0.6127 -0.5035
 7408SOL     OW33859   1.186   3.226  10.839 -0.3238 -0.0566  0.4852
 7408SOL    HW133860   1.171   3.161  10.907  1.1283 -1.3589 -0.4311
 7408SOL    HW233861   1.097   3.236  10.806  0.5243  1.1989 -1.4428
 7409SOL     OW33862   0.717   3.401   6.314 -0.1319 -0.2120  0.2169
 7409SOL    HW133863   0.780   3.464   6.349 -0.0200 -0.2683  0.1210
 7409SOL    HW233864   0.707   3.343   6.390  0.6218 -1.1649 -0.3970
 7410SOL     OW33865   4.285   1.553   8.838  0.6682  0.3836 -0.5864
 7410SOL    HW133866   4.289   1.546   8.743 -0.8687  0.7948 -0.6905
 7410SOL    HW233867   4.197   1.516   8.852  0.9392 -0.0419  0.0210
 7411SOL     OW33868   1.395   1.685   2.109 -0.4515 -0.0108  0.1575
 7411SOL    HW133869   1.347   1.727   2.181 -0.1321  0.3249  0.1734
 7411SOL    HW233870   1.477   1.665   2.153  0.3129  2.7303 -0.0337
 7412SOL     OW33871   3.395   3.946   0.104  0.2802  0.3301  0.1221
 7412SOL    HW133872   3.319   4.005   0.108 -0.3010 -0.3563 -0.8527
 7412SOL    HW233873   3.376   3.877   0.041  0.7645  1.5844 -1.4046
 7413SOL     OW33874   1.858   0.842   8.716 -0.3741  0.3293 -0.2693
 7413SOL    HW133875   1.806   0.807   8.788  0.7305 -2.4172 -0.8136
 7413SOL    HW233876   1.806   0.836   8.636  0.2628  2.0123 -0.8231
 7414SOL     OW33877   1.332   0.155   7.814 -0.2846  0.0345  0.2793
 7414SOL    HW133878   1.276   0.202   7.875 -2.6172  0.0676 -1.9110
 7414SOL    HW233879   1.400   0.222   7.804  0.4251 -1.0025 -2.0906
 7415SOL     OW33880   3.306   3.882   3.113  0.0483 -0.6355  0.1056
 7415SOL    HW133881   3.219   3.849   3.092 -1.0540  1.1602  1.8140
 7415SOL    HW233882   3.307   3.908   3.205 -3.1586  0.3913 -0.1356
 7416SOL     OW33883   3.119   0.019   4.882  0.0313 -0.0713 -0.0954
 7416SOL    HW133884   3.031   0.010   4.843  0.6570 -2.7905 -0.8991
 7416SOL    HW233885   3.122   0.113   4.901  1.5324  0.0164 -0.8063
 7417SOL     OW33886   4.056   3.352   7.951  0.5189  0.0348  0.3354
 7417SOL    HW133887   4.147   3.331   7.973  0.7256  1.0550  0.4602
 7417SOL    HW233888   4.009   3.272   7.972  0.6242 -0.4042 -1.0992
 7418SOL     OW33889   0.984   2.704   7.600  0.4927  0.0333 -0.1855
 7418SOL    HW133890   0.965   2.618   7.638  0.0636 -0.7700 -2.2491
 7418SOL    HW233891   0.942   2.759   7.666 -0.0209  1.5773 -1.8087
 7419SOL     OW33892   1.649   4.529  16.343  0.3488 -0.3343  0.1178
 7419SOL    HW133893   1.744   4.519  16.354  0.3536  1.8109  2.1087
 7419SOL    HW233894   1.623   4.490  16.426 -0.6136  0.2511  0.0964
 7420SOL     OW33895   3.987   0.601   4.144  0.0407 -0.2446  0.3700
 7420SOL    HW133896   3.897   0.585   4.174 -0.2595  1.7961  0.5206
 7420SOL    HW233897   3.973   0.689   4.109  1.0858  0.0249  0.6357
 7421SOL     OW33898   1.669   3.117   0.879  0.2733 -0.9725  0.1204
 7421SOL    HW133899   1.655   3.119   0.785 -0.2229 -0.3432  0.2124
 7421SOL    HW233900   1.704   3.028   0.890 -1.9234 -2.0006 -1.3944
 7422SOL     OW33901   3.587   3.585   9.467 -1.0609 -0.1934  0.5829
 7422SOL    HW133902   3.675   3.587   9.428 -1.2352  1.7602  0.2933
 7422SOL    HW233903   3.601   3.625   9.553  1.0618 -0.7828  0.5144
 7423SOL     OW33904   3.481   4.257   5.125 -0.1885  0.2992 -0.1024
 7423SOL    HW133905   3.454   4.312   5.198  0.9341  1.4529 -0.5567
 7423SOL    HW233906   3.475   4.317   5.051  1.3702  0.1243 -0.3549
 7424SOL     OW33907   1.939   1.868   2.804 -0.3689  0.1342 -0.4749
 7424SOL    HW133908   1.947   1.943   2.745 -1.2900  1.4564  1.1088
 7424SOL    HW233909   1.854   1.888   2.843 -0.2047 -0.2921  0.1122
 7425SOL     OW33910   0.095   4.539   4.219  0.3981 -0.4791 -0.0556
 7425SOL    HW133911   0.162   4.580   4.165  1.1289 -0.5121  0.8215
 7425SOL    HW233912   0.039   4.508   4.148 -0.6774  0.6376  0.3006
 7426SOL     OW33913   0.442   4.000  15.697 -0.3652 -0.0350 -0.2905
 7426SOL    HW133914   0.519   3.974  15.646 -1.0421  0.7130 -1.6911
 7426SOL    HW233915   0.478   4.050  15.770  0.2754 -3.7880  1.9657
 7427SOL     OW33916   4.042   1.538  10.342 -0.1671  0.4349  0.2756
 7427SOL    HW133917   4.069   1.462  10.394 -2.3329 -0.8286 -0.4410
 7427SOL    HW233918   3.974   1.491  10.293 -0.5218  1.4692 -0.2166
 7428SOL     OW33919   0.914   1.471   6.078  0.1883  0.1601 -0.1455
 7428SOL    HW133920   0.934   1.556   6.116  0.1252  0.0335  0.1717
 7428SOL    HW233921   0.938   1.479   5.986 -1.1069  1.9533 -0.3225
 7429SOL     OW33922   1.493   1.431   4.025 -0.3004 -0.6271  0.0062
 7429SOL    HW133923   1.422   1.494   4.036 -0.5861 -0.4773 -2.5965
 7429SOL    HW233924   1.448   1.347   4.035  0.6349 -1.1636 -0.3129
 7430SOL     OW33925   4.249   3.412  11.655  0.1070  0.1258 -0.2163
 7430SOL    HW133926   4.206   3.330  11.631  0.0502  0.8161 -2.4511
 7430SOL    HW233927   4.309   3.410  11.581  1.7416 -0.8134  1.1276
 7431SOL     OW33928   0.157   3.855   9.135 -0.3150 -0.6529  0.1627
 7431SOL    HW133929   0.196   3.935   9.171 -1.1174 -0.2443  0.1215
 7431SOL    HW233930   0.229   3.793   9.141  0.3523  0.0385 -0.7271
 7432SOL     OW33931   1.514   2.852   8.667  0.5356  0.0230  0.1766
 7432SOL    HW133932   1.516   2.947   8.672  0.4601  0.0270  0.1262
 7432SOL    HW233933   1.487   2.833   8.757 -2.8833  1.9258 -0.4760
 7433SOL     OW33934   1.276   3.362  17.525 -0.5923 -0.0011 -0.4852
 7433SOL    HW133935   1.269   3.426  17.454  0.6648 -0.3245 -0.9117
 7433SOL    HW233936   1.301   3.283  17.476  1.1064 -0.0791  0.5035
 7434SOL     OW33937   3.724   1.481   4.350 -0.0776 -0.1407  0.2802
 7434SOL    HW133938   3.753   1.555   4.297  0.5810 -0.0080  0.8284
 7434SOL    HW233939   3.658   1.445   4.291  0.2898 -2.0200  1.0343
 7435SOL     OW33940   4.313   2.776  14.502  0.4092 -0.0698 -0.2127
 7435SOL    HW133941   4.306   2.745  14.412 -0.5227 -0.4469 -0.0046
 7435SOL    HW233942   4.252   2.849  14.511  0.9986  0.1501  2.0440
 7436SOL     OW33943   3.586   4.427  15.381 -0.1179 -0.0682 -0.3073
 7436SOL    HW133944   3.581   4.520  15.358 -1.8737  0.4199  1.9709
 7436SOL    HW233945   3.494   4.402  15.372  0.1316  1.2311 -6.6249
 7437SOL     OW33946   1.420   4.462   5.197 -0.2727 -0.2235 -0.3512
 7437SOL    HW133947   1.358   4.484   5.127  0.3792  0.2368 -0.7815
 7437SOL    HW233948   1.432   4.550   5.233 -1.1954  0.3114 -1.3498
 7438SOL     OW33949   3.341   0.581   8.796  0.3045 -0.5791 -0.2187
 7438SOL    HW133950   3.426   0.568   8.838 -0.2959 -2.4421  0.4176
 7438SOL    HW233951   3.330   0.494   8.759 -0.0858  0.2929 -2.1518
 7439SOL     OW33952   3.253   2.684   9.008 -0.3546 -0.1098 -0.0713
 7439SOL    HW133953   3.304   2.705   9.087  0.2010 -0.9250 -0.2176
 7439SOL    HW233954   3.164   2.694   9.043  0.4012  2.4652  1.1213
 7440SOL     OW33955   3.102   1.935  15.761 -0.6703 -0.8790 -0.5122
 7440SOL    HW133956   3.075   2.013  15.712 -2.5049 -1.3510 -0.2200
 7440SOL    HW233957   3.193   1.923  15.733 -0.0642  1.9679  0.2276
 7441SOL     OW33958   3.636   4.389  12.191 -0.1765  0.1352  0.4499
 7441SOL    HW133959   3.556   4.395  12.140 -0.3201  2.3180  0.9174
 7441SOL    HW233960   3.675   4.312  12.149  0.8993  1.8882 -1.8022
 7442SOL     OW33961   4.557   2.064   8.492  0.3855  0.1067 -0.1083
 7442SOL    HW133962   4.542   2.031   8.403  1.8856 -1.0207  0.0561
 7442SOL    HW233963   4.606   1.988   8.525 -1.8917 -1.8513 -1.2772
 7443SOL     OW33964   3.350   0.890  10.443 -0.0710  0.3102 -1.1247
 7443SOL    HW133965   3.301   0.808  10.452  1.2395 -0.3283  0.3697
 7443SOL    HW233966   3.298   0.951  10.494  2.4151 -0.5531  2.4725
 7444SOL     OW33967   3.350   2.853   4.675  0.4607 -0.7682  0.2812
 7444SOL    HW133968   3.418   2.811   4.729  0.9807  3.0063  2.6041
 7444SOL    HW233969   3.381   2.836   4.586  1.9128 -0.0835  0.6461
 7445SOL     OW33970   1.253   3.793  16.403  0.3381  0.1487  0.2543
 7445SOL    HW133971   1.340   3.803  16.440  0.1978  0.7000  0.4359
 7445SOL    HW233972   1.262   3.703  16.372 -1.2946 -0.0474  0.3535
 7446SOL     OW33973   3.864   1.662   3.076  0.0666 -0.4567  0.5082
 7446SOL    HW133974   3.859   1.757   3.064 -2.8013 -0.3540  2.6477
 7446SOL    HW233975   3.800   1.634   3.010 -1.4978  0.1493  1.7835
 7447SOL     OW33976   1.763   2.851   2.958 -0.6987  0.6336  0.2821
 7447SOL    HW133977   1.839   2.811   2.917 -0.4362  0.2818  1.1112
 7447SOL    HW233978   1.730   2.781   3.016 -2.5066  0.7927 -0.5604
 7448SOL     OW33979   1.198   3.982   3.260 -0.0959  0.4531 -0.3944
 7448SOL    HW133980   1.240   3.980   3.346 -1.0900  1.3189  0.1143
 7448SOL    HW233981   1.148   4.063   3.271  4.1227  2.8477  1.4646
 7449SOL     OW33982   0.827   2.773   5.972  0.3699 -0.1827  0.1376
 7449SOL    HW133983   0.841   2.679   5.961 -1.3444 -0.3328 -0.8233
 7449SOL    HW233984   0.834   2.776   6.067  1.6466 -1.5094  0.0771
 7450SOL     OW33985   0.974   4.322  14.333  0.0513 -0.1773  0.4785
 7450SOL    HW133986   0.990   4.354  14.421  0.5777 -0.2534  0.4084
 7450SOL    HW233987   0.890   4.368  14.332  0.3781  0.3866 -0.9293
 7451SOL     OW33988   4.058   3.955   4.503  0.5135  0.2341  1.0881
 7451SOL    HW133989   3.963   3.951   4.488  0.6815  0.1801  0.0099
 7451SOL    HW233990   4.069   3.860   4.504  1.4132  0.3313  0.6873
 7452SOL     OW33991   0.955   4.383   2.008 -0.5568 -0.0840  0.4248
 7452SOL    HW133992   1.028   4.355   2.064 -0.6746 -0.8399  0.1947
 7452SOL    HW233993   0.885   4.366   2.071 -0.1499 -1.4640  0.5080
 7453SOL     OW33994   1.816   0.870   0.588 -0.3841  0.3291 -0.2266
 7453SOL    HW133995   1.793   0.825   0.506 -3.1637  0.9137  0.2422
 7453SOL    HW233996   1.901   0.903   0.561  0.8168 -3.1129 -0.6786
 7454SOL     OW33997   3.843   2.882   4.245  0.6139  0.5084 -0.7406
 7454SOL    HW133998   3.910   2.823   4.280  1.2256  0.3288 -2.2252
 7454SOL    HW233999   3.829   2.936   4.323 -0.7957 -0.2520 -0.4641
 7455SOL     OW34000   4.107   3.972   2.212 -0.1220 -0.0915 -0.1911
 7455SOL    HW134001   4.153   3.920   2.146  0.0591 -1.9903  1.4599
 7455SOL    HW234002   4.021   3.937   2.187  0.4947 -0.9278 -1.1342
 7456SOL     OW34003   0.308   4.451   3.333 -0.0352  0.2345  0.1623
 7456SOL    HW134004   0.212   4.450   3.333 -0.0354  0.1394 -1.9768
 7456SOL    HW234005   0.323   4.504   3.411 -0.0734 -0.4365  0.6182
 7457SOL     OW34006   2.264   2.128   3.941  0.3552 -0.5024  0.3301
 7457SOL    HW134007   2.205   2.114   4.015 -0.5799  1.1849 -0.1042
 7457SOL    HW234008   2.308   2.043   3.941  0.3436 -0.5119 -0.2626
 7458SOL     OW34009   0.079   1.457   6.891  0.4473 -0.2068  0.5945
 7458SOL    HW134010   0.150   1.521   6.881 -0.6906  1.0201  0.3223
 7458SOL    HW234011   0.133   1.378   6.899  0.3072 -0.3450  0.1709
 7459SOL     OW34012   0.942   4.672  14.709 -0.3916  0.0903 -0.1946
 7459SOL    HW134013   0.908   4.730  14.777  1.2896  0.7714  0.0841
 7459SOL    HW234014   0.947   4.727  14.630 -2.2855 -1.1453 -1.1689
 7460SOL     OW34015   4.718   2.700   9.838  0.4090 -0.3766 -0.2302
 7460SOL    HW134016   4.696   2.617   9.879  1.3298 -1.4952 -1.9924
 7460SOL    HW234017   0.035   2.672   9.765 -0.8951  1.0387 -1.7790
 7461SOL     OW34018   4.285   4.027   3.012  0.7983 -0.2452 -0.1662
 7461SOL    HW134019   4.190   4.039   3.018  0.5791 -1.4423 -1.2762
 7461SOL    HW234020   4.284   3.935   2.988  2.5314 -0.5625  0.9583
 7462SOL     OW34021   3.094   2.843  15.079  0.1194 -0.0544 -0.5948
 7462SOL    HW134022   3.148   2.889  15.143  1.3363 -0.3536 -1.4164
 7462SOL    HW234023   3.084   2.907  15.009  2.8189 -0.1598 -1.0675
 7463SOL     OW34024   2.114   1.794   9.424  0.2072 -0.0638  0.3777
 7463SOL    HW134025   2.196   1.788   9.472  0.6957 -1.2925 -0.6116
 7463SOL    HW234026   2.141   1.797   9.332  2.7849 -0.6655  1.1084
 7464SOL     OW34027   1.944   3.080   6.736  0.5514  0.3627  0.4092
 7464SOL    HW134028   1.895   3.162   6.733  0.5898  0.4095  1.0663
 7464SOL    HW234029   2.000   3.089   6.814 -1.0318 -1.3647  1.7559
 7465SOL     OW34030   3.523   0.698  12.823  0.4734 -0.0477  0.0277
 7465SOL    HW134031   3.436   0.716  12.858  0.3350  2.7288 -1.7554
 7465SOL    HW234032   3.513   0.714  12.729 -2.5517 -0.3200  0.3114
 7466SOL     OW34033   3.136   0.691   1.138 -0.2170 -0.0976 -0.3840
 7466SOL    HW134034   3.091   0.707   1.055 -1.4188 -1.5564 -0.0149
 7466SOL    HW234035   3.152   0.597   1.132 -0.5221 -0.2311  1.0257
 7467SOL     OW34036   0.715   4.514   8.699  0.5667 -0.4184  0.3414
 7467SOL    HW134037   0.672   4.582   8.751 -1.4793 -0.7145 -0.9635
 7467SOL    HW234038   0.662   4.511   8.619 -0.7040 -0.3197  1.1767
 7468SOL     OW34039   0.747   0.088  14.881 -0.6411 -0.6762  0.1727
 7468SOL    HW134040   0.698   0.028  14.937 -1.7872 -0.5663 -0.7140
 7468SOL    HW234041   0.743   0.175  14.921  1.7514  0.9203 -3.0663
 7469SOL     OW34042   1.123   2.596   3.619  0.4015 -0.2149 -0.2443
 7469SOL    HW134043   1.077   2.677   3.599 -0.8513 -1.1319 -1.1256
 7469SOL    HW234044   1.060   2.549   3.674  0.9204  1.7150  1.9774
 7470SOL     OW34045   3.451   4.613   4.395 -0.4103  0.4711 -0.5479
 7470SOL    HW134046   3.407   4.546   4.448 -2.2863  2.1395  0.0154
 7470SOL    HW234047   3.474   4.680   4.460  0.6610 -1.0302  0.6297
 7471SOL     OW34048   1.797   2.965   1.925 -0.4758  0.2635  0.3494
 7471SOL    HW134049   1.704   2.941   1.922 -0.2300 -0.7850  0.8096
 7471SOL    HW234050   1.812   2.981   1.832 -4.1972  2.0823  0.0577
 7472SOL     OW34051   3.868   0.645   9.432 -0.5287  0.1048 -0.3754
 7472SOL    HW134052   3.921   0.578   9.388  1.6433  0.3236  1.8700
 7472SOL    HW234053   3.861   0.699   9.354  0.0912 -0.9149 -1.1398
 7473SOL     OW34054   2.571   0.219   1.343 -0.1325  0.1645  0.8254
 7473SOL    HW134055   2.582   0.150   1.408 -1.4633 -0.9098 -0.1045
 7473SOL    HW234056   2.489   0.264   1.361  0.2400  0.5204  1.6237
 7474SOL     OW34057   3.805   0.586   7.503  0.2791 -0.2345  0.8924
 7474SOL    HW134058   3.713   0.567   7.483  0.4297  0.8715 -0.8564
 7474SOL    HW234059   3.834   0.495   7.511 -0.6408 -0.4881  1.2939
 7475SOL     OW34060   4.049   3.607   4.532 -0.6159  0.1931 -0.1907
 7475SOL    HW134061   4.067   3.554   4.609 -0.3976  1.8868  0.9101
 7475SOL    HW234062   3.954   3.594   4.522 -0.2822 -0.9703 -1.9326
 7476SOL     OW34063   4.030   0.885  15.466  0.2916  0.2038 -0.3222
 7476SOL    HW134064   4.037   0.794  15.437 -0.3013 -0.0821  0.4037
 7476SOL    HW234065   4.120   0.913  15.453  0.6681 -0.2668  1.2306
 7477SOL     OW34066   0.809   4.358   4.226 -0.3461  0.0491 -1.0927
 7477SOL    HW134067   0.759   4.434   4.254 -0.6571 -0.6100  0.1201
 7477SOL    HW234068   0.767   4.341   4.141  0.9194 -0.0505 -1.6958
 7478SOL     OW34069   4.005   2.047   9.476  0.4033 -0.7579  0.1885
 7478SOL    HW134070   3.989   2.038   9.570  2.1575 -0.4213  0.5275
 7478SOL    HW234071   3.990   1.961   9.438 -0.6213 -1.4646  2.2230
 7479SOL     OW34072   2.535   2.841   4.488  0.0442 -0.7181 -0.0980
 7479SOL    HW134073   2.592   2.775   4.447  0.1340  0.9473 -2.6208
 7479SOL    HW234074   2.498   2.888   4.414  0.0201  0.0155  0.3804
 7480SOL     OW34075   0.641   2.371  10.138 -0.2223 -0.3084 -0.3465
 7480SOL    HW134076   0.558   2.407  10.107 -0.4964  1.0840  2.0033
 7480SOL    HW234077   0.652   2.427  10.214 -0.2494 -0.3724 -0.2954
 7481SOL     OW34078   4.523   2.869  15.334  0.1450 -0.2159  0.2226
 7481SOL    HW134079   4.497   2.786  15.294 -1.6050  1.0336 -1.2090
 7481SOL    HW234080   4.466   2.934  15.294  1.9136 -0.3120 -2.4165
 7482SOL     OW34081   0.541   0.396   3.839  0.2624 -0.0610  0.3646
 7482SOL    HW134082   0.457   0.440   3.825 -0.8965 -2.1865  0.5071
 7482SOL    HW234083   0.523   0.371   3.930  1.2508 -0.0222  0.5618
 7483SOL     OW34084   3.570   0.444   9.480  0.2831 -0.2170  0.3107
 7483SOL    HW134085   3.622   0.507   9.530 -1.1773 -0.4760  2.1778
 7483SOL    HW234086   3.500   0.508   9.471  0.3250 -0.1584  0.4022
 7484SOL     OW34087   3.410   4.042   6.495  0.0319 -0.1745  0.7345
 7484SOL    HW134088   3.440   4.132   6.511 -0.4262  0.0336  0.4212
 7484SOL    HW234089   3.481   4.005   6.441 -1.5428 -0.7213 -0.9479
 7485SOL     OW34090   0.056   1.089   5.121 -0.7029  0.0242  0.6843
 7485SOL    HW134091   0.089   1.136   5.045 -0.4932 -0.0014  0.7605
 7485SOL    HW234092   0.123   1.020   5.128  0.7070  1.0256 -2.5769
 7486SOL     OW34093   2.835   0.864   5.115 -0.3056 -0.4517  0.1857
 7486SOL    HW134094   2.857   0.929   5.050 -0.1341 -0.5304  0.1666
 7486SOL    HW234095   2.755   0.835   5.071 -0.3820 -0.4706  0.3334
 7487SOL     OW34096   4.128   2.651  13.142 -0.0390  0.3235  0.1378
 7487SOL    HW134097   4.129   2.649  13.046 -1.6818  0.4631  0.1114
 7487SOL    HW234098   4.040   2.614  13.149  1.1779 -2.4803  0.5978
 7488SOL     OW34099   1.108   2.884   6.629  0.1564  0.1841 -0.5706
 7488SOL    HW134100   1.146   2.910   6.546  0.8774  1.1590  0.0620
 7488SOL    HW234101   1.173   2.815   6.643  0.8363  1.0840  0.7986
 7489SOL     OW34102   0.009   2.519   3.124  0.2224  0.2627 -0.4029
 7489SOL    HW134103   0.092   2.491   3.163  0.5502 -2.0140 -2.7213
 7489SOL    HW234104   4.732   2.605   3.164 -2.7303 -0.6090  0.2784
 7490SOL     OW34105   3.780   2.685   1.060 -0.2630  0.0145  0.5452
 7490SOL    HW134106   3.866   2.713   1.092  0.1257  1.7482 -2.0239
 7490SOL    HW234107   3.780   2.744   0.984 -3.2895 -2.8944 -1.7280
 7491SOL     OW34108   1.154   0.630   6.131  0.1666 -0.3894 -0.0116
 7491SOL    HW134109   1.096   0.603   6.202  2.0064 -0.4482  1.4794
 7491SOL    HW234110   1.168   0.723   6.147 -1.7132 -0.2245  0.6120
 7492SOL     OW34111   0.379   1.455   4.142  0.3936 -0.6688 -0.8034
 7492SOL    HW134112   0.473   1.461   4.158  0.1120  1.2754  0.1021
 7492SOL    HW234113   0.371   1.438   4.048  2.1179  3.0353 -1.6123
 7493SOL     OW34114   0.981   1.241  16.005  0.4015  0.1122 -0.0709
 7493SOL    HW134115   1.009   1.155  15.975  0.9763  0.3155 -0.1131
 7493SOL    HW234116   0.903   1.262  15.954 -0.8835 -0.5412  1.6380
 7494SOL     OW34117   1.122   3.807   7.541 -0.2632 -0.6310 -0.6532
 7494SOL    HW134118   1.186   3.772   7.480  0.2945 -0.3253 -0.2469
 7494SOL    HW234119   1.070   3.728   7.558 -0.7852 -0.3540 -0.9778
 7495SOL     OW34120   0.119   0.792  11.048 -0.0241  0.2894  0.1200
 7495SOL    HW134121   0.180   0.862  11.026  0.2340  0.9728  3.0688
 7495SOL    HW234122   0.079   0.769  10.964 -0.0711  0.8698 -0.0200
 7496SOL     OW34123   1.222   2.099  11.171  0.3376  0.8242 -0.1960
 7496SOL    HW134124   1.173   2.119  11.091  1.6379 -4.5061 -2.2958
 7496SOL    HW234125   1.155   2.064  11.230 -0.7227  3.4134  0.1406
 7497SOL     OW34126   0.153   1.031   3.288  0.8291 -0.1347  0.0706
 7497SOL    HW134127   0.157   1.035   3.384  0.5947 -0.6013  0.0994
 7497SOL    HW234128   0.238   0.994   3.266  0.5071 -1.2853  0.7489
 7498SOL     OW34129   1.703   0.189   4.427  0.2245 -0.5864 -0.2651
 7498SOL    HW134130   1.792   0.224   4.417  0.0640  0.3504  1.5612
 7498SOL    HW234131   1.716   0.104   4.468 -0.7720 -0.4525  0.3396
 7499SOL     OW34132   1.976   3.647   1.802 -0.1548 -0.4606 -0.0220
 7499SOL    HW134133   2.014   3.612   1.721 -1.6109 -0.8012 -0.5678
 7499SOL    HW234134   2.050   3.642   1.862  0.7460 -0.2688 -1.1142
 7500SOL     OW34135   2.621   2.719   3.414 -0.4781  0.0498  0.2928
 7500SOL    HW134136   2.670   2.663   3.354 -0.3482 -0.1409  0.5731
 7500SOL    HW234137   2.587   2.645   3.465  1.7116 -2.5887 -2.0919
 7501SOL     OW34138   0.334   2.451   5.065  0.7141  0.9448  0.3141
 7501SOL    HW134139   0.354   2.358   5.056  0.3511  0.9636 -0.7009
 7501SOL    HW234140   0.377   2.476   5.146 -1.2854  0.3894  1.5390
 7502SOL     OW34141   1.103   3.351   1.680  0.2319  0.1763  0.1512
 7502SOL    HW134142   1.123   3.313   1.765  0.2567 -0.6839 -0.2417
 7502SOL    HW234143   1.170   3.420   1.675  0.8843 -0.5820 -1.6035
 7503SOL     OW34144   1.019   3.688   3.973  0.8977 -0.2311 -0.4884
 7503SOL    HW134145   0.951   3.625   3.997 -0.7630  2.8229  2.9336
 7503SOL    HW234146   1.060   3.707   4.057  0.3917 -0.5198 -0.1783
 7504SOL     OW34147   3.641   1.918   7.210 -0.3573 -0.0131  0.3768
 7504SOL    HW134148   3.604   1.831   7.229 -1.9098  0.0839 -2.1402
 7504SOL    HW234149   3.679   1.935   7.296 -0.5909 -2.6125  0.9952
 7505SOL     OW34150   0.793   3.593   4.079  0.1696  0.1789  0.2098
 7505SOL    HW134151   0.786   3.578   4.173 -0.7631  0.6705  0.2172
 7505SOL    HW234152   0.705   3.625   4.062  0.9121  2.5287  0.8347
 7506SOL     OW34153   3.793   4.580   3.999  0.3136 -0.0768  0.0494
 7506SOL    HW134154   3.752   4.524   4.064 -0.9921 -1.3421 -1.8698
 7506SOL    HW234155   3.742   4.657   4.022  1.5354  1.2016 -1.5077
 7507SOL     OW34156   1.532   0.839   2.059  0.3816  0.0674  0.3116
 7507SOL    HW134157   1.536   0.753   2.016  2.4065  0.0441  0.5670
 7507SOL    HW234158   1.471   0.826   2.132 -1.2810  2.3503 -0.6740
 7508SOL     OW34159   4.554   0.349   4.450 -0.5219  0.2403  0.3336
 7508SOL    HW134160   4.534   0.260   4.422 -0.5613  1.1953 -2.7639
 7508SOL    HW234161   4.614   0.328   4.522 -3.1270 -2.8512  1.5836
 7509SOL     OW34162   3.314   0.446  14.772 -0.3192 -0.2657  0.7913
 7509SOL    HW134163   3.331   0.534  14.808  2.7026 -1.3204  1.9447
 7509SOL    HW234164   3.236   0.471  14.722 -0.3235 -0.6151  0.6244
 7510SOL     OW34165   4.695   1.117  17.470  0.4049 -0.5416 -0.9667
 7510SOL    HW134166   4.675   1.210  17.457  2.0347  0.2727  2.3739
 7510SOL    HW234167   0.046   1.126  17.501  0.6605 -0.9159 -1.5973
 7511SOL     OW34168   0.985   0.638   8.679  0.0106  0.2768 -0.1522
 7511SOL    HW134169   1.011   0.704   8.615  1.0958  0.6273  0.6624
 7511SOL    HW234170   0.932   0.692   8.737 -0.0115 -0.0083  0.0963
 7512SOL     OW34171   2.673   2.330   6.263 -0.0371 -0.2839 -0.1895
 7512SOL    HW134172   2.626   2.412   6.248  0.7870 -0.1724 -2.1583
 7512SOL    HW234173   2.759   2.361   6.291  0.6360 -1.5108 -0.8956
 7513SOL     OW34174   1.156   1.426   6.822 -0.5921 -0.0646 -0.1799
 7513SOL    HW134175   1.242   1.389   6.840 -0.1593  0.2653 -1.5964
 7513SOL    HW234176   1.186   1.494   6.762  1.2285 -0.3421  0.4337
 7514SOL     OW34177   0.835   2.898   3.889 -0.0363  0.1458 -0.2358
 7514SOL    HW134178   0.839   2.993   3.877  0.0457  0.3623  1.5364
 7514SOL    HW234179   0.895   2.881   3.961  2.6568  2.1379 -2.0021
 7515SOL     OW34180   0.155   1.057   2.999  0.2935  0.2213  0.2329
 7515SOL    HW134181   0.137   1.051   3.093  0.1043  1.7708  0.2998
 7515SOL    HW234182   0.163   0.968   2.966  0.8200  0.0454  0.8499
 7516SOL     OW34183   2.283   0.850   3.337 -0.5687 -0.0782 -0.7258
 7516SOL    HW134184   2.350   0.861   3.404 -0.3558  3.2932 -1.4615
 7516SOL    HW234185   2.311   0.911   3.269 -0.0096 -1.2352 -1.5207
 7517SOL     OW34186   3.963   1.641   1.792  1.0295 -0.2389 -0.1200
 7517SOL    HW134187   4.023   1.715   1.799  0.8763  0.2488 -4.2589
 7517SOL    HW234188   3.883   1.682   1.761 -0.1620 -1.4492  1.3453
 7518SOL     OW34189   1.983   0.795  10.633  0.5372  0.3696 -0.1668
 7518SOL    HW134190   1.926   0.790  10.710 -1.1320 -1.0197 -1.4823
 7518SOL    HW234191   1.925   0.840  10.572 -0.7261  2.2500  2.4089
 7519SOL     OW34192   3.024   2.591  14.012 -0.0517 -0.2091 -0.1953
 7519SOL    HW134193   2.966   2.620  13.941 -0.6174  0.3305  0.4805
 7519SOL    HW234194   2.959   2.561  14.075  0.6303 -0.6518  0.2928
 7520SOL     OW34195   0.096   0.774   7.620  0.5084 -0.1838  0.4384
 7520SOL    HW134196   0.066   0.683   7.614  0.4191 -0.1126 -0.2736
 7520SOL    HW234197   0.187   0.759   7.646 -0.2336 -0.2749  2.9292
 7521SOL     OW34198   0.005   0.885   9.414  0.7988 -0.1863  0.3807
 7521SOL    HW134199   0.007   0.806   9.360  0.2763  0.4991 -0.6492
 7521SOL    HW234200   4.699   0.946   9.355  2.2879  0.6266  0.0943
 7522SOL     OW34201   3.085   1.596   9.395  0.0080  0.0245  0.2941
 7522SOL    HW134202   3.140   1.596   9.316  0.7144 -1.5977  0.7982
 7522SOL    HW234203   3.024   1.524   9.381 -1.8138  1.2743  1.8775
 7523SOL     OW34204   1.152   1.451   9.061 -0.3620  0.5464 -0.1583
 7523SOL    HW134205   1.157   1.356   9.070 -1.7264  0.4159 -0.9250
 7523SOL    HW234206   1.212   1.486   9.128 -0.2544 -0.9469  0.5253
 7524SOL     OW34207   0.982   0.466  10.443  0.7647 -1.1961 -0.6207
 7524SOL    HW134208   1.074   0.460  10.466  0.4256 -0.0116  1.0370
 7524SOL    HW234209   0.954   0.394  10.500 -1.5623  1.1177  1.1795
 7525SOL     OW34210   3.170   0.017   2.793 -0.2064 -0.9299  0.0016
 7525SOL    HW134211   3.192   0.110   2.789 -0.8836 -0.7370  0.7030
 7525SOL    HW234212   3.091   0.023   2.739  1.3069 -1.1847 -2.2497
 7526SOL     OW34213   1.305   0.585   2.166  0.4351  0.2963  0.1049
 7526SOL    HW134214   1.371   0.589   2.097  0.1411 -1.2951 -0.2662
 7526SOL    HW234215   1.333   0.662   2.217  1.7056 -0.0857 -0.0125
 7527SOL     OW34216   1.213   3.705   9.701  0.0672  0.7261 -0.1401
 7527SOL    HW134217   1.179   3.720   9.613  2.4911  0.5302 -1.1163
 7527SOL    HW234218   1.156   3.633   9.730 -2.5830  2.7029 -0.4388
 7528SOL     OW34219   3.143   3.051  14.878 -0.2905  0.2299 -0.3693
 7528SOL    HW134220   3.172   3.015  14.794  3.1731  1.6952  0.1922
 7528SOL    HW234221   3.090   3.121  14.842  0.2241  0.3542 -0.8746
 7529SOL     OW34222   3.776   2.376  11.901 -0.3985 -0.2954 -0.1827
 7529SOL    HW134223   3.697   2.412  11.941  0.8383  0.9884  1.0818
 7529SOL    HW234224   3.756   2.290  11.865  1.5919 -1.3732  1.2880
 7530SOL     OW34225   3.103   1.584   5.311  0.8576  0.3639  0.4143
 7530SOL    HW134226   3.118   1.491   5.295  1.2039  0.0503  2.4709
 7530SOL    HW234227   3.171   1.604   5.376  0.0968 -1.8868  1.9255
 7531SOL     OW34228   3.869   0.276   4.452  0.0435  0.5285 -0.1900
 7531SOL    HW134229   3.890   0.203   4.394 -2.8290  0.8571 -1.6157
 7531SOL    HW234230   3.961   0.292   4.476  0.7515 -1.7784 -1.3663
 7532SOL     OW34231   4.167   1.805  12.780 -0.2400  0.3704 -0.4133
 7532SOL    HW134232   4.170   1.823  12.874  2.2826 -0.6507 -0.2878
 7532SOL    HW234233   4.165   1.709  12.775  1.1230  0.3527 -0.6906
 7533SOL     OW34234   0.034   2.492  10.031 -0.5178  0.3562  0.0143
 7533SOL    HW134235   0.028   2.583  10.061  0.7252  0.3396  0.3221
 7533SOL    HW234236   0.016   2.448  10.114  0.4841  1.4472  0.8103
 7534SOL     OW34237   2.123   2.504   8.186 -0.0398 -0.4283 -0.4837
 7534SOL    HW134238   2.186   2.573   8.206 -0.6122 -0.6688  2.0406
 7534SOL    HW234239   2.123   2.438   8.254  0.4830  0.0941  0.0159
 7535SOL     OW34240   1.402   0.740   0.552 -0.4392  0.5527 -0.5387
 7535SOL    HW134241   1.486   0.733   0.599 -1.9541 -0.7289  1.9916
 7535SOL    HW234242   1.347   0.732   0.630  1.2780 -2.3909  0.3940
 7536SOL     OW34243   3.978   1.557   0.826  0.1300  0.0034  0.2218
 7536SOL    HW134244   4.061   1.511   0.842  0.3376  0.5550  0.7008
 7536SOL    HW234245   3.970   1.592   0.914  0.3434 -1.5211  0.8590
 7537SOL     OW34246   0.312   3.577   7.157 -0.0230  0.6685  0.3662
 7537SOL    HW134247   0.307   3.606   7.066 -0.6905  0.4907  0.3478
 7537SOL    HW234248   0.223   3.550   7.180  0.6693 -0.6508  1.5511
 7538SOL     OW34249   0.861   3.189   8.203  0.0867 -0.3405 -0.2643
 7538SOL    HW134250   0.893   3.264   8.154  2.3926 -1.6621 -0.7658
 7538SOL    HW234251   0.916   3.117   8.173 -2.6191 -2.1845 -0.8095
 7539SOL     OW34252   2.958   1.054   3.472  0.0096  0.6155  0.2448
 7539SOL    HW134253   2.865   1.042   3.458 -0.5744  0.8825  3.8738
 7539SOL    HW234254   2.975   0.975   3.522 -1.8813 -0.5677 -1.0073
 7540SOL     OW34255   3.773   3.508   9.747  0.3953  0.3539  0.1842
 7540SOL    HW134256   3.834   3.503   9.674  1.2641 -0.8753  0.9969
 7540SOL    HW234257   3.741   3.598   9.735 -0.6650  0.1077  1.1260
 7541SOL     OW34258   2.430   4.080   4.944 -0.5396 -0.1620 -0.4958
 7541SOL    HW134259   2.516   4.113   4.917  0.0648 -0.4467  1.0811
 7541SOL    HW234260   2.376   4.151   4.908 -0.6430 -0.2540 -0.5209
 7542SOL     OW34261   2.343   1.149   3.784  0.2944  0.2073  0.3610
 7542SOL    HW134262   2.334   1.177   3.875  1.4213  0.4136  0.4021
 7542SOL    HW234263   2.345   1.053   3.791 -0.1390  0.2318  0.8238
 7543SOL     OW34264   1.197   3.867   6.832 -0.1096  0.0590 -0.2603
 7543SOL    HW134265   1.280   3.915   6.830  0.8847 -1.7450 -2.2675
 7543SOL    HW234266   1.143   3.931   6.786 -1.1879  0.3958  1.4628
 7544SOL     OW34267   0.908   3.683   4.450  0.0674 -0.3493  0.2844
 7544SOL    HW134268   0.866   3.598   4.435  0.8603 -1.0469  2.0073
 7544SOL    HW234269   0.937   3.671   4.540  3.5102 -2.3144 -1.1012
 7545SOL     OW34270   4.105   1.302   8.437 -0.3888  0.2561  0.5590
 7545SOL    HW134271   4.047   1.230   8.411  0.2184 -1.0172  2.7483
 7545SOL    HW234272   4.052   1.377   8.409 -0.9681 -0.2477  0.2869
 7546SOL     OW34273   4.225   3.947  10.712 -0.1342  0.1598 -0.2701
 7546SOL    HW134274   4.304   3.914  10.668 -0.7222 -0.9455 -0.4951
 7546SOL    HW234275   4.182   3.870  10.749  2.2362 -0.6319  0.8343
 7547SOL     OW34276   4.581   3.209   3.255 -0.5444 -0.3316 -0.1494
 7547SOL    HW134277   4.514   3.154   3.296  1.0363 -1.7428  0.5445
 7547SOL    HW234278   4.650   3.142   3.249 -1.3437 -1.2895  1.4340
 7548SOL     OW34279   0.347   0.510   0.754  0.2523  0.3138 -0.2463
 7548SOL    HW134280   0.341   0.606   0.754  2.7584  0.4727 -0.4622
 7548SOL    HW234281   0.413   0.496   0.686 -0.3949 -0.2312 -0.7648
 7549SOL     OW34282   2.726   4.426   8.445  0.1056  0.3329 -0.2113
 7549SOL    HW134283   2.726   4.336   8.411  0.0421  0.2221  0.0773
 7549SOL    HW234284   2.654   4.420   8.507 -1.1136  0.3158 -1.6239
 7550SOL     OW34285   3.261   4.420  17.146  0.6223 -0.2281 -0.2214
 7550SOL    HW134286   3.310   4.348  17.105  1.2612  0.9897 -1.6060
 7550SOL    HW234287   3.319   4.495  17.134  0.9545 -0.5196 -0.4168
 7551SOL     OW34288   1.819   2.208   2.116  0.2414 -0.6779  0.5122
 7551SOL    HW134289   1.818   2.226   2.211 -0.1852 -0.8623  0.5388
 7551SOL    HW234290   1.734   2.167   2.103 -0.0852  0.1415  0.0428
 7552SOL     OW34291   3.843   1.473  10.579  0.1008  0.0161  0.3122
 7552SOL    HW134292   3.769   1.475  10.519 -0.1729  2.7570  0.7460
 7552SOL    HW234293   3.902   1.410  10.537 -0.5507 -0.2303 -0.2222
 7553SOL     OW34294   2.448   0.568   7.068  0.4436  0.3099  0.4374
 7553SOL    HW134295   2.412   0.547   7.154 -2.7691  2.1001 -0.4617
 7553SOL    HW234296   2.471   0.480   7.037 -0.2497 -0.4864  2.2026
 7554SOL     OW34297   2.279   4.381  16.556  0.5150  0.0662  0.3084
 7554SOL    HW134298   2.246   4.420  16.475 -2.7676 -0.6691  1.2758
 7554SOL    HW234299   2.353   4.329  16.526 -0.3493 -0.5515 -0.7923
 7555SOL     OW34300   3.131   1.016  16.569  0.0517 -0.8767  0.2720
 7555SOL    HW134301   3.090   0.992  16.652 -0.6957  0.7424  0.3744
 7555SOL    HW234302   3.095   1.105  16.564 -0.1394 -1.1027 -2.3516
 7556SOL     OW34303   1.983   1.998   4.684  0.2136  0.4664 -0.0156
 7556SOL    HW134304   2.019   1.921   4.726 -0.8906 -0.0899 -0.0923
 7556SOL    HW234305   1.912   1.957   4.633 -0.7317  2.8686 -0.6461
 7557SOL     OW34306   2.198   1.397  16.634 -0.1771  0.1301 -0.5238
 7557SOL    HW134307   2.215   1.490  16.619  1.1651 -0.2635 -1.4392
 7557SOL    HW234308   2.172   1.402  16.726  0.0736  0.2789 -0.4619
 7558SOL     OW34309   2.249   2.113  16.650  0.2864 -0.1095 -0.7112
 7558SOL    HW134310   2.265   2.200  16.686 -2.3841 -0.7187  1.9343
 7558SOL    HW234311   2.195   2.073  16.718  2.0440  2.4549  2.2077
 7559SOL     OW34312   0.372   2.184   9.914  0.3356  0.1190  0.5931
 7559SOL    HW134313   0.283   2.150   9.906  0.8008 -1.2806  1.2495
 7559SOL    HW234314   0.352   2.262   9.965 -0.3367  0.6244 -0.4485
 7560SOL     OW34315   3.354   0.055   5.432  0.5868 -0.1352 -0.1380
 7560SOL    HW134316   3.292   0.049   5.360  0.1462 -2.0918  0.3866
 7560SOL    HW234317   3.414   0.125   5.406  0.2152 -0.0562 -0.7665
 7561SOL     OW34318   3.196   4.379  14.899  0.1608  0.3424 -1.0769
 7561SOL    HW134319   3.206   4.439  14.972 -2.9876 -0.9799  0.4610
 7561SOL    HW234320   3.126   4.427  14.854 -0.2233  1.0197  0.2652
 7562SOL     OW34321   3.371   3.988   5.787  0.4056  0.6832  0.1199
 7562SOL    HW134322   3.280   3.963   5.771  0.0640  0.7875  1.9928
 7562SOL    HW234323   3.385   4.060   5.725 -2.5442  0.8922 -0.2885
 7563SOL     OW34324   0.649   2.893   9.678 -0.4487  0.6070  0.4645
 7563SOL    HW134325   0.706   2.860   9.747 -0.6303  0.6121  0.6177
 7563SOL    HW234326   0.716   2.936   9.625 -1.2509  0.6916 -0.4842
 7564SOL     OW34327   4.551   1.023   8.538  0.5303  0.3091 -0.0673
 7564SOL    HW134328   4.555   1.011   8.443  0.6127 -0.7145  0.0679
 7564SOL    HW234329   4.466   1.065   8.552  0.7857  0.2889  1.5904
 7565SOL     OW34330   3.583   0.507  14.103  0.2273 -1.1650  0.4829
 7565SOL    HW134331   3.579   0.422  14.146 -1.2365 -0.7801  1.1155
 7565SOL    HW234332   3.580   0.479  14.011  3.2990 -1.5647  0.5322
 7566SOL     OW34333   3.407   0.021   3.278 -0.0684  0.4300  0.1916
 7566SOL    HW134334   3.498   0.044   3.298  0.1642  0.7454 -1.2428
 7566SOL    HW234335   3.396   0.068   3.195 -0.3157  0.6205  0.3314
 7567SOL     OW34336   4.587   2.651   6.188 -0.2719 -0.1404  0.3191
 7567SOL    HW134337   4.657   2.714   6.206 -2.5480  1.8203  2.4571
 7567SOL    HW234338   4.532   2.694   6.122  0.1866 -3.7157 -2.3297
 7568SOL     OW34339   3.404   1.745   1.494  0.5094  0.4217 -0.1025
 7568SOL    HW134340   3.418   1.827   1.543  1.3116  1.7370 -2.5285
 7568SOL    HW234341   3.491   1.706   1.508  0.6724 -0.8936 -4.7036
 7569SOL     OW34342   1.168   0.625  10.259 -0.0662 -0.2029  0.4139
 7569SOL    HW134343   1.220   0.579  10.325 -2.5335 -1.9013  1.1843
 7569SOL    HW234344   1.087   0.622  10.310  0.8773 -1.6858  1.8352
 7570SOL     OW34345   0.040   2.534   1.950 -0.6238  0.0755  0.6755
 7570SOL    HW134346   0.127   2.557   1.985 -0.7383  2.8697 -0.8854
 7570SOL    HW234347   4.731   2.564   2.028  1.2850 -0.2525  1.9895
 7571SOL     OW34348   2.596   0.790   9.052 -0.7787 -0.0631 -0.1813
 7571SOL    HW134349   2.509   0.797   9.014 -0.2444 -2.7620 -1.9189
 7571SOL    HW234350   2.603   0.871   9.102 -2.2479 -0.9546  1.4910
 7572SOL     OW34351   3.747   4.650   7.877 -0.3690 -0.1501  0.3392
 7572SOL    HW134352   3.665   4.602   7.887 -0.9153  0.6556 -0.2659
 7572SOL    HW234353   3.790   4.593   7.814 -0.4988 -0.0601  0.1693
 7573SOL     OW34354   4.297   3.076   6.181 -0.6351  0.3645  0.4844
 7573SOL    HW134355   4.249   3.096   6.261 -2.9048 -1.2896 -0.4309
 7573SOL    HW234356   4.386   3.076   6.215 -0.3031 -0.4532 -0.3870
 7574SOL     OW34357   2.992   2.632   6.204 -0.1743  0.4471 -0.5253
 7574SOL    HW134358   3.002   2.724   6.227  2.5951 -0.3261  1.3079
 7574SOL    HW234359   2.897   2.622   6.204 -0.1689  0.4283 -0.0163
 7575SOL     OW34360   3.868   2.899   5.051  0.6007 -0.3335  0.2393
 7575SOL    HW134361   3.914   2.979   5.023  1.0033  0.0737  2.1040
 7575SOL    HW234362   3.870   2.894   5.146  1.6805  1.6691  0.3306
 7576SOL     OW34363   1.771   1.426  10.860  0.4251  0.3021  0.1814
 7576SOL    HW134364   1.805   1.343  10.894  0.9834  1.5077  2.5945
 7576SOL    HW234365   1.688   1.434  10.908 -1.1878 -0.2024 -2.5353
 7577SOL     OW34366   1.296   0.576   6.475  0.1061 -0.4165 -0.0531
 7577SOL    HW134367   1.344   0.501   6.440  1.8558 -0.1805  1.8870
 7577SOL    HW234368   1.207   0.565   6.439 -0.9581  1.7688  1.9135
 7578SOL     OW34369   2.284   3.823  10.298  0.3672 -0.2070  0.3935
 7578SOL    HW134370   2.306   3.915  10.284 -0.2998 -0.1320 -0.1989
 7578SOL    HW234371   2.305   3.820  10.391 -0.6788  1.5107  0.6873
 7579SOL     OW34372   0.375   1.557  13.064 -0.9748  0.5223 -0.9519
 7579SOL    HW134373   0.285   1.588  13.062 -1.2462 -0.1876 -0.0246
 7579SOL    HW234374   0.368   1.468  13.098 -4.4596  1.1048 -0.1005
 7580SOL     OW34375   3.290   0.846  13.787  0.4834  0.0834 -0.1296
 7580SOL    HW134376   3.222   0.784  13.762  1.0332 -0.0595 -1.2881
 7580SOL    HW234377   3.329   0.788  13.852 -0.3208  0.3192  0.5682
 7581SOL     OW34378   0.435   3.893  10.452 -0.0725  0.4754  0.8260
 7581SOL    HW134379   0.492   3.862  10.381 -2.3881  0.5652 -1.0765
 7581SOL    HW234380   0.449   3.987  10.442  0.1650  0.4397  0.8060
 7582SOL     OW34381   3.368   0.473   2.566  0.7660 -0.1969  0.5108
 7582SOL    HW134382   3.412   0.527   2.501  2.0459 -2.0588 -0.1763
 7582SOL    HW234383   3.439   0.463   2.629  0.3857  1.6213  1.2139
 7583SOL     OW34384   1.089   0.463   2.101  0.1132 -0.4900 -0.4942
 7583SOL    HW134385   1.160   0.513   2.141 -2.1254  2.4608 -0.2176
 7583SOL    HW234386   1.111   0.452   2.008  0.6600  3.4035 -0.8337
 7584SOL     OW34387   2.180   1.046  14.212 -0.1587 -0.3918  0.1073
 7584SOL    HW134388   2.173   1.096  14.293 -0.0260 -1.8358  1.0201
 7584SOL    HW234389   2.144   1.106  14.148 -2.5782  0.7586  2.5761
 7585SOL     OW34390   0.101   1.219  16.298  0.5380 -0.5524 -0.0376
 7585SOL    HW134391   0.142   1.199  16.382  0.4513 -0.5127  0.0146
 7585SOL    HW234392   0.152   1.164  16.239  1.1479  0.2582 -0.2603
 7586SOL     OW34393   2.823   2.692   5.709  0.2093  0.8927  0.4758
 7586SOL    HW134394   2.852   2.740   5.786 -2.0138 -0.3565  2.0893
 7586SOL    HW234395   2.903   2.646   5.686 -0.8046  0.6774 -2.6100
 7587SOL     OW34396   3.058   3.323   4.146 -0.0143  0.5154 -0.4710
 7587SOL    HW134397   3.110   3.395   4.182 -1.5814  1.1091  0.6533
 7587SOL    HW234398   3.118   3.251   4.164  0.1330  0.2838 -1.8848
 7588SOL     OW34399   3.438   3.833  17.213  0.3492 -0.7221  0.1237
 7588SOL    HW134400   3.446   3.904  17.276  3.2974  2.0519 -3.3335
 7588SOL    HW234401   3.477   3.871  17.134 -2.1995  0.3691 -0.6042
 7589SOL     OW34402   2.239   0.028  16.861 -0.7913  0.2591  0.9390
 7589SOL    HW134403   2.274   0.082  16.790 -0.2573  0.8217  1.6206
 7589SOL    HW234404   2.296   0.059  16.932  1.0474  1.6283 -1.1282
 7590SOL     OW34405   4.703   0.356  11.627 -0.2429 -0.2036  0.2125
 7590SOL    HW134406   4.683   0.319  11.712  2.0709  0.6931  1.1298
 7590SOL    HW234407   4.675   0.448  11.633 -0.7752 -0.3424 -0.1085
 7591SOL     OW34408   0.264   0.165   7.455  0.0987  0.6143  0.0848
 7591SOL    HW134409   0.317   0.183   7.532 -0.0169 -0.4717  0.4249
 7591SOL    HW234410   0.197   0.233   7.446  1.5151  2.1097  0.8898
 7592SOL     OW34411   2.351   0.872   3.718  0.1325 -0.0351  0.2306
 7592SOL    HW134412   2.411   0.863   3.793  0.3154 -0.6746  0.0013
 7592SOL    HW234413   2.413   0.867   3.645 -0.9879 -0.6165 -0.6762
 7593SOL     OW34414   3.896   3.308  11.833 -0.3875 -0.0526  0.0909
 7593SOL    HW134415   3.879   3.394  11.872  1.5171  0.5633 -0.4340
 7593SOL    HW234416   3.838   3.253  11.885  0.3374 -0.7071  0.2085
 7594SOL     OW34417   3.251   2.291  13.128  0.1811 -0.3888  0.2272
 7594SOL    HW134418   3.231   2.350  13.056  0.6948 -0.5114 -0.0207
 7594SOL    HW234419   3.160   2.268  13.146  0.5568 -1.7044  0.5058
 7595SOL     OW34420   0.129   1.325   9.392 -0.5070  0.4435 -1.0879
 7595SOL    HW134421   0.197   1.295   9.452 -0.1125  2.9267 -0.3169
 7595SOL    HW234422   0.085   1.242   9.372  0.4186 -0.6457  1.3831
 7596SOL     OW34423   2.427   1.682   5.903  0.1953 -0.7132  0.5403
 7596SOL    HW134424   2.382   1.757   5.864  0.6214 -1.3129 -1.1303
 7596SOL    HW234425   2.416   1.621   5.830  2.3353 -0.5944  0.1186
 7597SOL     OW34426   0.058   3.829   6.780 -0.3728 -0.0270 -0.4207
 7597SOL    HW134427   0.036   3.759   6.718 -2.1359  1.7610 -1.8028
 7597SOL    HW234428   0.009   3.904   6.748  1.6993  1.5736  0.1658
 7598SOL     OW34429   2.216   1.325  17.544  0.5557 -0.0950  0.0247
 7598SOL    HW134430   2.275   1.384  17.591 -1.6721  1.0792  1.3697
 7598SOL    HW234431   2.183   1.270  17.615 -0.9620  0.5657 -0.1625
 7599SOL     OW34432   3.103   1.031   7.974 -0.2373  0.2808 -0.3227
 7599SOL    HW134433   3.069   1.120   7.979 -1.2135 -0.1710  1.4124
 7599SOL    HW234434   3.154   1.027   8.055 -0.5565  0.2746 -0.1230
 7600SOL     OW34435   3.219   1.586   3.301  0.0647 -0.1659 -0.5727
 7600SOL    HW134436   3.149   1.555   3.243 -0.6699  1.2157 -0.4275
 7600SOL    HW234437   3.186   1.676   3.306  1.4677  0.3820 -1.2020
 7601SOL     OW34438   4.666   3.604  10.656  0.4943 -0.6337 -0.1188
 7601SOL    HW134439   4.663   3.629  10.564 -0.1043  1.5961  0.4927
 7601SOL    HW234440   4.731   3.536  10.643  0.7154 -0.9097  2.2992
 7602SOL     OW34441   1.150   3.836   8.152 -0.6649 -0.5706  0.6173
 7602SOL    HW134442   1.177   3.746   8.173 -3.0995 -0.6497  3.4389
 7602SOL    HW234443   1.231   3.884   8.168 -2.2195  1.7447  1.4589
 7603SOL     OW34444   1.349   0.581   7.438 -0.4615  0.0423  0.0819
 7603SOL    HW134445   1.398   0.662   7.423  0.8523 -0.7852 -0.0627
 7603SOL    HW234446   1.284   0.607   7.373  0.2530 -1.6666 -1.3207
 7604SOL     OW34447   3.847   3.498   3.296  0.4384  0.1459 -0.1867
 7604SOL    HW134448   3.792   3.455   3.363  0.1123 -0.0886 -0.6065
 7604SOL    HW234449   3.927   3.507   3.348  0.4215 -1.5866  0.1479
 7605SOL     OW34450   0.214   0.844   6.060  0.4199  0.3189  0.0478
 7605SOL    HW134451   0.120   0.863   6.068  0.0687 -1.6549  0.7318
 7605SOL    HW234452   0.252   0.913   6.007  0.7868  1.7966  2.2245
 7606SOL     OW34453   2.972   4.509  14.760  0.0523  0.5954 -0.3626
 7606SOL    HW134454   2.892   4.457  14.758 -0.3963  1.3010 -0.6545
 7606SOL    HW234455   2.934   4.591  14.792  0.3625  0.3560  0.6213
 7607SOL     OW34456   0.600   3.925   6.175 -0.3935 -0.1420 -0.2459
 7607SOL    HW134457   0.554   3.878   6.244 -1.6243 -0.2176 -1.1092
 7607SOL    HW234458   0.662   3.855   6.152 -0.4259 -0.6487  1.2477
 7608SOL     OW34459   3.532   2.133   2.761 -0.3461 -0.0879  0.1206
 7608SOL    HW134460   3.576   2.211   2.728 -1.4009  0.8278  0.8826
 7608SOL    HW234461   3.489   2.182   2.831  0.0409  0.2080  0.1504
 7609SOL     OW34462   2.402   3.544  10.456  0.0509 -0.4334 -0.2715
 7609SOL    HW134463   2.442   3.457  10.455  0.5976 -0.2166  1.8509
 7609SOL    HW234464   2.312   3.516  10.474 -0.3188  1.6109  1.0343
 7610SOL     OW34465   2.748   0.115   7.799  0.4437  0.0158  0.3301
 7610SOL    HW134466   2.775   0.042   7.743  1.0713 -0.5502  1.3725
 7610SOL    HW234467   2.813   0.114   7.869  0.1506  0.9405  0.6119
 7611SOL     OW34468   2.209   3.067   4.978  0.4482 -0.0565 -0.4120
 7611SOL    HW134469   2.297   3.036   5.000 -0.0950 -2.1914 -1.2263
 7611SOL    HW234470   2.221   3.162   4.969 -0.7589  0.3155  1.8874
 7612SOL     OW34471   0.498   0.534   9.177  0.4170  0.0003  0.9084
 7612SOL    HW134472   0.546   0.568   9.253  1.3578  1.2954 -0.2662
 7612SOL    HW234473   0.471   0.617   9.138 -0.5446 -0.4114  0.7048
 7613SOL     OW34474   2.914   2.376   2.911 -0.0007 -0.0068  0.2398
 7613SOL    HW134475   2.889   2.341   2.825  0.5586  2.3754 -0.9092
 7613SOL    HW234476   2.836   2.346   2.959 -2.2027  2.8955 -1.4989
 7614SOL     OW34477   2.175   4.350  14.860 -0.4675 -0.1769 -0.2022
 7614SOL    HW134478   2.154   4.401  14.938 -1.2450 -0.9174  0.0624
 7614SOL    HW234479   2.208   4.420  14.804  0.0617  0.6712  1.1730
 7615SOL     OW34480   1.854   3.125   2.639 -0.2793  0.1564  0.4339
 7615SOL    HW134481   1.789   3.055   2.632 -1.1542  1.1266 -1.0536
 7615SOL    HW234482   1.823   3.174   2.715 -1.1095 -0.6694  0.6183
 7616SOL     OW34483   4.126   2.032   3.617 -0.6854  0.8733 -0.3250
 7616SOL    HW134484   4.059   1.979   3.574  0.7536 -1.4211  0.2667
 7616SOL    HW234485   4.123   2.001   3.707  0.4231 -1.2826 -1.0212
 7617SOL     OW34486   4.622   1.726   7.560  0.0202 -0.5250 -0.3198
 7617SOL    HW134487   4.603   1.639   7.526  1.8399 -1.0422 -0.0185
 7617SOL    HW234488   4.667   1.769   7.487 -0.0975  0.0391 -0.0632
 7618SOL     OW34489   1.882   2.156   5.226  0.4632 -0.2369  0.1438
 7618SOL    HW134490   1.861   2.068   5.195 -0.4328  0.4205 -1.1366
 7618SOL    HW234491   1.906   2.151   5.318  2.4584 -0.9878 -0.4187
 7619SOL     OW34492   2.573   0.261   1.704  0.2973  0.0389  0.1276
 7619SOL    HW134493   2.638   0.219   1.759 -0.1467 -1.4438 -0.4799
 7619SOL    HW234494   2.505   0.194   1.693 -0.2906  0.5924  0.3951
 7620SOL     OW34495   3.820   0.294   7.656 -0.0994  0.3318  0.2217
 7620SOL    HW134496   3.753   0.244   7.609 -1.6449  1.8277  0.8159
 7620SOL    HW234497   3.867   0.222   7.697  1.4918  0.6027 -1.1095
 7621SOL     OW34498   3.168   4.404   2.062 -0.4401 -0.7275 -0.5232
 7621SOL    HW134499   3.082   4.403   2.019 -0.4827 -1.5493 -0.4172
 7621SOL    HW234500   3.225   4.453   2.003 -2.6754  0.6609 -1.5181
 7622SOL     OW34501   1.961   2.740  11.953  0.0948  0.6277 -0.2103
 7622SOL    HW134502   1.941   2.669  12.014 -0.7096  1.3879  0.4018
 7622SOL    HW234503   1.961   2.819  12.006  1.9623  0.2414  0.3675
 7623SOL     OW34504   1.224   4.605   8.856  0.2437 -0.2417 -0.1676
 7623SOL    HW134505   1.142   4.613   8.808  0.9227 -0.8811 -1.4289
 7623SOL    HW234506   1.268   4.690   8.853  1.4650 -0.8768 -0.2766
 7624SOL     OW34507   2.397   3.883   8.660  0.5408  0.0379 -0.3633
 7624SOL    HW134508   2.481   3.926   8.675  0.6953 -0.6309  0.6823
 7624SOL    HW234509   2.382   3.924   8.575  3.1919 -0.3055 -1.0203
 7625SOL     OW34510   3.809   3.075   5.590  0.3717 -0.2823 -0.1659
 7625SOL    HW134511   3.810   3.171   5.593  2.5625 -0.3432  1.2078
 7625SOL    HW234512   3.718   3.044   5.586  0.0847  0.5744 -0.3272
 7626SOL     OW34513   4.363   0.871   7.665 -0.2320  0.1316 -0.4002
 7626SOL    HW134514   4.298   0.937   7.686 -2.1683 -2.0374  0.4186
 7626SOL    HW234515   4.435   0.920   7.627 -0.0906  0.5298  0.3833
 7627SOL     OW34516   0.397   3.315   9.009 -0.1801 -0.3810  1.1053
 7627SOL    HW134517   0.403   3.226   8.974  2.5295 -0.9119  2.9108
 7627SOL    HW234518   0.387   3.296   9.102  0.5709 -0.5937  1.1377
 7628SOL     OW34519   3.674   3.236  16.872 -0.3085 -0.0870 -0.1533
 7628SOL    HW134520   3.656   3.323  16.909 -2.5006  0.0971 -1.6279
 7628SOL    HW234521   3.680   3.257  16.778  0.6027  0.7237  0.0872
 7629SOL     OW34522   2.997   0.016  16.969  0.2507  0.0597 -0.2786
 7629SOL    HW134523   3.007   4.663  16.996 -1.1106 -0.1874 -0.6498
 7629SOL    HW234524   2.902   0.019  16.981 -0.0955  1.6558 -3.5685
 7630SOL     OW34525   4.502   2.337   3.892 -0.0742 -0.1573 -0.2730
 7630SOL    HW134526   4.427   2.317   3.836  0.6259  0.1115 -1.2893
 7630SOL    HW234527   4.464   2.366   3.975  0.4699  0.9415 -0.4204
 7631SOL     OW34528   1.403   0.574   7.804  0.1310  0.0797  0.2747
 7631SOL    HW134529   1.320   0.525   7.804 -0.8553  1.7402 -0.7489
 7631SOL    HW234530   1.467   0.506   7.787 -1.6462 -1.7744  0.9218
 7632SOL     OW34531   2.238   1.394   3.139 -0.3078 -0.3989 -0.0993
 7632SOL    HW134532   2.161   1.444   3.112 -0.0946 -0.5255 -0.9428
 7632SOL    HW234533   2.184   1.316   3.151 -0.4881  0.1306  2.6573
 7633SOL     OW34534   2.784   3.572   2.780 -0.4563 -0.0386  0.6649
 7633SOL    HW134535   2.878   3.556   2.788 -0.8334 -2.3599  0.4137
 7633SOL    HW234536   2.755   3.481   2.770 -0.5285  0.1595 -1.0246
 7634SOL     OW34537   1.630   0.793   0.745 -0.0823 -0.0263 -0.5372
 7634SOL    HW134538   1.701   0.825   0.689  1.0731  0.9190  1.5018
 7634SOL    HW234539   1.631   0.844   0.826  3.0477  2.4534 -2.1624
 7635SOL     OW34540   3.383   3.389   9.423  0.2029 -0.2054 -0.1386
 7635SOL    HW134541   3.324   3.437   9.481  1.0438  0.7071 -0.0260
 7635SOL    HW234542   3.465   3.434   9.445  0.1807 -0.4898  0.5275
 7636SOL     OW34543   1.285   2.205   3.849  0.2534 -0.2307 -0.4199
 7636SOL    HW134544   1.253   2.117   3.870  0.8927 -0.0038  1.6013
 7636SOL    HW234545   1.376   2.180   3.835  0.3563  0.6098 -1.2396
 7637SOL     OW34546   1.386   1.178  13.955  0.0623 -0.3071 -0.3433
 7637SOL    HW134547   1.318   1.180  14.023  0.8376 -1.0753  0.4521
 7637SOL    HW234548   1.342   1.122  13.891  1.1001 -0.5851 -0.8056
 7638SOL     OW34549   0.242   4.345   0.801  0.1029 -0.0639 -0.2754
 7638SOL    HW134550   0.234   4.363   0.895  2.1316 -0.1559 -0.0787
 7638SOL    HW234551   0.179   4.411   0.773  2.9189  2.0501 -1.5817
 7639SOL     OW34552   2.121   1.816   5.222 -0.1819  0.3161 -0.1406
 7639SOL    HW134553   2.026   1.832   5.220 -0.2307  0.0430 -0.0480
 7639SOL    HW234554   2.145   1.895   5.271 -2.5802 -0.3120  2.0785
 7640SOL     OW34555   1.767   2.669   7.877 -0.6714 -0.0257  0.0496
 7640SOL    HW134556   1.844   2.673   7.934  0.0474  1.5313 -1.0537
 7640SOL    HW234557   1.798   2.653   7.788  0.7625  0.3975  0.4683
 7641SOL     OW34558   4.247   2.840   9.263 -0.3291 -0.1310 -0.2729
 7641SOL    HW134559   4.256   2.760   9.212  1.0927  0.3103 -0.7301
 7641SOL    HW234560   4.301   2.833   9.341  0.4559  1.0746 -0.6945
 7642SOL     OW34561   1.991   2.628   2.737 -0.2512 -0.1972  0.2939
 7642SOL    HW134562   1.926   2.655   2.672 -1.9839 -0.6268  1.8333
 7642SOL    HW234563   2.004   2.714   2.777  0.2955 -0.4655  0.7063
 7643SOL     OW34564   4.699   0.845   2.698 -0.0043 -0.2906  0.0410
 7643SOL    HW134565   0.002   0.759   2.701  2.0449  0.6304 -1.7909
 7643SOL    HW234566   0.039   0.892   2.669  0.0513 -0.8079 -0.6563
 7644SOL     OW34567   0.782   1.562   2.253 -0.1213 -0.0815  0.0631
 7644SOL    HW134568   0.852   1.607   2.301 -0.9314  1.6667 -0.4038
 7644SOL    HW234569   0.772   1.629   2.186  0.5708 -0.4508 -0.3981
 7645SOL     OW34570   1.878   3.160   4.511  0.3286  0.2163  0.4321
 7645SOL    HW134571   1.936   3.226   4.551  0.9890 -0.9421  1.3894
 7645SOL    HW234572   1.933   3.135   4.437 -2.4938 -1.7242 -0.9774
 7646SOL     OW34573   1.211   1.748   4.926  0.1729  0.0967  0.0152
 7646SOL    HW134574   1.166   1.805   4.864 -0.2647 -0.2728 -0.0093
 7646SOL    HW234575   1.278   1.704   4.873  2.3254 -0.6784  3.3727
 7647SOL     OW34576   2.323   0.802   4.014 -0.4368  0.1304 -0.4196
 7647SOL    HW134577   2.285   0.728   4.061 -1.5118  0.6828 -0.4145
 7647SOL    HW234578   2.404   0.826   4.059 -0.0991 -0.8221 -0.5153
 7648SOL     OW34579   2.395   3.315   3.618 -0.6077 -0.1164  0.1486
 7648SOL    HW134580   2.323   3.295   3.677 -0.4311  1.7593  0.9901
 7648SOL    HW234581   2.442   3.385   3.662 -1.3298  0.7496 -0.4472
 7649SOL     OW34582   0.640   1.326   5.022  0.0553  0.1839 -0.2014
 7649SOL    HW134583   0.720   1.299   5.068  0.0657  1.0064  0.2507
 7649SOL    HW234584   0.631   1.407   5.072 -1.9414 -1.2161  1.6921
 7650SOL     OW34585   1.615   0.474   7.355  0.1192 -0.6847  0.2197
 7650SOL    HW134586   1.585   0.416   7.285  0.4125  0.5427 -0.9213
 7650SOL    HW234587   1.535   0.481   7.407 -0.5500 -0.7576 -0.7933
 7651SOL     OW34588   2.842   0.156  14.052  0.1943  0.2160  0.3663
 7651SOL    HW134589   2.812   0.223  14.113 -0.8242  1.0603 -1.0638
 7651SOL    HW234590   2.932   0.135  14.078  0.6642  1.6593 -0.0679
 7652SOL     OW34591   2.538   1.546   3.919  0.1922 -0.0321  0.1136
 7652SOL    HW134592   2.577   1.595   3.992  0.5383 -0.5513  0.2768
 7652SOL    HW234593   2.565   1.456   3.936  0.3327  0.1064  0.6353
 7653SOL     OW34594   3.886   1.403   6.227  0.4314  0.3039  0.2023
 7653SOL    HW134595   3.900   1.367   6.315 -2.3417 -2.8853 -0.6519
 7653SOL    HW234596   3.965   1.453   6.213 -0.8417  2.0620 -0.6781
 7654SOL     OW34597   4.632   4.554   5.384  0.2104 -0.2834  0.8686
 7654SOL    HW134598   4.614   4.624   5.321  0.2677  0.1735  1.3522
 7654SOL    HW234599   4.706   4.509   5.344 -0.3630 -0.9055  0.5039
 7655SOL     OW34600   1.848   1.303  17.446 -0.7250 -0.3127  0.4725
 7655SOL    HW134601   1.771   1.341  17.487 -0.3649  0.8484  0.0587
 7655SOL    HW234602   1.796   1.257  17.380 -1.2714  0.2147  0.5374
 7656SOL     OW34603   1.541   0.325   7.801  0.0798  0.5885 -0.1594
 7656SOL    HW134604   1.628   0.316   7.763 -0.0764  0.6341 -0.5305
 7656SOL    HW234605   1.562   0.336   7.894 -0.5991 -0.0127  0.0704
 7657SOL     OW34606   0.580   2.379   4.873  0.0452 -0.1802  0.6094
 7657SOL    HW134607   0.530   2.317   4.926  1.6630 -0.0927  2.2133
 7657SOL    HW234608   0.648   2.402   4.936  1.6488 -2.1801 -0.4186
 7658SOL     OW34609   0.462   3.383   2.945  0.3401 -0.0037  0.0044
 7658SOL    HW134610   0.394   3.325   2.911 -0.6098  0.1414  1.6536
 7658SOL    HW234611   0.435   3.391   3.036 -2.9015 -1.5031 -0.8242
 7659SOL     OW34612   0.089   0.697   0.180  0.3225  0.1496  0.0357
 7659SOL    HW134613   0.123   0.783   0.204  3.6127 -1.4744  1.1737
 7659SOL    HW234614   0.165   0.661   0.135  1.1194 -0.5690  1.9451
 7660SOL     OW34615   0.154   3.107   8.013  0.5938  0.2407  0.4313
 7660SOL    HW134616   0.207   3.187   8.009 -0.1943  0.7961  1.1942
 7660SOL    HW234617   0.079   3.138   7.961  1.4054 -1.2326 -1.6142
 7661SOL     OW34618   2.906   0.106  11.923 -0.5320  0.0020  0.5489
 7661SOL    HW134619   2.921   0.014  11.943 -0.9675 -0.3841 -0.8787
 7661SOL    HW234620   2.821   0.098  11.881  0.2867  0.7388 -1.2655
 7662SOL     OW34621   0.939   3.450   7.290  0.1223  0.0522  0.1411
 7662SOL    HW134622   0.959   3.464   7.197  0.0771 -0.1148  0.1053
 7662SOL    HW234623   0.920   3.356   7.292 -1.4044  0.3778  1.1055
 7663SOL     OW34624   1.892   2.466  14.101  0.1582  0.3625 -0.2868
 7663SOL    HW134625   1.847   2.406  14.160 -0.3675  1.5827  0.5578
 7663SOL    HW234626   1.817   2.523  14.085  0.6054  1.3443  1.1058
 7664SOL     OW34627   3.642   0.680   4.542  0.1053 -0.1477  0.2740
 7664SOL    HW134628   3.617   0.590   4.521  0.1297  0.4148 -2.2256
 7664SOL    HW234629   3.705   0.686   4.470 -0.0625 -0.8415  0.0656
 7665SOL     OW34630   1.224   1.195   1.855  0.0312 -0.4091 -0.1174
 7665SOL    HW134631   1.292   1.156   1.911 -0.0062  0.3269  0.4420
 7665SOL    HW234632   1.276   1.215   1.777 -1.1165 -0.4312 -0.8861
 7666SOL     OW34633   1.300   0.775  15.063  0.1839  0.1990 -0.3256
 7666SOL    HW134634   1.371   0.714  15.083  0.7828  1.1465  0.4848
 7666SOL    HW234635   1.226   0.731  15.104  1.4090  1.0176  2.8006
 7667SOL     OW34636   2.342   0.897   8.081  0.3062  0.2503 -0.2052
 7667SOL    HW134637   2.247   0.890   8.093  0.3207 -0.7750 -0.6844
 7667SOL    HW234638   2.369   0.880   8.171 -0.1261  0.8771  0.0473
 7668SOL     OW34639   0.424   2.945   8.531 -0.2671 -0.3307 -0.1716
 7668SOL    HW134640   0.368   2.918   8.458  1.9308  2.3661 -2.8031
 7668SOL    HW234641   0.395   3.036   8.536 -0.2663 -0.4476  1.7867
 7669SOL     OW34642   0.411   2.727   2.810 -0.2018 -0.0020  0.3362
 7669SOL    HW134643   0.465   2.743   2.732 -1.3030  0.5098 -0.3150
 7669SOL    HW234644   0.411   2.809   2.860  0.6528 -0.5525  1.2543
 7670SOL     OW34645   2.129   2.510   4.338  0.4612  0.6264  0.3169
 7670SOL    HW134646   2.111   2.448   4.268 -0.4945 -0.2133  1.2916
 7670SOL    HW234647   2.075   2.475   4.410  1.3022 -0.7093  0.2884
 7671SOL     OW34648   0.477   1.961   7.308  0.5136 -0.4069 -0.2438
 7671SOL    HW134649   0.423   1.943   7.231 -3.0744  0.1077  2.1611
 7671SOL    HW234650   0.453   2.053   7.315 -2.4582 -1.1711 -0.3170
 7672SOL     OW34651   3.973   0.472   8.030 -0.5842 -0.5593 -0.2967
 7672SOL    HW134652   3.985   0.519   7.948 -3.6475  0.0765 -0.3687
 7672SOL    HW234653   4.038   0.519   8.081  1.0352 -1.0467 -1.9355
 7673SOL     OW34654   1.252   4.288   2.066  0.3903 -0.5910 -0.4499
 7673SOL    HW134655   1.287   4.224   2.005 -0.0362  0.1457 -1.4696
 7673SOL    HW234656   1.241   4.357   2.000  0.0145  0.5454  0.7823
 7674SOL     OW34657   3.045   2.640   3.133 -0.7243 -0.1384  0.2372
 7674SOL    HW134658   2.977   2.694   3.092 -1.8812 -1.3439  0.5230
 7674SOL    HW234659   3.095   2.706   3.179 -1.0613  0.3487 -0.1009
 7675SOL     OW34660   1.738   3.019  13.229  0.0504  0.2064 -0.1992
 7675SOL    HW134661   1.689   3.095  13.258 -0.7679  0.1136 -1.3266
 7675SOL    HW234662   1.830   3.030  13.252 -0.5766 -0.2386  2.5462
 7676SOL     OW34663   2.193   3.938   4.385 -0.4915  0.1325  0.2405
 7676SOL    HW134664   2.273   3.898   4.351 -1.0818 -0.3709 -0.5526
 7676SOL    HW234665   2.149   3.866   4.428  1.3354 -1.3088 -0.3063
 7677SOL     OW34666   4.030   1.690   1.329  0.2886  0.2810 -0.3491
 7677SOL    HW134667   4.113   1.711   1.371  0.3484 -0.6647  0.0092
 7677SOL    HW234668   4.029   1.599   1.358 -0.3558  0.2488 -0.4588
 7678SOL     OW34669   2.077   2.849   6.164  0.3574  0.2517  0.4867
 7678SOL    HW134670   2.024   2.814   6.236  2.4746  0.9371  2.3727
 7678SOL    HW234671   2.041   2.936   6.153 -0.1251 -0.0924 -0.6560
 7679SOL     OW34672   0.793   4.281   8.049  0.5663  0.0517  0.2159
 7679SOL    HW134673   0.847   4.321   7.981  2.1575 -2.9246 -0.2742
 7679SOL    HW234674   0.861   4.252   8.111 -0.8652 -1.5115  1.0641
 7680SOL     OW34675   3.322   4.043   5.298  0.0708 -0.4091  0.0308
 7680SOL    HW134676   3.343   3.952   5.318 -0.5919 -0.3511  0.9677
 7680SOL    HW234677   3.392   4.089   5.345 -0.8254 -0.3601  1.3261
 7681SOL     OW34678   1.577   3.613   4.604 -0.1394 -0.4494  0.3863
 7681SOL    HW134679   1.621   3.533   4.634 -0.5255 -0.9714 -0.4723
 7681SOL    HW234680   1.651   3.673   4.593  0.1215 -1.0041 -0.9550
 7682SOL     OW34681   1.925   0.190   1.604  0.2797  0.0769 -0.0771
 7682SOL    HW134682   1.915   0.153   1.692  0.9097 -1.3408 -0.5901
 7682SOL    HW234683   1.925   0.284   1.622  0.4699  0.0751 -0.0602
 7683SOL     OW34684   4.684   1.506   7.346 -0.1052  0.9116  0.0893
 7683SOL    HW134685   4.657   1.414   7.355 -1.1561  1.1215 -0.9493
 7683SOL    HW234686   4.631   1.527   7.270 -1.7683  0.2218  1.0649
 7684SOL     OW34687   0.868   2.178   9.211 -0.1629 -0.3134 -0.3058
 7684SOL    HW134688   0.877   2.178   9.306  0.2033  0.8478 -0.3437
 7684SOL    HW234689   0.950   2.221   9.185 -0.4173  0.7762  0.6858
 7685SOL     OW34690   2.688   2.340   8.575 -0.0480 -0.3710  0.3373
 7685SOL    HW134691   2.604   2.326   8.532  0.6048  2.7848 -1.9522
 7685SOL    HW234692   2.657   2.365   8.663 -1.3632 -1.3115  0.1364
 7686SOL     OW34693   4.067   3.707   3.966  0.4126  0.2251 -0.0807
 7686SOL    HW134694   4.086   3.768   3.895 -1.9659 -0.6562 -1.4847
 7686SOL    HW234695   4.144   3.722   4.021  1.2106  2.2076 -1.7585
 7687SOL     OW34696   1.065   3.213   1.450 -0.2004 -0.8869  0.5149
 7687SOL    HW134697   1.062   3.285   1.512 -1.1116 -0.1773 -0.3452
 7687SOL    HW234698   0.975   3.184   1.461 -0.2178 -0.6458  0.9860
 7688SOL     OW34699   0.179   0.295  12.990  0.4580  0.0409  0.0480
 7688SOL    HW134700   0.186   0.276  12.897 -0.2100 -2.0584  0.4005
 7688SOL    HW234701   0.266   0.329  13.009  0.5882 -0.1605 -0.1903
 7689SOL     OW34702   0.037   2.293  12.142  0.2926  0.1984 -0.2758
 7689SOL    HW134703   0.070   2.206  12.163 -0.7600 -0.2329 -0.4010
 7689SOL    HW234704   0.069   2.294  12.052  0.9012 -3.9616 -0.1053
 7690SOL     OW34705   2.262   1.062   4.279 -0.7427  0.2987 -0.4618
 7690SOL    HW134706   2.262   1.053   4.374  0.4166 -3.8646 -0.8790
 7690SOL    HW234707   2.220   0.979   4.255  0.9290 -0.5833 -0.3220
 7691SOL     OW34708   0.991   1.706   9.172 -0.2319  0.0376 -0.4262
 7691SOL    HW134709   0.904   1.720   9.209  0.2522  0.6933  0.4527
 7691SOL    HW234710   0.983   1.623   9.126  0.5291  0.5423 -1.4673
 7692SOL     OW34711   3.752   1.419   3.483  0.0302 -0.0293 -0.2059
 7692SOL    HW134712   3.821   1.483   3.466 -0.1118 -0.9073 -3.9388
 7692SOL    HW234713   3.671   1.470   3.488  1.1195  1.5487  1.2957
 7693SOL     OW34714   2.234   0.915   6.384  0.1685 -0.4491  0.2228
 7693SOL    HW134715   2.259   0.865   6.307  1.1897  0.4549 -0.0366
 7693SOL    HW234716   2.303   0.901   6.449 -0.4321  0.2115  1.0024
 7694SOL     OW34717   3.768   2.521   2.040  0.1572 -0.2133 -0.0520
 7694SOL    HW134718   3.851   2.475   2.026 -0.0423 -0.2253 -1.2175
 7694SOL    HW234719   3.756   2.567   1.957  1.2713 -0.8710 -0.5726
 7695SOL     OW34720   4.591   2.052  16.220  0.1587  0.2008 -0.3727
 7695SOL    HW134721   4.593   2.080  16.312  0.8780 -1.3650  0.0990
 7695SOL    HW234722   4.528   1.980  16.220 -0.3843  0.6877  1.4641
 7696SOL     OW34723   2.354   1.225   0.031 -0.2664 -0.2865  0.0641
 7696SOL    HW134724   2.315   1.140   0.011  1.0905 -0.9095  0.1208
 7696SOL    HW234725   2.444   1.202   0.008 -0.3351 -1.5829  1.0950
 7697SOL     OW34726   3.859   3.695  11.235  0.2264  0.0895 -0.2844
 7697SOL    HW134727   3.832   3.661  11.320  3.1334 -0.4240  0.4475
 7697SOL    HW234728   3.820   3.638  11.169  1.5248 -0.9492 -0.1592
 7698SOL     OW34729   2.670   1.316  14.692  0.5173  0.2580 -0.3245
 7698SOL    HW134730   2.722   1.243  14.725 -1.4873 -0.8862  0.3153
 7698SOL    HW234731   2.580   1.290  14.713  0.6290 -1.3979 -1.9303
 7699SOL     OW34732   2.844   0.483   2.579  0.6274  0.4528 -0.7371
 7699SOL    HW134733   2.800   0.403   2.608  0.6278  0.5048 -0.5950
 7699SOL    HW234734   2.791   0.553   2.615  0.6995 -0.4376  1.1029
 7700SOL     OW34735   2.565   3.501   0.497 -0.0177  0.0110 -0.1138
 7700SOL    HW134736   2.580   3.444   0.422 -0.2283  1.7237 -1.4755
 7700SOL    HW234737   2.569   3.592   0.467 -0.7516 -0.9770 -3.2235
 7701SOL     OW34738   0.760   2.776  12.962 -0.0101  0.0728 -0.4822
 7701SOL    HW134739   0.694   2.715  12.996 -0.4125  2.3184  2.6608
 7701SOL    HW234740   0.784   2.729  12.882  2.4708  0.9081 -0.2233
 7702SOL     OW34741   3.880   2.745   6.497  0.1027  0.2501 -0.1486
 7702SOL    HW134742   3.974   2.746   6.517 -0.0891  2.2173  0.5701
 7702SOL    HW234743   3.863   2.836   6.476  0.3242  0.1018 -0.9892
 7703SOL     OW34744   4.043   1.178   1.615 -0.2165  0.3365 -0.0890
 7703SOL    HW134745   4.046   1.268   1.583  1.3639  0.7594  1.2882
 7703SOL    HW234746   3.963   1.198   1.663  0.0986  0.0862  0.5359
 7704SOL     OW34747   2.338   3.887  14.883  0.0292  0.2412 -0.2646
 7704SOL    HW134748   2.245   3.891  14.907  0.4746  0.3827  1.4798
 7704SOL    HW234749   2.371   3.822  14.945 -3.0784  0.2899  1.4453
 7705SOL     OW34750   4.049   3.499  15.304 -0.4020 -0.6977 -0.1878
 7705SOL    HW134751   4.037   3.406  15.282  0.5335 -1.3930  2.2540
 7705SOL    HW234752   4.098   3.527  15.228 -1.0705 -1.2874 -0.8452
 7706SOL     OW34753   0.940   3.753  11.471  0.1804 -0.1257 -0.0249
 7706SOL    HW134754   0.868   3.693  11.492 -0.5162  0.4085 -0.8810
 7706SOL    HW234755   0.899   3.839  11.467  1.4526  0.5507  1.9855
 7707SOL     OW34756   4.154   4.603  16.553  0.3472 -0.4273  0.3811
 7707SOL    HW134757   4.209   4.668  16.596 -1.8764  0.3012  2.0919
 7707SOL    HW234758   4.144   4.651  16.470 -2.2110 -0.6630  0.5710
 7708SOL     OW34759   0.219   0.416  15.981  0.0789  0.2309 -0.0452
 7708SOL    HW134760   0.237   0.326  15.955  0.9340  0.2645  0.4246
 7708SOL    HW234761   0.241   0.481  15.913 -1.2492  1.3108  0.5513
 7709SOL     OW34762   4.394   3.044   8.021 -0.2073  0.6942  0.0730
 7709SOL    HW134763   4.490   3.049   8.015 -0.1852 -0.5565 -0.4585
 7709SOL    HW234764   4.375   3.135   8.044  0.8326  0.1416  3.1695
 7710SOL     OW34765   1.166   1.819   8.316  0.3538  0.2665  0.0662
 7710SOL    HW134766   1.194   1.898   8.270 -0.5665  0.1465 -0.6854
 7710SOL    HW234767   1.233   1.755   8.292  0.4338 -0.0511  1.1022
 7711SOL     OW34768   3.530   0.965   1.700  0.7484  0.7098 -0.0498
 7711SOL    HW134769   3.569   0.970   1.787 -0.0473 -1.3617  0.4358
 7711SOL    HW234770   3.565   0.880   1.673  1.2538  0.4695  1.4244
 7712SOL     OW34771   0.935   1.379   4.026  0.1506  0.1362  0.3178
 7712SOL    HW134772   0.863   1.317   4.031  0.6109 -0.3572  0.8420
 7712SOL    HW234773   1.004   1.326   4.067  0.4482  0.5724  0.3826
 7713SOL     OW34774   3.639   0.767  10.782 -0.4737 -0.7892  0.1637
 7713SOL    HW134775   3.628   0.862  10.776 -3.1250 -1.0920  0.0625
 7713SOL    HW234776   3.669   0.757  10.873  0.6894 -0.9239 -0.2417
 7714SOL     OW34777   0.665   2.717   7.129 -0.0782  0.0184 -0.0123
 7714SOL    HW134778   0.593   2.663   7.164  0.0991  0.0228  0.3557
 7714SOL    HW234779   0.646   2.802   7.169 -1.2509 -0.2346 -0.0350
 7715SOL     OW34780   2.528   2.455   8.092 -0.1254 -0.0448  0.0164
 7715SOL    HW134781   2.531   2.524   8.158 -1.2494 -0.6702  0.7342
 7715SOL    HW234782   2.507   2.513   8.018  1.3991  0.6605  0.1543
 7716SOL     OW34783   4.485   2.810  16.009  0.6346  0.0214  0.6071
 7716SOL    HW134784   4.553   2.841  15.949 -2.0150 -0.0991 -2.4446
 7716SOL    HW234785   4.518   2.821  16.098  0.6652  1.4630  0.4068
 7717SOL     OW34786   0.271   3.203   3.192  0.4712  0.6767 -0.0473
 7717SOL    HW134787   0.322   3.283   3.181  1.7689 -0.3564 -1.5486
 7717SOL    HW234788   0.340   3.141   3.168 -1.2073 -0.7977 -1.0948
 7718SOL     OW34789   1.119   3.193   2.151  0.4754  0.5387  0.8408
 7718SOL    HW134790   1.109   3.244   2.231  0.8078 -0.2355  1.3765
 7718SOL    HW234791   1.024   3.197   2.135  0.6691  1.5549 -0.0295
 7719SOL     OW34792   3.380   0.521   1.598 -0.5059 -0.0466 -0.1156
 7719SOL    HW134793   3.311   0.494   1.537 -2.5472  1.2296  1.6180
 7719SOL    HW234794   3.462   0.523   1.549 -0.4768  1.9834  0.0077
 7720SOL     OW34795   4.548   1.479  15.511  0.3041  0.5770  0.5099
 7720SOL    HW134796   4.589   1.561  15.482 -2.2007  0.8668 -2.1430
 7720SOL    HW234797   4.458   1.472  15.478 -0.6273  2.1134  2.6638
 7721SOL     OW34798   2.308   3.936   0.035  0.1593 -0.4708 -0.0562
 7721SOL    HW134799   2.319   3.875   0.107 -1.0089  0.3215  0.7859
 7721SOL    HW234800   2.295   4.019   0.081  0.2832 -0.4701 -0.0237
 7722SOL     OW34801   1.137   3.621   2.810  0.2356  0.4461 -0.6101
 7722SOL    HW134802   1.082   3.685   2.856  0.2461 -0.0649  0.1161
 7722SOL    HW234803   1.180   3.677   2.745 -0.0227  0.0214 -1.1402
 7723SOL     OW34804   0.776   0.306   2.306  0.2692 -0.2870 -0.3406
 7723SOL    HW134805   0.756   0.398   2.327 -1.1408  0.1030 -3.3653
 7723SOL    HW234806   0.688   0.271   2.295 -0.0334  0.1501  0.6810
 7724SOL     OW34807   4.128   3.104   1.524 -0.1034  0.1957  0.0346
 7724SOL    HW134808   4.190   3.077   1.592 -1.6362 -1.3404  0.8066
 7724SOL    HW234809   4.045   3.093   1.569  0.2776  0.9482  0.9337
 7725SOL     OW34810   0.748   3.507   5.122 -0.2384 -0.1382 -0.1223
 7725SOL    HW134811   0.708   3.525   5.037 -1.0378 -0.1868  0.2507
 7725SOL    HW234812   0.821   3.569   5.125  2.0821 -2.7996 -1.0796
 7726SOL     OW34813   0.523   1.828   9.196 -0.4626 -0.9037 -0.2835
 7726SOL    HW134814   0.469   1.905   9.211  0.6771  0.0137 -0.9153
 7726SOL    HW234815   0.593   1.857   9.255 -0.8066  0.9154 -0.7899
 7727SOL     OW34816   3.013   1.456   3.197  0.5586  0.2406  0.6246
 7727SOL    HW134817   2.969   1.480   3.279 -0.8320 -2.9923  0.8303
 7727SOL    HW234818   3.012   1.360   3.204 -2.1293  0.1568 -0.9326
 7728SOL     OW34819   3.992   0.107   6.906 -0.1475 -0.3973  0.2107
 7728SOL    HW134820   3.956   0.195   6.904  0.8903  0.0782  1.8920
 7728SOL    HW234821   4.079   0.129   6.940 -0.2175  0.5436 -0.2332
 7729SOL     OW34822   1.830   0.777  10.844 -0.2599  0.0730  0.7896
 7729SOL    HW134823   1.877   0.770  10.927 -0.8306 -1.1431  1.0172
 7729SOL    HW234824   1.759   0.713  10.857  0.1834 -0.5873 -0.0970
 7730SOL     OW34825   3.276   3.651   3.801 -0.3796 -0.2154  0.2859
 7730SOL    HW134826   3.288   3.593   3.726 -0.8900 -2.6805  2.1506
 7730SOL    HW234827   3.193   3.687   3.770  1.3666  0.5302 -3.6149
 7731SOL     OW34828   3.689   3.887   7.553  0.4382 -0.5073 -0.1716
 7731SOL    HW134829   3.729   3.848   7.631  1.3969 -0.9028 -0.8661
 7731SOL    HW234830   3.740   3.839   7.488 -0.1493  2.4729 -2.8025
 7732SOL     OW34831   1.299   4.649  14.309 -0.1002  0.6053 -0.6188
 7732SOL    HW134832   1.322   4.584  14.375  0.2977 -0.1504 -1.4838
 7732SOL    HW234833   1.204   4.660  14.312 -0.1787 -0.4243  0.3855
 7733SOL     OW34834   4.540   3.260   4.498 -0.0613 -0.3922  0.5198
 7733SOL    HW134835   4.614   3.312   4.467 -1.0344  0.5124 -0.2538
 7733SOL    HW234836   4.467   3.315   4.473 -0.0804 -0.8087 -0.3499
 7734SOL     OW34837   1.527   2.889   5.347 -0.2343  0.7630 -0.0356
 7734SOL    HW134838   1.594   2.954   5.325  1.7924 -0.8326  1.4337
 7734SOL    HW234839   1.583   2.811   5.349 -2.0828 -0.6107 -1.0408
 7735SOL     OW34840   4.186   1.749  10.406 -0.1662 -0.1189  0.1285
 7735SOL    HW134841   4.126   1.675  10.391 -1.1556  0.6098  0.4929
 7735SOL    HW234842   4.121   1.802  10.452  1.3509  1.7045  0.1540
 7736SOL     OW34843   1.946   0.970   2.872  0.2720  0.5827 -0.4508
 7736SOL    HW134844   2.038   0.948   2.857  0.3494  1.4033 -1.1975
 7736SOL    HW234845   1.896   0.891   2.852 -0.1291  0.6385  0.3419
 7737SOL     OW34846   4.057   1.823   5.057  0.1941  0.1313 -0.0120
 7737SOL    HW134847   4.064   1.906   5.011 -0.3271 -0.7346 -1.6618
 7737SOL    HW234848   4.091   1.843   5.144 -0.8976  1.0550  0.1958
 7738SOL     OW34849   3.028   0.289   3.055  0.3139 -0.3397 -0.0701
 7738SOL    HW134850   2.990   0.285   2.968 -0.4235 -1.0325  0.2784
 7738SOL    HW234851   3.117   0.316   3.031  0.9714  0.2789  3.0750
 7739SOL     OW34852   1.401   3.732   3.240 -0.3867 -0.3934 -0.7045
 7739SOL    HW134853   1.366   3.643   3.243 -1.7169  0.1921  1.1100
 7739SOL    HW234854   1.342   3.777   3.179 -1.5145  2.0456  2.2302
 7740SOL     OW34855   2.263   3.352  10.960  0.4287  0.0569  0.1899
 7740SOL    HW134856   2.172   3.334  10.983  0.2289 -0.2541 -0.8465
 7740SOL    HW234857   2.295   3.384  11.045 -0.5027  2.3278 -0.3171
 7741SOL     OW34858   2.772   0.947   5.391  0.3604 -0.2493 -0.8459
 7741SOL    HW134859   2.791   0.877   5.329  1.1418  1.3528 -2.4101
 7741SOL    HW234860   2.733   1.008   5.328  0.0737  0.0239 -0.3999
 7742SOL     OW34861   1.508   0.627  16.340  0.3042 -0.0886  0.4741
 7742SOL    HW134862   1.519   0.719  16.362 -0.7285 -0.2959  1.9314
 7742SOL    HW234863   1.419   0.595  16.357 -0.4878  0.6863 -2.2706
 7743SOL     OW34864   1.100   1.511   7.908 -0.0474  0.6879  0.2845
 7743SOL    HW134865   1.034   1.580   7.915  0.2487  1.2365 -2.3048
 7743SOL    HW234866   1.109   1.503   7.813  1.7018  3.4217  0.2317
 7744SOL     OW34867   4.397   1.597   1.840  0.5724 -0.1728 -0.5796
 7744SOL    HW134868   4.436   1.538   1.904  1.8022 -0.0588 -1.2181
 7744SOL    HW234869   4.404   1.557   1.753  0.4287 -4.4712  1.3760
 7745SOL     OW34870   2.327   4.323   5.679  0.4617  0.0877  0.3929
 7745SOL    HW134871   2.382   4.359   5.610  0.2236  0.0197  0.1682
 7745SOL    HW234872   2.282   4.246   5.645 -0.6421  0.6198  0.6496
 7746SOL     OW34873   4.627   4.173   8.666  0.5782  0.0308 -0.1941
 7746SOL    HW134874   4.561   4.225   8.711  0.4126  1.1562 -1.7505
 7746SOL    HW234875   4.592   4.086   8.687 -0.5024  0.1119 -1.6313
 7747SOL     OW34876   4.323   3.231  12.389 -0.2482 -0.1634  0.0810
 7747SOL    HW134877   4.228   3.242  12.396  0.2378  2.7942  1.8799
 7747SOL    HW234878   4.358   3.197  12.472 -0.8180  0.0163  0.3953
 7748SOL     OW34879   3.282   0.289   5.617 -0.1074  0.6742  0.2570
 7748SOL    HW134880   3.302   0.201   5.584  3.7690  1.8318 -0.4956
 7748SOL    HW234881   3.209   0.265   5.674  0.1709  0.9596  0.7333
 7749SOL     OW34882   2.939   2.384   8.668 -0.0785  0.1286  0.0083
 7749SOL    HW134883   2.856   2.348   8.635  0.8183 -1.4083 -0.5779
 7749SOL    HW234884   2.999   2.356   8.598 -0.4806  0.8481 -0.6284
 7750SOL     OW34885   3.389   0.892   2.014 -0.0072  0.5246  0.7190
 7750SOL    HW134886   3.337   0.960   1.970 -0.3049 -0.0110  0.2485
 7750SOL    HW234887   3.454   0.940   2.066  2.7708 -4.1407  1.5324
 7751SOL     OW34888   3.141   2.514  16.530 -0.0513 -0.8437 -0.0576
 7751SOL    HW134889   3.218   2.458  16.533  0.8222  0.2946 -1.0168
 7751SOL    HW234890   3.076   2.464  16.481 -1.4896 -1.9583  2.9461
 7752SOL     OW34891   0.569   2.789   3.990 -0.7309 -0.0127  0.5401
 7752SOL    HW134892   0.539   2.871   4.028  1.9837  0.8822  0.7402
 7752SOL    HW234893   0.636   2.815   3.927 -1.5817 -2.0685 -1.2298
 7753SOL     OW34894   3.644   1.630   8.395 -0.2247 -0.1425 -0.4495
 7753SOL    HW134895   3.698   1.584   8.460  0.1643 -1.0163 -1.3918
 7753SOL    HW234896   3.559   1.637   8.439 -1.1060 -0.1742 -2.1364
 7754SOL     OW34897   3.244   0.001   7.783 -0.2478 -0.0247 -0.3840
 7754SOL    HW134898   3.336   0.020   7.764  0.3731 -1.9743  0.6657
 7754SOL    HW234899   3.231   0.050   7.864 -0.4393 -0.6152 -0.0578
 7755SOL     OW34900   0.375   3.123   7.671 -0.1348 -0.3582 -0.4398
 7755SOL    HW134901   0.470   3.118   7.656 -0.2784  0.3283 -1.5568
 7755SOL    HW234902   0.344   3.049   7.618 -0.6487 -1.2551  1.1058
 7756SOL     OW34903   2.191   0.381   7.590 -0.1029  0.5261 -0.3535
 7756SOL    HW134904   2.251   0.382   7.515 -1.4459  2.7516 -1.3978
 7756SOL    HW234905   2.158   0.293   7.574 -2.9576  1.3045  1.2444
 7757SOL     OW34906   1.869   3.279   3.378  0.1755  0.3533  0.1468
 7757SOL    HW134907   1.843   3.261   3.288  0.4718 -0.8211  0.3011
 7757SOL    HW234908   1.934   3.212   3.398 -0.3093 -0.6447 -1.6640
 7758SOL     OW34909   3.726   3.730   4.762 -0.1461 -0.1536  0.1165
 7758SOL    HW134910   3.798   3.688   4.810 -0.5817  0.9895  1.7675
 7758SOL    HW234911   3.709   3.802   4.822 -1.3549 -0.8577  0.6221
 7759SOL     OW34912   3.393   2.656   3.911  0.3948  0.2289  0.4606
 7759SOL    HW134913   3.364   2.591   3.976 -0.4712 -1.4720 -1.6364
 7759SOL    HW234914   3.335   2.629   3.840 -0.5058  0.5894  1.0500
 7760SOL     OW34915   2.443   1.648   4.702 -0.7455 -0.4315 -0.0207
 7760SOL    HW134916   2.446   1.657   4.797  1.7125 -2.2065  0.0804
 7760SOL    HW234917   2.444   1.741   4.678  0.8365 -0.5938 -0.5954
 7761SOL     OW34918   0.062   0.988   1.511 -0.5330  0.2884 -0.6523
 7761SOL    HW134919   4.736   0.919   1.496  0.9158 -1.9372  3.2402
 7761SOL    HW234920   0.090   0.964   1.600 -4.6202  0.8144  0.8125
 7762SOL     OW34921   1.107   0.940  10.678  0.0544 -0.0252 -0.3710
 7762SOL    HW134922   1.083   0.944  10.585  0.8112 -0.0048 -0.5647
 7762SOL    HW234923   1.106   0.845  10.684 -0.3966  0.0090  0.1203
 7763SOL     OW34924   2.063   0.874  12.912 -0.3924 -0.1475  0.4850
 7763SOL    HW134925   2.075   0.967  12.895 -0.3884 -0.0626  0.9528
 7763SOL    HW234926   2.149   0.851  12.947  1.0553  4.1396 -0.3029
 7764SOL     OW34927   4.044   1.404   1.337 -0.0765  0.0219  0.3500
 7764SOL    HW134928   4.057   1.406   1.432 -0.5043  2.4085  0.3523
 7764SOL    HW234929   3.958   1.366   1.320  0.7111 -1.1456 -0.9640
 7765SOL     OW34930   3.134   1.148   4.543  0.2911  0.0392  0.6528
 7765SOL    HW134931   3.108   1.089   4.471  2.6532 -0.5787  0.3016
 7765SOL    HW234932   3.225   1.167   4.521  0.1232 -1.0647 -1.0173
 7766SOL     OW34933   1.810   2.379   2.330  0.0256  0.8772 -0.1188
 7766SOL    HW134934   1.778   2.469   2.338 -2.1692 -0.0276  1.1612
 7766SOL    HW234935   1.871   2.372   2.404 -0.9772 -0.2751  0.5908
 7767SOL     OW34936   0.674   1.172  12.297 -0.3071 -0.0932  0.1683
 7767SOL    HW134937   0.715   1.253  12.327  0.9564 -1.1204  1.2120
 7767SOL    HW234938   0.749   1.138  12.249 -0.9618 -0.3409 -0.6758
 7768SOL     OW34939   0.190   2.305   0.450  0.1203  0.5742 -0.1731
 7768SOL    HW134940   0.134   2.228   0.436  1.2381 -0.5055  1.3462
 7768SOL    HW234941   0.118   2.366   0.467  0.9903  1.1504  1.3794
 7769SOL     OW34942   2.966   4.392   2.611 -0.3820  0.5178 -0.2373
 7769SOL    HW134943   2.900   4.331   2.643  1.3072 -2.0551 -1.6858
 7769SOL    HW234944   2.995   4.341   2.536 -0.6645  0.5323 -0.3530
 7770SOL     OW34945   2.827   3.742   9.764  0.2889  0.1705 -0.2838
 7770SOL    HW134946   2.899   3.775   9.818 -0.1717  0.6133  0.0613
 7770SOL    HW234947   2.857   3.753   9.673 -1.1785  1.9317 -0.5643
 7771SOL     OW34948   0.858   3.021   0.578  0.3133  0.1768  0.1001
 7771SOL    HW134949   0.892   3.086   0.639 -1.4730  0.3771  0.8841
 7771SOL    HW234950   0.848   3.071   0.498  0.0116 -0.9706 -0.5845
 7772SOL     OW34951   2.607   0.658   7.997 -0.6109  0.3007 -0.1364
 7772SOL    HW134952   2.636   0.665   7.907 -1.9295 -1.9145 -0.7475
 7772SOL    HW234953   2.515   0.633   7.994 -0.3944 -0.4284 -0.8639
 7773SOL     OW34954   2.191   4.625  13.551  0.2802 -0.1798  0.5651
 7773SOL    HW134955   2.142   4.648  13.630 -4.0881 -2.3450 -1.5398
 7773SOL    HW234956   2.283   4.620  13.578  0.8104 -0.8050 -1.3760
 7774SOL     OW34957   3.306   2.673   6.816  0.4186  0.0670 -0.5161
 7774SOL    HW134958   3.222   2.702   6.851 -0.5796 -0.8683 -2.1086
 7774SOL    HW234959   3.360   2.749   6.837 -1.5212  0.8486  1.5001
 7775SOL     OW34960   4.284   2.284   4.385  0.4872 -0.8467  0.1225
 7775SOL    HW134961   4.332   2.216   4.433 -0.8037 -0.4349  1.9964
 7775SOL    HW234962   4.202   2.276   4.434 -0.1002 -0.4980 -0.8182
 7776SOL     OW34963   0.140   4.657   2.172  0.4418 -0.8391  0.2784
 7776SOL    HW134964   0.112   4.700   2.091  0.3846 -0.8352  0.3003
 7776SOL    HW234965   0.073   4.592   2.192 -0.0904  0.5192  2.9586
 7777SOL     OW34966   3.790   1.412   7.543 -0.3288  0.0207 -0.6315
 7777SOL    HW134967   3.783   1.494   7.592  1.2866  0.4467 -1.1108
 7777SOL    HW234968   3.822   1.447   7.460  1.3006 -0.1816 -0.0827
 7778SOL     OW34969   1.427   2.552  11.684 -0.0974 -0.1816 -0.2468
 7778SOL    HW134970   1.376   2.522  11.609  0.3509 -0.9641 -0.2321
 7778SOL    HW234971   1.377   2.628  11.715  0.9057  0.2052  0.3999
 7779SOL     OW34972   0.849   4.395   6.012 -0.1459  0.5889  0.1892
 7779SOL    HW134973   0.774   4.445   6.045 -0.6430 -0.1080  0.1090
 7779SOL    HW234974   0.818   4.355   5.930  1.0190 -1.7019  0.8796
 7780SOL     OW34975   1.746   3.674  17.604 -0.0253  0.6292 -0.2776
 7780SOL    HW134976   1.782   3.691  17.517  0.4932 -0.6596 -0.3108
 7780SOL    HW234977   1.655   3.654  17.582 -0.1195  0.5133  0.2247
 7781SOL     OW34978   3.733   1.696  15.824 -0.7803  0.1684  0.0266
 7781SOL    HW134979   3.713   1.703  15.730  1.9156 -0.7632 -0.6229
 7781SOL    HW234980   3.827   1.686  15.812 -0.9076 -0.3429 -0.5750
 7782SOL     OW34981   1.113   1.866  17.165 -0.3007 -0.0060 -0.2471
 7782SOL    HW134982   1.039   1.925  17.178 -1.5228 -1.9318  1.6309
 7782SOL    HW234983   1.184   1.921  17.199  0.5759 -0.6777 -1.0100
 7783SOL     OW34984   3.188   0.086   6.047 -0.8295 -0.3051 -0.3012
 7783SOL    HW134985   3.269   0.133   6.068 -1.2808  1.2148 -1.9506
 7783SOL    HW234986   3.128   0.145   6.093 -1.7328 -2.8626  1.8175
 7784SOL     OW34987   1.359   0.235   1.769  0.1074 -0.0616 -0.4760
 7784SOL    HW134988   1.358   0.237   1.673 -0.1798 -0.7846 -0.4888
 7784SOL    HW234989   1.266   0.238   1.791 -0.0020 -0.4239 -0.8662
 7785SOL     OW34990   0.557   0.440  17.034 -0.1144 -0.1487  0.1133
 7785SOL    HW134991   0.463   0.431  17.017  0.2766  1.2484 -2.8857
 7785SOL    HW234992   0.593   0.466  16.949  0.4258  0.4880  0.5351
 7786SOL     OW34993   1.733   0.636   4.253  0.2091 -0.2290 -0.0973
 7786SOL    HW134994   1.667   0.566   4.249 -0.0931 -0.1244  3.4387
 7786SOL    HW234995   1.760   0.643   4.344 -2.5555  0.8243  0.6402
 7787SOL     OW34996   2.268   1.268   2.141 -0.2082 -0.1781  0.3627
 7787SOL    HW134997   2.275   1.339   2.077  2.6673  1.0486  2.0019
 7787SOL    HW234998   2.342   1.215   2.113  0.8104  1.9457 -1.0268
 7788SOL     OW34999   3.469   4.631   2.175  0.0017 -0.2911  0.0050
 7788SOL    HW135000   3.474   4.724   2.195  0.6803 -0.1398 -0.8822
 7788SOL    HW235001   3.373   4.634   2.171  0.0364  2.4330  1.0916
 7789SOL     OW35002   2.659   1.098   3.474  0.2381 -0.1640 -0.2134
 7789SOL    HW135003   2.659   1.151   3.553 -0.5042  0.0179 -0.3363
 7789SOL    HW235004   2.629   1.152   3.401 -0.1943 -0.3506 -0.1777
 7790SOL     OW35005   2.788   0.048   8.976 -0.4922 -0.1635 -0.6423
 7790SOL    HW135006   2.874   0.011   8.954 -0.9341 -0.8489 -1.2151
 7790SOL    HW235007   2.800   0.140   9.000  0.5411 -0.4835  0.0441
 7791SOL     OW35008   3.180   2.185   6.925 -0.0507  0.5859 -0.6995
 7791SOL    HW135009   3.197   2.159   6.835 -1.1876  0.1005 -0.7783
 7791SOL    HW235010   3.206   2.277   6.936 -1.4690  1.0067 -0.7574
 7792SOL     OW35011   2.399   4.446   2.288 -0.1373 -0.5972 -0.1072
 7792SOL    HW135012   2.446   4.400   2.218 -0.9703  0.1885 -1.1932
 7792SOL    HW235013   2.313   4.410   2.268 -1.4661  3.7123 -2.3204
 7793SOL     OW35014   3.298   2.769   6.099 -0.4509 -0.4907 -0.4349
 7793SOL    HW135015   3.228   2.818   6.141  1.0831 -0.9279  2.5995
 7793SOL    HW235016   3.319   2.701   6.162 -2.4313 -0.0772  0.6526
 7794SOL     OW35017   3.255   0.769  12.905 -0.1875 -0.0041  0.0469
 7794SOL    HW135018   3.188   0.702  12.918  1.9284 -2.0492  0.3393
 7794SOL    HW235019   3.215   0.831  12.966  1.2153 -1.3790  2.3350
 7795SOL     OW35020   0.829   3.975  13.878  0.8303 -0.3063  0.1792
 7795SOL    HW135021   0.836   3.892  13.924 -0.1392 -0.8262 -0.6148
 7795SOL    HW235022   0.920   4.000  13.891  1.1915 -1.0149 -1.0542
 7796SOL     OW35023   2.722   0.913   6.547 -0.0327 -0.5617  0.2702
 7796SOL    HW135024   2.743   0.911   6.454 -0.3628 -3.0323  0.2547
 7796SOL    HW235025   2.793   0.965   6.585 -1.4780 -0.1397  2.4117
 7797SOL     OW35026   1.373   3.957   0.516 -0.9320  0.1188  0.1093
 7797SOL    HW135027   1.339   3.990   0.432  0.3104  0.0157 -0.4405
 7797SOL    HW235028   1.293   3.914   0.544 -1.9225  1.6391 -0.3588
 7798SOL     OW35029   0.802   1.234   8.686 -0.1283  0.2928  0.4670
 7798SOL    HW135030   0.730   1.231   8.749 -1.1294  4.3099 -0.4998
 7798SOL    HW235031   0.873   1.276   8.734 -0.7390  0.6260  1.0797
 7799SOL     OW35032   0.280   0.153  10.922  0.3024  0.2904  0.0040
 7799SOL    HW135033   0.275   0.246  10.902  0.2435  0.3053  0.0921
 7799SOL    HW235034   0.336   0.114  10.854  1.2483  0.1030  0.8969
 7800SOL     OW35035   0.937   0.500  11.545 -0.5387  0.1022 -0.5453
 7800SOL    HW135036   0.848   0.471  11.522 -0.5977 -1.2428  1.3766
 7800SOL    HW235037   0.978   0.417  11.566 -0.3324  0.5536  0.8040
 7801SOL     OW35038   3.328   0.366  16.815 -0.3389  0.0887  0.1615
 7801SOL    HW135039   3.254   0.420  16.789  0.3807  1.8307  1.7098
 7801SOL    HW235040   3.384   0.396  16.744 -0.0836 -2.5389 -0.7571
 7802SOL     OW35041   2.626   2.004   8.276 -0.0609  0.4254  0.0917
 7802SOL    HW135042   2.681   2.022   8.353  0.0146 -0.2540  0.1907
 7802SOL    HW235043   2.670   1.931   8.233 -2.3489 -0.9242  0.0651
 7803SOL     OW35044   3.640   2.546   7.116 -0.2771  0.4576 -0.3700
 7803SOL    HW135045   3.667   2.575   7.029  0.2644 -0.2026 -0.4274
 7803SOL    HW235046   3.546   2.563   7.119 -0.1236  0.6659  2.6220
 7804SOL     OW35047   0.829   2.814   4.379 -0.1193  0.0459 -0.9978
 7804SOL    HW135048   0.763   2.822   4.448 -0.4678 -1.7500 -1.1280
 7804SOL    HW235049   0.819   2.894   4.328  0.7542 -0.6459 -2.2486
 7805SOL     OW35050   3.745   2.725   7.296  0.6375  0.3924 -0.3461
 7805SOL    HW135051   3.799   2.680   7.361 -0.2480  1.1928  0.9572
 7805SOL    HW235052   3.709   2.650   7.249 -2.0324  0.4577  1.6266
 7806SOL     OW35053   2.710   1.337   8.050 -0.0747  0.1385 -0.4475
 7806SOL    HW135054   2.629   1.297   8.080 -0.4958  0.3291 -1.3260
 7806SOL    HW235055   2.708   1.409   8.113 -0.3731 -1.1606  1.0267
 7807SOL     OW35056   4.521   3.811   7.516  0.3980 -0.3517  1.0525
 7807SOL    HW135057   4.592   3.847   7.569  0.0756  1.3200  0.3612
 7807SOL    HW235058   4.446   3.859   7.550  0.0659 -0.8907  1.0765
 7808SOL     OW35059   3.537   4.672  15.261 -0.0247  0.4182 -0.1356
 7808SOL    HW135060   3.582   0.003  15.213  0.1516  0.2690 -0.1883
 7808SOL    HW235061   3.458   4.713  15.295  1.1746  0.3690  2.6833
 7809SOL     OW35062   1.435   3.804   3.838  0.3140  0.3887  0.0903
 7809SOL    HW135063   1.497   3.741   3.875  0.3032 -0.0130 -0.5793
 7809SOL    HW235064   1.362   3.744   3.820  0.6668  0.1616 -0.6075
 7810SOL     OW35065   3.982   1.360   5.611  0.3833  0.0609 -0.3151
 7810SOL    HW135066   4.030   1.301   5.668  3.0397  1.7115 -0.8582
 7810SOL    HW235067   3.890   1.339   5.626  0.7721 -0.5040  1.1743
 7811SOL     OW35068   0.409   2.962  15.141 -0.0555  0.5803  0.3812
 7811SOL    HW135069   0.428   2.893  15.205  2.0379  1.3605  0.5964
 7811SOL    HW235070   0.368   3.023  15.204 -0.1665 -1.0845  1.9221
 7812SOL     OW35071   2.079   4.445   3.699  0.0079 -0.0026  0.2465
 7812SOL    HW135072   2.118   4.513   3.645 -1.0653  0.5201  0.1109
 7812SOL    HW235073   2.015   4.421   3.632 -0.0730 -0.0844  0.3529
 7813SOL     OW35074   0.998   1.771   7.874 -0.0496  0.6905  0.0124
 7813SOL    HW135075   0.937   1.748   7.803  0.3461 -1.0259  0.2255
 7813SOL    HW235076   0.993   1.866   7.864 -1.5159  0.6034 -0.1233
 7814SOL     OW35077   2.705   2.113   6.520  1.0879  0.6890  0.2050
 7814SOL    HW135078   2.668   2.170   6.452  0.3035 -0.5885 -0.4348
 7814SOL    HW235079   2.761   2.055   6.469  0.4230  1.6104 -1.5926
 7815SOL     OW35080   3.626   0.256   7.126  0.7640  0.4448  0.5216
 7815SOL    HW135081   3.631   0.351   7.125  0.0333  0.4786 -1.0124
 7815SOL    HW235082   3.537   0.237   7.157  0.2819  0.3207 -0.9367
 7816SOL     OW35083   3.003   3.844   3.082  0.0007 -0.4879  0.1941
 7816SOL    HW135084   2.914   3.813   3.063  0.7467 -1.5593 -1.5333
 7816SOL    HW235085   2.976   3.934   3.100  0.6207 -0.1361 -0.6318
 7817SOL     OW35086   0.794   0.035  11.262  0.1956  0.6986  0.0430
 7817SOL    HW135087   0.780   0.054  11.169  2.3727 -2.0637 -0.8270
 7817SOL    HW235088   0.868   0.091  11.284 -0.3546  1.5029 -0.1282
 7818SOL     OW35089   2.742   1.013   9.890  0.2929  0.1166  0.0359
 7818SOL    HW135090   2.745   0.982   9.981 -2.5594 -2.2274 -0.6808
 7818SOL    HW235091   2.682   0.951   9.849  1.7894 -1.5788  0.3736
 7819SOL     OW35092   2.997   3.469  11.866  0.3928  0.3892  0.0026
 7819SOL    HW135093   2.935   3.427  11.925 -0.5808 -0.4289 -1.6389
 7819SOL    HW235094   3.031   3.397  11.814  0.8078  0.9203 -0.4659
 7820SOL     OW35095   2.728   2.960   6.115 -0.5851  0.1697 -0.1217
 7820SOL    HW135096   2.632   2.952   6.113 -0.7006  1.5289 -0.1377
 7820SOL    HW235097   2.737   3.044   6.159 -0.4449 -1.3835  2.8688
 7821SOL     OW35098   3.279   0.641   9.195 -0.1644 -0.0424 -0.4886
 7821SOL    HW135099   3.202   0.631   9.139  0.2029 -0.0554 -0.9799
 7821SOL    HW235100   3.327   0.558   9.201 -0.3273 -0.1485 -0.6567
 7822SOL     OW35101   2.121   4.148  11.325  0.1615 -0.8084  0.1107
 7822SOL    HW135102   2.207   4.190  11.321  0.0050 -0.5741 -0.7095
 7822SOL    HW235103   2.070   4.227  11.345  0.0818 -0.7412 -0.3773
 7823SOL     OW35104   3.951   2.038   5.851 -0.2651 -0.3759 -0.0247
 7823SOL    HW135105   3.926   1.967   5.910  0.2106 -1.7437 -1.4564
 7823SOL    HW235106   3.866   2.071   5.821 -0.8854 -1.5266  0.4527
 7824SOL     OW35107   4.575   1.707   8.319 -0.4028 -0.3727 -0.2915
 7824SOL    HW135108   4.633   1.686   8.393 -2.3908  0.5571  1.5317
 7824SOL    HW235109   4.617   1.787   8.288 -0.2148 -0.1811  0.4639
 7825SOL     OW35110   4.112   2.131   6.619 -0.2645  0.3467  0.4748
 7825SOL    HW135111   4.016   2.130   6.618 -0.2584 -0.4433  0.2933
 7825SOL    HW235112   4.124   2.061   6.683  0.9791  0.4998  0.4080
 7826SOL     OW35113   3.823   0.456   3.057 -0.1412 -0.0619  0.1809
 7826SOL    HW135114   3.810   0.389   2.989 -1.1090  0.2009  0.1095
 7826SOL    HW235115   3.731   0.462   3.079 -0.0898 -1.1326  0.7211
 7827SOL     OW35116   2.079   3.148  16.565  0.1643  0.8962 -0.0375
 7827SOL    HW135117   2.039   3.112  16.644 -2.3499  1.5173 -1.0365
 7827SOL    HW235118   2.019   3.219  16.542  0.6516  1.9077  1.8139
 7828SOL     OW35119   2.821   4.297  12.360  0.6230 -0.2910 -0.2792
 7828SOL    HW135120   2.811   4.350  12.440  0.0605 -2.0289  0.8041
 7828SOL    HW235121   2.843   4.214  12.402 -1.0157 -1.0689 -0.9696
 7829SOL     OW35122   0.130   1.750   2.788  0.5224  0.3522  0.0191
 7829SOL    HW135123   0.088   1.778   2.706  0.5483  0.3190 -0.0051
 7829SOL    HW235124   0.186   1.822   2.816  3.9256 -0.9689 -3.3606
 7830SOL     OW35125   0.867   1.256   8.265 -0.0495 -0.0263  0.2753
 7830SOL    HW135126   0.833   1.345   8.260 -2.6755 -1.0249  0.4716
 7830SOL    HW235127   0.961   1.274   8.273  0.2893 -1.2824 -0.7953
 7831SOL     OW35128   2.327   1.228   4.044 -0.0755  0.2980 -0.3002
 7831SOL    HW135129   2.422   1.231   4.048  0.0467 -0.2227 -2.7642
 7831SOL    HW235130   2.302   1.185   4.126 -1.2554 -0.4156 -1.0168
 7832SOL     OW35131   2.884   0.332   0.953 -0.0475 -0.1487 -0.8131
 7832SOL    HW135132   2.860   0.262   0.891 -1.6937 -0.5833  0.3332
 7832SOL    HW235133   2.846   0.297   1.033 -2.1915  1.4919 -1.1187
 7833SOL     OW35134   0.807   2.122   2.001 -0.0745 -0.3369 -0.0719
 7833SOL    HW135135   0.788   2.102   2.093 -0.7755 -0.4142 -0.2336
 7833SOL    HW235136   0.757   2.202   1.985 -1.2536 -1.2755 -1.0326
 7834SOL     OW35137   1.899   4.615   6.807 -0.7739  0.3165 -0.2993
 7834SOL    HW135138   1.869   4.658   6.887 -0.8157 -1.5948  0.6896
 7834SOL    HW235139   1.992   4.595   6.816 -1.1825 -1.1030  0.6774
 7835SOL     OW35140   3.768   2.437   0.393  0.0971 -0.4024  0.3680
 7835SOL    HW135141   3.733   2.509   0.445  1.9817 -0.7739  2.1575
 7835SOL    HW235142   3.749   2.362   0.451 -0.2513 -0.7107 -0.1472
 7836SOL     OW35143   4.735   4.732  11.980 -0.2525  0.2960 -1.0064
 7836SOL    HW135144   0.022   0.053  12.051  0.5510 -1.5213  0.2168
 7836SOL    HW235145   0.048   4.653  11.998  2.8235  2.2186 -1.3606
 7837SOL     OW35146   0.340   2.144   4.768  0.5352 -0.2799  0.2676
 7837SOL    HW135147   0.335   2.175   4.677 -2.7001 -1.9889 -0.1389
 7837SOL    HW235148   0.309   2.054   4.758  0.0770  0.0590 -1.5177
 7838SOL     OW35149   1.578   3.684  14.228 -0.3521 -0.7317 -0.4632
 7838SOL    HW135150   1.633   3.654  14.155  1.4462  0.8898  0.2182
 7838SOL    HW235151   1.612   3.635  14.303  0.6652  0.1826 -0.3349
 7839SOL     OW35152   2.082   3.630  10.495 -0.6081  0.4979 -0.6133
 7839SOL    HW135153   2.039   3.695  10.439 -0.0761  1.0923 -0.3380
 7839SOL    HW235154   2.041   3.548  10.469  0.7942 -0.6438  0.8336
 7840SOL     OW35155   4.525   2.051   6.787  0.5433 -0.0374 -0.2643
 7840SOL    HW135156   4.462   2.027   6.720  2.0266 -3.2603 -0.5130
 7840SOL    HW235157   4.480   2.023   6.867  2.0008 -0.0742  0.5497
 7841SOL     OW35158   0.445   2.200   5.015  0.2271  0.5492  0.3460
 7841SOL    HW135159   0.483   2.133   5.072 -0.8053  1.3778  2.0099
 7841SOL    HW235160   0.399   2.145   4.952  0.7982  1.2216 -0.6518
 7842SOL     OW35161   0.512   2.872  14.490 -0.7414  1.4034  0.1408
 7842SOL    HW135162   0.439   2.934  14.482 -0.7345  1.3344 -0.4829
 7842SOL    HW235163   0.511   2.822  14.409  0.4624  1.2974  0.1856
 7843SOL     OW35164   3.888   3.718   6.329 -0.0824  0.3854 -0.0411
 7843SOL    HW135165   3.842   3.654   6.384 -0.3762 -1.2325 -2.1602
 7843SOL    HW235166   3.961   3.667   6.293  1.0165  1.9832 -0.0658
 7844SOL     OW35167   1.309   3.467   3.253  0.1570 -0.2757 -0.0294
 7844SOL    HW135168   1.386   3.412   3.239 -0.6809 -1.0193 -1.7857
 7844SOL    HW235169   1.247   3.414   3.203  1.3738 -1.3891 -0.3356
 7845SOL     OW35170   2.387   1.791   3.299 -0.7742 -1.1006 -0.0456
 7845SOL    HW135171   2.414   1.701   3.280 -0.9525 -1.6099  2.1564
 7845SOL    HW235172   2.402   1.789   3.393  2.8812 -1.8533 -0.6597
 7846SOL     OW35173   2.692   2.646  13.519  0.8608  0.4541 -0.1998
 7846SOL    HW135174   2.637   2.592  13.462 -1.2963  0.9936  1.3413
 7846SOL    HW235175   2.717   2.570  13.570 -0.7697 -1.5230 -2.3428
 7847SOL     OW35176   2.084   3.490   6.922  0.5558 -0.0691 -0.2251
 7847SOL    HW135177   2.070   3.397   6.907  2.5238 -0.6667  1.6424
 7847SOL    HW235178   2.108   3.489   7.014  1.6137 -0.5571 -0.5132
 7848SOL     OW35179   3.168   1.797   7.281  0.0842 -0.3974  0.1628
 7848SOL    HW135180   3.144   1.866   7.220 -0.2982 -1.1580 -0.5535
 7848SOL    HW235181   3.219   1.743   7.221  0.2446  0.8043 -0.7654
 7849SOL     OW35182   4.691   1.967   2.724  0.5366  0.3137 -0.3820
 7849SOL    HW135183   4.692   2.059   2.751 -0.1167  0.5434 -1.1168
 7849SOL    HW235184   4.599   1.960   2.696  0.0928  1.5805  0.7721
 7850SOL     OW35185   0.485   0.319   4.127 -0.7599  0.3195  0.4839
 7850SOL    HW135186   0.530   0.244   4.088  0.0102  1.1021 -0.1382
 7850SOL    HW235187   0.403   0.283   4.161  0.4021 -1.1837  1.6987
 7851SOL     OW35188   2.589   4.161   9.128 -0.4496  0.1683 -0.0635
 7851SOL    HW135189   2.582   4.254   9.150  0.8661  0.5700 -1.2811
 7851SOL    HW235190   2.611   4.139   9.218 -1.4523 -1.8121 -0.2936
 7852SOL     OW35191   3.019   4.286   8.686 -0.1832 -0.3070  0.5064
 7852SOL    HW135192   2.976   4.227   8.748 -0.0363  1.4751  2.2939
 7852SOL    HW235193   2.964   4.364   8.684  1.5680  0.9379 -0.0474
 7853SOL     OW35194   3.125   2.362   2.429  0.0378  0.3743 -0.0825
 7853SOL    HW135195   3.218   2.380   2.416  0.0512 -0.1348 -0.6524
 7853SOL    HW235196   3.140   2.321   2.514  0.0925 -2.5426 -1.5089
 7854SOL     OW35197   1.442   0.148   0.357  0.9121  0.4918 -0.0848
 7854SOL    HW135198   1.380   0.194   0.300 -1.2760 -1.2744  0.8387
 7854SOL    HW235199   1.484   0.082   0.302 -1.6398  0.5929 -2.1689
 7855SOL     OW35200   0.973   4.602  15.611 -0.0082 -0.0434  0.0947
 7855SOL    HW135201   0.907   4.635  15.672 -1.0622 -0.7273 -0.6785
 7855SOL    HW235202   0.990   4.516  15.651  0.0007  0.4171  1.0859
 7856SOL     OW35203   1.961   1.272   2.711 -0.0975  0.3792  0.1594
 7856SOL    HW135204   2.046   1.299   2.745  1.5249 -2.8836 -1.3103
 7856SOL    HW235205   1.977   1.216   2.635  0.5705 -0.1451  0.6880
 7857SOL     OW35206   1.492   2.746   6.103  0.0126 -0.0409 -0.4767
 7857SOL    HW135207   1.587   2.735   6.104  0.0300  0.3317  2.5751
 7857SOL    HW235208   1.470   2.687   6.031  0.4186 -1.0271  0.2110
 7858SOL     OW35209   3.998   2.064   0.727 -0.1327  0.2314 -0.4935
 7858SOL    HW135210   4.052   1.989   0.702 -1.4347 -0.7477 -0.3527
 7858SOL    HW235211   3.923   2.025   0.772 -1.6058  1.2086 -2.1212
 7859SOL     OW35212   2.677   1.947   2.539  0.3242  0.0375 -0.3022
 7859SOL    HW135213   2.661   2.033   2.500  3.5200  1.3703  1.3249
 7859SOL    HW235214   2.772   1.945   2.555  0.9427  3.8198 -3.5700
 7860SOL     OW35215   1.162   0.239   6.404  0.1840 -0.3245  0.1658
 7860SOL    HW135216   1.107   0.252   6.327  1.5089 -0.2314 -0.7615
 7860SOL    HW235217   1.162   0.143   6.405  0.7305 -0.3011  2.8405
 7861SOL     OW35218   4.147   3.047   5.556 -0.0224  0.3494 -0.9060
 7861SOL    HW135219   4.182   3.131   5.584  0.5835  0.5589 -2.2608
 7861SOL    HW235220   4.224   3.025   5.504 -1.4570 -0.4905 -2.6809
 7862SOL     OW35221   3.093   3.573   8.138 -0.2290  0.3118 -0.4678
 7862SOL    HW135222   3.063   3.662   8.119 -0.2697  0.6284  1.1067
 7862SOL    HW235223   3.173   3.575   8.086 -0.6046 -2.9138 -1.2036
 7863SOL     OW35224   2.247   0.187  14.620 -0.0295 -0.0522  0.2092
 7863SOL    HW135225   2.181   0.222  14.560  0.2699  1.4464  0.7786
 7863SOL    HW235226   2.244   0.255  14.688  2.7063  0.3687 -0.0922
 7864SOL     OW35227   2.978   2.711  13.768 -0.5173  0.3130  0.0103
 7864SOL    HW135228   3.001   2.803  13.778 -2.0229  0.7162 -0.2006
 7864SOL    HW235229   2.997   2.705  13.675 -0.8374 -0.3838 -0.0131
 7865SOL     OW35230   3.122   1.289   3.517 -0.1554  0.0683  0.1222
 7865SOL    HW135231   3.082   1.203   3.526  0.5028 -0.1488  0.9399
 7865SOL    HW235232   3.126   1.297   3.422 -1.1099  0.1941  0.0955
 7866SOL     OW35233   1.801   3.786   2.509  0.2010 -0.2218  0.1340
 7866SOL    HW135234   1.874   3.842   2.534  1.1098 -1.0844 -0.5491
 7866SOL    HW235235   1.840   3.708   2.470  0.6523 -0.0757  0.2984
 7867SOL     OW35236   2.655   1.950  12.239  0.8127  0.5434 -0.9383
 7867SOL    HW135237   2.708   2.022  12.273  2.2435 -0.3110 -1.3313
 7867SOL    HW235238   2.563   1.975  12.237  1.2950  2.3951 -0.3915
 7868SOL     OW35239   2.722   4.593   2.174 -0.1496  0.0599  0.1694
 7868SOL    HW135240   2.701   4.656   2.104  0.9120 -1.2737 -1.3335
 7868SOL    HW235241   2.710   4.508   2.133  1.7289  0.7013 -1.7148
 7869SOL     OW35242   0.223   2.869   5.424 -0.0498  0.0629 -0.1368
 7869SOL    HW135243   0.128   2.878   5.429 -0.0956  1.1072 -2.7694
 7869SOL    HW235244   0.251   2.951   5.464 -1.5293  0.3180  0.3612
 7870SOL     OW35245   3.556   3.853   9.094  0.5354  0.0869 -0.7720
 7870SOL    HW135246   3.651   3.841   9.102  0.2268 -0.5299  2.0287
 7870SOL    HW235247   3.559   3.944   9.123  1.4209 -0.6205  1.4035
 7871SOL     OW35248   0.440   3.533  14.420  0.5409 -0.6536  0.4228
 7871SOL    HW135249   0.358   3.583  14.412  0.3789 -0.7248  1.6272
 7871SOL    HW235250   0.440   3.477  14.342  1.1527 -0.4043  0.2424
 7872SOL     OW35251   2.446   4.006   6.181 -0.3477  0.3031 -0.5449
 7872SOL    HW135252   2.426   4.069   6.249  0.5298  1.1233 -1.0551
 7872SOL    HW235253   2.423   4.061   6.106 -0.2012  0.6424 -0.3386
 7873SOL     OW35254   0.047   0.734   3.645  0.7042  0.3119 -0.0411
 7873SOL    HW135255   4.706   0.708   3.600  2.1431 -1.2848 -1.6691
 7873SOL    HW235256   0.038   0.700   3.734 -0.3287 -1.2742 -0.7495
 7874SOL     OW35257   1.758   1.726  13.652  0.1980 -0.1459  0.1500
 7874SOL    HW135258   1.719   1.661  13.710 -0.5346  0.4727  0.3487
 7874SOL    HW235259   1.678   1.753  13.606  0.7383  1.5066  0.1865
 7875SOL     OW35260   1.254   3.375  16.603  0.0266 -0.4689 -0.1719
 7875SOL    HW135261   1.236   3.295  16.555  1.4071 -2.4423  2.5796
 7875SOL    HW235262   1.246   3.339  16.692 -0.2615 -2.4676 -0.9999
 7876SOL     OW35263   1.707   0.554   0.837 -0.1130 -0.7851 -0.4626
 7876SOL    HW135264   1.750   0.506   0.766  0.9890 -0.5895  0.0706
 7876SOL    HW235265   1.662   0.631   0.803  2.1996 -0.1798 -2.1689
 7877SOL     OW35266   1.881   0.510  11.742  0.4706  0.1437 -0.5236
 7877SOL    HW135267   1.975   0.501  11.761  0.4530 -1.4495 -1.1993
 7877SOL    HW235268   1.876   0.486  11.649  0.5936  1.6389 -0.9218
 7878SOL     OW35269   0.024   2.939   8.170  0.5652 -0.1692 -0.7065
 7878SOL    HW135270   0.068   3.018   8.140  1.1309 -0.2988 -0.2094
 7878SOL    HW235271   0.064   2.874   8.112  0.2374  2.0355 -3.3967
 7879SOL     OW35272   3.308   1.078   8.617  0.0376  0.2535 -0.3444
 7879SOL    HW135273   3.299   1.155   8.561  1.9426  2.1440  1.9706
 7879SOL    HW235274   3.227   1.038   8.584 -0.1870  1.2677 -1.0159
 7880SOL     OW35275   4.435   1.851   3.062 -0.0590  0.2125  0.4891
 7880SOL    HW135276   4.497   1.919   3.037  1.3383  0.3287  4.2735
 7880SOL    HW235277   4.489   1.797   3.120  0.6865 -1.6711 -1.9304
 7881SOL     OW35278   2.493   4.103   7.521  0.1344 -0.0488 -0.1428
 7881SOL    HW135279   2.497   4.195   7.549  1.2553  0.4399 -1.9002
 7881SOL    HW235280   2.404   4.083   7.548  0.1672 -0.3074 -0.2245
 7882SOL     OW35281   1.570   0.798   1.694  0.4935  0.2044 -0.3949
 7882SOL    HW135282   1.607   0.885   1.711  1.6012  0.0596 -2.0506
 7882SOL    HW235283   1.476   0.812   1.699  0.4728  0.5709 -1.8006
 7883SOL     OW35284   1.062   2.866   4.012 -0.5922  0.0920 -1.0057
 7883SOL    HW135285   1.091   2.902   4.096 -0.3721 -2.2505 -0.0656
 7883SOL    HW235286   1.128   2.899   3.952 -0.5444 -0.4421 -1.2439
 7884SOL     OW35287   3.481   3.050   2.470  0.2529  0.3579 -0.2198
 7884SOL    HW135288   3.542   3.005   2.529 -0.3131 -0.4550 -0.2385
 7884SOL    HW235289   3.401   2.996   2.470  0.6666 -0.2601 -2.4566
 7885SOL     OW35290   3.654   2.442   3.077 -0.6843  0.2358  0.3465
 7885SOL    HW135291   3.703   2.504   3.131 -0.4036  1.0300 -0.8176
 7885SOL    HW235292   3.624   2.378   3.142 -0.4173 -1.6034 -1.3434
 7886SOL     OW35293   4.482   3.283   8.905  0.3854 -1.0216 -0.0926
 7886SOL    HW135294   4.564   3.281   8.954 -0.0953 -3.8214  0.6118
 7886SOL    HW235295   4.474   3.377   8.890 -2.6561 -1.0752  1.1920
 7887SOL     OW35296   3.288   1.587   2.804 -0.1021  0.3043  0.2543
 7887SOL    HW135297   3.203   1.629   2.793 -1.2717 -1.7559  1.4257
 7887SOL    HW235298   3.267   1.497   2.828 -1.9998  0.7274  0.1297
 7888SOL     OW35299   1.457   1.729   4.159 -0.2259  0.1252 -0.3146
 7888SOL    HW135300   1.377   1.685   4.134  1.6321 -1.6406 -3.1059
 7888SOL    HW235301   1.480   1.777   4.079  1.8958 -0.9055 -0.3279
 7889SOL     OW35302   3.119   0.429   1.049  0.1021 -0.3097  0.0224
 7889SOL    HW135303   3.031   0.392   1.041  0.6884 -1.6708 -0.1601
 7889SOL    HW235304   3.151   0.412   0.961  0.9138  1.1423  0.0427
 7890SOL     OW35305   0.446   3.864   3.498 -0.6777 -0.4998  0.1425
 7890SOL    HW135306   0.528   3.815   3.508  0.3317  1.1766  0.0747
 7890SOL    HW235307   0.486   3.945   3.469  0.9904 -0.8504  1.4828
 7891SOL     OW35308   3.990   0.567   2.038  0.3647 -0.0656 -0.0430
 7891SOL    HW135309   4.013   0.635   2.102 -0.2461 -1.2679  1.4412
 7891SOL    HW235310   3.935   0.611   1.973  0.8647  2.2430  1.0879
 7892SOL     OW35311   1.441   0.457   4.803 -0.3235 -0.0844  0.2230
 7892SOL    HW135312   1.444   0.423   4.892  0.0894 -0.1312  0.1901
 7892SOL    HW235313   1.506   0.408   4.753 -0.8181 -0.7108  0.1896
 7893SOL     OW35314   3.909   2.908   1.944 -0.2857 -0.0653  0.3817
 7893SOL    HW135315   4.000   2.883   1.959 -0.3381 -1.5284 -1.9021
 7893SOL    HW235316   3.886   2.963   2.020  0.4957  1.1395 -0.2600
 7894SOL     OW35317   3.822   3.630   5.858 -0.0982  0.3402 -0.3793
 7894SOL    HW135318   3.817   3.661   5.768 -0.8193  2.8765  0.5024
 7894SOL    HW235319   3.733   3.605   5.882  0.0496 -0.5893 -0.8072
 7895SOL     OW35320   0.129   3.141   1.243 -0.6376 -0.5429  0.2196
 7895SOL    HW135321   0.222   3.164   1.242 -0.8049  0.1631  0.8944
 7895SOL    HW235322   0.120   3.159   1.337 -0.3731  0.9832 -0.0554
 7896SOL     OW35323   3.734   3.917   6.774  0.1216 -0.0108 -0.2179
 7896SOL    HW135324   3.654   3.889   6.729  0.6669  2.5683 -2.7742
 7896SOL    HW235325   3.708   4.003   6.808 -2.8079 -0.0411 -2.3745
 7897SOL     OW35326   3.373   1.534  13.162 -0.5466 -0.1187  0.2369
 7897SOL    HW135327   3.279   1.519  13.160 -0.5912  0.1741  0.1881
 7897SOL    HW235328   3.382   1.626  13.139 -1.4412 -0.0613  0.1349
 7898SOL     OW35329   1.830   0.383  13.790 -0.2702  0.9148 -0.3725
 7898SOL    HW135330   1.750   0.338  13.763 -0.0097  0.7604 -0.8714
 7898SOL    HW235331   1.791   0.470  13.797 -0.8910  0.5129  1.2065
 7899SOL     OW35332   4.119   3.024   9.968  0.2321  0.7410  0.2244
 7899SOL    HW135333   4.072   3.020  10.052  2.8350  0.7036  1.6843
 7899SOL    HW235334   4.051   3.000   9.905  1.0159 -0.1596 -0.2764
 7900SOL     OW35335   2.522   0.561   7.409  0.2854 -0.1217  0.7197
 7900SOL    HW135336   2.460   0.595   7.345  1.1324  2.3126  1.2017
 7900SOL    HW235337   2.513   0.466   7.404 -1.2255  0.0121  0.9698
 7901SOL     OW35338   0.116   1.027   8.596 -0.0503 -0.2423 -0.3515
 7901SOL    HW135339   0.129   0.942   8.638  2.1383  1.1132  1.6992
 7901SOL    HW235340   0.027   1.025   8.561  0.3995  3.3349 -1.6898
 7902SOL     OW35341   2.968   1.317   9.849 -0.5118  0.3967  0.3128
 7902SOL    HW135342   2.956   1.398   9.799 -1.3961 -0.5248 -0.9671
 7902SOL    HW235343   3.008   1.256   9.788 -0.8494 -1.2903  1.7885
 7903SOL     OW35344   4.307   3.537  14.144  0.3375  0.2436 -0.1247
 7903SOL    HW135345   4.225   3.535  14.094 -1.2824  0.1563  2.5341
 7903SOL    HW235346   4.272   3.579  14.223 -0.6693  1.8589 -1.4170
 7904SOL     OW35347   2.866   4.461   1.480  0.0049  0.1720 -0.2403
 7904SOL    HW135348   2.908   4.519   1.542 -0.6478  0.3316  0.0559
 7904SOL    HW235349   2.872   4.511   1.398  0.1777 -0.0226 -0.3477
 7905SOL     OW35350   1.859   0.057  15.059  0.1242 -0.6244  0.6154
 7905SOL    HW135351   1.799   0.117  15.103 -0.9131 -1.4506  0.3324
 7905SOL    HW235352   1.856   4.727  15.126 -0.9746  0.8247  2.0557
 7906SOL     OW35353   1.446   3.670  17.185  0.7482  0.2181  0.7494
 7906SOL    HW135354   1.375   3.608  17.201  1.0838  0.4516  3.1383
 7906SOL    HW235355   1.523   3.620  17.212  1.0480 -0.6760 -1.6952
 7907SOL     OW35356   2.094   2.894   7.754  0.7218  0.2380 -0.4244
 7907SOL    HW135357   2.085   2.838   7.830 -0.7091  2.2969  0.9444
 7907SOL    HW235358   2.034   2.965   7.779  0.8099 -0.0871  0.6728
 7908SOL     OW35359   1.140   4.608   4.228 -0.2022  0.2540  0.0663
 7908SOL    HW135360   1.139   4.519   4.263  0.7979  0.0265 -0.4923
 7908SOL    HW235361   1.061   4.595   4.176 -0.3532  1.5434 -0.0318
 7909SOL     OW35362   2.635   0.229  12.164  0.2569 -0.7919 -0.0545
 7909SOL    HW135363   2.728   0.253  12.170  0.5766 -1.4519 -2.0558
 7909SOL    HW235364   2.644   0.138  12.133  0.1373 -0.9109  0.2685
 7910SOL     OW35365   0.321   4.605  12.558  0.3530 -0.1038  0.3955
 7910SOL    HW135366   0.376   4.530  12.535 -2.6551 -2.5335  1.1425
 7910SOL    HW235367   0.314   4.598  12.653 -1.6423 -0.8725  0.1941
 7911SOL     OW35368   2.594   2.202   8.033  0.3674  0.5088  0.2515
 7911SOL    HW135369   2.598   2.286   8.078  0.4585 -0.2376  1.6271
 7911SOL    HW235370   2.602   2.140   8.106  1.1083 -2.1215 -2.0331
 7912SOL     OW35371   1.124   2.371   6.534  0.1759  0.1232 -0.2302
 7912SOL    HW135372   1.213   2.342   6.555  0.5219  0.8399 -0.7251
 7912SOL    HW235373   1.084   2.293   6.495  1.4166 -0.8518  0.4587
 7913SOL     OW35374   3.563   3.172   4.031 -0.0820 -0.3722  0.1039
 7913SOL    HW135375   3.526   3.094   4.074  0.0184 -0.3711  0.1914
 7913SOL    HW235376   3.651   3.145   4.004  0.5348 -0.6183  2.3284
 7914SOL     OW35377   0.810   2.554  17.225  0.3345 -0.2220  0.6298
 7914SOL    HW135378   0.862   2.630  17.251 -1.1132  1.1271 -0.3941
 7914SOL    HW235379   0.766   2.530  17.306 -0.6955 -0.0763  0.1118
 7915SOL     OW35380   3.008   2.216  13.289  0.3426 -0.0549  0.6882
 7915SOL    HW135381   3.009   2.294  13.234 -4.9772 -1.5353 -1.5199
 7915SOL    HW235382   2.916   2.233  13.307  0.1842 -2.3076  1.9821
 7916SOL     OW35383   2.026   1.346   7.888  0.1260  0.3600 -0.2630
 7916SOL    HW135384   2.080   1.341   7.967  0.1399  0.3393 -0.2739
 7916SOL    HW235385   2.015   1.441   7.880  2.7669  0.7833  0.8372
 7917SOL     OW35386   2.704   1.904  12.863  0.1596  0.2485 -0.4512
 7917SOL    HW135387   2.779   1.848  12.844  1.2602  1.2681  0.8552
 7917SOL    HW235388   2.672   1.851  12.936  0.7362 -0.1814 -0.5043
 7918SOL     OW35389   4.578   4.280   6.615  0.8094  0.1941 -0.0067
 7918SOL    HW135390   4.621   4.218   6.555  0.7814  0.8120 -0.6717
 7918SOL    HW235391   4.565   4.354   6.555  1.6162 -0.0639 -0.5065
 7919SOL     OW35392   3.670   1.284   8.780  0.0608  0.1960 -0.0724
 7919SOL    HW135393   3.624   1.325   8.854 -0.6542  2.6267 -1.8557
 7919SOL    HW235394   3.624   1.201   8.774  1.1301 -0.6452  3.3376
 7920SOL     OW35395   0.021   1.025  12.729 -0.2179 -0.4930 -0.2230
 7920SOL    HW135396   4.665   1.029  12.715  0.3219 -1.5373 -4.2634
 7920SOL    HW235397   0.037   1.118  12.743 -1.2073 -0.2386 -0.8188
 7921SOL     OW35398   2.153   3.892  16.590  0.0551 -0.3278  0.8971
 7921SOL    HW135399   2.066   3.924  16.615  0.1772  1.1679 -0.5779
 7921SOL    HW235400   2.169   3.845  16.672  3.0870 -0.3363  0.2843
 7922SOL     OW35401   2.120   2.399   6.488  0.2346  0.0321 -0.2244
 7922SOL    HW135402   2.214   2.413   6.485  0.0546  1.5105  1.1166
 7922SOL    HW235403   2.099   2.408   6.395  0.3612 -0.8575 -0.3432
 7923SOL     OW35404   1.574   2.098   5.433  0.2960 -0.0641 -0.3325
 7923SOL    HW135405   1.652   2.150   5.453 -0.1419  0.8131 -0.9258
 7923SOL    HW235406   1.586   2.066   5.344  0.5242  0.6850 -0.5717
 7924SOL     OW35407   0.788   3.277  16.438 -0.1702  0.2885  0.0679
 7924SOL    HW135408   0.724   3.315  16.378 -0.2498  0.4304  0.2439
 7924SOL    HW235409   0.756   3.188  16.453 -0.3107  0.1445 -1.0706
 7925SOL     OW35410   0.279   0.896  17.474  0.5009 -0.2883 -0.0228
 7925SOL    HW135411   0.373   0.916  17.472  0.3831  0.1307 -1.1756
 7925SOL    HW235412   0.251   0.953  17.403 -0.4044 -0.7692 -0.0534
 7926SOL     OW35413   2.325   1.625   1.720  0.7979 -0.2589 -0.2793
 7926SOL    HW135414   2.375   1.589   1.647  1.5597  0.3476 -0.0612
 7926SOL    HW235415   2.249   1.567   1.719  1.3697 -1.0127 -0.8770
 7927SOL     OW35416   2.922   1.964   6.421 -0.1735 -0.4869 -0.1676
 7927SOL    HW135417   3.003   1.939   6.465 -0.6381 -0.2738  0.8100
 7927SOL    HW235418   2.884   1.882   6.391 -3.2120 -0.1952  2.8779
 7928SOL     OW35419   1.305   1.477   4.538 -0.4357  0.4422  0.0039
 7928SOL    HW135420   1.266   1.562   4.518 -1.8623 -0.7139 -2.1379
 7928SOL    HW235421   1.242   1.408   4.515  2.1896 -1.8566 -0.3141
 7929SOL     OW35422   0.093   1.742   6.597  0.1744  0.4192 -0.0772
 7929SOL    HW135423   0.102   1.744   6.692  2.1049 -0.0055 -0.2524
 7929SOL    HW235424   0.071   1.834   6.582 -0.7871  0.2268  0.1267
 7930SOL     OW35425   2.452   0.986   3.131  0.0382 -0.5067 -0.4011
 7930SOL    HW135426   2.484   1.073   3.155  3.4712 -1.9236  0.1401
 7930SOL    HW235427   2.401   1.020   3.057 -3.1041  0.9186  2.4163
 7931SOL     OW35428   4.331   1.448   1.244  0.3150  0.0517 -0.6833
 7931SOL    HW135429   4.245   1.466   1.282  0.1005 -0.6469 -0.8370
 7931SOL    HW235430   4.379   1.411   1.318  0.4929 -0.0042 -0.8271
 7932SOL     OW35431   3.081   3.737   2.822 -0.1910  0.6307  0.2136
 7932SOL    HW135432   3.159   3.684   2.835  0.0099  0.5174 -1.4781
 7932SOL    HW235433   3.068   3.770   2.911  0.6028  0.0215  0.5593
 7933SOL     OW35434   4.734   0.147  12.199 -0.3204 -0.3910  0.4215
 7933SOL    HW135435   0.013   0.233  12.162  0.1238 -0.8260 -0.3693
 7933SOL    HW235436   0.073   0.124  12.251 -0.3614  1.2648  1.2154
 7934SOL     OW35437   2.346   0.310   2.015  0.0921 -0.4236  0.0539
 7934SOL    HW135438   2.347   0.403   2.039 -0.3886 -0.0830 -1.2448
 7934SOL    HW235439   2.336   0.311   1.920 -0.5483 -0.9046  0.1136
 7935SOL     OW35440   3.079   2.324   9.342 -0.3293 -0.1015 -0.5698
 7935SOL    HW135441   3.060   2.240   9.384 -0.1920 -0.0827 -0.4697
 7935SOL    HW235442   3.131   2.372   9.407  0.5096 -2.0247  0.1739
 7936SOL     OW35443   4.290   4.533   2.278 -0.0264 -0.3115 -0.7776
 7936SOL    HW135444   4.206   4.487   2.278 -1.3199  2.0010  3.6900
 7936SOL    HW235445   4.301   4.562   2.187  0.4458  1.4145 -0.1754
 7937SOL     OW35446   0.776   0.161  16.254 -0.4577 -0.1169 -0.3976
 7937SOL    HW135447   0.808   0.202  16.173  2.1084 -0.3962  0.4828
 7937SOL    HW235448   0.847   0.172  16.317 -1.6642  1.3609  0.7164
 7938SOL     OW35449   1.800   3.975   4.989 -0.4795  0.4072 -0.2812
 7938SOL    HW135450   1.895   3.960   4.995 -0.5330  0.2681  0.2181
 7938SOL    HW235451   1.786   4.059   5.032  1.5929  1.4074 -1.5121
 7939SOL     OW35452   2.814   4.314   7.366  0.0379 -0.1700 -0.0177
 7939SOL    HW135453   2.847   4.268   7.443  0.6985 -1.3774 -1.0304
 7939SOL    HW235454   2.883   4.381   7.370  0.6266 -0.9072  2.5887
 7940SOL     OW35455   1.291   3.926  10.672  0.5560  0.4263  0.1840
 7940SOL    HW135456   1.332   3.973  10.745  0.5733 -2.1174  1.7958
 7940SOL    HW235457   1.199   3.920  10.696  0.2992  1.4481 -0.4967
 7941SOL     OW35458   2.585   3.165   8.063 -0.1013  0.5327 -0.3098
 7941SOL    HW135459   2.628   3.181   8.147 -0.4612 -2.5422  0.4378
 7941SOL    HW235460   2.579   3.251   8.021  0.1548  1.0489  0.7215
 7942SOL     OW35461   3.512   1.225   3.371  0.2372  0.1455  0.3960
 7942SOL    HW135462   3.473   1.171   3.302  0.8790  0.1881 -0.0077
 7942SOL    HW235463   3.539   1.303   3.323 -0.2170  0.6134  0.8994
 7943SOL     OW35464   2.380   2.405   5.824 -0.3502  0.1554  0.2214
 7943SOL    HW135465   2.407   2.318   5.854  1.6592  1.0009  0.9041
 7943SOL    HW235466   2.298   2.424   5.871 -1.1259 -0.7390 -0.7790
 7944SOL     OW35467   2.083   0.816   6.696 -0.2655 -0.5622  0.2229
 7944SOL    HW135468   2.078   0.770   6.780 -1.1621 -1.0508 -0.0885
 7944SOL    HW235469   2.141   0.890   6.712 -0.9907  0.0563 -0.0029
 7945SOL     OW35470   0.325   4.623   8.536 -0.3137  0.5249 -0.1198
 7945SOL    HW135471   0.233   4.599   8.527  0.5104 -1.9842 -1.7515
 7945SOL    HW235472   0.327   4.682   8.612 -0.4295  0.5090 -0.1043
 7946SOL     OW35473   3.413   1.120   2.634 -0.1131  0.2146  0.2007
 7946SOL    HW135474   3.364   1.045   2.667 -1.0452  0.7184 -0.0355
 7946SOL    HW235475   3.379   1.189   2.692 -0.6091  1.1923 -1.2549
 7947SOL     OW35476   1.741   1.802  15.432 -0.0285 -0.1598  0.1329
 7947SOL    HW135477   1.811   1.739  15.413 -0.2255 -0.5296  0.6373
 7947SOL    HW235478   1.794   1.880  15.447  0.5899 -0.5987  0.2222
 7948SOL     OW35479   1.302   2.610   5.377  0.0308  0.8406 -0.2102
 7948SOL    HW135480   1.341   2.646   5.298 -2.2531  0.9426 -1.3044
 7948SOL    HW235481   1.219   2.659   5.378 -0.1622  0.5010  0.6076
 7949SOL     OW35482   0.255   1.444   5.090 -0.2125 -0.3979  0.1780
 7949SOL    HW135483   0.310   1.408   5.160 -2.4560  0.4028  2.3666
 7949SOL    HW235484   0.319   1.443   5.019  1.0928  1.4070  1.3372
 7950SOL     OW35485   1.600   0.172  14.799  0.4601 -0.3867 -0.4022
 7950SOL    HW135486   1.550   0.140  14.725  2.2791  0.2497 -1.9037
 7950SOL    HW235487   1.574   0.106  14.864  1.0017 -1.5237 -1.3518
 7951SOL     OW35488   2.486   1.459   2.024 -0.3331  0.0382 -0.6871
 7951SOL    HW135489   2.569   1.417   2.001 -1.0900 -3.3218  2.8156
 7951SOL    HW235490   2.497   1.536   1.968  1.8117 -0.3039 -0.7234
 7952SOL     OW35491   3.212   1.023  10.636 -0.4274  0.1854  0.9674
 7952SOL    HW135492   3.176   0.936  10.652  0.2704  0.0765  2.0116
 7952SOL    HW235493   3.248   1.054  10.719  0.8219  0.8766  0.1722
 7953SOL     OW35494   1.145   4.603  13.700  0.4277 -0.3528 -0.7348
 7953SOL    HW135495   1.086   4.664  13.745 -1.1484 -1.2295 -1.5941
 7953SOL    HW235496   1.209   4.576  13.765 -0.5287 -1.0605 -0.0930
 7954SOL     OW35497   2.590   0.056  16.431  0.2054  0.2915 -0.2670
 7954SOL    HW135498   2.591   4.699  16.428  0.8139  0.2670  0.7005
 7954SOL    HW235499   2.498   0.077  16.417  0.3538  0.0265 -1.5693
 7955SOL     OW35500   2.015   1.567   1.615 -0.5923  0.4599  0.2088
 7955SOL    HW135501   2.044   1.658   1.621  1.4881 -0.1189 -1.2023
 7955SOL    HW235502   1.919   1.573   1.610 -0.6243  0.9241  1.6361
 7956SOL     OW35503   1.191   4.070  17.139  0.4520  0.2199  0.1272
 7956SOL    HW135504   1.165   4.087  17.049 -1.0067  1.4431  0.7761
 7956SOL    HW235505   1.223   4.159  17.155 -0.4423  0.3691  1.0765
 7957SOL     OW35506   2.251   1.840   7.886  0.6530 -0.3691  0.6807
 7957SOL    HW135507   2.276   1.752   7.857  1.3795  0.4486 -1.1701
 7957SOL    HW235508   2.310   1.898   7.838 -0.2247 -0.7052 -0.7871
 7958SOL     OW35509   1.930   2.772   5.144 -0.0217  0.8684  0.1075
 7958SOL    HW135510   1.919   2.753   5.237 -1.6809 -3.2000 -0.9211
 7958SOL    HW235511   1.980   2.696   5.115  0.3637  0.6044  1.4590
 7959SOL     OW35512   1.219   4.034   5.460  0.2490 -0.0058 -0.2442
 7959SOL    HW135513   1.232   4.110   5.404 -0.9462 -0.3023 -0.9243
 7959SOL    HW235514   1.209   3.964   5.395 -3.0916  1.1641 -0.9927
 7960SOL     OW35515   3.881   4.635   6.500 -0.2957 -0.5286  0.4889
 7960SOL    HW135516   3.946   4.640   6.430 -1.3219 -0.5898 -0.4674
 7960SOL    HW235517   3.931   4.636   6.582  0.5380  0.8155 -0.0376
 7961SOL     OW35518   1.834   3.929   7.667 -0.0058  0.3398  0.3428
 7961SOL    HW135519   1.880   3.857   7.709  1.6144  0.5322 -1.1070
 7961SOL    HW235520   1.758   3.878   7.640 -0.3985  0.8884  0.4075
 7962SOL     OW35521   0.340   1.443   3.873  0.0799  0.1710  0.4376
 7962SOL    HW135522   0.344   1.538   3.865  0.8711  0.0158 -1.0484
 7962SOL    HW235523   0.281   1.421   3.801  0.7700 -0.6651  0.1201
 7963SOL     OW35524   2.510   2.296   7.121  0.6686 -0.7183 -0.1053
 7963SOL    HW135525   2.593   2.318   7.079  1.4515 -1.6765  0.9445
 7963SOL    HW235526   2.487   2.222   7.064 -1.3728  0.8397 -1.3045
 7964SOL     OW35527   3.266   2.226   9.165 -0.8168  0.6401 -0.4428
 7964SOL    HW135528   3.194   2.259   9.219 -2.5266 -2.3761 -0.8674
 7964SOL    HW235529   3.215   2.224   9.084  1.5920  0.2377 -1.9456
 7965SOL     OW35530   4.627   0.796   8.052  0.5586  0.4142 -0.1241
 7965SOL    HW135531   4.646   0.889   8.041  2.2615  0.2003  0.8411
 7965SOL    HW235532   4.711   0.752   8.034 -0.9037 -2.4089 -0.1075
 7966SOL     OW35533   0.157   4.343   7.606 -0.3976 -0.5303  0.1250
 7966SOL    HW135534   0.133   4.253   7.583 -1.0605 -0.0723 -0.9714
 7966SOL    HW235535   0.197   4.321   7.690 -0.6711 -1.7459 -0.0627
 7967SOL     OW35536   1.321   3.707   1.929  0.2640  0.4526  0.2674
 7967SOL    HW135537   1.376   3.641   1.971  0.9714  1.2789  0.6441
 7967SOL    HW235538   1.341   3.790   1.972  1.2325  0.6763 -0.6241
 7968SOL     OW35539   1.974   3.769  12.467  0.1423 -0.1355  0.9414
 7968SOL    HW135540   1.951   3.676  12.473  0.1037 -0.0981  1.3752
 7968SOL    HW235541   1.956   3.799  12.556 -0.4052 -1.7947  1.3806
 7969SOL     OW35542   0.973   2.338   1.482 -0.0669 -0.6571  0.1172
 7969SOL    HW135543   0.969   2.253   1.438 -0.3427 -0.7714  0.3647
 7969SOL    HW235544   1.061   2.339   1.521  0.0335 -1.5181 -0.0920
 7970SOL     OW35545   0.813   0.842   6.876 -0.3288  0.0554  0.3975
 7970SOL    HW135546   0.882   0.907   6.865 -0.4362  0.3930  1.7345
 7970SOL    HW235547   0.747   0.887   6.824  0.1608  0.2856 -0.0219
 7971SOL     OW35548   4.308   1.365  14.254  0.0504 -1.1068 -0.1222
 7971SOL    HW135549   4.263   1.338  14.174  2.3805 -1.4409 -1.3012
 7971SOL    HW235550   4.337   1.279  14.283  1.4278 -0.1988  1.1536
 7972SOL     OW35551   1.205   4.324   0.885  0.0646  0.4327  0.1679
 7972SOL    HW135552   1.298   4.303   0.890 -0.2678 -1.3156 -0.8077
 7972SOL    HW235553   1.212   4.394   0.821  2.3952  0.9521  1.0061
 7973SOL     OW35554   1.457   0.392  14.020 -0.0698 -0.1960  0.1920
 7973SOL    HW135555   1.362   0.383  14.012 -0.0631 -1.3615  1.4643
 7973SOL    HW235556   1.487   0.360  13.935  4.6145 -1.8467  2.4747
 7974SOL     OW35557   3.053   1.899   6.045  0.2635  0.5655  0.4660
 7974SOL    HW135558   2.959   1.881   6.051  0.3801  0.1576  1.0448
 7974SOL    HW235559   3.055   1.994   6.030 -2.7297  0.5587  0.0490
 7975SOL     OW35560   0.979   1.762   3.287  0.0773  0.1255  0.7464
 7975SOL    HW135561   0.956   1.840   3.337  3.8468  0.0929  2.5776
 7975SOL    HW235562   0.948   1.785   3.199  0.6042 -1.7299  0.0808
 7976SOL     OW35563   2.325   3.998   7.272 -0.4784  0.4785  0.3290
 7976SOL    HW135564   2.294   4.059   7.339  1.3101  0.2605  1.3608
 7976SOL    HW235565   2.278   3.918   7.296  1.7469 -1.1502 -0.7199
 7977SOL     OW35566   0.987   2.690  13.525 -0.3956  0.2044  0.2307
 7977SOL    HW135567   1.027   2.743  13.594  0.1813 -0.2489  0.2411
 7977SOL    HW235568   0.916   2.647  13.573  0.3705 -0.9390  0.3441
 7978SOL     OW35569   2.317   4.086   9.438 -0.2122 -0.2548  0.6855
 7978SOL    HW135570   2.320   4.080   9.534  2.2630 -1.1400  0.5559
 7978SOL    HW235571   2.309   4.180   9.421 -2.9650 -1.2297 -3.1576
 7979SOL     OW35572   1.725   1.626   1.524 -0.0538  0.1681  0.1745
 7979SOL    HW135573   1.644   1.576   1.514 -0.8742  0.8482  3.3186
 7979SOL    HW235574   1.764   1.607   1.438 -0.5785  1.2197 -0.3009
 7980SOL     OW35575   3.969   2.459  11.738 -0.4114 -0.1793  0.5289
 7980SOL    HW135576   3.891   2.425  11.781  0.5505 -0.5864  1.9390
 7980SOL    HW235577   3.943   2.452  11.646 -0.7209  0.3243  0.5758
 7981SOL     OW35578   2.570   1.566   7.111 -0.2356 -0.6362  0.0808
 7981SOL    HW135579   2.531   1.509   7.044 -0.4557 -0.4960  0.0870
 7981SOL    HW235580   2.658   1.528   7.110  0.9969  2.2769 -1.1591
 7982SOL     OW35581   3.102   0.111   6.791 -0.6267  0.1175  0.3210
 7982SOL    HW135582   3.025   0.075   6.834 -0.2125  0.0137  0.9754
 7982SOL    HW235583   3.077   0.204   6.792  1.7454  0.7230  3.0329
 7983SOL     OW35584   1.627   3.627   9.255  0.0177  0.2694  0.1263
 7983SOL    HW135585   1.685   3.588   9.320  0.4932  0.3605 -0.2418
 7983SOL    HW235586   1.687   3.651   9.185 -0.8313  1.5195 -0.1816
 7984SOL     OW35587   1.049   1.327   0.336  0.2799  0.1513  0.1783
 7984SOL    HW135588   1.088   1.240   0.327 -2.0581 -0.9651  0.7253
 7984SOL    HW235589   1.132   1.375   0.346 -0.0938  0.8431 -0.0604
 7985SOL     OW35590   3.013   3.020   9.030  0.0540 -0.3133 -0.1346
 7985SOL    HW135591   2.992   2.927   9.036  1.3895 -0.6392 -0.6074
 7985SOL    HW235592   3.014   3.032   8.935  4.8410  1.3735  0.1315
 7986SOL     OW35593   4.182   0.391  14.309  0.0077 -0.4175  0.3271
 7986SOL    HW135594   4.124   0.399  14.385  0.2392 -0.8733  0.5512
 7986SOL    HW235595   4.136   0.451  14.251  0.0226 -1.3152 -0.6145
 7987SOL     OW35596   3.000   1.343   5.543  0.7987 -0.0826 -0.6986
 7987SOL    HW135597   2.945   1.298   5.607  0.5430  0.5486 -0.4686
 7987SOL    HW235598   3.048   1.410   5.593 -0.8450 -0.1558  0.9937
 7988SOL     OW35599   1.219   0.966   0.743  0.3296  0.0835 -0.9225
 7988SOL    HW135600   1.136   0.960   0.697  0.3346 -0.1377 -0.9051
 7988SOL    HW235601   1.268   0.991   0.664 -0.7149 -3.5623 -2.7380
 7989SOL     OW35602   2.772   3.539  17.088 -0.1104 -0.0260  0.2856
 7989SOL    HW135603   2.682   3.571  17.086  0.4834  1.7384  1.1959
 7989SOL    HW235604   2.767   3.466  17.149 -0.6531  0.4610  0.8310
 7990SOL     OW35605   3.196   3.115  11.819 -0.0213  0.1388  0.1794
 7990SOL    HW135606   3.177   3.154  11.734  2.3244  0.8573 -0.0018
 7990SOL    HW235607   3.125   3.052  11.834  1.0725 -0.9511  0.8591
 7991SOL     OW35608   2.218   3.868   4.024  0.2523 -0.3656  0.3816
 7991SOL    HW135609   2.226   3.945   3.968  0.5454 -0.7085 -0.0395
 7991SOL    HW235610   2.127   3.885   4.050  0.4594  0.4679  0.5767
 7992SOL     OW35611   2.124   1.333   5.761 -0.2533 -0.0821 -0.2194
 7992SOL    HW135612   2.128   1.428   5.768 -4.0233 -0.0175  1.1708
 7992SOL    HW235613   2.147   1.323   5.668 -1.9558 -0.2720 -0.6285
 7993SOL     OW35614   0.484   3.715   5.245  0.4831  0.6771 -0.3815
 7993SOL    HW135615   0.512   3.761   5.324 -0.2569  2.1614 -0.9850
 7993SOL    HW235616   0.448   3.636   5.286  2.0045  0.9047  1.4061
 7994SOL     OW35617   1.989   1.687  10.149  0.1546 -0.2342 -0.1088
 7994SOL    HW135618   1.902   1.722  10.130  0.2586  0.4391  0.6342
 7994SOL    HW235619   1.963   1.625  10.217 -1.4493  1.2966  0.6629
 7995SOL     OW35620   4.478   2.820   7.676  0.2573 -0.9256 -0.4406
 7995SOL    HW135621   4.488   2.850   7.586  1.3472 -3.4494 -1.1616
 7995SOL    HW235622   4.567   2.800   7.707  0.1086 -2.0174 -0.6962
 7996SOL     OW35623   4.417   4.200   8.452  0.1603 -0.0550  0.5698
 7996SOL    HW135624   4.487   4.154   8.498 -0.2174 -0.5931  0.5974
 7996SOL    HW235625   4.340   4.189   8.508 -1.0700 -1.8616 -1.4631
 7997SOL     OW35626   1.708   3.388   0.122  0.0468 -0.0373  0.2364
 7997SOL    HW135627   1.702   3.483   0.132 -1.7943  0.0840 -1.9610
 7997SOL    HW235628   1.766   3.388   0.046 -0.9299 -1.5510 -0.5154
 7998SOL     OW35629   2.767   2.041   4.297 -0.2701 -0.3454 -0.4388
 7998SOL    HW135630   2.713   2.091   4.236 -0.2605  0.5278  0.2658
 7998SOL    HW235631   2.814   2.105   4.351  1.0111  0.1528 -2.1589
 7999SOL     OW35632   3.549   4.418   7.949 -0.0818 -0.2445  0.3659
 7999SOL    HW135633   3.500   4.364   7.888  0.3665 -0.2256 -0.0111
 7999SOL    HW235634   3.617   4.362   7.987 -0.5840 -1.8140 -1.0770
 8000SOL     OW35635   2.544   0.542  15.717 -0.2085  0.6402  0.1125
 8000SOL    HW135636   2.607   0.608  15.690  0.7409 -1.2776 -2.3250
 8000SOL    HW235637   2.467   0.565  15.666  1.1922  0.0757 -2.2666
 8001SOL     OW35638   0.364   3.988  11.663 -0.0786 -0.2163  0.5625
 8001SOL    HW135639   0.449   3.956  11.692  0.3211  1.6325  1.4340
 8001SOL    HW235640   0.309   3.959  11.735 -0.0673 -0.4628  0.4696
 8002SOL     OW35641   0.682   1.461   6.414 -0.0252  0.6785  0.0678
 8002SOL    HW135642   0.706   1.439   6.324  3.1752  0.2185  1.0302
 8002SOL    HW235643   0.755   1.436   6.471 -0.1369 -1.8498 -0.9347
 8003SOL     OW35644   1.836   3.539   0.476  0.1541  0.0757  0.1193
 8003SOL    HW135645   1.773   3.570   0.411 -1.0892  0.4901  1.5080
 8003SOL    HW235646   1.916   3.585   0.452  2.7994 -2.5837  3.7354
 8004SOL     OW35647   4.270   2.474   1.383  0.7371 -0.4131 -0.7929
 8004SOL    HW135648   4.355   2.431   1.399  1.3197  1.1946  0.4587
 8004SOL    HW235649   4.282   2.493   1.290 -0.5029  2.1950 -0.4112
 8005SOL     OW35650   3.869   1.973  14.020 -0.2229  0.0406 -0.0783
 8005SOL    HW135651   3.949   1.975  13.968  1.7007 -2.8410  2.7566
 8005SOL    HW235652   3.863   2.065  14.044 -1.3022  0.1439 -0.7417
 8006SOL     OW35653   1.357   1.456  17.203 -0.3963 -0.2446 -0.3472
 8006SOL    HW135654   1.301   1.530  17.226 -0.1597 -0.5439  1.2125
 8006SOL    HW235655   1.437   1.477  17.251 -0.7483  1.8014 -0.6688
 8007SOL     OW35656   1.529   2.703   3.370 -0.3358  0.0453 -0.1649
 8007SOL    HW135657   1.477   2.770   3.415 -0.3032 -0.8060  1.1685
 8007SOL    HW235658   1.607   2.692   3.424  0.7877  0.7700 -1.6484
 8008SOL     OW35659   2.153   4.508   6.876 -0.3079 -0.1922  0.3107
 8008SOL    HW135660   2.163   4.509   6.971 -1.1690 -1.7785  0.4133
 8008SOL    HW235661   2.240   4.533   6.844  0.2705 -0.9296  1.3251
 8009SOL     OW35662   0.096   2.542   4.960 -0.2386 -0.0729 -0.1025
 8009SOL    HW135663   0.178   2.500   4.986  0.0895 -0.8224 -2.3157
 8009SOL    HW235664   0.125   2.568   4.872  0.9932  1.3671  0.7198
 8010SOL     OW35665   1.985   3.352   4.987  0.2017 -0.2891 -0.0878
 8010SOL    HW135666   2.081   3.345   4.988  0.2422  0.6819  2.6813
 8010SOL    HW235667   1.960   3.315   5.072 -1.9334 -0.4271 -0.7665
 8011SOL     OW35668   3.395   1.860   3.313  0.1623  0.5081 -0.4258
 8011SOL    HW135669   3.400   1.764   3.319 -0.1865  0.4302 -1.2758
 8011SOL    HW235670   3.309   1.871   3.352 -0.2538 -2.8860 -0.3464
 8012SOL     OW35671   1.008   2.175  10.266  0.6228  0.0433 -0.7318
 8012SOL    HW135672   1.026   2.268  10.278 -1.0384 -0.0772  2.5486
 8012SOL    HW235673   1.040   2.159  10.177  0.1711  0.6817 -1.0101
 8013SOL     OW35674   0.395   1.895   5.902 -0.0021 -0.1187 -0.2589
 8013SOL    HW135675   0.427   1.974   5.945  1.1280 -0.4862 -0.4207
 8013SOL    HW235676   0.318   1.875   5.956  0.4842  0.5727  0.6795
 8014SOL     OW35677   2.831   1.673   2.295  0.5760  0.1279 -0.2571
 8014SOL    HW135678   2.747   1.638   2.266  1.1782 -1.4662 -0.0990
 8014SOL    HW235679   2.840   1.742   2.230  0.4347  1.8174  1.5236
 8015SOL     OW35680   1.849   0.345   6.902 -0.4464  0.4359 -0.1415
 8015SOL    HW135681   1.865   0.286   6.828  0.3539 -0.4011  0.7038
 8015SOL    HW235682   1.916   0.408   6.874  0.1534  0.3032  1.0267
 8016SOL     OW35683   1.241   1.030   7.380 -0.0987 -0.4151 -0.2487
 8016SOL    HW135684   1.181   0.983   7.322 -1.7303  1.6769 -0.2849
 8016SOL    HW235685   1.310   1.049   7.316  1.0670  0.3758  1.2421
 8017SOL     OW35686   3.375   3.344  10.136  0.1087  0.1540  0.3412
 8017SOL    HW135687   3.392   3.433  10.169 -1.1212  0.0927  1.1572
 8017SOL    HW235688   3.391   3.290  10.214 -1.2084  1.9222  1.8691
 8018SOL     OW35689   0.243   0.902   8.912 -0.7439 -0.3161  0.0912
 8018SOL    HW135690   0.301   0.844   8.863 -2.8290 -2.1551 -0.2038
 8018SOL    HW235691   0.279   0.891   9.000 -0.2061 -0.0052 -0.0869
 8019SOL     OW35692   3.481   2.428  10.692 -0.5102 -0.4124  0.7926
 8019SOL    HW135693   3.459   2.479  10.614  1.8434 -0.2977  0.1925
 8019SOL    HW235694   3.571   2.400  10.673 -1.0146 -0.5189 -1.4952
 8020SOL     OW35695   2.738   2.605   7.775  0.0834 -0.0802  0.3659
 8020SOL    HW135696   2.786   2.575   7.853  2.9321  1.5534 -0.7514
 8020SOL    HW235697   2.748   2.531   7.715  1.1238  0.0949  0.3140
 8021SOL     OW35698   3.670   1.843   5.394 -0.6090  0.2836 -0.0923
 8021SOL    HW135699   3.574   1.844   5.391 -0.4681  1.0362 -3.7617
 8021SOL    HW235700   3.676   1.750   5.374 -3.7187  0.4923 -2.0607
 8022SOL     OW35701   2.735   3.094   7.048  0.4867  0.3863 -0.0660
 8022SOL    HW135702   2.765   3.182   7.028  0.5054  0.0447 -1.4965
 8022SOL    HW235703   2.695   3.117   7.132  2.1270 -1.0547  1.1056
 8023SOL     OW35704   2.025   3.950  17.649 -0.3362 -0.3732 -0.2555
 8023SOL    HW135705   2.117   3.946  17.624  0.0190 -0.5860  1.0837
 8023SOL    HW235706   2.032   3.995  17.733  1.6803  0.8227 -1.0765
 8024SOL     OW35707   3.059   4.122   4.544  0.6078 -0.5598 -0.0384
 8024SOL    HW135708   3.050   4.175   4.465  0.9136 -0.1824  0.1800
 8024SOL    HW235709   2.979   4.069   4.535  1.5866 -1.9108 -0.7599
 8025SOL     OW35710   4.511   4.273   4.635  0.3964  0.0659  0.3304
 8025SOL    HW135711   4.462   4.351   4.612 -1.5830 -1.2513  0.1372
 8025SOL    HW235712   4.538   4.244   4.547  1.5119 -2.2859  1.4291
 8026SOL     OW35713   3.383   4.334   9.292 -0.0800  0.3845  0.6791
 8026SOL    HW135714   3.428   4.414   9.321  2.3952 -0.5646 -0.5720
 8026SOL    HW235715   3.395   4.340   9.197 -0.5359 -0.7486  0.5521
 8027SOL     OW35716   4.713   3.622  16.771 -0.2203 -0.3177 -0.3277
 8027SOL    HW135717   4.650   3.610  16.842  1.1219  1.1271  1.1114
 8027SOL    HW235718   4.693   3.714  16.753 -1.2534 -0.0943  1.9129
 8028SOL     OW35719   1.817   0.663  16.215 -0.2897  0.0114  0.3739
 8028SOL    HW135720   1.862   0.747  16.205 -2.5156  1.1418 -0.1609
 8028SOL    HW235721   1.825   0.649  16.309  0.6346 -2.9060 -0.1514
 8029SOL     OW35722   1.101   4.371   7.633  0.2395  0.0526  0.1249
 8029SOL    HW135723   1.171   4.332   7.686  1.5206  2.0852 -0.0882
 8029SOL    HW235724   1.039   4.298   7.643  0.2756 -0.0632 -0.5053
 8030SOL     OW35725   0.444   1.929   6.572 -0.0532  0.4604  0.2055
 8030SOL    HW135726   0.481   1.905   6.487  1.6571 -1.3624  1.4537
 8030SOL    HW235727   0.513   1.895   6.629  0.5091  1.3538  0.0633
 8031SOL     OW35728   3.736   4.541  12.880  0.0644  0.0512  0.0917
 8031SOL    HW135729   3.713   4.556  12.972 -0.8399 -0.7229 -0.0041
 8031SOL    HW235730   3.736   4.630  12.844 -0.0918 -0.7050 -1.7706
 8032SOL     OW35731   4.277   4.240   2.209 -0.2065 -0.2440  0.1181
 8032SOL    HW135732   4.209   4.300   2.180 -0.3444  0.3233  1.5909
 8032SOL    HW235733   4.225   4.163   2.236  0.1336 -0.4944  0.0573
 8033SOL     OW35734   4.537   2.621   1.353 -0.2290  0.4283 -0.2601
 8033SOL    HW135735   4.477   2.633   1.427 -0.2928 -0.9050 -0.1009
 8033SOL    HW235736   4.550   2.526   1.349 -0.1562  0.4117  0.4534
 8034SOL     OW35737   0.635   0.334   6.474  0.1297  0.3975 -0.3522
 8034SOL    HW135738   0.543   0.312   6.483  0.1953  0.0810 -0.4467
 8034SOL    HW235739   0.683   0.254   6.496 -1.9836 -0.0129  2.6520
 8035SOL     OW35740   0.290   1.848   5.633 -0.5200 -0.0523  0.0156
 8035SOL    HW135741   0.357   1.867   5.568 -0.3025  0.3018  0.3483
 8035SOL    HW235742   0.327   1.892   5.709 -0.8167 -0.2270  0.2645
 8036SOL     OW35743   3.544   2.871   9.667 -0.0818  0.2672 -0.1710
 8036SOL    HW135744   3.567   2.848   9.757  0.8946 -0.9170 -0.7237
 8036SOL    HW235745   3.605   2.945   9.660 -1.8797  1.4960 -2.9777
 8037SOL     OW35746   2.739   2.314   2.172 -0.0150 -0.1379 -0.0266
 8037SOL    HW135747   2.754   2.334   2.079 -0.7804 -3.5519 -0.8905
 8037SOL    HW235748   2.690   2.384   2.213 -2.0924 -0.8713 -1.2633
 8038SOL     OW35749   1.027   3.508   3.417 -0.8181 -0.4438 -0.5228
 8038SOL    HW135750   1.051   3.594   3.381 -1.8443 -0.0803 -0.3112
 8038SOL    HW235751   0.938   3.506   3.384 -1.4452 -0.1116  1.1759
 8039SOL     OW35752   1.436   2.091   3.103  0.2588 -0.0857 -0.0226
 8039SOL    HW135753   1.465   2.146   3.176  1.6680  0.0090 -0.6505
 8039SOL    HW235754   1.474   2.007   3.130  0.9801  0.3692  0.3830
 8040SOL     OW35755   1.429   1.641   4.799  0.0106  0.7445 -0.0469
 8040SOL    HW135756   1.387   1.555   4.794 -1.3037  1.2517  2.4648
 8040SOL    HW235757   1.481   1.612   4.874  0.2830 -0.5543 -0.7445
 8041SOL     OW35758   2.823   0.297   6.560 -0.3309 -0.4697  0.0098
 8041SOL    HW135759   2.745   0.246   6.583 -1.1486  1.4374  1.5029
 8041SOL    HW235760   2.794   0.381   6.524  0.9103  0.1675  0.4921
 8042SOL     OW35761   4.678   2.686   4.645  0.8286 -0.0683  0.5431
 8042SOL    HW135762   4.626   2.701   4.566  1.3037 -2.4269 -0.2284
 8042SOL    HW235763   4.645   2.601   4.675  1.5079 -0.7017 -0.4922
 8043SOL     OW35764   3.577   1.142   7.117  0.1505 -0.2537 -0.5152
 8043SOL    HW135765   3.610   1.229   7.140 -0.5255  0.1559 -1.0517
 8043SOL    HW235766   3.499   1.137   7.172 -0.3008  0.9108 -1.0375
 8044SOL     OW35767   2.971   4.255   7.623  0.0673 -0.0904  0.3552
 8044SOL    HW135768   2.932   4.331   7.666 -0.0612  0.6894 -1.1285
 8044SOL    HW235769   2.951   4.193   7.693  0.0032  0.8955  1.2117
 8045SOL     OW35770   2.043   3.751   3.367 -0.2185 -0.1437  0.3158
 8045SOL    HW135771   1.987   3.674   3.362  0.1251 -0.3200 -0.8839
 8045SOL    HW235772   2.080   3.741   3.454 -0.2853 -1.2829  0.2058
 8046SOL     OW35773   3.871   4.260   9.280  0.6138  0.0755  0.0857
 8046SOL    HW135774   3.957   4.230   9.251 -0.1292 -1.9139 -0.0679
 8046SOL    HW235775   3.867   4.266   9.375  0.9049  2.9336 -0.0697
 8047SOL     OW35776   2.460   4.195  16.429 -0.4687 -0.0970  0.5245
 8047SOL    HW135777   2.415   4.110  16.425 -2.0851  0.8367 -1.4617
 8047SOL    HW235778   2.514   4.197  16.350 -1.2309  0.7634  0.0178
 8048SOL     OW35779   0.082   2.337  14.761  0.4890 -0.6831 -0.2122
 8048SOL    HW135780   0.032   2.276  14.817  0.4259 -0.3815  0.0592
 8048SOL    HW235781   0.015   2.373  14.704  0.1106 -1.2950 -0.1536
 8049SOL     OW35782   2.086   2.388   1.111 -0.3990 -0.0388 -0.1322
 8049SOL    HW135783   2.046   2.418   1.030 -2.0422 -1.0781  0.2923
 8049SOL    HW235784   2.163   2.445   1.117 -1.0628  0.9193 -0.6709
 8050SOL     OW35785   2.895   3.314   6.946 -0.0353  0.2272  0.1384
 8050SOL    HW135786   2.830   3.309   6.876 -0.7228  0.4659  0.7619
 8050SOL    HW235787   2.960   3.360   6.892 -1.9404  0.8677 -1.5764
 8051SOL     OW35788   0.586   2.732   9.184 -0.2007  1.1133 -0.7495
 8051SOL    HW135789   0.571   2.671   9.255 -1.7617  1.4136 -0.8235
 8051SOL    HW235790   0.496   2.733   9.150 -1.1048 -3.5439  1.5949
 8052SOL     OW35791   1.986   0.433  16.193  0.9485  0.3765 -0.1247
 8052SOL    HW135792   2.049   0.489  16.148 -0.0180  0.4952 -1.3463
 8052SOL    HW235793   1.904   0.478  16.171  1.9695  1.8864 -0.7898
 8053SOL     OW35794   1.331   3.730   4.688  0.1155 -0.0176 -0.4299
 8053SOL    HW135795   1.423   3.714   4.667  0.2341 -0.3301  0.3239
 8053SOL    HW235796   1.312   3.772   4.604 -2.8791 -1.8661 -0.6947
 8054SOL     OW35797   0.211   2.331   8.934 -0.2706  0.2396  0.0125
 8054SOL    HW135798   0.279   2.391   8.904  0.7235 -0.4578  0.8927
 8054SOL    HW235799   0.218   2.250   8.885  2.5033  0.8340 -0.5657
 8055SOL     OW35800   0.829   2.120   4.216  0.1768  0.3224  0.1438
 8055SOL    HW135801   0.760   2.077   4.266  2.0835  0.3566  2.7895
 8055SOL    HW235802   0.792   2.108   4.128  0.9913  1.9253 -0.4080
 8056SOL     OW35803   3.333   1.923   0.120  0.5619  0.0178 -1.1045
 8056SOL    HW135804   3.355   1.889   0.033  0.1902 -0.4047 -1.0350
 8056SOL    HW235805   3.305   1.841   0.160  0.2001 -0.6216 -2.7042
 8057SOL     OW35806   4.248   2.303  11.737  0.0324  1.1336  0.0213
 8057SOL    HW135807   4.185   2.374  11.723 -0.5647  0.7904  0.9587
 8057SOL    HW235808   4.229   2.274  11.827  0.2921 -0.4020 -0.4187
 8058SOL     OW35809   3.586   1.307   5.853 -0.1802 -0.5790  0.1859
 8058SOL    HW135810   3.592   1.394   5.893  0.6239 -1.4993  2.0570
 8058SOL    HW235811   3.507   1.271   5.894 -1.2140  1.0945 -0.3415
 8059SOL     OW35812   0.617   2.602   3.661  0.3281 -0.1265  0.0455
 8059SOL    HW135813   0.589   2.556   3.582  0.0429  0.2405 -0.0681
 8059SOL    HW235814   0.659   2.534   3.714  0.4228  0.0986  0.2611
 8060SOL     OW35815   0.901   3.566   8.561  0.4617 -0.1237 -0.0498
 8060SOL    HW135816   0.918   3.473   8.543  0.7614 -0.2962  1.1273
 8060SOL    HW235817   0.938   3.574   8.649 -0.1779  2.5924 -0.0474
 8061SOL     OW35818   2.567   3.818  17.457  0.0545  0.7234 -0.2665
 8061SOL    HW135819   2.518   3.761  17.515  0.4742 -0.9536 -1.5759
 8061SOL    HW235820   2.654   3.801  17.493 -0.5820 -0.7619  0.5425
 8062SOL     OW35821   2.980   3.171   2.832  0.0486 -0.0116 -0.3696
 8062SOL    HW135822   2.970   3.140   2.742  0.7786 -0.2990 -0.3494
 8062SOL    HW235823   3.013   3.086   2.860  0.3824 -0.4305 -2.0211
 8063SOL     OW35824   3.248   2.060   4.204 -0.0978  0.2296  0.0078
 8063SOL    HW135825   3.271   2.153   4.201 -1.0519  0.4009 -2.0603
 8063SOL    HW235826   3.183   2.047   4.273  0.4468  2.8575  1.0046
 8064SOL     OW35827   1.655   3.301   5.976  0.0714  0.1969 -0.0071
 8064SOL    HW135828   1.610   3.221   6.006  0.9283 -0.1423  0.3773
 8064SOL    HW235829   1.744   3.269   5.961  0.6096  0.1881  3.2339
 8065SOL     OW35830   2.862   1.804  15.861 -0.2299 -0.7895  0.7373
 8065SOL    HW135831   2.954   1.818  15.880 -0.1658 -0.3409  0.1086
 8065SOL    HW235832   2.843   1.879  15.803 -0.7893 -1.2985  0.2544
 8066SOL     OW35833   3.336   2.161  12.411  0.5310 -0.3513 -0.5819
 8066SOL    HW135834   3.432   2.152  12.414  0.2490 -3.7390 -1.4241
 8066SOL    HW235835   3.300   2.100  12.476  0.5295 -0.8533 -1.0539
 8067SOL     OW35836   3.976   0.595  12.439  0.0996  1.0331  0.8386
 8067SOL    HW135837   4.022   0.519  12.475  1.3322  1.5013  0.2435
 8067SOL    HW235838   3.922   0.607  12.517 -1.2555  1.3943 -0.1491
 8068SOL     OW35839   4.164   0.573   4.684  0.2945  0.6805  0.3743
 8068SOL    HW135840   4.110   0.519   4.743  1.3899  0.8753  1.5529
 8068SOL    HW235841   4.102   0.571   4.611  1.9126 -0.3710 -0.9734
 8069SOL     OW35842   1.671   1.196   1.511 -0.4333  0.3309  0.0416
 8069SOL    HW135843   1.728   1.185   1.435  2.8016  4.0036  1.9700
 8069SOL    HW235844   1.726   1.157   1.580 -0.5386 -2.5264 -1.4765
 8070SOL     OW35845   2.986   4.538   5.666  0.1982  0.5541 -0.2950
 8070SOL    HW135846   2.944   4.616   5.631 -0.5807 -0.0438 -0.6939
 8070SOL    HW235847   3.031   4.568   5.745 -0.9866  0.2611  0.4839
 8071SOL     OW35848   1.584   2.076   4.786 -0.0500 -0.1204 -0.0366
 8071SOL    HW135849   1.539   2.112   4.709  0.3455  0.4272 -0.0164
 8071SOL    HW235850   1.533   2.115   4.857 -2.2239  1.5387 -2.4840
 8072SOL     OW35851   3.744   3.611   8.629 -0.1002  0.7706 -0.5768
 8072SOL    HW135852   3.650   3.606   8.608 -0.5567 -1.7705  2.1245
 8072SOL    HW235853   3.781   3.611   8.541 -0.1347  2.1504 -0.5920
 8073SOL     OW35854   4.094   0.938   8.210  0.7069  0.4939 -0.7601
 8073SOL    HW135855   4.106   0.847   8.182 -0.6209  0.2534 -0.5457
 8073SOL    HW235856   4.181   0.958   8.245  0.1109  0.2523  0.8808
 8074SOL     OW35857   1.222   2.971   4.227 -0.0081  0.2213 -0.3753
 8074SOL    HW135858   1.297   2.918   4.200 -0.1835  0.1330 -0.6852
 8074SOL    HW235859   1.263   3.058   4.229  1.1786 -0.3750  1.1266
 8075SOL     OW35860   2.448   2.700   9.858 -0.1513  0.2394 -0.2921
 8075SOL    HW135861   2.413   2.710   9.769 -1.0350 -1.4728 -0.1472
 8075SOL    HW235862   2.492   2.784   9.863 -3.5152  1.8721  1.4073
 8076SOL     OW35863   4.422   0.063  12.924 -0.4047  0.8172  0.8071
 8076SOL    HW135864   4.475   0.104  12.992 -1.4625  1.6015  1.1613
 8076SOL    HW235865   4.370   4.734  12.966  1.7832 -1.9421 -0.9398
 8077SOL     OW35866   4.576   3.479   5.260  0.2276  0.4916 -0.4231
 8077SOL    HW135867   4.525   3.545   5.308  1.0097  1.5870 -1.1008
 8077SOL    HW235868   4.646   3.474   5.325  0.4224  1.1216 -0.5842
 8078SOL     OW35869   3.857   1.852   8.642 -0.2530  0.0873  0.5106
 8078SOL    HW135870   3.890   1.824   8.556 -0.8797 -1.6104  0.8292
 8078SOL    HW235871   3.940   1.892   8.669  0.8795 -0.1201 -2.6019
 8079SOL     OW35872   4.053   4.632   9.326 -0.2798 -0.1044 -0.2295
 8079SOL    HW135873   4.017   4.580   9.255 -1.8504  0.3821  0.2046
 8079SOL    HW235874   4.009   4.584   9.397  0.1122 -0.1694 -0.0302
 8080SOL     OW35875   3.013   4.572   6.791 -0.0284 -0.2169 -0.0829
 8080SOL    HW135876   2.972   4.643   6.742 -1.7048  0.5798  2.4659
 8080SOL    HW235877   3.077   4.633   6.829 -1.1379  0.7849  0.1970
 8081SOL     OW35878   1.561   4.374   7.528  0.5166 -0.0936  0.2960
 8081SOL    HW135879   1.504   4.388   7.452 -0.5046  0.4475  1.1522
 8081SOL    HW235880   1.633   4.322   7.493  0.3077 -1.1663  1.4677
 8082SOL     OW35881   1.960   1.911   1.876 -0.0264 -0.1979  0.5940
 8082SOL    HW135882   2.019   1.868   1.814  0.9426 -0.4109  1.6558
 8082SOL    HW235883   1.924   1.837   1.925 -0.6965 -0.7021 -0.6677
 8083SOL     OW35884   2.533   4.396   2.037  0.3770 -0.0942 -0.8050
 8083SOL    HW135885   2.476   4.397   1.960  0.8616  2.4241 -1.1327
 8083SOL    HW235886   2.587   4.319   2.020  1.6012  0.4423  0.6736
 8084SOL     OW35887   0.049   0.157   6.686 -0.6312  0.5375 -0.0194
 8084SOL    HW135888   0.001   0.076   6.667 -2.2718  1.7023 -0.9133
 8084SOL    HW235889   0.140   0.136   6.664 -1.6200 -2.9811 -0.6292
 8085SOL     OW35890   1.154   1.990   3.940 -0.5012 -0.6393  0.0590
 8085SOL    HW135891   1.143   1.905   3.896 -1.4671  0.1907 -1.3226
 8085SOL    HW235892   1.132   1.950   4.024 -0.6924 -3.6665 -1.4005
 8086SOL     OW35893   4.273   1.674  17.672 -0.1146  0.2004 -0.1429
 8086SOL    HW135894   4.301   1.751  17.622  1.8423  0.5812  1.5489
 8086SOL    HW235895   4.180   1.676  17.650  0.0136  0.7024 -0.6359
 8087SOL     OW35896   1.040   3.719   2.002  0.1678 -0.0178  0.3119
 8087SOL    HW135897   1.121   3.697   1.955 -0.1701  0.9347 -0.7228
 8087SOL    HW235898   1.052   3.814   1.997 -2.6779  0.2718 -1.3258
 8088SOL     OW35899   4.611   1.696   3.185  0.1841  0.8740 -0.1661
 8088SOL    HW135900   4.652   1.726   3.266 -0.4213 -2.1068  1.2480
 8088SOL    HW235901   4.522   1.673   3.211  0.3499  1.9641  1.3420
 8089SOL     OW35902   2.621   0.696  14.037  1.1132  0.0440 -0.0038
 8089SOL    HW135903   2.673   0.655  14.106  0.6063  1.9984  1.5637
 8089SOL    HW235904   2.572   0.629  13.990 -0.2080  1.9792 -1.4155
 8090SOL     OW35905   1.567   2.843   2.179  0.2508 -0.3140  0.0138
 8090SOL    HW135906   1.560   2.915   2.116  1.4772 -0.7550 -0.6291
 8090SOL    HW235907   1.486   2.861   2.227 -1.0906  0.2070 -2.4566
 8091SOL     OW35908   3.274   4.569  16.709 -0.1463 -0.8697 -0.0149
 8091SOL    HW135909   3.209   4.517  16.757 -1.0915  2.7344  2.5900
 8091SOL    HW235910   3.213   4.615  16.652 -0.1809  0.3192  0.9890
 8092SOL     OW35911   3.708   3.129   9.607 -0.0259 -0.3390 -0.2924
 8092SOL    HW135912   3.741   3.201   9.553  0.9596  0.3190  1.2132
 8092SOL    HW235913   3.697   3.174   9.690 -2.5611 -0.4753 -0.5507
 8093SOL     OW35914   2.889   2.484   7.998  0.0221 -0.6582 -0.1410
 8093SOL    HW135915   2.849   2.468   8.084 -2.9728 -0.3705 -1.4626
 8093SOL    HW235916   2.957   2.416   7.993 -0.6399 -1.2209 -1.5552
 8094SOL     OW35917   4.554   2.573  16.740  0.1406 -0.4547 -0.1668
 8094SOL    HW135918   4.472   2.603  16.700 -0.5269  0.8530  2.1699
 8094SOL    HW235919   4.549   2.620  16.823 -2.3052  0.7436 -0.9842
 8095SOL     OW35920   3.878   0.259   3.496  0.3391 -0.5448 -0.4202
 8095SOL    HW135921   3.916   0.341   3.529 -0.0949 -0.8417  0.8149
 8095SOL    HW235922   3.928   0.263   3.414  0.5646  1.0585 -0.2169
 8096SOL     OW35923   1.474   4.254   0.568  0.4628  0.0973  0.4616
 8096SOL    HW135924   1.519   4.336   0.588 -0.2430  0.1829  1.6844
 8096SOL    HW235925   1.460   4.234   0.660 -0.3257 -0.1276  0.2930
 8097SOL     OW35926   2.364   3.403  12.072  0.2273 -0.2405 -0.7254
 8097SOL    HW135927   2.376   3.309  12.056 -3.1798 -0.7304 -0.2149
 8097SOL    HW235928   2.312   3.417  12.151  0.7180  1.6755 -0.7352
 8098SOL     OW35929   2.069   0.320   5.241  0.0210  0.2407 -0.5400
 8098SOL    HW135930   2.104   0.231   5.237  0.5113  0.2511  3.0116
 8098SOL    HW235931   2.129   0.368   5.299 -2.3301  0.6701  1.5546
 8099SOL     OW35932   3.979   0.444   9.318  0.3468  0.9424  0.3942
 8099SOL    HW135933   3.986   0.354   9.350 -1.1707  0.4928 -0.5553
 8099SOL    HW235934   4.025   0.424   9.236 -1.3304 -0.2730 -0.2493
 8100SOL     OW35935   0.740   1.472   7.976  0.1554  0.2453 -0.3355
 8100SOL    HW135936   0.743   1.406   7.907 -1.3613 -0.2498  0.0611
 8100SOL    HW235937   0.683   1.538   7.935 -2.0707 -0.5778  1.4114
 8101SOL     OW35938   4.010   1.608   6.478 -0.0465  0.1757  0.4648
 8101SOL    HW135939   4.001   1.513   6.482 -1.5133  0.3697  1.5528
 8101SOL    HW235940   4.067   1.608   6.401  1.0115  1.1778  1.2442
 8102SOL     OW35941   1.645   0.304  11.783  0.1791  0.5705 -0.3116
 8102SOL    HW135942   1.729   0.272  11.816 -0.1035  0.4241  0.2538
 8102SOL    HW235943   1.671   0.372  11.721 -2.8677  0.6322 -1.5299
 8103SOL     OW35944   3.274   2.415  15.148 -0.3448  0.4593  0.0808
 8103SOL    HW135945   3.282   2.321  15.159  0.7131  0.6276  0.7066
 8103SOL    HW235946   3.291   2.448  15.236 -0.0486 -0.1037  0.2337
 8104SOL     OW35947   3.219   1.130   5.443  0.4123 -0.7965  0.1229
 8104SOL    HW135948   3.214   1.165   5.532 -0.9700 -0.6691  0.0032
 8104SOL    HW235949   3.154   1.060   5.437  2.0750 -2.3601  0.8417
 8105SOL     OW35950   0.423   1.335   5.272  0.0531  0.0007  0.6385
 8105SOL    HW135951   0.400   1.284   5.350 -0.1601 -1.2846 -0.2567
 8105SOL    HW235952   0.486   1.273   5.235 -0.6841 -0.1511 -0.3489
 8106SOL     OW35953   2.080   1.165   3.187 -0.1279  0.2286  0.0836
 8106SOL    HW135954   1.987   1.141   3.187 -0.6500  2.2334 -0.1423
 8106SOL    HW235955   2.102   1.112   3.263 -2.4442  1.4615  1.6247
 8107SOL     OW35956   2.824   0.916   4.583 -0.3404  0.5708 -0.1269
 8107SOL    HW135957   2.757   0.970   4.627 -0.3838 -2.2103  3.2128
 8107SOL    HW235958   2.813   0.934   4.490  0.2339 -1.4344 -0.5606
 8108SOL     OW35959   0.497   1.907   8.900 -0.2957  0.0701 -0.1299
 8108SOL    HW135960   0.519   1.839   8.964  3.0840 -1.3636 -2.8459
 8108SOL    HW235961   0.481   1.988   8.948 -3.4900 -1.5978  1.6721
 8109SOL     OW35962   2.489   3.214  11.024 -0.5912 -0.4673  0.2355
 8109SOL    HW135963   2.408   3.210  10.973 -0.9236  0.7203  0.6887
 8109SOL    HW235964   2.465   3.160  11.099 -2.5738  2.9635  2.0786
 8110SOL     OW35965   1.445   2.974   5.001 -0.3263 -0.6364 -0.3738
 8110SOL    HW135966   1.378   2.971   4.933  0.4157  0.3798 -1.1447
 8110SOL    HW235967   1.507   2.915   4.958 -1.6966 -0.7199 -2.2290
 8111SOL     OW35968   4.264   2.247  10.693  0.3823  0.4069 -0.1209
 8111SOL    HW135969   4.230   2.248  10.604  2.0141  2.7862 -0.7054
 8111SOL    HW235970   4.264   2.339  10.719  0.8764  0.4250 -0.1881
 8112SOL     OW35971   2.170   3.038  11.068 -0.0865 -0.4636  0.5778
 8112SOL    HW135972   2.170   3.033  10.972 -1.3812 -0.9105  0.6019
 8112SOL    HW235973   2.255   3.009  11.099 -0.3705 -1.4155  0.4733
 8113SOL     OW35974   1.778   4.678   5.260 -0.2725  0.4685 -0.1931
 8113SOL    HW135975   1.780   4.715   5.172  2.0486 -2.2026 -1.2873
 8113SOL    HW235976   1.800   0.017   5.311 -1.2127  1.3603 -1.1522
 8114SOL     OW35977   2.481   1.069   2.072  0.3308 -0.5606  0.0279
 8114SOL    HW135978   2.545   1.080   2.001  0.1899  2.2488  0.3410
 8114SOL    HW235979   2.468   0.974   2.067 -1.0565 -0.4750  2.0044
 8115SOL     OW35980   2.854   2.249  12.805  0.4382 -0.1361 -0.4385
 8115SOL    HW135981   2.790   2.245  12.876 -0.1447  0.2642 -0.9424
 8115SOL    HW235982   2.913   2.192  12.855  1.4223  0.5511 -0.8098
 8116SOL     OW35983   4.303   2.140   3.179  0.1779 -0.5531  0.0206
 8116SOL    HW135984   4.247   2.160   3.105  2.5118 -1.6882 -2.0287
 8116SOL    HW235985   4.365   2.212   3.170 -1.1918  0.7182  0.5615
 8117SOL     OW35986   3.630   0.917  11.042 -0.0420 -0.0281  0.3465
 8117SOL    HW135987   3.575   0.928  11.119  0.2074  0.7925  0.4024
 8117SOL    HW235988   3.604   0.983  10.979 -1.4333 -0.9378 -0.0340
 8118SOL     OW35989   4.159   0.891   9.320 -0.0983 -0.6825  0.9674
 8118SOL    HW135990   4.239   0.936   9.293 -0.5355 -0.1195  0.5960
 8118SOL    HW235991   4.172   0.855   9.407 -1.5357  0.0228  1.4732
 8119SOL     OW35992   1.213   0.965   8.965 -0.7210 -0.3181  0.0711
 8119SOL    HW135993   1.179   0.998   8.881 -0.4255 -0.1670  0.0109
 8119SOL    HW235994   1.134   0.980   9.016  0.2644  2.9301  0.6776
 8120SOL     OW35995   4.126   3.214   3.314 -0.6704 -0.8823  0.1366
 8120SOL    HW135996   4.098   3.222   3.222 -0.6489 -1.2073  0.0992
 8120SOL    HW235997   4.125   3.305   3.341  1.5787 -0.2459 -1.8709
 8121SOL     OW35998   3.780   2.440   1.174 -0.1169  0.0563 -0.5621
 8121SOL    HW135999   3.832   2.402   1.103  0.3640  0.0576 -0.2076
 8121SOL    HW236000   3.757   2.529   1.145  0.3175  0.0804 -0.8336
 8122SOL     OW36001   1.516   1.129  17.043  0.1596  0.3486  0.1570
 8122SOL    HW136002   1.598   1.113  17.088  0.0172  1.5057  0.8291
 8122SOL    HW236003   1.540   1.209  16.996  1.2169  0.8336  1.5213
 8123SOL     OW36004   4.221   3.226  13.444  0.1835  0.1624 -0.2600
 8123SOL    HW136005   4.183   3.207  13.358  1.1663 -0.3965 -0.5739
 8123SOL    HW236006   4.277   3.301  13.425  1.5715 -0.6104  0.8238
 8124SOL     OW36007   2.675   3.681   9.190 -0.3358  0.8374 -0.2483
 8124SOL    HW136008   2.592   3.679   9.142  0.8877  3.1830 -2.4557
 8124SOL    HW236009   2.689   3.775   9.197  0.1729  0.5441  2.7122
 8125SOL     OW36010   0.237   4.063   3.415  0.1304 -0.3599  0.7846
 8125SOL    HW136011   0.326   4.091   3.393 -1.0250  1.3680 -1.7128
 8125SOL    HW236012   0.199   4.065   3.328  1.4675 -0.4936  0.1977
 8126SOL     OW36013   3.524   0.897   4.633  0.1045 -0.5934  0.0646
 8126SOL    HW136014   3.443   0.890   4.582  0.1108 -0.9894  0.1109
 8126SOL    HW236015   3.577   0.826   4.597  2.0118 -0.4108  2.5151
 8127SOL     OW36016   1.171   1.072   6.692 -0.3209  0.2052 -0.3173
 8127SOL    HW136017   1.227   1.145   6.720  0.4272 -0.7616  0.7194
 8127SOL    HW236018   1.200   1.072   6.600  0.8587 -1.1621  0.0421
 8128SOL     OW36019   0.513   4.304   0.733  0.2028 -0.1213 -0.2167
 8128SOL    HW136020   0.510   4.345   0.647 -0.0047 -1.2685 -0.7567
 8128SOL    HW236021   0.421   4.293   0.755  0.4655  0.0348  0.9736
 8129SOL     OW36022   2.733   2.838   7.645  0.2679 -0.2681 -0.2078
 8129SOL    HW136023   2.687   2.758   7.671  1.6027 -0.2978  2.0299
 8129SOL    HW236024   2.694   2.892   7.713  0.5292  0.9356 -1.0101
 8130SOL     OW36025   2.798   3.392  10.642  0.3569  0.3965  0.1395
 8130SOL    HW136026   2.788   3.331  10.715  0.5417 -0.4591 -0.5584
 8130SOL    HW236027   2.708   3.423  10.628  0.9692  2.1475  0.0154
 8131SOL     OW36028   1.371   3.062   7.932 -0.9908 -0.7721 -0.5111
 8131SOL    HW136029   1.446   3.004   7.916 -0.3086  0.1527 -0.6609
 8131SOL    HW236030   1.410   3.149   7.939  0.1769 -1.3099 -0.3248
 8132SOL     OW36031   4.140   3.157  11.607 -1.1384  0.0701 -0.0894
 8132SOL    HW136032   4.125   3.144  11.700  1.2191 -2.2980 -0.0382
 8132SOL    HW236033   4.204   3.091  11.581 -1.9107 -0.6788 -0.0820
 8133SOL     OW36034   1.049   4.226   3.389 -0.1000 -0.2231  0.4940
 8133SOL    HW136035   1.069   4.291   3.455  2.1790 -1.0126  0.5871
 8133SOL    HW236036   0.987   4.279   3.339  1.1051  1.9856  1.3428
 8134SOL     OW36037   0.184   3.958   5.263 -0.1446  0.1701 -0.3041
 8134SOL    HW136038   0.102   3.979   5.219 -1.3732  1.2789  2.5301
 8134SOL    HW236039   0.253   3.980   5.200 -0.6011 -1.9790 -1.5539
 8135SOL     OW36040   4.629   1.325   4.545 -0.3056  0.8348 -1.1765
 8135SOL    HW136041   4.711   1.293   4.584 -0.8743  0.6070 -0.1621
 8135SOL    HW236042   4.605   1.251   4.490  0.8241 -1.1477  0.9806
 8136SOL     OW36043   4.560   0.838   8.774 -0.3220  0.2815 -0.6168
 8136SOL    HW136044   4.593   0.755   8.739 -3.0375  0.0559 -2.6123
 8136SOL    HW236045   4.524   0.889   8.701 -0.3742  1.0437 -0.0631
 8137SOL     OW36046   0.332   1.583   5.626  0.3169 -0.1725  0.3590
 8137SOL    HW136047   0.271   1.656   5.630 -0.3076 -0.7494  1.6926
 8137SOL    HW236048   0.414   1.632   5.624  0.7111 -0.8695 -0.8030
 8138SOL     OW36049   2.139   1.877   4.434 -0.9079  0.1544  0.0485
 8138SOL    HW136050   2.079   1.820   4.387  0.0057 -0.0866 -0.8307
 8138SOL    HW236051   2.123   1.853   4.526 -0.6395 -1.4264 -0.3036
 8139SOL     OW36052   3.974   4.284   5.091  0.1935 -0.0742  0.6557
 8139SOL    HW136053   3.882   4.295   5.066 -0.1357 -2.7591  0.6799
 8139SOL    HW236054   3.999   4.208   5.038  2.8276  0.9000  0.5252
 8140SOL     OW36055   0.091   0.425   7.559 -0.4860  0.4213 -0.2741
 8140SOL    HW136056   0.087   0.460   7.648  0.1915 -2.1553  0.7730
 8140SOL    HW236057   0.014   0.368   7.556 -1.4698  1.7113  0.7097
 8141SOL     OW36058   4.546   2.812   4.973  0.0650 -0.5137 -0.6570
 8141SOL    HW136059   4.474   2.776   4.922 -0.6265 -2.5945  1.8091
 8141SOL    HW236060   4.570   2.882   4.913  1.0612 -1.1701 -1.0192
 8142SOL     OW36061   1.639   1.850   2.634  0.3851 -0.3874  0.0467
 8142SOL    HW136062   1.603   1.855   2.722  4.0115  0.1388  1.5004
 8142SOL    HW236063   1.698   1.777   2.653  1.7016  0.8105  0.5739
 8143SOL     OW36064   0.858   3.399   6.721 -0.0305  0.2674  0.4480
 8143SOL    HW136065   0.839   3.466   6.656  0.3254 -0.7668 -0.7299
 8143SOL    HW236066   0.906   3.453   6.784 -0.1015 -0.6004  1.2594
 8144SOL     OW36067   1.183   1.332   4.204  0.3173  0.3094  0.0609
 8144SOL    HW136068   1.185   1.237   4.206  1.6024  0.3088 -1.2545
 8144SOL    HW236069   1.147   1.345   4.292 -1.6102  0.9034 -0.8108
 8145SOL     OW36070   2.391   2.076  11.420  0.0574  0.6566  0.0452
 8145SOL    HW136071   2.325   2.127  11.374 -0.9214 -0.9724 -0.3595
 8145SOL    HW236072   2.469   2.126  11.397  0.7348 -0.7444 -0.7116
 8146SOL     OW36073   3.632   2.200   3.176 -0.2903 -0.1117 -1.0665
 8146SOL    HW136074   3.578   2.121   3.169 -0.7087  0.1731 -1.0793
 8146SOL    HW236075   3.666   2.188   3.264 -0.7734 -0.4003 -0.9153
 8147SOL     OW36076   3.033   4.598   4.361 -0.3966 -0.3504 -0.3716
 8147SOL    HW136077   3.035   4.641   4.447  1.4846 -1.0397 -0.0766
 8147SOL    HW236078   2.953   4.640   4.330 -0.8942 -1.7568 -0.9762
 8148SOL     OW36079   3.254   0.509   5.413  0.0468  0.5800  0.3262
 8148SOL    HW136080   3.330   0.540   5.462  1.5782 -2.9619  0.2395
 8148SOL    HW236081   3.218   0.445   5.474  3.0665 -0.0615  1.4101
 8149SOL     OW36082   4.309   1.914  12.289  0.2153  0.1781  0.0859
 8149SOL    HW136083   4.262   1.845  12.336 -1.9650  1.3470 -0.3865
 8149SOL    HW236084   4.369   1.940  12.359  0.4813  1.0509 -0.4686
 8150SOL     OW36085   4.397   0.681   4.728 -0.2354 -0.3461 -0.1502
 8150SOL    HW136086   4.387   0.740   4.654  0.8465 -0.6126 -0.5044
 8150SOL    HW236087   4.308   0.652   4.707  0.1931 -1.6194 -0.1929
 8151SOL     OW36088   0.871   0.528   4.028  0.2875 -0.8191  0.6107
 8151SOL    HW136089   0.916   0.586   3.967 -2.5503  0.1720 -0.5612
 8151SOL    HW236090   0.802   0.588   4.057 -0.3632 -0.5924 -1.4636
 8152SOL     OW36091   0.621   4.378   3.083 -0.4565  0.2306  0.0494
 8152SOL    HW136092   0.628   4.465   3.044 -1.8768  1.0888  1.7219
 8152SOL    HW236093   0.657   4.320   3.016 -3.3128  0.9343 -2.0773
 8153SOL     OW36094   1.877   1.440  13.920 -0.1047  0.1446 -0.8412
 8153SOL    HW136095   1.969   1.415  13.924 -1.0417 -2.9453  1.3925
 8153SOL    HW236096   1.843   1.384  13.850 -1.0044 -1.1370  0.6172
 8154SOL     OW36097   0.497   1.322   1.126  0.2185  0.0136  0.1209
 8154SOL    HW136098   0.533   1.266   1.195  1.7031  1.0606  0.1928
 8154SOL    HW236099   0.413   1.280   1.109 -0.8256  1.0733  2.7988
 8155SOL     OW36100   0.820   1.768   9.379  0.0814 -0.7944 -0.4238
 8155SOL    HW136101   0.823   1.811   9.464  1.2151  0.8432 -1.2945
 8155SOL    HW236102   0.783   1.682   9.400 -1.0510 -0.5941 -1.5822
 8156SOL     OW36103   2.237   3.681   3.164  0.4037 -0.0093  0.3961
 8156SOL    HW136104   2.160   3.717   3.209 -1.0414 -0.5449 -1.6169
 8156SOL    HW236105   2.295   3.757   3.168  0.7174 -0.1951 -0.5464
 8157SOL     OW36106   3.501   0.582   5.490  0.2453  0.4800 -0.6702
 8157SOL    HW136107   3.574   0.607   5.433  1.4092 -0.9226  0.2059
 8157SOL    HW236108   3.559   0.555   5.561 -0.5108 -0.2465 -0.3341
 8158SOL     OW36109   1.995   0.697   3.015 -0.2867 -0.0048 -0.5922
 8158SOL    HW136110   1.992   0.764   3.083 -2.5727 -0.9511  0.2271
 8158SOL    HW236111   1.960   0.616   3.051  1.3855  0.3695  1.8721
 8159SOL     OW36112   1.934   3.661  10.751 -0.4266  0.2881 -0.4062
 8159SOL    HW136113   1.850   3.705  10.743 -0.8805 -0.3093  1.1051
 8159SOL    HW236114   1.977   3.682  10.668  0.9632  0.2222  0.2856
 8160SOL     OW36115   0.419   0.824   1.757  0.0919 -0.1219 -0.3348
 8160SOL    HW136116   0.335   0.806   1.800  0.0527 -0.4971 -0.5726
 8160SOL    HW236117   0.454   0.887   1.820 -0.8248 -1.2569  1.2968
 8161SOL     OW36118   2.050   1.460  17.373  0.4932 -0.3719  0.1052
 8161SOL    HW136119   1.979   1.406  17.405 -0.8448  0.2104 -1.8915
 8161SOL    HW236120   2.116   1.432  17.436  2.5170  1.9199 -0.9330
 8162SOL     OW36121   0.102   1.900   9.421  0.5606  0.0695 -0.3108
 8162SOL    HW136122   0.028   1.898   9.360 -1.3464  3.3843  1.8792
 8162SOL    HW236123   0.080   1.857   9.503  1.1674 -2.3873 -1.4467
 8163SOL     OW36124   1.961   0.084  12.177 -0.7147  0.5782 -0.1668
 8163SOL    HW136125   2.000   0.011  12.225 -0.7723  0.4126 -0.3738
 8163SOL    HW236126   2.022   0.153  12.203  2.4554 -1.2406 -2.8275
 8164SOL     OW36127   3.522   4.216   9.514  0.0651 -0.3561  0.3086
 8164SOL    HW136128   3.471   4.288   9.550 -0.8531 -0.9307  0.1753
 8164SOL    HW236129   3.490   4.206   9.424  1.4672 -0.1992 -0.2103
 8165SOL     OW36130   4.010   0.561   4.470  0.5011  0.1235  0.2335
 8165SOL    HW136131   3.973   0.648   4.454  2.7111  0.8002 -1.2702
 8165SOL    HW236132   4.034   0.537   4.380 -1.2407 -1.5616  0.2345
 8166SOL     OW36133   0.358   2.558   8.794  0.9344  0.1195 -0.1699
 8166SOL    HW136134   0.374   2.532   8.704 -3.4465 -0.4268 -0.7698
 8166SOL    HW236135   0.353   2.653   8.781  1.3751  0.3706  1.3950
 8167SOL     OW36136   0.310   1.693   6.401  0.3679  0.3167  0.0445
 8167SOL    HW136137   0.298   1.728   6.313  0.9274  2.4292  0.8135
 8167SOL    HW236138   0.228   1.719   6.443  0.9339  0.6089  0.9717
 8168SOL     OW36139   1.767   1.553  16.778 -0.3306  0.5389 -0.2302
 8168SOL    HW136140   1.766   1.631  16.723  2.3636  1.3818  0.9283
 8168SOL    HW236141   1.860   1.537  16.790 -0.2629  0.2117 -1.2545
 8169SOL     OW36142   0.572   1.859   2.954 -0.2431  0.2248 -0.0329
 8169SOL    HW136143   0.580   1.767   2.978  1.6762  0.8268  1.6448
 8169SOL    HW236144   0.663   1.887   2.967 -0.1046  0.7749 -2.0874
 8170SOL     OW36145   4.723   4.070   4.454 -0.1250 -0.3390  0.0387
 8170SOL    HW136146   4.665   4.119   4.395 -1.3229  1.3187  2.6305
 8170SOL    HW236147   0.047   4.143   4.460  1.2787 -1.5273 -0.1978
 8171SOL     OW36148   0.235   0.098   6.283  0.1347 -0.7146 -0.2109
 8171SOL    HW136149   0.146   0.067   6.266  1.1501 -2.1236 -2.9374
 8171SOL    HW236150   0.288   0.019   6.295 -0.2332 -1.0169 -0.5920
 8172SOL     OW36151   4.460   2.756   8.039 -0.4441 -0.0705 -0.1275
 8172SOL    HW136152   4.427   2.845   8.034 -0.9990 -0.2020  1.1082
 8172SOL    HW236153   4.375   2.715   8.020 -0.4523 -0.1563  0.0910
 8173SOL     OW36154   0.611   3.423  17.445  0.0026  0.2411 -0.3127
 8173SOL    HW136155   0.533   3.368  17.455  2.0632 -2.4071  1.2860
 8173SOL    HW236156   0.581   3.489  17.382  1.1597 -0.0514 -1.1728
 8174SOL     OW36157   3.050   2.323   1.448  0.0717  0.5299  0.5963
 8174SOL    HW136158   3.125   2.295   1.500  0.0941 -0.8867 -0.1941
 8174SOL    HW236159   3.065   2.284   1.362 -1.1764 -2.1493  1.5832
 8175SOL     OW36160   0.965   3.574  17.225 -0.1934 -0.2982  0.0071
 8175SOL    HW136161   0.890   3.630  17.203  0.4896  0.8650  0.6489
 8175SOL    HW236162   0.976   3.535  17.139  1.4849 -1.3123  0.6925
 8176SOL     OW36163   1.352   1.529   6.647  0.2642 -0.1036 -0.0793
 8176SOL    HW136164   1.376   1.621   6.642 -1.8006  0.5870  2.7499
 8176SOL    HW236165   1.326   1.520   6.555 -0.4707  0.1531  0.1037
 8177SOL     OW36166   0.838   1.585  14.841 -0.2683  0.4066 -0.3566
 8177SOL    HW136167   0.862   1.604  14.750 -1.8984  2.2398 -0.3927
 8177SOL    HW236168   0.748   1.555  14.834 -0.2033  0.8915 -3.4827
 8178SOL     OW36169   4.123   1.189   5.849  0.1159 -0.3448  0.1319
 8178SOL    HW136170   4.189   1.128   5.818  0.0889  0.4831 -1.5214
 8178SOL    HW236171   4.188   1.239   5.899 -0.2187 -0.1171  0.3465
 8179SOL     OW36172   0.758   3.706   9.314  0.7089 -0.4538  0.6355
 8179SOL    HW136173   0.796   3.708   9.226 -0.6538  0.5502  0.0666
 8179SOL    HW236174   0.772   3.795   9.347  1.2048  0.2291 -1.3806
 8180SOL     OW36175   0.406   3.567   5.692 -0.5367  0.2861 -0.2880
 8180SOL    HW136176   0.488   3.548   5.738  0.7392  0.8731 -2.3153
 8180SOL    HW236177   0.350   3.613   5.754  1.5700 -0.1479  1.9401
 8181SOL     OW36178   1.784   1.410   3.513  0.3347 -0.1461 -0.0879
 8181SOL    HW136179   1.735   1.328   3.512 -0.2416  0.2305 -1.7508
 8181SOL    HW236180   1.717   1.474   3.489  1.3859  0.7214 -0.7055
 8182SOL     OW36181   2.878   1.588   3.699  0.0218  0.2371 -0.4332
 8182SOL    HW136182   2.965   1.564   3.668  0.0210 -0.6114  0.2338
 8182SOL    HW236183   2.882   1.558   3.790  0.7405  0.3538 -0.4332
 8183SOL     OW36184   4.652   4.725   9.304 -0.3117  0.1875  0.1087
 8183SOL    HW136185   0.009   4.719   9.309 -0.1594  1.5850 -1.0180
 8183SOL    HW236186   4.638   4.684   9.219  0.8227 -1.6316  0.7998
 8184SOL     OW36187   2.436   1.192   6.500 -0.1573 -0.1998  0.6857
 8184SOL    HW136188   2.347   1.221   6.478  0.6676  1.1813 -0.8810
 8184SOL    HW236189   2.433   1.097   6.497  0.1400 -0.1913  0.1301
 8185SOL     OW36190   3.964   1.358   1.932  0.2108 -0.8079  0.0334
 8185SOL    HW136191   3.997   1.354   2.022  0.4282  1.4991  0.0523
 8185SOL    HW236192   3.988   1.446   1.902  1.2787 -1.3237 -0.6213
 8186SOL     OW36193   1.489   1.718   2.451 -0.2310 -0.2677  0.0724
 8186SOL    HW136194   1.535   1.763   2.522 -1.3939  1.0168  0.0147
 8186SOL    HW236195   1.548   1.644   2.433  0.1596 -0.1028  0.6737
 8187SOL     OW36196   4.632   1.785   2.379 -0.7239  0.0435  0.2441
 8187SOL    HW136197   4.683   1.864   2.363  0.2737  0.0467  3.4772
 8187SOL    HW236198   4.706   1.724   2.383 -2.1974 -1.8928 -1.8251
 8188SOL     OW36199   0.834   0.646  16.608 -0.1421  0.1560  0.0007
 8188SOL    HW136200   0.875   0.641  16.694  1.5073 -1.0612 -0.8711
 8188SOL    HW236201   0.873   0.732  16.589 -0.3073  0.2516  0.0934
 8189SOL     OW36202   0.549   3.425   3.473  0.4001 -0.0760  0.4528
 8189SOL    HW136203   0.507   3.341   3.489  0.7413  0.1287  2.4375
 8189SOL    HW236204   0.510   3.468   3.549 -0.1449  0.0328  0.1069
 8190SOL     OW36205   3.246   2.220   0.970  0.6783 -0.0967 -0.2122
 8190SOL    HW136206   3.302   2.293   0.944 -0.2394  0.2820 -1.1171
 8190SOL    HW236207   3.254   2.168   0.890 -0.5341 -3.1807  1.6740
 8191SOL     OW36208   3.741   4.511   5.594  0.2358  0.2306 -0.2600
 8191SOL    HW136209   3.665   4.509   5.537 -0.1691 -0.4453  0.3177
 8191SOL    HW236210   3.751   4.605   5.612  0.4458  0.5708 -2.1759
 8192SOL     OW36211   2.849   1.359   7.704 -0.5625  0.2605  0.4156
 8192SOL    HW136212   2.924   1.338   7.759  0.4560 -1.2066 -1.5010
 8192SOL    HW236213   2.784   1.289   7.713 -2.7109  2.0703 -1.0481
 8193SOL     OW36214   0.707   3.273   4.534  0.0866  0.8085  0.0586
 8193SOL    HW136215   0.802   3.257   4.536  0.4333  2.8257 -0.2961
 8193SOL    HW236216   0.693   3.303   4.624 -2.4416 -0.0962 -0.0522
 8194SOL     OW36217   4.643   2.926   4.748 -0.0897 -0.4952 -0.2064
 8194SOL    HW136218   4.686   2.963   4.670 -3.3507  2.5483 -0.5915
 8194SOL    HW236219   4.672   2.837   4.730  0.7518 -0.5232  1.2959
 8195SOL     OW36220   3.984   3.863   5.928 -0.7930 -0.5366 -0.4649
 8195SOL    HW136221   3.936   3.803   5.871  0.1817 -1.5555 -0.2301
 8195SOL    HW236222   3.978   3.946   5.881  0.1710 -0.4800 -0.4748
 8196SOL     OW36223   4.717   4.155   3.484  0.6776  0.5216  0.2726
 8196SOL    HW136224   0.055   4.098   3.470 -0.1649 -0.5312 -0.0283
 8196SOL    HW236225   0.001   4.220   3.417  1.2058 -0.4419 -0.5022
 8197SOL     OW36226   3.886   3.009   1.652 -0.6967  0.2836  0.2923
 8197SOL    HW136227   3.872   3.003   1.746 -0.3039 -1.1877  0.2593
 8197SOL    HW236228   3.800   3.033   1.618 -0.6432 -1.0793 -0.8338
 8198SOL     OW36229   0.102   4.335   8.855 -0.4033 -0.0040  0.0010
 8198SOL    HW136230   0.031   4.295   8.806 -0.6002  0.2146  0.1095
 8198SOL    HW236231   0.076   4.426   8.844 -1.9694 -0.4613 -0.0160
 8199SOL     OW36232   0.049   3.647   2.981  0.4074 -0.5601  0.1745
 8199SOL    HW136233   0.041   3.623   3.073  0.4337  0.7208  0.5074
 8199SOL    HW236234   4.702   3.691   2.972  0.1728 -0.7737  1.3446
 8200SOL     OW36235   3.251   1.289   8.432 -0.2014 -0.4026 -0.1758
 8200SOL    HW136236   3.233   1.332   8.516 -1.0575  0.5430 -0.8354
 8200SOL    HW236237   3.170   1.271   8.385 -0.8825  0.7998  0.5152
 8201SOL     OW36238   2.279   2.146   5.131 -0.6562 -0.1991 -0.2285
 8201SOL    HW136239   2.280   2.051   5.142 -2.5210 -0.0131  1.4391
 8201SOL    HW236240   2.338   2.177   5.200 -0.4925  0.6451 -0.7531
 8202SOL     OW36241   3.100   4.135   2.500  0.3416 -1.0133 -0.6120
 8202SOL    HW136242   3.193   4.136   2.524  0.0958 -3.1336  0.3930
 8202SOL    HW236243   3.114   4.158   2.408  0.9108  0.2035 -0.2308
 8203SOL     OW36244   4.698   1.116   9.250  0.0792  0.2642  0.5178
 8203SOL    HW136245   0.016   1.096   9.176 -0.6530 -0.6912  0.2249
 8203SOL    HW236246   4.664   1.204   9.235  0.8274  0.5857  0.7041
 8204SOL     OW36247   3.096   2.422   0.799 -0.2640  0.2262  0.3744
 8204SOL    HW136248   3.067   2.337   0.832  2.4871  0.6511  3.9713
 8204SOL    HW236249   3.030   2.481   0.834  0.3412  1.0565  0.1075
 8205SOL     OW36250   4.532   4.535   4.432 -0.0623 -0.0547  1.2782
 8205SOL    HW136251   4.549   4.508   4.342 -1.5731 -0.3615  1.0851
 8205SOL    HW236252   4.436   4.525   4.437 -0.3467  1.8096 -0.6699
 8206SOL     OW36253   2.105   0.915   4.674  0.1348  0.8510 -0.6536
 8206SOL    HW136254   2.062   0.984   4.724 -0.0669  0.9356 -0.9376
 8206SOL    HW236255   2.147   0.874   4.749 -2.5838 -1.2267 -0.2416
 8207SOL     OW36256   2.172   0.012   4.072 -0.0032 -0.0819 -0.6725
 8207SOL    HW136257   2.120   4.671   4.059  1.5245 -1.3354  0.8619
 8207SOL    HW236258   2.260   4.727   4.044  0.4648 -0.2083  0.9108
 8208SOL     OW36259   4.625   1.495   4.834 -0.1437 -0.4427 -0.3675
 8208SOL    HW136260   4.531   1.500   4.820  0.0477 -0.7027 -1.7202
 8208SOL    HW236261   4.655   1.454   4.753  0.6781 -1.9512  0.7028
 8209SOL     OW36262   3.562   2.110   8.827  0.2205 -0.1104 -0.2705
 8209SOL    HW136263   3.512   2.177   8.779 -1.9386 -2.9474 -1.9850
 8209SOL    HW236264   3.503   2.084   8.898 -0.2838  1.0071 -0.2795
 8210SOL     OW36265   0.555   1.563   9.196  0.1958  0.2275  0.2112
 8210SOL    HW136266   0.565   1.657   9.184 -0.1095  0.2449  0.0916
 8210SOL    HW236267   0.490   1.575   9.266 -1.7094  0.4222 -1.5692
 8211SOL     OW36268   2.560   3.732   6.237 -0.0327 -0.0072  0.0507
 8211SOL    HW136269   2.517   3.805   6.192  1.6238  0.4088 -0.8458
 8211SOL    HW236270   2.498   3.659   6.238 -0.3547  0.2864  1.1637
 8212SOL     OW36271   0.516   0.106   2.976 -0.2712 -0.4392  0.1810
 8212SOL    HW136272   0.474   0.075   3.056  1.2341  2.6219  2.1466
 8212SOL    HW236273   0.556   0.190   2.997 -0.1085 -0.3044 -0.6614
 8213SOL     OW36274   1.892   1.931   0.030  0.2141  0.0971  0.5148
 8213SOL    HW136275   1.822   1.943   0.094  1.8457 -1.1318  2.5301
 8213SOL    HW236276   1.962   1.919   0.094 -0.5945 -2.9555  0.8527
 8214SOL     OW36277   2.196   4.396  13.380 -0.1787  0.3240 -0.6395
 8214SOL    HW136278   2.279   4.348  13.379 -1.4077 -1.8399  0.6390
 8214SOL    HW236279   2.206   4.471  13.439 -0.2838 -1.7090  1.9940
 8215SOL     OW36280   2.513   1.848   7.084  0.1147  0.5211 -0.0270
 8215SOL    HW136281   2.600   1.860   7.123  0.6948 -1.3930 -0.7173
 8215SOL    HW236282   2.524   1.754   7.074  1.1979  0.7522 -1.0159
 8216SOL     OW36283   2.367   3.976   5.880 -0.1684 -0.4920  0.0562
 8216SOL    HW136284   2.289   3.954   5.931 -0.8179  0.5258 -0.4763
 8216SOL    HW236285   2.371   4.070   5.902  2.1927 -0.8731  1.2483
 8217SOL     OW36286   1.798   0.829   4.787 -0.2564  0.3260  0.0238
 8217SOL    HW136287   1.877   0.774   4.789 -0.8877 -0.4657  2.4239
 8217SOL    HW236288   1.739   0.775   4.733  0.9574  0.8138 -1.8085
 8218SOL     OW36289   0.680   2.797  14.824 -0.0357 -0.3558  0.2259
 8218SOL    HW136290   0.633   2.739  14.764  0.8849 -0.3240 -0.5336
 8218SOL    HW236291   0.766   2.764  14.795  0.6272 -0.7664  2.6618
 8219SOL     OW36292   1.307   2.410   5.697  0.0565  0.9582  0.1747
 8219SOL    HW136293   1.361   2.348   5.746 -0.7313  0.9598  1.0288
 8219SOL    HW236294   1.312   2.496   5.738 -1.1162  1.6430 -1.1087
 8220SOL     OW36295   2.810   0.085   7.427  0.2570 -0.6769 -0.8902
 8220SOL    HW136296   2.904   0.075   7.417  0.4399  0.6998 -0.5745
 8220SOL    HW236297   2.785   0.027   7.355  1.0083 -1.6842 -0.3287
 8221SOL     OW36298   0.284   1.119   1.392  0.1359  0.8201  0.0751
 8221SOL    HW136299   0.362   1.069   1.414  0.5911  0.9479 -1.2655
 8221SOL    HW236300   0.220   1.065   1.438 -0.5851  1.3775 -0.2818
 8222SOL     OW36301   0.200   3.336   5.695  0.2216 -0.2291  0.0964
 8222SOL    HW136302   0.140   3.344   5.769 -0.9016  0.9041 -0.9387
 8222SOL    HW236303   0.253   3.415   5.703 -2.5955  1.7908 -1.3562
 8223SOL     OW36304   4.115   3.853   3.756 -0.4590 -0.0472 -0.1152
 8223SOL    HW136305   4.148   3.941   3.735 -0.2392  0.4788  2.4581
 8223SOL    HW236306   4.034   3.847   3.705 -0.4883 -1.1997  0.0720
 8224SOL     OW36307   2.414   1.490   8.039 -0.3480  0.2471 -0.0074
 8224SOL    HW136308   2.413   1.395   8.046 -0.4444  0.4471  2.7138
 8224SOL    HW236309   2.346   1.523   8.098  1.9839  0.3169  2.6361
 8225SOL     OW36310   4.163   0.725   3.496  0.1442  0.1056 -0.1471
 8225SOL    HW136311   4.165   0.813   3.534  2.0786  0.9959 -2.2579
 8225SOL    HW236312   4.248   0.718   3.452  0.3452 -1.9860  0.6268
 8226SOL     OW36313   3.824   3.944   2.735 -0.4184  0.2594  0.3621
 8226SOL    HW136314   3.759   4.015   2.738 -1.2993 -0.6161  1.6570
 8226SOL    HW236315   3.879   3.976   2.807  0.7914 -0.8207 -0.0762
 8227SOL     OW36316   0.141   2.527   6.062 -0.6468 -0.4899 -0.3856
 8227SOL    HW136317   0.210   2.593   6.067  0.4496 -1.7660  1.7235
 8227SOL    HW236318   0.076   2.564   6.003 -0.5004 -0.0742 -0.2866
 8228SOL     OW36319   1.931   3.575   4.569  0.3979 -0.1748  0.6341
 8228SOL    HW136320   1.994   3.505   4.587  1.1064  0.0842 -0.7770
 8228SOL    HW236321   1.857   3.543   4.621 -0.1300  1.7044  1.0365
 8229SOL     OW36322   0.783   3.592  17.620  0.0430 -0.3681  0.5386
 8229SOL    HW136323   0.724   3.556  17.555 -0.4513 -0.3591  0.9798
 8229SOL    HW236324   0.856   3.637  17.577 -0.4274 -1.3212 -1.2493
 8230SOL     OW36325   3.687   4.025   6.020  0.2003 -0.3508  0.5185
 8230SOL    HW136326   3.754   4.093   6.015 -0.6373  0.2215 -2.6266
 8230SOL    HW236327   3.724   3.963   6.083 -0.7423  0.0249  1.4651
 8231SOL     OW36328   4.461   0.622  17.456  0.1946  0.1207  0.6535
 8231SOL    HW136329   4.374   0.660  17.456  1.0494  2.0939 -0.4573
 8231SOL    HW236330   4.503   0.708  17.456  1.3094 -0.4095 -0.0183
 8232SOL     OW36331   0.796   3.856  10.342  0.1427  0.4137  0.2516
 8232SOL    HW136332   0.722   3.854  10.280 -0.3985 -2.9028  0.9897
 8232SOL    HW236333   0.762   3.933  10.388 -1.5497 -0.1714 -0.0179
 8233SOL     OW36334   3.137   3.073   4.953 -0.2058  0.3975 -0.4552
 8233SOL    HW136335   3.073   3.091   4.884 -0.1476 -0.7916 -0.8284
 8233SOL    HW236336   3.119   3.149   5.007 -0.4918 -1.8719  2.6447
 8234SOL     OW36337   4.561   0.158   5.054  0.4825 -0.4178  0.2196
 8234SOL    HW136338   4.532   0.140   5.143  0.2369 -1.2499 -0.0182
 8234SOL    HW236339   4.482   0.132   5.006  1.9249 -1.1227 -1.7761
 8235SOL     OW36340   3.608   0.235   1.386  0.0432 -0.5791 -0.0934
 8235SOL    HW136341   3.547   0.308   1.376  0.8247  0.0860 -0.0847
 8235SOL    HW236342   3.637   0.227   1.295  0.6748  1.4761 -0.0829
 8236SOL     OW36343   3.869   0.961  14.837 -0.2346  0.6223  0.8631
 8236SOL    HW136344   3.932   0.890  14.842 -0.7002  0.1473 -0.0202
 8236SOL    HW236345   3.873   0.993  14.747  2.5418 -3.3616 -0.4140
 8237SOL     OW36346   0.033   3.463  11.725  0.4019 -0.9631 -0.2600
 8237SOL    HW136347   4.725   3.479  11.808  0.8755 -0.0207 -0.1768
 8237SOL    HW236348   0.116   3.428  11.755  1.7254  3.7448  1.4914
 8238SOL     OW36349   1.147   4.143   0.105  0.0026 -0.2384  0.7649
 8238SOL    HW136350   1.124   4.233   0.079 -1.2725 -0.7670  0.0712
 8238SOL    HW236351   1.157   4.098   0.022  0.0289  0.2892  0.4837
 8239SOL     OW36352   1.764   0.442  12.068 -0.1598  0.1193  0.0912
 8239SOL    HW136353   1.759   0.346  12.064 -1.8154  0.1609  1.1022
 8239SOL    HW236354   1.848   0.446  12.114  0.5291 -1.1988 -1.0637
 8240SOL     OW36355   4.217   0.074   4.289  0.1164  0.0845 -0.3419
 8240SOL    HW136356   4.247   0.130   4.218  0.4871  2.0129  1.3175
 8240SOL    HW236357   4.184   0.130   4.359 -1.2370 -1.6848  0.4339
 8241SOL     OW36358   4.166   0.657   0.169  0.6002  0.1121  0.4832
 8241SOL    HW136359   4.212   0.700   0.096  0.7911  2.8492  2.2096
 8241SOL    HW236360   4.219   0.690   0.241 -0.8156 -0.2448  1.6950
 8242SOL     OW36361   4.061   3.153   9.722 -0.0424 -0.4225  0.4403
 8242SOL    HW136362   4.123   3.091   9.683 -0.3501  0.1338 -0.9282
 8242SOL    HW236363   3.984   3.105   9.752 -0.2113 -0.6332 -0.3333
 8243SOL     OW36364   2.823   2.250   2.691  0.2359  0.6046  0.1100
 8243SOL    HW136365   2.879   2.204   2.629 -0.5161  1.6647 -1.3550
 8243SOL    HW236366   2.802   2.172   2.742 -0.7696 -0.4296 -1.9100
 8244SOL     OW36367   1.813   0.152   6.662 -0.0678 -0.1152 -0.4088
 8244SOL    HW136368   1.866   0.115   6.591  2.4605  0.9330  0.9247
 8244SOL    HW236369   1.751   0.199   6.606 -0.3048 -0.8178 -0.7379
 8245SOL     OW36370   2.002   0.501   8.542 -0.3740 -0.2567  0.1641
 8245SOL    HW136371   2.087   0.461   8.522  0.4818  0.7399  1.7266
 8245SOL    HW236372   2.028   0.586   8.578  2.2703 -0.4131 -1.3612
 8246SOL     OW36373   4.080   3.471   5.504 -0.0642 -0.4625  0.1837
 8246SOL    HW136374   4.005   3.482   5.561  0.8854 -1.1443  1.5530
 8246SOL    HW236375   4.085   3.564   5.480 -2.8172 -0.9203 -2.0986
 8247SOL     OW36376   4.363   1.143  12.782 -0.3940 -0.2160  0.4320
 8247SOL    HW136377   4.326   1.223  12.744 -2.5399 -1.2243  0.4353
 8247SOL    HW236378   4.428   1.113  12.718  0.6368  2.7727  0.0535
 8248SOL     OW36379   2.985   2.422  13.144  0.1524 -0.0862  0.5120
 8248SOL    HW136380   3.036   2.482  13.089 -0.4177 -1.0393 -1.0422
 8248SOL    HW236381   2.901   2.465  13.157 -0.9836 -2.1592  0.0391
 8249SOL     OW36382   1.861   0.113   1.243  0.5328  0.1637 -0.4239
 8249SOL    HW136383   1.941   0.064   1.228  1.4772  1.6989 -0.4268
 8249SOL    HW236384   1.822   0.111   1.156 -0.0317 -2.5281 -0.0779
 8250SOL     OW36385   0.136   0.300   9.653 -0.1847 -0.2379  0.5523
 8250SOL    HW136386   0.055   0.347   9.675 -0.1117  0.6363 -1.0357
 8250SOL    HW236387   0.184   0.377   9.621  2.0137 -1.7924  0.0859
 8251SOL     OW36388   0.851   3.989   1.269  0.4869 -0.3131 -0.5799
 8251SOL    HW136389   0.779   3.932   1.297 -1.0110  1.2677 -1.1698
 8251SOL    HW236390   0.815   3.993   1.180  2.7632 -0.5049 -1.5002
 8252SOL     OW36391   3.618   0.670   4.982  0.2589  0.1830 -0.3360
 8252SOL    HW136392   3.554   0.649   5.049  2.4156 -0.4808  1.5184
 8252SOL    HW236393   3.577   0.734   4.923  0.9576  1.7367  0.8646
 8253SOL     OW36394   4.030   4.574   5.838  0.0153  0.2044 -0.1513
 8253SOL    HW136395   4.046   4.633   5.911 -0.4830 -1.1366  1.0510
 8253SOL    HW236396   4.119   4.567   5.805 -0.0672 -0.5355 -0.2283
 8254SOL     OW36397   0.178   0.071   4.894  0.2079 -0.2777 -0.5433
 8254SOL    HW136398   0.256   0.051   4.842  0.5667 -0.2618 -0.0229
 8254SOL    HW236399   0.102   0.036   4.848  0.9712 -0.3560 -1.7439
 8255SOL     OW36400   1.602   0.244   1.080  0.1144 -0.3541 -0.0217
 8255SOL    HW136401   1.542   0.170   1.074 -0.7761  0.2907  0.8029
 8255SOL    HW236402   1.557   0.312   1.030  0.1991 -0.9464 -0.8909
 8256SOL     OW36403   1.416   4.650   0.546  0.2629 -0.1446  0.1404
 8256SOL    HW136404   1.433   4.605   0.463  1.7081  0.7631 -0.0467
 8256SOL    HW236405   1.400   4.736   0.506  3.9163 -0.2401 -1.5242
 8257SOL     OW36406   3.293   0.890  13.335 -0.6084 -0.7680  0.1055
 8257SOL    HW136407   3.386   0.891  13.360 -0.3396  0.9556 -0.9349
 8257SOL    HW236408   3.250   0.940  13.405  0.3856 -1.0340  0.9138
 8258SOL     OW36409   4.245   4.546   4.315  0.0930 -0.1898  0.1969
 8258SOL    HW136410   4.248   4.636   4.281 -0.9884 -0.3789 -0.4125
 8258SOL    HW236411   4.168   4.506   4.274  0.3072 -1.8207  1.4180
 8259SOL     OW36412   4.507   0.205  13.629  0.3799  0.5695 -0.1131
 8259SOL    HW136413   4.489   0.114  13.652  0.4720  0.0389 -2.0885
 8259SOL    HW236414   4.535   0.197  13.537  1.7511  0.9564  0.2611
 8260SOL     OW36415   1.236   3.201   4.877 -0.2624  0.2398  0.8167
 8260SOL    HW136416   1.163   3.142   4.896 -0.3164 -0.6037 -2.0121
 8260SOL    HW236417   1.213   3.273   4.936  0.8066  1.5789 -0.4015
 8261SOL     OW36418   4.292   1.224   6.608 -0.6699  0.4146 -0.3455
 8261SOL    HW136419   4.258   1.139   6.633 -2.3866  1.3208  0.3967
 8261SOL    HW236420   4.214   1.279   6.611  0.2954  1.6961  1.9796
 8262SOL     OW36421   2.762   3.172  15.452  0.1491  0.0666  0.1388
 8262SOL    HW136422   2.713   3.091  15.441  1.4152 -0.5868 -0.6967
 8262SOL    HW236423   2.814   3.166  15.372 -1.5171  3.2617 -1.1789
 8263SOL     OW36424   1.940   3.404   9.384  0.3860 -0.1522 -0.0738
 8263SOL    HW136425   1.883   3.371   9.454 -1.4886 -0.9112 -1.9561
 8263SOL    HW236426   2.011   3.341   9.393  0.0818 -0.3423  0.9633
 8264SOL     OW36427   3.302   3.943   3.379  0.7295 -0.5514 -0.0594
 8264SOL    HW136428   3.353   3.949   3.461  2.0822  1.3957 -1.0550
 8264SOL    HW236429   3.232   4.007   3.388  1.3435  0.4210 -2.2790
 8265SOL     OW36430   0.858   2.968  12.233 -0.4098 -0.1267 -0.2931
 8265SOL    HW136431   0.842   3.031  12.303  0.2826 -2.0899  1.6317
 8265SOL    HW236432   0.768   2.963  12.202 -0.1189 -1.5464 -0.9459
 8266SOL     OW36433   4.366   2.776   6.987 -0.4513  0.0407  0.4059
 8266SOL    HW136434   4.275   2.782   6.959 -0.3551 -1.2113 -0.1760
 8266SOL    HW236435   4.412   2.737   6.913  0.3252  0.8052  0.4794
 8267SOL     OW36436   2.393   0.416   9.112  0.1211 -0.3023 -0.0727
 8267SOL    HW136437   2.375   0.409   9.018  0.1941  1.6386 -0.2239
 8267SOL    HW236438   2.302   0.396   9.135 -0.4698 -0.7564 -2.7834
 8268SOL     OW36439   0.427   4.477   5.385 -0.1447 -0.2368  0.7189
 8268SOL    HW136440   0.522   4.479   5.391 -0.0020 -0.3153 -1.6132
 8268SOL    HW236441   0.421   4.512   5.296  0.2631  0.1820  0.8582
 8269SOL     OW36442   2.633   2.241  11.357  0.2901  0.1950  0.2465
 8269SOL    HW136443   2.714   2.216  11.313  0.4059 -1.8909  1.6390
 8269SOL    HW236444   2.668   2.280  11.437  0.1312  1.2520 -0.2060
 8270SOL     OW36445   2.883   4.552  11.442  0.3512 -0.1924 -0.3458
 8270SOL    HW136446   2.897   4.472  11.392 -2.6488 -1.8843  1.5310
 8270SOL    HW236447   2.828   4.607  11.385 -0.9522  1.2915  2.3260
 8271SOL     OW36448   0.220   3.673   2.761  0.1059  0.2820  0.2446
 8271SOL    HW136449   0.169   3.679   2.842  0.2969 -0.2608  0.4051
 8271SOL    HW236450   0.308   3.691   2.795 -0.4951  0.6431  1.6199
 8272SOL     OW36451   2.433   3.955   9.949 -0.1931  0.2857  0.1579
 8272SOL    HW136452   2.341   3.951   9.923  0.4272 -0.6294 -1.8636
 8272SOL    HW236453   2.431   3.997  10.035 -0.1333  1.0971 -0.2380
 8273SOL     OW36454   2.813   0.056   2.816 -0.1526 -0.2638  0.1885
 8273SOL    HW136455   2.815   0.151   2.811  1.6687 -0.4479 -2.5208
 8273SOL    HW236456   2.871   0.020   2.750 -0.0207 -0.6081  0.4930
 8274SOL     OW36457   0.359   2.495   3.242  0.4428 -0.6509  0.2709
 8274SOL    HW136458   0.429   2.529   3.187 -1.7272  0.9700 -1.4740
 8274SOL    HW236459   0.403   2.442   3.309 -1.8400 -1.5517  1.0556
 8275SOL     OW36460   2.699   1.173   7.299  0.0214 -0.3287  0.1635
 8275SOL    HW136461   2.642   1.111   7.252  0.5104 -1.5857  1.2370
 8275SOL    HW236462   2.640   1.181   7.374  1.5636 -4.0585  1.7641
 8276SOL     OW36463   2.580   4.068   1.569 -0.7921 -0.1079 -0.0151
 8276SOL    HW136464   2.604   4.098   1.481  1.1455 -0.6613  0.3202
 8276SOL    HW236465   2.652   4.007   1.588  1.6606  2.3912 -1.1849
 8277SOL     OW36466   1.771   3.982  17.125 -0.8926  0.1515  0.2628
 8277SOL    HW136467   1.857   3.940  17.134 -0.9118  0.3387  1.3177
 8277SOL    HW236468   1.723   3.912  17.080  0.7249 -0.1217 -1.0361
 8278SOL     OW36469   1.397   2.340   8.382 -0.5701  0.5808  0.3712
 8278SOL    HW136470   1.309   2.364   8.353 -1.0006 -0.8274  0.4817
 8278SOL    HW236471   1.461   2.398   8.341  0.5875 -0.3211  0.8959
 8279SOL     OW36472   2.977   0.219  16.634 -0.5241  0.2140 -0.1200
 8279SOL    HW136473   2.920   0.143  16.623 -1.0669  0.3559  1.6963
 8279SOL    HW236474   3.064   0.184  16.649 -0.7551 -0.8087 -1.1154
 8280SOL     OW36475   0.555   4.682   3.402 -0.3481  0.3297 -0.3360
 8280SOL    HW136476   0.540   0.026   3.356 -1.4070 -0.2618 -1.0640
 8280SOL    HW236477   0.465   4.672   3.433  0.0147 -0.1344  0.5655
 8281SOL     OW36478   2.119   2.625  17.154 -0.4945  0.2237  0.2778
 8281SOL    HW136479   2.199   2.601  17.200 -0.1860 -1.1867 -1.0085
 8281SOL    HW236480   2.069   2.545  17.172  0.5938 -0.5917 -0.3880
 8282SOL     OW36481   3.812   0.906   8.525  0.0379 -0.1199 -0.1315
 8282SOL    HW136482   3.906   0.913   8.544 -0.3339 -1.1374  2.1796
 8282SOL    HW236483   3.810   0.868   8.437 -2.0982 -1.8601  0.6547
 8283SOL     OW36484   3.429   1.325   2.395  0.0955  0.6703  0.2312
 8283SOL    HW136485   3.378   1.341   2.475  1.9562 -1.2576  1.8069
 8283SOL    HW236486   3.513   1.364   2.417  1.2584 -1.5496 -0.3340
 8284SOL     OW36487   1.112   1.924  10.319  0.4410 -0.3308  0.2908
 8284SOL    HW136488   1.199   1.945  10.352  0.4365  2.1971 -1.2697
 8284SOL    HW236489   1.075   2.011  10.301 -0.0796 -0.6838 -0.3744
 8285SOL     OW36490   1.221   3.877   9.926  0.4390  0.4782 -0.1980
 8285SOL    HW136491   1.220   3.822   9.848 -2.3451 -2.9717  2.2461
 8285SOL    HW236492   1.242   3.968   9.904  0.1856  0.8626  1.1649
 8286SOL     OW36493   3.164   2.918   9.407  0.2216  0.2285 -0.1939
 8286SOL    HW136494   3.136   2.967   9.330  1.0240  0.6322 -0.2316
 8286SOL    HW236495   3.226   2.979   9.449 -0.7165 -0.5749  2.3859
 8287SOL     OW36496   2.975   3.067   4.736 -0.3102  0.2733 -0.0605
 8287SOL    HW136497   3.014   2.985   4.708 -0.2467  0.6638 -1.1038
 8287SOL    HW236498   2.907   3.065   4.669 -0.1544 -1.2186 -0.1674
 8288SOL     OW36499   4.504   1.977  12.732 -0.2900 -0.2452 -0.3900
 8288SOL    HW136500   4.453   2.037  12.786  1.9940  0.1113  1.3881
 8288SOL    HW236501   4.591   2.011  12.754 -0.4590 -0.3122  0.3972
 8289SOL     OW36502   4.577   3.153  16.018 -0.0625  0.6857 -0.4982
 8289SOL    HW136503   4.560   3.169  15.925 -2.1902  1.9615  0.0974
 8289SOL    HW236504   4.617   3.067  16.009 -3.4056 -1.1616  2.5715
 8290SOL     OW36505   0.222   0.122   9.495 -0.2151  0.5444 -0.0615
 8290SOL    HW136506   0.192   0.192   9.553 -0.7727  0.9535 -0.8418
 8290SOL    HW236507   0.166   0.139   9.418 -2.7010  0.4200  1.7260
 8291SOL     OW36508   4.673   3.847   2.665  0.3099  0.8764 -0.4792
 8291SOL    HW136509   4.656   3.753   2.676 -0.3611  1.2403  1.5326
 8291SOL    HW236510   0.019   3.852   2.620  0.7151  0.9568  0.2877
 8292SOL     OW36511   2.363   3.755   4.230  0.5653  0.8025  0.1439
 8292SOL    HW136512   2.453   3.749   4.198  0.9591  0.7141  1.2527
 8292SOL    HW236513   2.318   3.781   4.150  0.7636  0.7329  0.0100
 8293SOL     OW36514   4.192   2.333   7.612 -0.2040  0.0078  0.2265
 8293SOL    HW136515   4.147   2.253   7.584 -0.1698  0.0341  0.0955
 8293SOL    HW236516   4.183   2.331   7.707 -0.6164 -0.1547  0.1872
 8294SOL     OW36517   2.708   1.920   5.097  0.4598 -0.3946 -0.0216
 8294SOL    HW136518   2.785   1.865   5.108  0.9623  0.0520 -1.2436
 8294SOL    HW236519   2.700   1.975   5.175  3.6113  1.0906 -0.7776
 8295SOL     OW36520   3.956   3.987   6.280  0.7859 -1.1026 -0.1114
 8295SOL    HW136521   3.904   4.022   6.352 -0.7435 -1.3147 -1.1068
 8295SOL    HW236522   3.913   3.902   6.268  1.1127 -1.1403 -1.0283
 8296SOL     OW36523   0.075   2.173   8.198  0.4250 -0.3549  0.1186
 8296SOL    HW136524   0.157   2.132   8.172  1.5321  1.9048  0.0786
 8296SOL    HW236525   0.023   2.093   8.200  1.5436 -1.1079 -0.9162
 8297SOL     OW36526   3.310   3.602  10.628  0.0786  0.2577  0.1884
 8297SOL    HW136527   3.224   3.603  10.587  0.9590  1.1003 -1.6488
 8297SOL    HW236528   3.294   3.650  10.709 -1.2155  0.1728 -0.0130
 8298SOL     OW36529   4.151   1.785   2.172  0.0157 -0.2807  0.0224
 8298SOL    HW136530   4.144   1.812   2.264 -0.6797  2.1035 -0.7342
 8298SOL    HW236531   4.209   1.858   2.149 -2.9051  1.7982 -0.7337
 8299SOL     OW36532   2.814   0.601   0.978 -0.2879 -0.4340 -0.0778
 8299SOL    HW136533   2.847   0.511   0.984  0.3165 -0.1097  1.6023
 8299SOL    HW236534   2.720   0.584   0.971 -0.4430  0.5595 -0.4173
 8300SOL     OW36535   0.346   2.153  13.712 -0.2355  0.1040 -0.1328
 8300SOL    HW136536   0.299   2.074  13.737 -0.4779  1.3123  3.1034
 8300SOL    HW236537   0.437   2.123  13.717  0.6507  2.5733 -0.9765
 8301SOL     OW36538   2.231   1.535   6.891 -0.3650 -0.2932  0.1574
 8301SOL    HW136539   2.194   1.571   6.972 -2.0981 -0.3278 -0.6136
 8301SOL    HW236540   2.222   1.442   6.907  0.2415 -0.3647  0.0739
 8302SOL     OW36541   4.331   0.533  10.975  0.5637 -0.0574 -0.1316
 8302SOL    HW136542   4.336   0.458  10.915  3.1897  0.7928 -0.9806
 8302SOL    HW236543   4.241   0.557  10.957  0.7095  1.5459  1.3497
 8303SOL     OW36544   4.243   1.925  11.157  0.5517 -0.4314  0.0204
 8303SOL    HW136545   4.294   1.969  11.090  1.1851 -0.0801  0.7357
 8303SOL    HW236546   4.239   1.832  11.133  0.3882 -0.1029 -1.2180
 8304SOL     OW36547   4.412   2.406  15.384  0.1040  0.0599  0.1311
 8304SOL    HW136548   4.420   2.469  15.312 -1.1585 -1.5791 -1.4254
 8304SOL    HW236549   4.356   2.440  15.454  0.2866  0.7102 -0.0324
 8305SOL     OW36550   2.139   1.670  16.560 -0.6691 -0.9995  0.0349
 8305SOL    HW136551   2.218   1.693  16.511 -1.0122 -1.3449 -0.6797
 8305SOL    HW236552   2.059   1.700  16.517  0.3799  0.0669 -1.1886
 8306SOL     OW36553   1.532   0.686   6.260 -0.0346 -0.1255 -0.0659
 8306SOL    HW136554   1.571   0.773   6.249  0.0898 -0.0255  1.1497
 8306SOL    HW236555   1.533   0.682   6.356  2.2923 -0.0368 -0.0792
 8307SOL     OW36556   1.982   1.358  15.191  0.3059  0.4050 -0.9537
 8307SOL    HW136557   1.923   1.285  15.205 -0.2887  0.8333 -1.1970
 8307SOL    HW236558   2.020   1.341  15.104  0.7859 -0.2510 -0.6084
 8308SOL     OW36559   0.760   4.442   2.228  0.2187  0.5772  0.1167
 8308SOL    HW136560   0.782   4.448   2.321  1.6875  0.1010 -0.2093
 8308SOL    HW236561   0.667   4.418   2.238  0.3043  0.4732  0.6517
 8309SOL     OW36562   4.711   1.900   4.977  0.0983 -0.2832  0.2050
 8309SOL    HW136563   4.724   1.806   4.991 -0.7877 -0.4605 -0.1795
 8309SOL    HW236564   4.616   1.902   4.983  0.1394  0.4030  0.6796
 8310SOL     OW36565   0.206   1.220  17.585 -0.4206  0.1307  0.5880
 8310SOL    HW136566   0.282   1.198  17.532 -1.4791 -0.6454 -0.5778
 8310SOL    HW236567   0.184   1.311  17.566  1.9330  0.2223 -1.6711
 8311SOL     OW36568   2.192   4.156   5.316 -0.4846  0.2091 -0.2125
 8311SOL    HW136569   2.119   4.098   5.299  0.4241 -0.2048 -2.6121
 8311SOL    HW236570   2.182   4.153   5.411 -0.9520  2.4602 -0.1893
 8312SOL     OW36571   4.554   4.181   3.064  0.4233 -0.2660 -0.0366
 8312SOL    HW136572   4.597   4.119   3.006  2.0382 -0.3435  1.2368
 8312SOL    HW236573   4.506   4.228   2.996  1.3615  0.5157 -0.1427
 8313SOL     OW36574   3.312   4.291   8.211 -0.2188  0.1004  0.0670
 8313SOL    HW136575   3.225   4.318   8.182 -1.1156 -0.7691  1.9669
 8313SOL    HW236576   3.328   4.218   8.151 -0.9218  0.7923 -0.9636
 8314SOL     OW36577   3.198   2.038  13.190 -0.3233 -0.2850  0.4489
 8314SOL    HW136578   3.116   2.074  13.223 -0.7481 -2.2496  1.5308
 8314SOL    HW236579   3.241   2.116  13.155  0.2033 -1.0151 -0.5123
 8315SOL     OW36580   1.135   4.059  10.940 -0.3020  0.1857  0.1518
 8315SOL    HW136581   1.225   4.024  10.939 -0.0725  0.7645  0.9647
 8315SOL    HW236582   1.088   3.983  10.974 -2.7651  2.6868  2.2636
 8316SOL     OW36583   3.935   4.317  14.110  0.0267 -0.3579 -0.4891
 8316SOL    HW136584   3.974   4.398  14.143 -0.7099 -0.3464  0.3638
 8316SOL    HW236585   4.004   4.273  14.061  0.4761 -0.3337  0.1235
 8317SOL     OW36586   4.354   0.170   7.690  0.1296 -0.1383 -0.3016
 8317SOL    HW136587   4.429   0.182   7.748 -0.5005 -3.3247  1.1764
 8317SOL    HW236588   4.277   0.165   7.747  0.8357  1.0074  0.7496
 8318SOL     OW36589   4.089   0.031   6.046 -0.1187 -0.3468  0.0870
 8318SOL    HW136590   4.013   0.089   6.040  0.9779  0.7405 -2.9603
 8318SOL    HW236591   4.101   0.019   6.141 -1.3679 -2.7260 -0.0530
 8319SOL     OW36592   3.539   3.427   2.260  0.4327  0.2467 -0.1447
 8319SOL    HW136593   3.615   3.431   2.318 -0.6570 -0.6172  1.3395
 8319SOL    HW236594   3.531   3.332   2.262 -0.8223  0.3047 -1.7469
 8320SOL     OW36595   3.252   2.435  11.092 -0.1578 -0.2087  0.1648
 8320SOL    HW136596   3.234   2.524  11.063  0.0135 -1.0871 -2.6223
 8320SOL    HW236597   3.337   2.453  11.133 -0.3367 -0.0607  0.4658
 8321SOL     OW36598   1.662   2.434   7.449  0.0865 -0.1204  0.5136
 8321SOL    HW136599   1.594   2.463   7.388  0.0495 -0.9739  0.1389
 8321SOL    HW236600   1.736   2.477   7.408 -0.7765  1.8305  1.0100
 8322SOL     OW36601   1.295   2.994   5.874  0.6604  0.2252 -0.2318
 8322SOL    HW136602   1.325   3.058   5.939 -0.6773 -0.3653  0.9634
 8322SOL    HW236603   1.227   3.041   5.828  0.4297  1.4678  1.3679
 8323SOL     OW36604   3.837   2.173   7.350  0.0770  0.1377  0.4183
 8323SOL    HW136605   3.850   2.219   7.267  0.4831 -0.6790  0.0364
 8323SOL    HW236606   3.785   2.240   7.395  1.1444  0.7612  0.7483
 8324SOL     OW36607   3.130   1.939   6.601 -0.2542 -0.3057  0.2453
 8324SOL    HW136608   3.207   1.917   6.653  0.2251 -2.7654 -1.4962
 8324SOL    HW236609   3.099   2.008   6.660  1.8952  0.0927  0.8982
 8325SOL     OW36610   3.300   0.966   8.157  0.2052  0.0223  0.1165
 8325SOL    HW136611   3.347   1.046   8.181  2.2925 -1.2486  0.3010
 8325SOL    HW236612   3.317   0.918   8.238  1.7633 -1.2723 -0.9770
 8326SOL     OW36613   0.011   1.806  11.413 -0.3524  0.0328 -0.4538
 8326SOL    HW136614   0.082   1.849  11.462  0.4375 -3.2519  1.2386
 8326SOL    HW236615   0.019   1.861  11.335  2.2059  1.1233  0.5546
 8327SOL     OW36616   0.666   0.209   4.322  0.0920 -0.1424 -0.0890
 8327SOL    HW136617   0.746   0.190   4.273  0.9322  0.5394  1.0061
 8327SOL    HW236618   0.621   0.276   4.270 -0.2436  0.2983  0.7760
 8328SOL     OW36619   1.120   3.880   0.493 -0.0730  0.6404  0.2078
 8328SOL    HW136620   1.053   3.930   0.447  0.6420  1.1055 -0.3322
 8328SOL    HW236621   1.080   3.863   0.578  0.7129 -0.7341  0.3081
 8329SOL     OW36622   3.338   2.473   4.619 -0.3722 -0.0344  0.1724
 8329SOL    HW136623   3.249   2.475   4.655 -0.4989 -0.7560 -0.1047
 8329SOL    HW236624   3.365   2.561   4.648  0.4781 -0.7761  1.6518
 8330SOL     OW36625   0.377   0.766  12.291 -0.4432 -0.7232  0.3044
 8330SOL    HW136626   0.376   0.772  12.387  0.0625 -1.4540  0.3538
 8330SOL    HW236627   0.398   0.857  12.269 -1.3284  0.2426  3.3411
 8331SOL     OW36628   2.395   1.457  14.559 -0.5948  0.8610  0.7533
 8331SOL    HW136629   2.476   1.498  14.530 -1.4222  0.7902 -1.7071
 8331SOL    HW236630   2.411   1.364  14.540 -3.5481  0.5000 -0.0878
 8332SOL     OW36631   3.157   3.883   6.147 -0.4933 -0.1292  0.1687
 8332SOL    HW136632   3.151   3.966   6.193 -0.9922  0.9683 -1.8766
 8332SOL    HW236633   3.252   3.882   6.144 -0.5210  2.3133 -0.9970
 8333SOL     OW36634   2.637   3.604   6.623  0.3395  0.0404  0.2192
 8333SOL    HW136635   2.706   3.581   6.685 -1.0713  1.1256  2.2000
 8333SOL    HW236636   2.565   3.637   6.677  1.7526  2.3205  0.7378
 8334SOL     OW36637   1.687   4.594   3.319  0.1359 -0.2010  0.2220
 8334SOL    HW136638   1.755   4.529   3.300 -0.2032 -0.1506 -1.1983
 8334SOL    HW236639   1.731   4.678   3.313 -0.3522  0.1248  1.2785
 8335SOL     OW36640   1.721   4.615   8.063 -0.1902  0.6318 -0.0398
 8335SOL    HW136641   1.738   4.697   8.017 -1.7085  2.2958  2.3524
 8335SOL    HW236642   1.639   4.590   8.020  0.2656 -0.9008 -0.0177
 8336SOL     OW36643   4.652   1.118  10.345 -0.0618 -0.0458  0.1032
 8336SOL    HW136644   0.008   1.132  10.342 -0.0598 -0.7337 -2.2915
 8336SOL    HW236645   4.623   1.180  10.412  3.0142  0.1383  1.2725
 8337SOL     OW36646   0.990   0.201   6.149  0.0502 -0.3354 -0.0204
 8337SOL    HW136647   1.061   0.177   6.089  1.3776  0.9402  1.0437
 8337SOL    HW236648   0.941   0.119   6.152 -0.8338  0.3730  4.3658
 8338SOL     OW36649   1.757   4.711   7.134 -0.2517 -0.4510 -0.1149
 8338SOL    HW136650   1.755   4.619   7.160 -2.7337 -1.0363 -2.4089
 8338SOL    HW236651   1.697   4.696   7.061 -1.7318 -0.5798  1.1347
 8339SOL     OW36652   4.011   2.701   3.303 -0.0874 -0.0824 -0.3094
 8339SOL    HW136653   3.932   2.666   3.261 -0.3619 -2.8136  2.4960
 8339SOL    HW236654   3.988   2.793   3.289 -0.1708  0.0337  0.5897
 8340SOL     OW36655   4.732   0.867   5.860  0.7920  0.5813 -0.4593
 8340SOL    HW136656   0.026   0.829   5.779 -1.7539  0.1875 -1.2905
 8340SOL    HW236657   4.651   0.815   5.856  0.7484  0.6797 -0.8107
 8341SOL     OW36658   0.685   3.475   9.030  0.0874 -0.1296  0.0771
 8341SOL    HW136659   0.645   3.451   9.114  0.3495 -2.0634 -0.3454
 8341SOL    HW236660   0.685   3.389   8.988  1.3904  0.4394 -1.0967
 8342SOL     OW36661   1.577   1.700   4.574  0.1886 -0.3717 -0.0237
 8342SOL    HW136662   1.516   1.685   4.646  0.4905 -0.3630  0.2355
 8342SOL    HW236663   1.513   1.742   4.517 -0.9174 -0.0959  1.3919
 8343SOL     OW36664   3.603   1.862  16.433 -0.1547 -0.8561  0.0302
 8343SOL    HW136665   3.657   1.853  16.511  1.2195  1.4283 -0.6714
 8343SOL    HW236666   3.518   1.869  16.478  0.3670  0.6721  0.7954
 8344SOL     OW36667   0.127   0.174   3.077 -0.2236  0.0325  0.0235
 8344SOL    HW136668   0.124   0.262   3.115  0.3039 -0.2599  0.7479
 8344SOL    HW236669   0.084   0.198   2.995  1.2579  0.9082 -0.5029
 8345SOL     OW36670   3.085   4.349   5.492 -0.1828  0.0383 -0.0209
 8345SOL    HW136671   3.038   4.409   5.434 -0.0082 -0.1730 -0.3768
 8345SOL    HW236672   3.080   4.397   5.575 -0.4514 -0.9976  0.5667
 8346SOL     OW36673   1.274   1.425   8.107  0.1060 -0.0030  0.2268
 8346SOL    HW136674   1.214   1.446   8.036 -0.7047 -1.2781  0.5174
 8346SOL    HW236675   1.317   1.355   8.058 -1.1191 -1.1616  0.8056
 8347SOL     OW36676   1.240   0.498   2.824 -0.7325  0.5288  0.2906
 8347SOL    HW136677   1.210   0.589   2.817 -0.1862  0.5185 -2.0314
 8347SOL    HW236678   1.168   0.456   2.778  0.9611 -0.7558 -1.1776
 8348SOL     OW36679   4.560   1.817   7.816 -0.0808 -0.1345  0.0022
 8348SOL    HW136680   4.574   1.771   7.733 -2.2758 -0.5615 -0.1373
 8348SOL    HW236681   4.465   1.823   7.826 -0.0349  1.0124 -0.2651
 8349SOL     OW36682   2.750   1.868   9.486  0.1828  0.0338  0.3566
 8349SOL    HW136683   2.683   1.936   9.473  0.6923  0.1572 -1.6799
 8349SOL    HW236684   2.740   1.836   9.396  0.7950 -0.1902  0.3698
 8350SOL     OW36685   3.157   1.768   4.548  0.8531  0.5881  0.3023
 8350SOL    HW136686   3.076   1.724   4.574 -0.0699  1.2363 -1.5183
 8350SOL    HW236687   3.123   1.824   4.478 -0.9676  0.7443  1.3160
 8351SOL     OW36688   3.151   3.320   5.077 -0.0197  0.7073  0.3185
 8351SOL    HW136689   3.063   3.326   5.114  0.7513  1.4024  2.0709
 8351SOL    HW236690   3.204   3.334   5.155  0.3756 -1.6996  0.4876
 8352SOL     OW36691   1.523   0.868  12.009 -0.1621 -0.4617  0.1037
 8352SOL    HW136692   1.524   0.859  12.104 -0.7587  1.7075  0.3167
 8352SOL    HW236693   1.610   0.833  11.991 -0.2422 -0.4530 -0.3078
 8353SOL     OW36694   2.866   4.716   1.323 -0.4824 -0.0131 -0.0850
 8353SOL    HW136695   2.866   0.061   1.276 -0.0577 -0.4403 -0.8487
 8353SOL    HW236696   2.815   4.729   1.402  0.7538 -0.2601  0.7564
 8354SOL     OW36697   4.339   3.636   4.556 -0.4913  0.1861  0.3568
 8354SOL    HW136698   4.248   3.666   4.557 -0.5291  0.0788  0.1889
 8354SOL    HW236699   4.346   3.605   4.465  0.6993  0.5937  0.3084
 8355SOL     OW36700   0.645   4.584   6.019  0.4947 -0.1871  0.0221
 8355SOL    HW136701   0.589   4.639   5.965 -1.5706 -1.2634  1.0144
 8355SOL    HW236702   0.578   4.537   6.070  0.4098 -0.4892 -0.3678
 8356SOL     OW36703   4.669   3.786   2.135  0.2269  0.2388 -0.2708
 8356SOL    HW136704   4.608   3.838   2.187 -0.1898  1.7619 -2.3050
 8356SOL    HW236705   4.674   3.704   2.185 -2.6936  0.1772 -0.0341
 8357SOL     OW36706   0.349   3.943   6.782  0.1633 -0.3864 -0.0510
 8357SOL    HW136707   0.346   4.026   6.830 -0.0893 -0.1772 -0.4260
 8357SOL    HW236708   0.309   3.977   6.702 -3.2029 -1.0931  1.3522
 8358SOL     OW36709   0.233   0.866  17.743  0.2134  0.3957 -0.6437
 8358SOL    HW136710   0.174   0.809  17.695 -0.6527  1.1643 -0.4979
 8358SOL    HW236711   0.283   0.910  17.674  0.6017  1.4174  0.2943
 8359SOL     OW36712   0.639   1.086   8.220 -0.0904  0.0826  0.0531
 8359SOL    HW136713   0.720   1.135   8.235  0.2812 -0.0945 -1.4078
 8359SOL    HW236714   0.577   1.146   8.261 -0.2553  0.3416 -0.5867
 8360SOL     OW36715   3.767   4.692   8.222  0.0938 -0.0222  0.9239
 8360SOL    HW136716   3.730   4.626   8.281 -0.2324 -1.5829 -1.0081
 8360SOL    HW236717   3.693   4.699   8.162 -0.1511 -1.3503  1.0591
 8361SOL     OW36718   3.891   0.898  13.137 -0.3125 -0.0991  0.4646
 8361SOL    HW136719   3.861   0.975  13.185 -0.0144 -1.1062  2.2333
 8361SOL    HW236720   3.943   0.855  13.204 -0.3650  1.1646  1.3202
 8362SOL     OW36721   2.262   2.559   5.633 -0.0137  0.1948  0.1597
 8362SOL    HW136722   2.306   2.550   5.549 -0.8341  0.5874 -0.3128
 8362SOL    HW236723   2.309   2.489   5.678  0.0811 -1.0246 -1.8657
 8363SOL     OW36724   2.459   3.780  12.672 -0.2950  0.0426  0.7540
 8363SOL    HW136725   2.535   3.808  12.620  2.3410 -0.2907  4.3837
 8363SOL    HW236726   2.397   3.751  12.606 -0.3189 -2.8167  2.0216
 8364SOL     OW36727   3.013   1.418   4.811  0.0026 -0.1673 -0.3166
 8364SOL    HW136728   2.922   1.418   4.842 -0.1500 -1.5867 -0.7935
 8364SOL    HW236729   3.042   1.505   4.838  0.5689 -0.1434 -1.0184
 8365SOL     OW36730   3.833   0.739   3.659 -0.3374 -0.0849  0.5894
 8365SOL    HW136731   3.757   0.750   3.716 -0.1167 -1.4455  1.1591
 8365SOL    HW236732   3.852   0.832   3.648 -3.2742  0.3479 -0.8521
 8366SOL     OW36733   4.482   2.172   1.075  0.3264  0.6851 -0.7314
 8366SOL    HW136734   4.472   2.077   1.083  0.6000  0.7789  0.7022
 8366SOL    HW236735   4.419   2.194   1.006 -0.2018 -0.9991 -0.7721
 8367SOL     OW36736   0.731   4.033   6.480  0.2550 -0.1134  0.1227
 8367SOL    HW136737   0.819   3.998   6.468  0.0187 -0.7337  0.1925
 8367SOL    HW236738   0.672   3.958   6.476 -0.3830  0.3748  0.3532
 8368SOL     OW36739   2.746   0.059   1.758  0.0634 -0.4122 -0.5978
 8368SOL    HW136740   2.797   4.717   1.756 -0.4372 -0.8699  4.6944
 8368SOL    HW236741   2.713   0.056   1.848 -1.7799 -3.0244 -1.3718
 8369SOL     OW36742   4.284   1.150   0.570 -0.2540 -0.0403  0.3807
 8369SOL    HW136743   4.280   1.156   0.665  0.4525  1.7924  0.2892
 8369SOL    HW236744   4.207   1.095   0.555 -0.4388  0.5980 -1.0215
 8370SOL     OW36745   1.303   1.361   3.707  0.1549  0.1718  0.1502
 8370SOL    HW136746   1.229   1.422   3.716 -0.9674 -1.6127  2.8991
 8370SOL    HW236747   1.262   1.285   3.667 -1.1468  0.9543 -0.0139
 8371SOL     OW36748   0.005   1.293  15.459  0.1850 -0.1712 -0.1609
 8371SOL    HW136749   4.695   1.217  15.491  0.4644 -0.4245 -0.3381
 8371SOL    HW236750   4.676   1.360  15.465  0.9606  0.5639  0.4773
 8372SOL     OW36751   1.938   1.551  15.397 -0.0455  0.0926  0.2151
 8372SOL    HW136752   2.032   1.569  15.385  0.1433 -1.2983 -0.3133
 8372SOL    HW236753   1.922   1.491  15.324 -1.2974  1.1529 -0.3894
 8373SOL     OW36754   1.743   3.761   5.174 -0.0760 -0.3752 -0.3790
 8373SOL    HW136755   1.778   3.832   5.120  1.5395 -0.5497  0.4254
 8373SOL    HW236756   1.819   3.703   5.166 -0.3721 -0.9687  1.1420
 8374SOL     OW36757   3.497   2.735   3.075 -0.7818  0.0652  0.0100
 8374SOL    HW136758   3.442   2.778   3.140  0.9146 -0.0248  1.4928
 8374SOL    HW236759   3.445   2.742   2.995  0.5789  2.8666 -0.6189
 8375SOL     OW36760   2.026   0.330   2.617 -0.3225  0.3375  0.3626
 8375SOL    HW136761   1.930   0.331   2.613 -0.4561 -3.2371  2.9493
 8375SOL    HW236762   2.049   0.238   2.629 -1.2800  0.2212  1.2847
 8376SOL     OW36763   3.321   3.608   2.832 -0.5997 -0.1365 -0.7035
 8376SOL    HW136764   3.376   3.535   2.862 -0.2783  0.7076  0.7158
 8376SOL    HW236765   3.374   3.646   2.761  0.5740 -0.8669 -0.2188
 8377SOL     OW36766   0.474   0.609   4.146 -0.1776  0.0031  0.0177
 8377SOL    HW136767   0.413   0.572   4.210 -1.0185  0.3038 -0.6050
 8377SOL    HW236768   0.502   0.531   4.098  2.3225  0.3602  0.8945
 8378SOL     OW36769   1.786   4.088   1.553 -0.2521 -0.4591 -0.4388
 8378SOL    HW136770   1.696   4.056   1.550 -0.2543 -0.4083 -0.8749
 8378SOL    HW236771   1.817   4.057   1.638  3.3060  2.6074 -0.6198
 8379SOL     OW36772   2.033   4.532   8.784 -0.0706 -0.0385  0.1451
 8379SOL    HW136773   2.076   4.507   8.866 -0.5387  1.4099  0.8346
 8379SOL    HW236774   1.965   4.593   8.812  0.1686 -0.1178  0.8778
 8380SOL     OW36775   4.536   4.038   7.207  0.1223 -0.5093 -0.0105
 8380SOL    HW136776   4.497   4.043   7.294 -0.7388 -1.4792 -0.3339
 8380SOL    HW236777   4.628   4.050   7.230 -0.2120  1.5176  0.2511
 8381SOL     OW36778   0.137   4.299  11.806 -0.0399  0.0467  0.3933
 8381SOL    HW136779   0.080   4.237  11.852  1.0192 -1.5303 -0.4499
 8381SOL    HW236780   0.209   4.305  11.868  0.8093  0.4279 -0.6335
 8382SOL     OW36781   3.513   0.055   4.672 -0.2113  0.0294 -0.3895
 8382SOL    HW136782   3.569   0.108   4.614 -1.0278  1.5805  0.2233
 8382SOL    HW236783   3.574   0.064   4.746  0.5838 -1.8814 -0.8187
 8383SOL     OW36784   2.983   4.519   6.250 -0.3869  0.6485  0.5819
 8383SOL    HW136785   2.968   4.582   6.321 -3.3476  1.4762 -0.7527
 8383SOL    HW236786   3.078   4.510   6.251 -0.2718  1.8987  1.3764
 8384SOL     OW36787   0.515   1.145  10.758 -0.1361  0.0366 -0.6731
 8384SOL    HW136788   0.542   1.224  10.805 -1.7181 -0.3995  0.9847
 8384SOL    HW236789   0.597   1.096  10.758 -0.6400 -0.8271 -0.0622
 8385SOL     OW36790   3.143   0.403   1.491 -0.3185  0.2717 -0.3220
 8385SOL    HW136791   3.056   0.437   1.471  0.0256  0.2786 -1.7826
 8385SOL    HW236792   3.109   0.326   1.536 -0.4874  1.0694  0.9171
 8386SOL     OW36793   3.150   1.220  15.830 -1.1918  0.6376  0.1081
 8386SOL    HW136794   3.209   1.296  15.835  0.7918 -0.8934 -0.0901
 8386SOL    HW236795   3.116   1.230  15.741  0.0479  3.6236 -0.0542
 8387SOL     OW36796   1.459   3.037  17.459  0.7609 -0.0597 -0.0937
 8387SOL    HW136797   1.431   3.061  17.371 -2.0599 -0.4463  0.7214
 8387SOL    HW236798   1.516   2.964  17.433 -0.0152  0.2221 -2.6209
 8388SOL     OW36799   0.647   4.159  17.332  0.0175  0.3545  0.0274
 8388SOL    HW136800   0.616   4.070  17.316  2.3721 -0.2377 -1.0431
 8388SOL    HW236801   0.696   4.153  17.414 -1.4681 -2.3560  0.7186
 8389SOL     OW36802   4.629   0.175  13.080 -0.7248  0.1049  0.1355
 8389SOL    HW136803   4.712   0.200  13.040 -1.6771  1.6219 -0.8998
 8389SOL    HW236804   4.638   0.082  13.102 -1.8941 -0.4944 -1.9131
 8390SOL     OW36805   3.080   4.307   3.307  0.4759 -0.0147  0.0617
 8390SOL    HW136806   3.094   4.401   3.298 -0.2220  0.0651 -0.1427
 8390SOL    HW236807   3.159   4.280   3.260 -0.5967  0.1817 -1.8539
 8391SOL     OW36808   2.126   3.331  10.301  0.3155 -0.1895 -0.3941
 8391SOL    HW136809   2.099   3.358  10.213  1.0737  0.2801 -0.4814
 8391SOL    HW236810   2.038   3.316  10.336  0.9937 -1.0914  0.9294
 8392SOL     OW36811   0.309   0.713   4.997 -0.5021 -0.4595  0.1266
 8392SOL    HW136812   0.319   0.754   4.912  1.2145 -0.5996  0.2657
 8392SOL    HW236813   0.260   0.785   5.038 -0.3524 -0.9537  1.1802
 8393SOL     OW36814   0.298   1.347  15.791  0.3761 -0.4996  0.3581
 8393SOL    HW136815   0.274   1.381  15.704 -0.4487 -1.3559  0.2536
 8393SOL    HW236816   0.215   1.350  15.836 -0.3600  0.8971 -1.0905
 8394SOL     OW36817   0.072   3.155  12.453 -0.2629 -0.0529 -0.6697
 8394SOL    HW136818   4.729   3.131  12.409 -0.3290 -0.1783 -0.4784
 8394SOL    HW236819   0.033   3.216  12.516  0.7517 -2.0236  1.8469
 8395SOL     OW36820   4.478   4.129   2.028  0.7717  0.1074  0.0693
 8395SOL    HW136821   4.414   4.187   2.069  1.4048  0.0364  1.1594
 8395SOL    HW236822   4.425   4.083   1.963  1.0491  0.2389 -0.2465
 8396SOL     OW36823   1.072   1.795  12.133  0.1856  0.8321  0.1318
 8396SOL    HW136824   1.123   1.854  12.078  0.7782 -1.0971 -1.3570
 8396SOL    HW236825   1.027   1.853  12.195  2.5511  1.6874  1.0548
 8397SOL     OW36826   3.197   2.509  10.269  0.1355 -0.0140 -0.2409
 8397SOL    HW136827   3.143   2.559  10.208  0.9926  0.7848 -0.3523
 8397SOL    HW236828   3.125   2.482  10.326 -2.9685  0.7730 -3.8669
 8398SOL     OW36829   1.274   4.646  12.670 -0.4985 -0.0220  0.8738
 8398SOL    HW136830   1.190   4.629  12.629 -1.0686  1.8069  1.3007
 8398SOL    HW236831   1.327   4.637  12.591 -0.0703 -0.0334  1.1557
 8399SOL     OW36832   0.637   0.773   9.701 -0.2303 -0.1045  0.3827
 8399SOL    HW136833   0.612   0.727   9.780 -1.0104  0.6598  0.5862
 8399SOL    HW236834   0.687   0.709   9.650  1.4688  1.4152  0.1221
 8400SOL     OW36835   2.175   0.310   7.259 -0.3264  0.7207  0.5091
 8400SOL    HW136836   2.086   0.275   7.253  0.1221 -0.1976 -0.6509
 8400SOL    HW236837   2.208   0.249   7.326  0.7254 -0.1575 -0.8048
 8401SOL     OW36838   2.698   1.811   6.533 -0.4757 -0.1051  0.0327
 8401SOL    HW136839   2.715   1.800   6.440  1.8330  0.9668  0.3237
 8401SOL    HW236840   2.608   1.843   6.534 -0.4546 -0.0092 -2.0943
 8402SOL     OW36841   2.373   3.663  12.902  0.7292 -0.0487  0.3954
 8402SOL    HW136842   2.431   3.700  12.835 -2.5130  2.0190 -1.2778
 8402SOL    HW236843   2.371   3.734  12.967  2.3681 -0.0068  0.3839
 8403SOL     OW36844   4.273   0.307   3.794  0.1714  0.3174 -0.5232
 8403SOL    HW136845   4.364   0.295   3.820 -0.2062 -1.3499  0.0340
 8403SOL    HW236846   4.227   0.364   3.856 -0.2159 -1.2777  0.6846
 8404SOL     OW36847   1.868   1.952   5.859 -0.3422 -0.2201 -0.0374
 8404SOL    HW136848   1.809   1.977   5.788 -2.1288 -1.3142  1.0481
 8404SOL    HW236849   1.820   2.000   5.927  0.8825 -0.3800  0.9392
 8405SOL     OW36850   4.234   3.655  12.047  0.0135  0.4157 -0.1159
 8405SOL    HW136851   4.186   3.572  12.046  2.1006 -0.7468 -1.6294
 8405SOL    HW236852   4.193   3.703  12.119  1.6347  0.3921  0.8103
 8406SOL     OW36853   1.287   4.374  16.989  0.3554 -0.2759  0.2269
 8406SOL    HW136854   1.315   4.447  17.044  1.3811 -0.0594 -0.5945
 8406SOL    HW236855   1.345   4.374  16.913 -0.9543 -2.5284 -0.7808
 8407SOL     OW36856   2.922   0.495   3.733 -0.4045 -0.2696 -0.2309
 8407SOL    HW136857   2.835   0.533   3.746  0.2822  0.6653  1.6273
 8407SOL    HW236858   2.895   0.420   3.679  0.8741 -1.5629  0.9332
 8408SOL     OW36859   1.790   2.500   5.367 -0.1284 -0.1198  0.2331
 8408SOL    HW136860   1.772   2.450   5.447 -2.3929  1.1825  0.5480
 8408SOL    HW236861   1.702   2.518   5.333  0.5125 -1.9197 -2.3882
 8409SOL     OW36862   4.399   0.422   7.944 -0.0501  0.6506  0.2213
 8409SOL    HW136863   4.439   0.509   7.952  0.0666  0.7126 -1.1635
 8409SOL    HW236864   4.313   0.452   7.917 -0.3749  0.3663  0.9427
 8410SOL     OW36865   4.620   4.017  15.001  0.4003 -0.1493 -0.1207
 8410SOL    HW136866   4.610   4.082  15.071  0.3301  1.1427 -1.3447
 8410SOL    HW236867   4.591   3.941  15.052 -1.8347  0.0531 -1.0611
 8411SOL     OW36868   4.606   0.192   7.437 -0.5135  0.2555  0.6158
 8411SOL    HW136869   4.673   0.170   7.502  0.0024  0.6823  0.2324
 8411SOL    HW236870   4.559   0.110   7.424 -1.1648  0.5367  1.1344
 8412SOL     OW36871   3.731   0.067  12.820  0.1247  0.1137  0.5770
 8412SOL    HW136872   3.747   0.138  12.882  0.5154  1.3570 -0.9487
 8412SOL    HW236873   3.805   0.079  12.760 -1.1742 -0.6388 -1.1853
 8413SOL     OW36874   1.901   4.438   5.232  0.5395  0.4461 -0.2634
 8413SOL    HW136875   1.926   4.430   5.324  0.6731 -0.6962 -0.4005
 8413SOL    HW236876   1.855   4.522   5.238  1.4235  1.0204 -1.6017
 8414SOL     OW36877   2.459   2.509   2.135  0.1228 -0.1355  0.0030
 8414SOL    HW136878   2.488   2.571   2.068  0.6785  0.8806  1.1835
 8414SOL    HW236879   2.367   2.525   2.117  0.3581  0.7805 -0.3967
 8415SOL     OW36880   0.935   0.836   6.477  0.6697  0.2946  0.1153
 8415SOL    HW136881   0.919   0.891   6.400 -0.8870 -1.1966 -0.6287
 8415SOL    HW236882   0.861   0.867   6.530 -1.1861 -1.4264 -1.4438
 8416SOL     OW36883   0.433   2.495   4.273 -0.2102 -0.5699 -0.4924
 8416SOL    HW136884   0.339   2.480   4.283 -0.8894  2.6919 -1.8553
 8416SOL    HW236885   0.443   2.590   4.283 -2.3691 -0.3910 -0.0068
 8417SOL     OW36886   3.656   1.441   2.411 -0.6586  0.5194  0.1109
 8417SOL    HW136887   3.651   1.536   2.408  0.9867  0.6372  1.4965
 8417SOL    HW236888   3.744   1.430   2.374  0.2593  3.0068  1.6077
 8418SOL     OW36889   0.227   2.572   9.510 -0.2562 -0.2890 -0.5922
 8418SOL    HW136890   0.315   2.540   9.490  0.5321  0.5272  1.6272
 8418SOL    HW236891   0.225   2.555   9.604  2.6612  0.6755 -0.3597
 8419SOL     OW36892   1.834   4.524   2.120 -0.0899 -0.4617 -0.0839
 8419SOL    HW136893   1.883   4.590   2.070  3.2419 -1.6038  1.6812
 8419SOL    HW236894   1.834   4.448   2.063 -0.6081 -0.2229 -0.4016
 8420SOL     OW36895   0.606   1.803   9.701 -0.1568 -0.4236 -0.2830
 8420SOL    HW136896   0.557   1.725   9.728 -1.4792 -0.8338 -3.9104
 8420SOL    HW236897   0.541   1.874   9.695  1.1461  0.7100 -0.9473
 8421SOL     OW36898   4.506   0.552   3.947  0.1552  0.0270  0.7107
 8421SOL    HW136899   4.468   0.468   3.973 -1.2591 -0.0437 -1.6067
 8421SOL    HW236900   4.595   0.527   3.924  0.0448 -0.6672  1.0430
 8422SOL     OW36901   3.665   0.137   3.343 -0.2918 -0.3273  0.2742
 8422SOL    HW136902   3.726   0.098   3.282  0.6900  0.9780  0.4358
 8422SOL    HW236903   3.719   0.186   3.405 -0.7255  0.2386  0.2045
 8423SOL     OW36904   3.539   0.908   4.889 -0.3458 -0.2867  0.1669
 8423SOL    HW136905   3.532   0.916   4.794  0.0958  2.3662  0.3615
 8423SOL    HW236906   3.446   0.915   4.909 -0.2865 -0.5600  0.5270
 8424SOL     OW36907   3.344   2.618  15.988  0.5470 -0.5101 -0.0188
 8424SOL    HW136908   3.264   2.627  15.937  0.1221 -2.3364  0.3311
 8424SOL    HW236909   3.304   2.609  16.075  0.6873 -0.8086  0.0127
 8425SOL     OW36910   3.951   3.668   4.906  0.5558  0.1375  0.2134
 8425SOL    HW136911   4.007   3.725   4.855  0.3308  0.4132  0.2778
 8425SOL    HW236912   3.996   3.584   4.896  0.3112 -0.1083  1.1988
 8426SOL     OW36913   1.368   1.073   3.463  0.3810 -0.0485  0.2389
 8426SOL    HW136914   1.411   0.988   3.471  0.4283 -0.0256  0.2296
 8426SOL    HW236915   1.443   1.129   3.443 -0.0151  0.6415  0.6996
 8427SOL     OW36916   1.747   2.531   6.191  0.0329  0.1916 -0.2478
 8427SOL    HW136917   1.721   2.461   6.131  1.2375 -1.2391  0.9150
 8427SOL    HW236918   1.799   2.590   6.135  1.5306  0.1167  1.0567
 8428SOL     OW36919   2.971   3.961   7.540 -0.0070  0.0708 -0.3301
 8428SOL    HW136920   2.908   3.921   7.599 -0.0803 -0.5615 -0.8347
 8428SOL    HW236921   2.905   4.009   7.489  1.3636  3.2185  0.8718
 8429SOL     OW36922   0.597   0.923   1.176  0.1613 -0.0686  0.3458
 8429SOL    HW136923   0.582   1.006   1.220 -1.5658 -1.5835  2.5804
 8429SOL    HW236924   0.544   0.922   1.097 -0.5331  1.0434  0.8044
 8430SOL     OW36925   0.895   2.652   8.881 -0.3216  0.0055  0.0819
 8430SOL    HW136926   0.818   2.684   8.833  0.7763  1.9988 -0.3315
 8430SOL    HW236927   0.965   2.687   8.827 -0.9544 -0.0859 -0.8053
 8431SOL     OW36928   1.500   3.518  17.582 -0.2893  0.0914  0.5732
 8431SOL    HW136929   1.437   3.590  17.590  0.9950  1.4433 -1.6140
 8431SOL    HW236930   1.444   3.442  17.599 -2.6191  2.0462  1.7566
 8432SOL     OW36931   4.433   2.015   7.027  0.1049 -0.3278  0.1566
 8432SOL    HW136932   4.424   2.094   7.079  0.9657  1.3597 -2.2553
 8432SOL    HW236933   4.396   1.949   7.085 -0.9389 -0.6951 -0.9435
 8433SOL     OW36934   0.087   4.231  15.180  0.5461 -0.0333 -0.6590
 8433SOL    HW136935   0.086   4.299  15.247  0.1633 -0.8944  0.2081
 8433SOL    HW236936   0.148   4.172  15.224 -0.0791 -0.6472 -0.6127
 8434SOL     OW36937   1.770   3.860  15.684  0.3241 -0.5182  0.1765
 8434SOL    HW136938   1.863   3.851  15.703  0.6869  0.0913 -1.2695
 8434SOL    HW236939   1.739   3.771  15.695  1.1885 -0.7100  1.0059
 8435SOL     OW36940   3.620   2.663   7.661  0.2190  0.0194 -0.2925
 8435SOL    HW136941   3.599   2.655   7.754 -0.1924 -0.2562 -0.4109
 8435SOL    HW236942   3.689   2.597   7.656  1.4269  1.2943 -0.4190
 8436SOL     OW36943   3.029   1.353   1.847 -0.2012  1.0749  0.7080
 8436SOL    HW136944   2.961   1.419   1.837  1.1276  2.6204  1.8572
 8436SOL    HW236945   3.108   1.396   1.814 -0.6588  0.4192 -1.2329
 8437SOL     OW36946   2.579   2.953   4.067  0.6012 -0.0204 -0.2909
 8437SOL    HW136947   2.564   2.865   4.102  1.2752 -1.3891 -3.4960
 8437SOL    HW236948   2.603   2.939   3.976 -0.8075  0.8779 -0.8033
 8438SOL     OW36949   2.658   2.006   7.837 -0.5857  0.4369 -0.2620
 8438SOL    HW136950   2.753   1.993   7.843 -0.4187  1.0165 -1.8072
 8438SOL    HW236951   2.644   2.072   7.905  2.5860 -0.3374  1.1748
 8439SOL     OW36952   4.499   3.529   1.060 -0.3875  0.3411 -0.2772
 8439SOL    HW136953   4.569   3.492   1.114 -1.6586 -1.3980  0.1787
 8439SOL    HW236954   4.555   3.564   0.991  0.5037 -2.1198 -0.8134
 8440SOL     OW36955   4.287   2.129   9.482 -0.2868  0.3207 -0.3565
 8440SOL    HW136956   4.332   2.073   9.418  1.3623  0.7124  0.4476
 8440SOL    HW236957   4.199   2.101   9.458  0.8192 -2.0019 -1.7010
 8441SOL     OW36958   2.107   1.254  11.006 -0.1229 -0.1476  0.0564
 8441SOL    HW136959   2.151   1.298  11.079  0.2432  0.2253 -0.3826
 8441SOL    HW236960   2.027   1.214  11.040 -0.6437  1.5623  0.8783
 8442SOL     OW36961   0.291   2.198  12.108 -0.0205 -0.2574  0.0381
 8442SOL    HW136962   0.373   2.149  12.098  0.8891  1.3909 -0.4431
 8442SOL    HW236963   0.323   2.287  12.116 -0.8568  0.1486 -1.1859
 8443SOL     OW36964   1.773   1.697   9.251 -0.5160 -0.0437 -0.5386
 8443SOL    HW136965   1.769   1.792   9.236 -3.1967  0.3446  2.6782
 8443SOL    HW236966   1.797   1.682   9.342  1.3954  2.1979 -0.6826
 8444SOL     OW36967   1.450   4.729   9.413  0.2262  0.2001 -0.3973
 8444SOL    HW136968   1.493   0.063   9.368 -1.2370  1.0267 -0.4600
 8444SOL    HW236969   1.507   4.727   9.491 -0.2209 -0.1235 -0.0804
 8445SOL     OW36970   1.272   0.743   4.454 -0.1839 -0.6323  0.3055
 8445SOL    HW136971   1.178   0.744   4.469  0.1147  0.0730  2.1013
 8445SOL    HW236972   1.288   0.708   4.366 -1.6920 -2.5269  0.7879
 8446SOL     OW36973   4.156   4.234   8.165  0.0494  0.6723  0.0148
 8446SOL    HW136974   4.196   4.316   8.193  0.2142 -0.0806  1.9730
 8446SOL    HW236975   4.214   4.171   8.208  0.8160  1.3337 -0.0631
 8447SOL     OW36976   2.375   2.456  13.352 -0.0673  0.0066  0.2560
 8447SOL    HW136977   2.449   2.517  13.353 -3.4128  4.0763  1.2608
 8447SOL    HW236978   2.392   2.414  13.267  3.9619  0.4011  0.8897
 8448SOL     OW36979   0.194   3.533   0.708 -0.0300 -0.0462 -0.1819
 8448SOL    HW136980   0.151   3.547   0.624 -1.3161  1.9093  0.8259
 8448SOL    HW236981   0.226   3.443   0.698 -0.5915 -0.6333  3.2537
 8449SOL     OW36982   2.677   1.060   3.884  0.1557  0.4899 -0.7684
 8449SOL    HW136983   2.707   0.993   3.822 -0.2703 -1.1770  0.8200
 8449SOL    HW236984   2.632   1.014   3.955  0.5518  0.3485 -0.6071
 8450SOL     OW36985   1.282   3.509   4.186  0.1062 -0.1438 -0.2056
 8450SOL    HW136986   1.241   3.422   4.193 -0.5972  0.4032  2.2656
 8450SOL    HW236987   1.376   3.496   4.196  0.1542  0.6151  0.2849
 8451SOL     OW36988   4.399   0.272   3.530 -0.2734  0.1095  0.0966
 8451SOL    HW136989   4.328   0.285   3.593 -1.0298  1.6200 -1.0787
 8451SOL    HW236990   4.415   0.361   3.501  1.4942  0.4660  2.1618
 8452SOL     OW36991   1.116   2.507   7.814  0.2876 -0.3632 -0.6317
 8452SOL    HW136992   1.082   2.596   7.829  0.8702 -0.3626  0.6761
 8452SOL    HW236993   1.035   2.469   7.779  0.4344 -0.5620 -0.7540
 8453SOL     OW36994   3.821   2.579  17.256 -0.0264 -0.2882  0.3219
 8453SOL    HW136995   3.862   2.654  17.300  0.3940  0.5079 -1.4428
 8453SOL    HW236996   3.890   2.513  17.243  0.7077  1.2819 -3.5052
 8454SOL     OW36997   1.977   2.880   8.854  0.5008  0.2070 -0.5953
 8454SOL    HW136998   1.926   2.885   8.773  0.2216 -1.6437 -0.5425
 8454SOL    HW236999   1.927   2.943   8.906  1.1110 -0.1840  0.4711
 8455SOL     OW37000   2.466   2.526   6.131  0.0486  0.0868  0.3258
 8455SOL    HW137001   2.428   2.612   6.113  1.4111  0.0047 -2.8364
 8455SOL    HW237002   2.540   2.528   6.071 -0.0398 -0.0747  0.2128
 8456SOL     OW37003   3.368   0.756   3.538 -0.1772  0.2974 -0.2833
 8456SOL    HW137004   3.328   0.728   3.621  0.7515 -1.8843 -0.5935
 8456SOL    HW237005   3.428   0.816   3.584 -0.4960  1.7578 -1.7839
 8457SOL     OW37006   0.757   1.045   9.005 -0.5113  0.1294 -0.2741
 8457SOL    HW137007   0.687   1.074   8.947  0.1542  0.5526 -0.8636
 8457SOL    HW237008   0.774   1.124   9.057 -1.2447  1.3125 -1.8528
 8458SOL     OW37009   0.898   1.255  16.372 -0.4363  0.0475  0.1530
 8458SOL    HW137010   0.964   1.324  16.381 -0.6886  0.0600  1.8593
 8458SOL    HW237011   0.920   1.191  16.440 -1.4435  1.4498  1.8139
 8459SOL     OW37012   1.545   2.339   5.891  0.4198  0.0553  0.3718
 8459SOL    HW137013   1.484   2.265   5.893 -3.7730  3.4611 -3.4649
 8459SOL    HW237014   1.581   2.321   5.978  0.3252 -0.2234  0.3539
 8460SOL     OW37015   3.577   0.392   9.789  0.6311 -0.2229 -0.5640
 8460SOL    HW137016   3.581   0.466   9.728  2.9204 -0.5458 -0.8018
 8460SOL    HW237017   3.629   0.432   9.858  1.1118 -0.5084 -0.7624
 8461SOL     OW37018   3.928   4.726   1.788  0.6943 -0.0661 -0.4341
 8461SOL    HW137019   3.858   4.661   1.796  0.9057 -0.1372  0.7916
 8461SOL    HW237020   3.917   4.739   1.694  1.9384  0.7233 -0.4775
 8462SOL     OW37021   0.799   2.056   7.397  0.0748  0.8331 -0.3475
 8462SOL    HW137022   0.774   2.133   7.345 -2.3830  0.7873  0.7795
 8462SOL    HW237023   0.769   2.071   7.486 -0.1901 -2.0027  0.0337
 8463SOL     OW37024   3.159   3.906  16.237 -0.6185  0.8206  0.2404
 8463SOL    HW137025   3.124   3.849  16.306 -1.0382  1.1959  0.3400
 8463SOL    HW237026   3.158   3.848  16.162  0.8398 -1.4726  1.9784
 8464SOL     OW37027   1.141   2.423   8.332 -0.0764 -0.2500 -0.1965
 8464SOL    HW137028   1.068   2.378   8.375  0.5781  0.2050  1.3969
 8464SOL    HW237029   1.104   2.433   8.244  1.2448 -0.8657 -0.8202
 8465SOL     OW37030   4.435   4.691   7.535  0.0932  0.2097 -0.2882
 8465SOL    HW137031   4.426   4.623   7.603 -0.7174  1.1381  0.5425
 8465SOL    HW237032   4.421   0.032   7.586  0.2103 -0.1539  0.3255
 8466SOL     OW37033   4.553   2.564   5.078  0.3755 -0.6988 -0.1502
 8466SOL    HW137034   4.631   2.563   5.134  0.9276 -0.1956 -0.9144
 8466SOL    HW237035   4.539   2.658   5.061 -0.2764 -1.3057 -2.8635
 8467SOL     OW37036   4.647   0.870   6.989 -0.1843 -0.0984  0.3547
 8467SOL    HW137037   4.738   0.874   7.020 -0.4437  0.5101  1.0347
 8467SOL    HW237038   4.656   0.876   6.894 -1.5148  3.3860  0.4626
 8468SOL     OW37039   2.821   0.439   6.797 -0.3455  0.0948  0.0831
 8468SOL    HW137040   2.730   0.443   6.768 -0.2269  0.5297 -0.2310
 8468SOL    HW237041   2.840   0.378   6.727 -0.6310  0.1139 -0.0091
 8469SOL     OW37042   4.180   1.274   0.041  0.7559 -0.0022 -0.4350
 8469SOL    HW137043   4.201   1.262   0.133 -1.3453 -1.2713 -0.1286
 8469SOL    HW237044   4.145   1.363   0.047 -1.2770 -0.8994  0.8859
 8470SOL     OW37045   0.675   3.783   8.214 -0.1218  0.2793 -0.2451
 8470SOL    HW137046   0.705   3.724   8.283 -1.7153 -0.5264 -0.2579
 8470SOL    HW237047   0.761   3.819   8.192 -0.2638 -0.9958 -2.8321
 8471SOL     OW37048   3.797   3.236   5.869  0.0183 -0.1000 -0.1715
 8471SOL    HW137049   3.730   3.261   5.932  2.5890 -0.8241  2.8437
 8471SOL    HW237050   3.780   3.142   5.856 -1.9711  0.1634  0.4922
 8472SOL     OW37051   0.023   1.417   8.173  0.1868 -0.2687 -0.4427
 8472SOL    HW137052   0.058   1.487   8.227  1.4908 -2.3607  1.3953
 8472SOL    HW237053   0.026   1.346   8.237 -2.5338 -0.1859 -0.2037
 8473SOL     OW37054   3.678   1.083   5.354 -0.3886  0.2673  0.0927
 8473SOL    HW137055   3.686   1.143   5.280  1.7234 -2.1470 -1.6193
 8473SOL    HW237056   3.769   1.066   5.381  0.5458  2.1727 -1.8368
 8474SOL     OW37057   4.728   1.290  13.161  0.6817 -0.1104  0.2198
 8474SOL    HW137058   4.671   1.304  13.085  0.6481  1.4308  0.5308
 8474SOL    HW237059   4.718   1.195  13.171  1.9594 -0.2164  0.5089
 8475SOL     OW37060   2.885   1.157   4.072 -0.2824 -0.0487  0.0449
 8475SOL    HW137061   2.884   1.245   4.035  2.8606  1.1178  2.7481
 8475SOL    HW237062   2.833   1.110   4.006 -1.0073  1.9026 -0.7832
 8476SOL     OW37063   2.596   3.022  10.449  0.6119 -0.2450 -0.0835
 8476SOL    HW137064   2.589   3.102  10.500  1.6193 -0.6122  0.6086
 8476SOL    HW237065   2.672   2.982  10.489  1.3953 -0.1831 -1.4929
 8477SOL     OW37066   0.065   3.481   8.749  1.0406 -0.3510  0.1876
 8477SOL    HW137067   0.070   3.439   8.834 -1.3736  0.5027  0.7326
 8477SOL    HW237068   0.036   3.571   8.763 -0.9620 -0.8703 -0.5666
 8478SOL     OW37069   0.690   4.668   2.481 -0.1816 -1.0697 -0.4070
 8478SOL    HW137070   0.614   4.622   2.517 -0.0388 -1.2533 -0.3420
 8478SOL    HW237071   0.723   4.713   2.559  0.9606  0.9387 -2.0406
 8479SOL     OW37072   0.473   1.244   4.821  0.7117 -0.2453  0.3407
 8479SOL    HW137073   0.468   1.324   4.768 -1.5001 -1.2183 -0.9064
 8479SOL    HW237074   0.540   1.276   4.882 -0.5004 -0.0405  1.5495
 8480SOL     OW37075   3.386   2.322  10.156 -0.2750 -0.3511  0.1321
 8480SOL    HW137076   3.362   2.320  10.063  0.0619  0.3794  0.0322
 8480SOL    HW237077   3.338   2.399  10.186  0.3104  0.7399 -1.7341
 8481SOL     OW37078   2.296   1.036   0.278  0.0325  0.3707 -0.0493
 8481SOL    HW137079   2.207   1.038   0.243  0.6669 -0.4027 -1.7098
 8481SOL    HW237080   2.280   1.029   0.372 -1.3105  0.7679 -0.2405
 8482SOL     OW37081   4.612   3.067   1.896 -0.3805  0.2104  0.3281
 8482SOL    HW137082   4.597   3.162   1.895  0.4859  0.3543  0.7003
 8482SOL    HW237083   4.657   3.071   1.812  0.4152  1.1442  0.7943
 8483SOL     OW37084   3.642   4.125   2.787  0.3050 -0.0263 -0.3610
 8483SOL    HW137085   3.614   4.196   2.730  1.7331  0.8074 -0.0353
 8483SOL    HW237086   3.556   4.104   2.824  0.5298 -0.4015 -0.0563
 8484SOL     OW37087   1.196   1.965   2.977 -0.2878 -0.4607  0.6973
 8484SOL    HW137088   1.251   2.026   3.027 -0.7911 -0.1309  0.8577
 8484SOL    HW237089   1.246   1.953   2.897 -0.4699 -0.1755  0.5397
 8485SOL     OW37090   0.132   0.732   8.434  0.4381  0.1922 -0.1541
 8485SOL    HW137091   0.187   0.671   8.386  1.0703  0.8815 -0.3043
 8485SOL    HW237092   0.159   0.815   8.395 -1.0503  1.8432  2.3321
 8486SOL     OW37093   1.270   0.048   7.286  0.0715  0.5154  0.4311
 8486SOL    HW137094   1.314   0.040   7.370 -1.4493  0.7990  1.2544
 8486SOL    HW237095   1.179   0.064   7.311 -0.4440 -0.4940 -0.7776
 8487SOL     OW37096   2.817   0.570   4.878 -0.0226 -0.1725 -0.1950
 8487SOL    HW137097   2.882   0.500   4.881  0.5221  0.2621 -1.8441
 8487SOL    HW237098   2.858   0.637   4.932 -0.8220 -1.2201  1.7065
 8488SOL     OW37099   3.851   2.454  11.491  0.2122 -0.7092 -0.4145
 8488SOL    HW137100   3.830   2.519  11.424  1.6909 -0.0347 -0.2262
 8488SOL    HW237101   3.764   2.419  11.507 -0.4084 -0.0060 -2.3139
 8489SOL     OW37102   0.272   0.210   8.681  0.5796 -0.2706 -0.2853
 8489SOL    HW137103   0.367   0.221   8.677  0.2960  1.0226 -3.1644
 8489SOL    HW237104   0.250   0.192   8.589 -1.1226 -0.3148  0.1202
 8490SOL     OW37105   1.858   3.974  14.215  0.6497  0.2527  0.6366
 8490SOL    HW137106   1.894   3.934  14.135 -2.7957 -1.5672  0.0062
 8490SOL    HW237107   1.831   4.062  14.189  2.2618  0.1359 -1.4452
 8491SOL     OW37108   0.803   3.020   2.846 -0.3045 -0.0919 -0.5709
 8491SOL    HW137109   0.777   3.094   2.902  1.5769  0.0704  0.1036
 8491SOL    HW237110   0.898   3.035   2.851 -0.7893  2.2689  1.6112
 8492SOL     OW37111   0.399   4.576   5.138 -0.1080  0.7209 -0.2288
 8492SOL    HW137112   0.444   4.655   5.108  0.9589 -0.0030 -0.5443
 8492SOL    HW237113   0.406   4.519   5.061 -0.6782 -0.0322  0.2783
 8493SOL     OW37114   4.081   3.364  12.418  0.2880  0.3854 -0.4577
 8493SOL    HW137115   4.053   3.426  12.350 -1.9491 -1.0910 -0.8683
 8493SOL    HW237116   4.138   3.418  12.472 -1.5071 -0.6625  2.4862
 8494SOL     OW37117   3.879   4.586   4.957 -0.4586  0.0907 -0.5769
 8494SOL    HW137118   3.956   4.546   4.917 -0.6245 -1.4722  0.6364
 8494SOL    HW237119   3.817   4.513   4.948  0.4981 -0.9484  1.1724
 8495SOL     OW37120   0.495   0.885  17.059  0.0782 -0.6663 -0.0809
 8495SOL    HW137121   0.440   0.962  17.070  0.1101 -0.3677 -2.0489
 8495SOL    HW237122   0.522   0.879  17.150 -1.9273 -2.9409  0.3893
 8496SOL     OW37123   2.479   1.268   0.290  0.0208  0.0398 -0.4934
 8496SOL    HW137124   2.422   1.192   0.303  1.5169 -0.4638  3.1530
 8496SOL    HW237125   2.449   1.292   0.202 -1.4316  1.7739  0.4713
 8497SOL     OW37126   3.244   3.670   5.188 -0.3484 -0.2071 -0.0185
 8497SOL    HW137127   3.209   3.753   5.154 -1.9756 -1.2661 -0.8970
 8497SOL    HW237128   3.173   3.607   5.183 -0.7712  0.1974  0.9043
 8498SOL     OW37129   4.441   0.658   1.627  0.4954 -0.1066  0.4378
 8498SOL    HW137130   4.434   0.591   1.695  0.0301  1.7975  2.2615
 8498SOL    HW237131   4.434   0.607   1.546 -0.6960 -0.3772  0.7128
 8499SOL     OW37132   0.346   3.284   4.568  0.4588 -0.5859 -0.0265
 8499SOL    HW137133   0.368   3.190   4.566 -2.3289 -1.2435  0.5586
 8499SOL    HW237134   0.267   3.274   4.621 -0.8645  0.1888 -1.8854
 8500SOL     OW37135   1.421   4.513   6.588 -0.1369 -0.6242  0.4219
 8500SOL    HW137136   1.497   4.568   6.607 -0.6134  0.9224 -2.0240
 8500SOL    HW237137   1.355   4.580   6.608 -1.8908 -2.0054 -0.6843
 8501SOL     OW37138   2.096   1.679  10.494  0.2204  0.1568 -0.8125
 8501SOL    HW137139   2.189   1.683  10.472 -0.1053  0.8801 -2.0638
 8501SOL    HW237140   2.095   1.584  10.508 -1.4822  0.7409  3.1274
 8502SOL     OW37141   4.720   3.463   6.939 -0.4147  0.2625 -0.0791
 8502SOL    HW137142   4.738   3.381   6.892  0.5225  0.0845  0.5908
 8502SOL    HW237143   0.041   3.523   6.894 -0.6768  0.6169  0.0472
 8503SOL     OW37144   2.890   0.839   8.042 -0.2197 -0.3602 -0.0884
 8503SOL    HW137145   2.961   0.893   8.008  0.9283 -0.9455  1.3813
 8503SOL    HW237146   2.818   0.858   7.982  1.0248 -0.7302 -1.6933
 8504SOL     OW37147   1.240   0.490   1.559  0.1975  0.4264 -0.2553
 8504SOL    HW137148   1.295   0.413   1.543 -0.1634  0.2837 -0.7941
 8504SOL    HW237149   1.304   0.558   1.539 -2.0696  2.8108  0.5602
 8505SOL     OW37150   1.263   2.822  15.135 -0.6442  0.4318  0.2150
 8505SOL    HW137151   1.289   2.846  15.224 -1.2736 -0.8445  0.7445
 8505SOL    HW237152   1.181   2.778  15.158  0.3460 -1.1108  0.7462
 8506SOL     OW37153   3.347   3.690   5.690  0.4505  0.0514 -0.4874
 8506SOL    HW137154   3.264   3.691   5.642 -1.0299 -0.7224  2.0585
 8506SOL    HW237155   3.376   3.780   5.675  1.5329 -0.0489  1.0304
 8507SOL     OW37156   3.487   3.721   1.263 -0.4803  0.0763  0.2548
 8507SOL    HW137157   3.550   3.756   1.201 -0.5622 -0.4298 -0.1154
 8507SOL    HW237158   3.532   3.638   1.276 -1.7689 -1.2291 -3.6231
 8508SOL     OW37159   0.703   4.620   5.159 -0.4558  0.3021  0.2844
 8508SOL    HW137160   0.724   4.544   5.213  0.6341  0.1088 -0.4037
 8508SOL    HW237161   0.670   4.690   5.215  0.4490  0.8715  0.1060
 8509SOL     OW37162   3.033   3.835   8.058 -0.2430  0.4297 -0.6488
 8509SOL    HW137163   2.945   3.856   8.091 -0.6379  0.9890 -2.0693
 8509SOL    HW237164   3.087   3.871   8.129 -0.8018  1.0515 -0.5367
 8510SOL     OW37165   2.238   1.685   7.365 -0.3740  0.1998 -0.1023
 8510SOL    HW137166   2.226   1.614   7.428  2.3282  1.4232  1.7932
 8510SOL    HW237167   2.298   1.736   7.420  1.6907  1.0484 -3.1738
 8511SOL     OW37168   2.054   4.489   3.964 -0.3515  0.0890 -0.3275
 8511SOL    HW137169   2.079   4.503   3.873  1.2617 -0.1462  0.0823
 8511SOL    HW237170   1.969   4.447   3.946  1.6890 -3.9320 -0.4995
 8512SOL     OW37171   3.118   3.254   3.563 -0.2920  0.9511  0.2186
 8512SOL    HW137172   3.055   3.188   3.533  0.2310 -0.2032  1.7069
 8512SOL    HW237173   3.185   3.196   3.598  0.0115  1.0435 -0.2086
 8513SOL     OW37174   4.260   1.475   7.509 -0.3546  0.3611 -0.3578
 8513SOL    HW137175   4.243   1.550   7.452 -2.6862 -0.1242 -0.3107
 8513SOL    HW237176   4.292   1.416   7.442  0.0631 -0.2902  0.4133
 8514SOL     OW37177   4.133   0.008   2.457  0.0839 -0.0734 -0.8215
 8514SOL    HW137178   4.071   4.676   2.440 -1.6987  0.7960  2.1724
 8514SOL    HW237179   4.169   4.707   2.537 -3.2127 -0.8279  0.2795
 8515SOL     OW37180   0.868   1.364   3.442 -0.0182 -0.7248 -0.1695
 8515SOL    HW137181   0.828   1.282   3.413 -1.8747 -0.0379  0.4457
 8515SOL    HW237182   0.944   1.369   3.383 -0.5891 -4.3377 -1.2243
 8516SOL     OW37183   4.652   1.733  13.510  0.4274 -0.2997  0.1529
 8516SOL    HW137184   0.005   1.704  13.509  0.3793 -0.4740  0.8120
 8516SOL    HW237185   4.607   1.683  13.443  0.5075  0.4262 -0.4427
 8517SOL     OW37186   0.147   0.058   5.862 -0.0835  0.4756 -0.1979
 8517SOL    HW137187   0.105   0.026   5.942  1.4574  0.6685  0.6972
 8517SOL    HW237188   0.129   4.719   5.808  0.1382  1.3776 -1.5715
 8518SOL     OW37189   1.165   2.939   4.648  0.2085  0.6163  0.1737
 8518SOL    HW137190   1.165   2.857   4.697 -0.7660  0.4851 -0.0374
 8518SOL    HW237191   1.085   2.976   4.685  0.0662  1.6797 -1.1975
 8519SOL     OW37192   0.782   0.630   2.403 -0.0655 -0.1318  0.5836
 8519SOL    HW137193   0.778   0.722   2.377 -0.5199  0.2296  1.9690
 8519SOL    HW237194   0.690   0.606   2.407  0.4204 -2.1751 -0.4059
 8520SOL     OW37195   3.866   0.222   6.612 -0.5416 -0.2014  0.5048
 8520SOL    HW137196   3.868   0.296   6.671 -1.6854 -0.5548  0.9860
 8520SOL    HW237197   3.827   0.154   6.667 -2.2021  3.2957  3.6218
 8521SOL     OW37198   2.025   2.406   8.785 -0.1057  0.4451  0.1713
 8521SOL    HW137199   2.012   2.334   8.847  0.5799  2.5215  2.7209
 8521SOL    HW237200   1.943   2.453   8.772  0.5042  1.5073  0.2081
 8522SOL     OW37201   2.898   0.287   4.419  0.0880  0.1335 -0.0645
 8522SOL    HW137202   2.889   0.203   4.464  2.3813  0.2173  0.5423
 8522SOL    HW237203   2.879   0.259   4.330  0.0593 -0.5946  0.1664
 8523SOL     OW37204   4.332   4.091   7.437 -0.4148 -0.0318  0.0790
 8523SOL    HW137205   4.297   4.014   7.483  2.6342  0.9391  4.1050
 8523SOL    HW237206   4.296   4.151   7.503 -1.2105  0.7354 -1.0649
 8524SOL     OW37207   3.907   3.997   1.413 -0.2124 -0.3479  0.2862
 8524SOL    HW137208   3.890   3.997   1.319 -4.0250  0.1180  1.0047
 8524SOL    HW237209   3.824   3.974   1.453  1.0986 -1.3554  2.4488
 8525SOL     OW37210   2.051   2.127   1.988 -0.6150 -0.4131 -0.0486
 8525SOL    HW137211   1.976   2.150   2.042  1.0047  0.0515  2.0132
 8525SOL    HW237212   2.022   2.038   1.970 -3.1055  0.2099  0.8900
 8526SOL     OW37213   3.305   4.250   4.234  0.9132 -0.9152 -0.3116
 8526SOL    HW137214   3.253   4.307   4.177  1.3569 -0.7654 -0.5719
 8526SOL    HW237215   3.279   4.286   4.319  2.0034 -1.3147  0.1936
 8527SOL     OW37216   0.701   3.372  16.182 -0.2533  0.5311  0.3880
 8527SOL    HW137217   0.634   3.434  16.213 -1.4704 -1.0472  0.9601
 8527SOL    HW237218   0.780   3.424  16.187  0.0490  0.4380 -3.2576
 8528SOL     OW37219   0.833   3.767   6.168  0.0529  0.4145 -0.1566
 8528SOL    HW137220   0.882   3.819   6.104  2.5252 -1.0031  0.5646
 8528SOL    HW237221   0.823   3.685   6.121 -3.2948  0.5143  0.4021
 8529SOL     OW37222   0.815   1.186   9.304 -0.2898  0.2165  0.8111
 8529SOL    HW137223   0.723   1.174   9.327 -1.0382 -0.0033 -2.3611
 8529SOL    HW237224   0.839   1.259   9.362 -0.2368  0.1161  0.9141
 8530SOL     OW37225   4.547   2.305   8.052 -0.5837 -0.3432  0.0314
 8530SOL    HW137226   4.580   2.236   8.109  1.2535  0.3274 -0.2250
 8530SOL    HW237227   4.513   2.366   8.118 -1.0837  1.3145 -1.7527
 8531SOL     OW37228   0.143   0.595  15.444  0.1172  0.0581  0.2875
 8531SOL    HW137229   0.173   0.518  15.491 -0.7969 -0.2090  0.4337
 8531SOL    HW237230   0.224   0.624  15.403  0.4898 -1.1799  0.1701
 8532SOL     OW37231   4.733   1.515   2.384 -0.0283  0.4531 -0.2063
 8532SOL    HW137232   4.719   1.429   2.345  1.1924 -0.2439  0.9044
 8532SOL    HW237233   0.044   1.481   2.458  0.0482 -0.3069 -0.6153
 8533SOL     OW37234   0.518   1.862   4.864 -0.1630  0.5761  0.4181
 8533SOL    HW137235   0.488   1.900   4.781  0.6376  4.0591  1.7445
 8533SOL    HW237236   0.613   1.866   4.856  0.0459  0.7455  2.8643
 8534SOL     OW37237   1.753   2.478  15.270  0.6723 -0.5128  0.0834
 8534SOL    HW137238   1.838   2.443  15.297  0.3062  0.1987  2.1401
 8534SOL    HW237239   1.762   2.557  15.323 -0.5666  2.2487 -3.8264
 8535SOL     OW37240   1.662   1.161   2.069  0.1737  0.4325  0.3560
 8535SOL    HW137241   1.682   1.116   2.151  1.2810  0.1298 -0.0839
 8535SOL    HW237242   1.688   1.250   2.094  1.0480  0.2804 -0.0277
 8536SOL     OW37243   2.936   1.760   7.395 -0.2000  0.0645 -0.6387
 8536SOL    HW137244   2.896   1.680   7.428  0.4797 -0.0272 -0.0454
 8536SOL    HW237245   3.018   1.738   7.351 -0.5839 -1.5099 -0.5430
 8537SOL     OW37246   4.371   3.221  15.832  0.2185  0.7466 -0.6231
 8537SOL    HW137247   4.437   3.224  15.762  1.6805 -0.2104  0.7064
 8537SOL    HW237248   4.308   3.282  15.793  0.3886 -1.2902 -4.0246
 8538SOL     OW37249   2.338   1.115   7.667  0.2710 -0.3184  0.1923
 8538SOL    HW137250   2.355   1.065   7.587  1.0165 -1.9405  1.3702
 8538SOL    HW237251   2.243   1.123   7.664  0.3894  0.6010 -1.2094
 8539SOL     OW37252   3.901   1.106  13.308 -0.3781  0.9077  0.0228
 8539SOL    HW137253   3.907   1.094  13.403 -1.3338 -2.6416 -0.3506
 8539SOL    HW237254   3.870   1.195  13.295 -0.3134  0.7202 -1.4456
 8540SOL     OW37255   1.176   0.397   4.727  0.2763  0.4252  0.2624
 8540SOL    HW137256   1.270   0.404   4.715  0.1107 -3.9502 -3.6217
 8540SOL    HW237257   1.132   0.378   4.644  0.3567 -0.3550  0.3947
 8541SOL     OW37258   0.189   3.825   2.550  0.0797 -0.1057 -0.5858
 8541SOL    HW137259   0.219   3.773   2.625  0.0794 -0.8474 -1.0975
 8541SOL    HW237260   0.235   3.780   2.479 -0.2100 -1.3546  0.0095
 8542SOL     OW37261   2.913   3.824   5.997  0.0032  0.2212  0.2602
 8542SOL    HW137262   2.880   3.914   5.996 -0.0918  0.1676 -1.2204
 8542SOL    HW237263   2.985   3.834   6.059  1.0331 -0.6743 -0.8015
 8543SOL     OW37264   2.629   3.117   6.481 -0.0207 -0.1389  0.4422
 8543SOL    HW137265   2.683   3.118   6.402 -0.7269  1.2582 -0.0274
 8543SOL    HW237266   2.590   3.205   6.486  0.8113  0.2044  0.8616
 8544SOL     OW37267   4.000   0.906   7.530 -0.0456  0.1163  0.1348
 8544SOL    HW137268   4.026   0.819   7.497  1.7594  1.3984 -1.8572
 8544SOL    HW237269   3.927   0.878   7.586 -0.0210  1.6774  0.9370
 8545SOL     OW37270   0.089   1.374   2.611  0.3232 -0.2535 -0.4543
 8545SOL    HW137271   0.076   1.423   2.693  0.5324 -0.4047 -0.3292
 8545SOL    HW237272   0.026   1.303   2.623  1.8265 -1.8399 -1.9696
 8546SOL     OW37273   1.878   3.513  12.497 -0.3057 -0.0856  0.5613
 8546SOL    HW137274   1.886   3.434  12.445  3.0459 -0.5330  1.7397
 8546SOL    HW237275   1.843   3.476  12.578 -0.1817  0.6331  0.9453
 8547SOL     OW37276   3.915   3.362  11.543 -0.2907  0.3582  0.2205
 8547SOL    HW137277   3.964   3.283  11.519  0.0283  0.3884  0.7477
 8547SOL    HW237278   3.898   3.341  11.635  0.1538  0.3567  0.3051
 8548SOL     OW37279   4.055   3.747  10.867 -0.8573  0.7917 -0.2600
 8548SOL    HW137280   4.009   3.664  10.877 -0.3124  0.3031 -1.9633
 8548SOL    HW237281   4.066   3.780  10.956 -1.3542  0.1750  0.0257
 8549SOL     OW37282   1.352   4.355  12.539  0.2537 -0.3977  0.0969
 8549SOL    HW137283   1.404   4.296  12.485  1.6349 -1.0436  2.1255
 8549SOL    HW237284   1.373   4.438  12.496  0.7691 -0.7125 -0.2621
 8550SOL     OW37285   2.500   4.271   3.691  0.0848  0.2297 -0.0928
 8550SOL    HW137286   2.511   4.263   3.786  0.3181 -0.5142 -0.1866
 8550SOL    HW237287   2.535   4.360   3.680  1.5066 -0.1976  0.9411
 8551SOL     OW37288   0.861   2.102   5.593 -0.0177  0.4131 -0.4762
 8551SOL    HW137289   0.908   2.145   5.522 -0.3539 -2.0516 -2.1740
 8551SOL    HW237290   0.798   2.172   5.611  1.1440  1.3660 -0.1284
 8552SOL     OW37291   3.968   0.800   9.171 -0.1574 -0.5068 -0.1767
 8552SOL    HW137292   4.010   0.806   9.086  0.2417 -1.4481 -0.0511
 8552SOL    HW237293   4.039   0.836   9.225 -1.2938  0.6195  0.5675
 8553SOL     OW37294   0.403   0.329   2.193  0.3369 -0.2632 -0.4058
 8553SOL    HW137295   0.359   0.309   2.276 -0.3152  1.0440 -0.4372
 8553SOL    HW237296   0.357   0.404   2.155 -0.7583 -0.5016  0.4609
 8554SOL     OW37297   1.605   1.501  17.305  0.9852  0.5312  0.4487
 8554SOL    HW137298   1.666   1.574  17.299  0.6708  0.6561 -1.3114
 8554SOL    HW237299   1.631   1.460  17.222 -1.0649  1.6673 -0.7779
 8555SOL     OW37300   2.510   3.266  10.613  0.0640 -0.1508  0.3495
 8555SOL    HW137301   2.457   3.253  10.534  1.1876  0.6871 -0.5490
 8555SOL    HW237302   2.454   3.331  10.654  1.1363 -0.3984  2.2275
 8556SOL     OW37303   3.011   2.874   8.375 -0.3036  0.1965 -0.4475
 8556SOL    HW137304   2.956   2.891   8.299 -1.4712  0.4382  0.4596
 8556SOL    HW237305   2.967   2.919   8.447 -0.6561  0.1127 -0.6116
 8557SOL     OW37306   2.018   1.454   3.692 -0.3552 -0.1262  0.4321
 8557SOL    HW137307   2.059   1.368   3.680  0.7518  0.2663  1.3513
 8557SOL    HW237308   1.942   1.441   3.636 -0.1014  2.2867 -0.4430
 8558SOL     OW37309   0.859   2.559   2.726 -0.0313  1.1309 -0.0145
 8558SOL    HW137310   0.795   2.511   2.673 -0.2811  1.1268  0.2856
 8558SOL    HW237311   0.801   2.605   2.787  1.3889 -1.0000  2.9378
 8559SOL     OW37312   3.814   2.214  15.669 -0.2674  0.2107 -0.4610
 8559SOL    HW137313   3.759   2.205  15.747 -0.4407  1.3989 -0.4474
 8559SOL    HW237314   3.894   2.250  15.708  0.2893 -2.3584  0.7435
 8560SOL     OW37315   1.868   2.674  12.562 -0.7719  0.0215 -0.0011
 8560SOL    HW137316   1.849   2.704  12.651  3.0914 -0.2045  0.8896
 8560SOL    HW237317   1.883   2.581  12.583  0.6769 -0.1046 -1.7110
 8561SOL     OW37318   4.538   3.753  14.774 -0.3551 -1.0416  0.0250
 8561SOL    HW137319   4.530   3.743  14.679 -2.4664  1.2885 -0.0543
 8561SOL    HW237320   4.520   3.843  14.801 -1.2916 -0.8055 -1.4409
 8562SOL     OW37321   1.822   0.799  12.999  0.4305 -0.2744  0.7395
 8562SOL    HW137322   1.822   0.704  12.988 -0.0131 -0.1283 -0.4344
 8562SOL    HW237323   1.910   0.826  12.973 -0.4796  1.1571 -0.8901
 8563SOL     OW37324   0.262   2.507   4.702 -0.6771  0.0602  0.3241
 8563SOL    HW137325   0.211   2.426   4.706  1.3326 -1.1173  2.0583
 8563SOL    HW237326   0.349   2.473   4.682 -0.4161  0.6781  0.4208
 8564SOL     OW37327   4.592   0.555   5.191 -0.1910  0.4446  0.2628
 8564SOL    HW137328   4.532   0.559   5.116 -0.9817  2.7113  1.0153
 8564SOL    HW237329   4.597   0.462   5.213  1.4948 -0.3071 -3.3313
 8565SOL     OW37330   2.071   4.732   9.477  0.3185 -0.1598  0.0593
 8565SOL    HW137331   2.061   4.733   9.573  0.4070 -1.1199  0.0801
 8565SOL    HW237332   1.990   4.686   9.455  0.2574 -0.0059 -0.0322
 8566SOL     OW37333   0.415   2.657   4.915  0.3061 -0.1044 -0.6038
 8566SOL    HW137334   0.386   2.596   4.983 -0.9216  2.3832  1.0720
 8566SOL    HW237335   0.422   2.603   4.836 -1.1011 -2.1298  0.6504
 8567SOL     OW37336   3.823   1.811  12.783 -0.1039 -0.9394 -0.1136
 8567SOL    HW137337   3.879   1.737  12.759 -1.6704 -2.3014  0.4981
 8567SOL    HW237338   3.845   1.835  12.873  0.1805 -0.3443 -0.3384
 8568SOL     OW37339   4.597   1.053   3.779 -0.6251 -0.2375 -0.8360
 8568SOL    HW137340   4.520   1.009   3.742 -0.5624 -0.9451 -0.1209
 8568SOL    HW237341   4.599   1.026   3.870  2.8823 -1.2079 -1.2028
 8569SOL     OW37342   2.314   3.429   3.132  0.2412 -0.5946  0.3595
 8569SOL    HW137343   2.299   3.512   3.177  2.6354 -1.4865  2.8482
 8569SOL    HW237344   2.340   3.378   3.209  0.8115  0.1447  0.6473
 8570SOL     OW37345   1.352   4.087  12.194 -0.2376 -0.1696  0.2167
 8570SOL    HW137346   1.285   4.155  12.195 -1.1347 -1.0138 -2.1579
 8570SOL    HW237347   1.425   4.141  12.162  0.1892  0.3322  2.0401
 8571SOL     OW37348   3.777   0.810   7.650  0.2836 -0.3832  0.3914
 8571SOL    HW137349   3.697   0.833   7.698 -0.0537 -0.7138 -0.0163
 8571SOL    HW237350   3.761   0.734   7.595 -1.9544 -0.8164  1.6553
 8572SOL     OW37351   1.431   2.348   4.099 -0.4889 -0.3944  0.3411
 8572SOL    HW137352   1.394   2.260   4.098  0.9038 -0.9846 -0.0887
 8572SOL    HW237353   1.493   2.350   4.172 -1.7728 -2.0606  1.4831
 8573SOL     OW37354   2.162   0.367   2.357  0.7381  0.5070  0.1437
 8573SOL    HW137355   2.090   0.429   2.341 -0.0650 -0.0456  1.5941
 8573SOL    HW237356   2.134   0.340   2.445 -0.2643 -2.6340 -1.1198
 8574SOL     OW37357   0.353   0.211   5.729 -0.2055 -0.1224  0.4634
 8574SOL    HW137358   0.434   0.245   5.766  0.1804  0.4047 -0.8482
 8574SOL    HW237359   0.312   0.179   5.809 -1.2678  4.7045  1.8332
 8575SOL     OW37360   2.456   2.657   6.720 -0.1419  0.1082 -0.6349
 8575SOL    HW137361   2.366   2.651   6.754 -0.5526 -0.9344 -1.9281
 8575SOL    HW237362   2.493   2.726   6.776 -1.7558 -0.0598  0.6518
 8576SOL     OW37363   1.116   3.853   3.782  0.4499 -0.0491 -0.0107
 8576SOL    HW137364   1.166   3.775   3.806  1.5303  1.0287  1.2035
 8576SOL    HW237365   1.026   3.827   3.800 -0.8328  4.7734  0.5129
 8577SOL     OW37366   4.197   2.069   5.169 -0.0223  0.0475 -0.0982
 8577SOL    HW137367   4.178   2.160   5.145  2.7283  0.8247  0.5986
 8577SOL    HW237368   4.286   2.052   5.138  0.0213 -2.0576  1.1563
 8578SOL     OW37369   1.879   2.789   1.163  0.3351 -0.5499 -0.3981
 8578SOL    HW137370   1.807   2.778   1.102 -0.5103  2.4512  0.0690
 8578SOL    HW237371   1.880   2.711   1.219  1.0864  0.4796  1.0428
 8579SOL     OW37372   3.966   2.983   9.229 -0.9534 -0.1717  0.4815
 8579SOL    HW137373   4.036   3.045   9.209  1.1254 -2.6936  0.0838
 8579SOL    HW237374   4.020   2.906   9.246 -1.8886 -0.9565 -0.0997
 8580SOL     OW37375   4.516   0.645   7.038 -0.0949 -0.2716  0.1000
 8580SOL    HW137376   4.483   0.623   6.951 -1.8513  1.8046  0.2444
 8580SOL    HW237377   4.560   0.728   7.020  1.7082 -1.6427 -1.8306
 8581SOL     OW37378   1.311   2.291   2.479  0.1445  0.1078 -0.5603
 8581SOL    HW137379   1.363   2.296   2.559  0.1367 -0.4731 -0.5190
 8581SOL    HW237380   1.237   2.352   2.488 -0.6583 -1.1080  1.3550
 8582SOL     OW37381   0.285   3.145   8.373  0.1792  0.1339  0.4340
 8582SOL    HW137382   0.318   3.216   8.429 -0.6334  2.0440 -1.5213
 8582SOL    HW237383   0.324   3.174   8.291  1.1092  0.2656  0.9243
 8583SOL     OW37384   1.963   0.470   1.633  0.4057  0.0992 -0.1447
 8583SOL    HW137385   1.871   0.496   1.630  0.6187  0.5703 -2.0604
 8583SOL    HW237386   1.984   0.490   1.542 -0.3050  1.7170  0.0413
 8584SOL     OW37387   0.764   4.486  14.363  0.2199 -0.3637  0.3989
 8584SOL    HW137388   0.759   4.578  14.390 -2.4417 -0.9819  1.9714
 8584SOL    HW237389   0.682   4.444  14.390 -0.3325  0.4711 -0.0015
 8585SOL     OW37390   2.280   2.506   8.817 -0.2613 -0.1622 -0.3687
 8585SOL    HW137391   2.188   2.480   8.812  0.0456 -1.2639 -0.2936
 8585SOL    HW237392   2.266   2.598   8.842 -1.1201 -0.0701 -1.2008
 8586SOL     OW37393   1.406   3.272   7.464  0.4490 -0.6109 -0.1984
 8586SOL    HW137394   1.397   3.256   7.370  0.9445 -0.4279 -0.2763
 8586SOL    HW237395   1.485   3.222   7.483  1.5307  0.5526 -1.6253
 8587SOL     OW37396   3.581   0.476  14.920  0.3808  0.6415 -0.6886
 8587SOL    HW137397   3.605   0.433  15.002  0.0299  0.0211 -0.9135
 8587SOL    HW237398   3.542   0.406  14.868  1.1661 -1.1441  1.1543
 8588SOL     OW37399   0.799   2.313  11.605  0.4688  0.0092 -0.3476
 8588SOL    HW137400   0.810   2.221  11.630  3.9458  1.0441  1.9569
 8588SOL    HW237401   0.888   2.348  11.608  1.0078 -1.4804  0.7514
 8589SOL     OW37402   3.948   1.540  15.824 -0.0206  0.2734 -0.2288
 8589SOL    HW137403   3.908   1.473  15.768  0.2339 -0.6952  0.7661
 8589SOL    HW237404   4.021   1.572  15.772  0.0188  3.0844  1.5816
 8590SOL     OW37405   1.835   2.771   0.377  0.2385  0.1398 -0.1605
 8590SOL    HW137406   1.908   2.769   0.315  0.6287 -0.6815  0.3091
 8590SOL    HW237407   1.768   2.747   0.313  0.1392 -0.5521  0.1918
 8591SOL     OW37408   4.690   2.452   0.759  0.6629 -1.2905  0.3179
 8591SOL    HW137409   4.663   2.524   0.816 -0.3526 -0.1162 -1.6446
 8591SOL    HW237410   4.735   2.392   0.819 -0.4321 -3.0937 -0.6565
 8592SOL     OW37411   4.451   2.466   2.330 -0.1120 -0.3289  0.1030
 8592SOL    HW137412   4.446   2.560   2.349  2.1009 -0.1141 -0.4709
 8592SOL    HW237413   4.454   2.426   2.417  4.1299  0.5112  0.3273
 8593SOL     OW37414   2.350   3.535   5.648  0.1338  0.1894 -0.1722
 8593SOL    HW137415   2.379   3.526   5.738 -2.6803 -0.5569  0.6651
 8593SOL    HW237416   2.268   3.487   5.633 -0.3670  0.9928 -0.0242
 8594SOL     OW37417   2.279   3.759  16.834 -0.4769 -1.0287 -0.1097
 8594SOL    HW137418   2.344   3.814  16.877  2.0509 -2.0232 -2.6991
 8594SOL    HW237419   2.222   3.740  16.909  0.9098 -0.0632  1.1886
 8595SOL     OW37420   2.780   3.753   4.385  0.3532 -1.0535  0.3801
 8595SOL    HW137421   2.874   3.768   4.381 -0.0013  0.9423 -0.7217
 8595SOL    HW237422   2.777   3.659   4.367 -0.9832 -0.6033 -1.6993
 8596SOL     OW37423   4.585   1.238   6.530  0.4103  0.1499  0.1969
 8596SOL    HW137424   4.501   1.245   6.576  1.3554  1.5599  1.6979
 8596SOL    HW237425   4.635   1.236   6.611 -0.4399 -0.5499  0.7034
 8597SOL     OW37426   3.141   3.734   1.446 -1.3282 -0.0719 -0.1799
 8597SOL    HW137427   3.162   3.827   1.450  2.3024 -0.7278 -3.9702
 8597SOL    HW237428   3.054   3.724   1.406 -1.4186  1.0418 -0.2568
 8598SOL     OW37429   4.507   4.238   9.331  0.1507 -0.2230 -0.4281
 8598SOL    HW137430   4.558   4.246   9.250 -1.3173 -1.4002 -1.4928
 8598SOL    HW237431   4.577   4.234   9.395 -0.6869 -1.0883  0.4370
 8599SOL     OW37432   1.730   3.692  16.074 -0.2059  0.1151 -0.7726
 8599SOL    HW137433   1.654   3.682  16.131  0.9176  2.9408  1.2725
 8599SOL    HW237434   1.751   3.600  16.057 -0.3974 -0.3762  1.6630
 8600SOL     OW37435   2.982   0.006   8.280 -0.0495  0.1700 -0.2159
 8600SOL    HW137436   2.987   0.098   8.253  1.2423 -0.0132 -0.5966
 8600SOL    HW237437   3.074   4.719   8.271  0.5670  1.6871  1.6477
 8601SOL     OW37438   1.062   1.883   6.325  0.3702  0.5378  0.3932
 8601SOL    HW137439   1.065   1.921   6.413 -0.3591  1.4692  0.0060
 8601SOL    HW237440   1.156   1.878   6.305  0.7775 -0.1575  2.4610
 8602SOL     OW37441   1.253   0.774   5.317 -0.6609 -0.3541  0.4012
 8602SOL    HW137442   1.348   0.787   5.322 -0.2815 -2.5348 -1.0094
 8602SOL    HW237443   1.248   0.726   5.235 -0.3646  1.0778 -0.4514
 8603SOL     OW37444   3.489   2.084   3.411 -0.0777 -0.0539  0.2256
 8603SOL    HW137445   3.565   2.064   3.466  1.2030 -0.8085 -1.8100
 8603SOL    HW237446   3.477   2.005   3.359 -2.0880  0.6695 -0.4107
 8604SOL     OW37447   2.601   3.035   3.146 -0.2474  0.5015  0.0264
 8604SOL    HW137448   2.522   3.086   3.162 -1.4030 -0.7539 -1.6794
 8604SOL    HW237449   2.564   2.947   3.159  2.9838 -0.5775  1.8717
 8605SOL     OW37450   0.314   1.457   2.170 -0.0302 -0.3403  0.5779
 8605SOL    HW137451   0.398   1.497   2.147 -0.1335 -1.0863 -1.1464
 8605SOL    HW237452   0.275   1.534   2.212 -0.7634  1.2615 -3.0410
 8606SOL     OW37453   3.541   1.021  10.744 -0.4256  0.1854  0.2048
 8606SOL    HW137454   3.545   1.099  10.799 -0.5722  0.2525  0.1199
 8606SOL    HW237455   3.563   1.067  10.663 -1.2261  0.5147  0.1723
 8607SOL     OW37456   0.561   1.701   5.792 -0.1247  0.4273  0.1635
 8607SOL    HW137457   0.644   1.749   5.793 -0.9580  1.8818 -1.0697
 8607SOL    HW237458   0.500   1.762   5.833 -0.2770 -0.7676  1.7160
 8608SOL     OW37459   0.836   3.193   5.045 -0.8076  0.1244  0.0062
 8608SOL    HW137460   0.763   3.134   5.027 -0.4440  0.0513 -1.2060
 8608SOL    HW237461   0.897   3.136   5.094 -0.0696  0.4147 -0.5708
 8609SOL     OW37462   2.811   2.935   3.351  0.0951  0.1561  0.1127
 8609SOL    HW137463   2.745   2.866   3.358  0.3343 -0.2533 -1.5596
 8609SOL    HW237464   2.764   3.012   3.319  2.0083  0.9311 -0.8231
 8610SOL     OW37465   4.455   3.416   2.875 -0.4976  0.0934 -0.2430
 8610SOL    HW137466   4.430   3.350   2.939 -0.6891  0.9440  0.5651
 8610SOL    HW237467   4.364   3.420   2.844 -0.5538 -0.7593 -0.1786
 8611SOL     OW37468   3.892   0.934  11.199 -0.2067 -0.3871  0.2542
 8611SOL    HW137469   3.823   0.903  11.141  1.1079  0.1779 -1.6214
 8611SOL    HW237470   3.876   1.027  11.187  0.9054 -0.2523 -0.2457
 8612SOL     OW37471   3.846   3.865   0.719  0.1414 -0.6447  0.3437
 8612SOL    HW137472   3.794   3.851   0.640  1.2032  0.0474 -0.4764
 8612SOL    HW237473   3.935   3.849   0.687  0.7951  0.0873  1.7698
 8613SOL     OW37474   3.171   4.614   9.872 -0.8326  0.6027 -0.1246
 8613SOL    HW137475   3.195   4.547   9.935 -0.1954 -1.1126 -2.1719
 8613SOL    HW237476   3.222   4.691   9.894 -1.7467  1.1051  0.2384
 8614SOL     OW37477   2.827   0.515  14.448  0.4916 -0.5145 -0.4403
 8614SOL    HW137478   2.796   0.500  14.358 -2.1171 -2.7129  0.8266
 8614SOL    HW237479   2.757   0.481  14.503 -0.5223 -0.9754 -2.0118
 8615SOL     OW37480   1.251   3.689   8.760 -0.5955  0.4608 -0.0755
 8615SOL    HW137481   1.247   3.784   8.772  0.5797  0.5303 -0.2491
 8615SOL    HW237482   1.330   3.669   8.809 -0.9618  0.4285  0.5042
 8616SOL     OW37483   2.421   1.392   2.683  0.5051  0.0286  0.0255
 8616SOL    HW137484   2.440   1.482   2.654 -2.5774  1.0559  1.1385
 8616SOL    HW237485   2.494   1.368   2.739 -0.9381 -1.4986  1.2443
 8617SOL     OW37486   0.630   4.050   3.419  0.0378 -0.1958  0.0466
 8617SOL    HW137487   0.594   4.129   3.378  0.3377  0.2659  0.6793
 8617SOL    HW237488   0.719   4.059   3.386 -0.9773  2.6253 -1.9612
 8618SOL     OW37489   4.410   3.728  11.792  0.2516  0.0526  0.3390
 8618SOL    HW137490   4.494   3.705  11.830 -0.2266 -0.5575  1.0364
 8618SOL    HW237491   4.353   3.696  11.863 -1.2737 -0.7943 -1.2606
 8619SOL     OW37492   4.183   2.147   6.327  0.3773 -0.1986 -0.2964
 8619SOL    HW137493   4.162   2.237   6.300  1.0532  0.1741  0.3891
 8619SOL    HW237494   4.096   2.120   6.357  0.4688 -0.7770 -0.5644
 8620SOL     OW37495   0.045   0.023   3.660  0.1651  1.1193  0.5331
 8620SOL    HW137496   4.688   0.023   3.660  0.1712  0.9716 -0.9023
 8620SOL    HW237497   0.065   0.087   3.729  1.3571 -0.3734  1.5871
 8621SOL     OW37498   1.984   1.069   4.864  0.1810  0.3356 -0.0289
 8621SOL    HW137499   1.897   1.093   4.834  0.1504  0.3882  0.1053
 8621SOL    HW237500   2.013   1.160   4.875 -0.3637  0.6880 -1.4439
 8622SOL     OW37501   1.395   2.885  12.263 -0.0909  0.0804  0.2558
 8622SOL    HW137502   1.474   2.832  12.249  0.8861  1.2303  1.4554
 8622SOL    HW237503   1.426   2.969  12.296  1.6818 -1.6161  2.9603
 8623SOL     OW37504   4.555   2.552  15.921 -0.4575 -0.2566  0.9423
 8623SOL    HW137505   4.490   2.516  15.861 -0.5840  0.3499  0.7115
 8623SOL    HW237506   4.511   2.633  15.948  0.1215  0.1274  0.7325
 8624SOL     OW37507   4.586   2.564   1.769 -0.4971 -0.3267  0.3222
 8624SOL    HW137508   4.663   2.534   1.817 -0.3712  0.6728  0.7431
 8624SOL    HW237509   4.596   2.659   1.762 -1.8900 -0.1000  1.2240
 8625SOL     OW37510   0.964   2.509   0.556 -0.2223 -0.7210  0.5920
 8625SOL    HW137511   1.045   2.547   0.591  0.8970 -1.8976 -0.7690
 8625SOL    HW237512   1.001   2.449   0.492  0.1862 -0.1703  0.3159
 8626SOL     OW37513   1.664   1.714   6.933  0.5487 -0.2374  0.0583
 8626SOL    HW137514   1.743   1.756   6.899  1.2561 -0.6836  1.1344
 8626SOL    HW237515   1.665   1.628   6.889  0.0549 -0.9217  1.3859
 8627SOL     OW37516   1.612   0.407   9.337  0.4111  0.2136 -0.0532
 8627SOL    HW137517   1.596   0.471   9.268 -0.9759  2.3946  2.2854
 8627SOL    HW237518   1.556   0.441   9.407 -0.0347 -1.3431  0.3685
 8628SOL     OW37519   3.638   3.665   6.507 -0.6421  0.2287  0.4265
 8628SOL    HW137520   3.667   3.649   6.597  1.2252  0.6363 -0.1019
 8628SOL    HW237521   3.563   3.605   6.509  0.7915 -1.5818  0.0720
 8629SOL     OW37522   0.338   2.432   6.536 -0.1585 -0.2026  0.2480
 8629SOL    HW137523   0.349   2.355   6.592  0.1918  0.6072  1.2861
 8629SOL    HW237524   0.243   2.422   6.524 -0.0711  2.4334 -2.6369
 8630SOL     OW37525   0.901   0.879   9.449  0.2812  0.1730  0.9413
 8630SOL    HW137526   0.883   0.949   9.386  0.5794  1.0973  1.8870
 8630SOL    HW237527   0.901   0.932   9.528 -1.0028  1.1460  0.2932
 8631SOL     OW37528   4.025   3.230  15.186  0.3228  0.3470  0.0278
 8631SOL    HW137529   4.008   3.205  15.095  2.4707 -1.4561  0.1224
 8631SOL    HW237530   4.013   3.148  15.235  1.6672 -0.2408 -0.6315
 8632SOL     OW37531   1.105   3.078   7.882 -0.3194  0.2470  0.1253
 8632SOL    HW137532   1.107   3.114   7.970  0.8500  0.5386 -0.0245
 8632SOL    HW237533   1.196   3.052   7.871 -0.3046 -0.1646  1.2454
 8633SOL     OW37534   0.804   2.725   6.866  0.1132 -0.1814 -0.5491
 8633SOL    HW137535   0.733   2.735   6.803  0.6675 -0.3680 -1.2039
 8633SOL    HW237536   0.745   2.704   6.938  0.4023  0.0475 -0.2416
 8634SOL     OW37537   1.941   0.938   5.228  0.2250 -0.2291  0.6513
 8634SOL    HW137538   1.890   0.912   5.305 -1.6882 -1.2239 -0.9423
 8634SOL    HW237539   1.874   0.932   5.161  0.5133  0.1688  0.3299
 8635SOL     OW37540   2.036   3.796  14.473 -0.7427 -0.6218  0.4301
 8635SOL    HW137541   1.971   3.842  14.526 -0.8125 -0.8243  0.5201
 8635SOL    HW237542   2.017   3.837  14.389  2.1544 -0.4799 -0.1296
 8636SOL     OW37543   3.855   0.103   3.763 -0.1193  0.0306 -0.1587
 8636SOL    HW137544   3.888   0.150   3.840 -1.2549  0.6884 -0.0681
 8636SOL    HW237545   3.869   0.158   3.687  1.7363  0.3377  0.3982
 8637SOL     OW37546   1.257   3.335   5.846 -0.3971 -0.0789  0.1027
 8637SOL    HW137547   1.214   3.287   5.776  0.1605 -1.3215  0.6075
 8637SOL    HW237548   1.335   3.370   5.804  0.6915 -1.5570  0.8468
 8638SOL     OW37549   4.013   2.086  15.546  0.1232 -0.0069 -0.0171
 8638SOL    HW137550   3.995   2.050  15.459 -1.7578  0.9355 -0.0204
 8638SOL    HW237551   3.926   2.104  15.581  1.1764  1.0590  2.0518
 8639SOL     OW37552   3.506   4.065   8.730 -0.9515  0.2826 -0.7450
 8639SOL    HW137553   3.446   3.994   8.754 -1.2294  1.2318  1.3188
 8639SOL    HW237554   3.572   4.061   8.799 -1.1345  2.3459 -0.4645
 8640SOL     OW37555   0.324   3.527   9.896  0.4089  0.4002 -0.1260
 8640SOL    HW137556   0.327   3.452   9.837 -1.4783 -1.0061  1.5603
 8640SOL    HW237557   0.281   3.592   9.841 -0.2855  1.1094  1.2557
 8641SOL     OW37558   3.121   3.576  10.965  0.0492  0.0386 -0.1161
 8641SOL    HW137559   3.155   3.659  10.932 -1.8205 -0.0941 -2.3721
 8641SOL    HW237560   3.093   3.534  10.884  0.5051 -0.0081 -0.2474
 8642SOL     OW37561   3.905   1.023   3.604 -0.2681 -0.5330  0.3551
 8642SOL    HW137562   3.835   1.078   3.639 -1.1396 -1.4106 -0.0242
 8642SOL    HW237563   3.909   1.050   3.512 -0.0207 -2.1055 -0.0936
 8643SOL     OW37564   4.703   2.391   3.388  0.4160 -0.7446  0.2721
 8643SOL    HW137565   0.024   2.457   3.422  0.1089 -0.6396  0.6043
 8643SOL    HW237566   4.672   2.349   3.468  0.5575  1.9268  1.7251
 8644SOL     OW37567   4.730   2.866   7.012 -0.0624  0.0668 -0.4239
 8644SOL    HW137568   4.659   2.857   6.947 -1.6138 -1.8638  1.5105
 8644SOL    HW237569   0.058   2.916   6.966  1.7833 -1.2650  0.8279
 8645SOL     OW37570   3.850   2.457   4.775  0.2701 -0.0312 -0.1366
 8645SOL    HW137571   3.884   2.377   4.815  1.3064  0.9024  0.8516
 8645SOL    HW237572   3.767   2.426   4.740 -0.8168  1.2132  1.3414
 8646SOL     OW37573   3.611   0.919  13.423 -0.6567  0.7036  0.7939
 8646SOL    HW137574   3.590   0.888  13.511  1.7078  0.5158  1.2863
 8646SOL    HW237575   3.611   1.012  13.444 -1.5452  0.0657  3.5782
 8647SOL     OW37576   1.101   0.062   5.683 -0.3520  0.5455 -0.3043
 8647SOL    HW137577   1.127   0.083   5.773  0.0517  0.5811 -0.4321
 8647SOL    HW237578   1.034   4.737   5.707 -0.6552  0.2424 -1.9537
 8648SOL     OW37579   1.172   1.076  13.525  0.2510 -0.0650  0.2666
 8648SOL    HW137580   1.218   1.091  13.442  0.6831 -3.0419 -0.0527
 8648SOL    HW237581   1.084   1.110  13.512 -0.0135 -1.2472 -1.0349
 8649SOL     OW37582   2.677   2.213   1.431 -0.2503  0.3796  0.1036
 8649SOL    HW137583   2.595   2.226   1.479 -0.0654 -1.8760  1.0477
 8649SOL    HW237584   2.652   2.223   1.340  2.0186 -1.3595 -0.7267
 8650SOL     OW37585   4.058   3.670   1.069 -0.1409 -0.2625 -0.0689
 8650SOL    HW137586   4.119   3.600   1.049  0.6953 -0.3213  2.7234
 8650SOL    HW237587   4.115   3.731   1.115 -1.8449  0.3458  1.2484
 8651SOL     OW37588   1.813   2.685   3.480 -0.0372 -0.2533  0.2767
 8651SOL    HW137589   1.895   2.650   3.516  0.4342  1.4051  0.8103
 8651SOL    HW237590   1.798   2.750   3.548 -0.8235  0.8549 -0.9651
 8652SOL     OW37591   4.598   4.475  11.612  0.0439  0.1377 -0.1085
 8652SOL    HW137592   4.619   4.539  11.680 -2.3950  0.7825  0.0394
 8652SOL    HW237593   4.648   4.400  11.644  1.4637  0.2458 -2.0847
 8653SOL     OW37594   2.555   2.454   8.802 -0.3163 -0.3343 -0.7884
 8653SOL    HW137595   2.461   2.469   8.816 -0.0452  0.1958  0.5385
 8653SOL    HW237596   2.585   2.467   8.892 -0.7362 -1.1978 -0.5170
 8654SOL     OW37597   3.950   1.122   6.088 -0.2296 -0.3271 -0.0796
 8654SOL    HW137598   4.010   1.172   6.143 -0.1946  0.6665 -1.0346
 8654SOL    HW237599   3.999   1.122   6.006  1.5599 -1.3839  0.9715
 8655SOL     OW37600   2.924   1.141   9.448  0.4682 -0.3402 -0.4008
 8655SOL    HW137601   2.905   1.052   9.420  0.1142 -0.4953  0.3624
 8655SOL    HW237602   2.994   1.129   9.512  0.3105 -0.5439 -0.2669
 8656SOL     OW37603   0.373   0.690   6.246 -0.6980 -0.5728  0.0203
 8656SOL    HW137604   0.362   0.734   6.162 -1.4858  0.6850  0.7735
 8656SOL    HW237605   0.308   0.620   6.242 -0.2989 -1.2319  4.6861
 8657SOL     OW37606   1.500   1.923   6.420  0.3779 -0.1138 -0.6749
 8657SOL    HW137607   1.499   1.990   6.352 -3.1597  1.3345  0.8050
 8657SOL    HW237608   1.563   1.969   6.475 -0.3297 -1.1589  1.0319
 8658SOL     OW37609   0.677   3.892   6.898 -0.1679 -0.2239 -0.2381
 8658SOL    HW137610   0.609   3.898   6.966 -0.3197  5.2888 -0.9216
 8658SOL    HW237611   0.750   3.841   6.933  0.5778  0.3260 -1.0218
 8659SOL     OW37612   2.419   0.396  12.180  0.4125 -0.6489 -0.9638
 8659SOL    HW137613   2.495   0.338  12.180  0.6137 -0.3883  0.8711
 8659SOL    HW237614   2.425   0.441  12.265 -1.1085 -0.0223 -1.1874
 8660SOL     OW37615   3.866   0.439   5.792 -0.5816  0.4711 -0.5438
 8660SOL    HW137616   3.958   0.419   5.773 -0.9051 -2.0037  0.5581
 8660SOL    HW237617   3.884   0.500   5.864 -0.9568 -1.7432  1.4267
 8661SOL     OW37618   3.731   3.931   3.660  0.2155 -0.0244 -0.0181
 8661SOL    HW137619   3.733   4.015   3.614  1.8975 -1.5037 -2.6362
 8661SOL    HW237620   3.638   3.915   3.646 -0.3322  1.7051  1.5731
 8662SOL     OW37621   0.672   0.872  16.868  0.4480  0.5036 -0.0282
 8662SOL    HW137622   0.616   0.887  16.944  1.4923 -0.9090  1.0160
 8662SOL    HW237623   0.749   0.829  16.906 -0.1584  0.2556  0.9378
 8663SOL     OW37624   4.503   1.530   3.643  0.0910 -0.2679 -0.3421
 8663SOL    HW137625   4.465   1.493   3.563  3.1138  1.4779 -2.6247
 8663SOL    HW237626   4.559   1.456   3.665 -0.1620 -0.5308 -0.5904
 8664SOL     OW37627   3.812   0.284  12.957  0.1602 -0.5743 -0.2060
 8664SOL    HW137628   3.792   0.331  13.038  3.3836  0.2171  0.1682
 8664SOL    HW237629   3.850   0.347  12.895 -2.3085  0.8308 -0.2916
 8665SOL     OW37630   0.498   4.320   4.701  0.0114  0.4616  0.6819
 8665SOL    HW137631   0.448   4.239   4.700 -1.9180  1.6186  1.6190
 8665SOL    HW237632   0.439   4.377   4.651  0.4736  0.9042  0.6381
 8666SOL     OW37633   1.633   3.786   5.434  0.0086 -0.1054 -0.0740
 8666SOL    HW137634   1.669   3.773   5.346  0.3007 -3.8382  0.6168
 8666SOL    HW237635   1.693   3.858   5.454  2.0075 -2.8853  3.7321
 8667SOL     OW37636   3.162   1.846   3.421 -0.2360  0.0649  0.4848
 8667SOL    HW137637   3.088   1.891   3.380 -0.7962 -0.4677  0.9209
 8667SOL    HW237638   3.141   1.863   3.513  1.5488 -0.7400  1.0458
 8668SOL     OW37639   2.264   0.168   4.842  0.4375 -0.3123 -0.4430
 8668SOL    HW137640   2.193   0.134   4.895  1.7505 -1.0017  0.8774
 8668SOL    HW237641   2.308   0.086   4.818  0.2929 -0.9176  1.3848
 8669SOL     OW37642   3.921   4.468  14.492 -0.7026 -0.4264  0.2491
 8669SOL    HW137643   3.883   4.478  14.405  2.2688  0.8400 -0.9178
 8669SOL    HW237644   3.869   4.527  14.546 -0.7000 -0.0304 -0.1830
 8670SOL     OW37645   0.058   2.000   2.334 -0.3591  0.1518  0.0805
 8670SOL    HW137646   0.010   2.079   2.360  1.5884  1.2555  0.2969
 8670SOL    HW237647   0.128   1.989   2.398 -2.0846  0.4252  2.0234
 8671SOL     OW37648   3.488   4.603  17.152  0.8219  0.5451  0.3782
 8671SOL    HW137649   3.432   4.680  17.166  0.2587  0.0091  1.0592
 8671SOL    HW237650   3.566   4.636  17.196  1.1770 -2.0898  1.7117
 8672SOL     OW37651   3.016   0.601  16.969 -0.6231  0.5314  0.0620
 8672SOL    HW137652   2.963   0.662  16.918  0.0517  0.9918 -0.0946
 8672SOL    HW237653   3.031   0.524  16.914 -1.7224  0.4867 -0.1762
 8673SOL     OW37654   1.951   0.556  15.126 -0.7953  0.1011  0.1500
 8673SOL    HW137655   2.021   0.493  15.142 -1.2463 -0.7545 -1.2293
 8673SOL    HW237656   1.872   0.502  15.119 -1.9976  1.8587  0.1300
 8674SOL     OW37657   2.815   1.166   9.120 -0.3724  0.2208 -0.6859
 8674SOL    HW137658   2.902   1.145   9.156 -0.1303  0.6165 -1.0494
 8674SOL    HW237659   2.822   1.141   9.028 -2.3053 -1.9575 -0.2386
 8675SOL     OW37660   3.973   0.984   4.434  0.3727 -0.1371 -0.3499
 8675SOL    HW137661   4.053   0.980   4.486  0.4557  0.4312 -0.4402
 8675SOL    HW237662   3.964   1.075   4.407  1.3690  0.5040  1.5424
 8676SOL     OW37663   3.983   2.564   4.321 -0.1308  0.7122 -0.0512
 8676SOL    HW137664   3.902   2.517   4.302 -0.8177  1.4142  1.1663
 8676SOL    HW237665   4.013   2.566   4.229  2.2622 -2.8749  0.6211
 8677SOL     OW37666   4.525   3.291   6.469 -0.7286 -0.3091 -0.0832
 8677SOL    HW137667   4.533   3.383   6.497  2.2095 -0.1082 -1.5425
 8677SOL    HW237668   4.615   3.257   6.470 -0.4286  0.4543 -0.2523
 8678SOL     OW37669   0.473   3.635   2.145 -0.3219 -0.1619 -0.4607
 8678SOL    HW137670   0.495   3.543   2.150 -0.8748 -0.3084 -0.6574
 8678SOL    HW237671   0.546   3.679   2.103  0.1231 -1.5868 -1.1665
 8679SOL     OW37672   4.101   2.263   8.600  0.6574 -0.4594 -0.1355
 8679SOL    HW137673   4.022   2.220   8.630  0.3466 -0.0799 -0.4126
 8679SOL    HW237674   4.121   2.312   8.679 -0.2739 -2.8347  1.5483
 8680SOL     OW37675   4.549   4.702   7.191 -0.4308 -0.4969 -0.4095
 8680SOL    HW137676   4.615   0.019   7.151 -0.4999 -2.1983 -2.8651
 8680SOL    HW237677   4.477   4.726   7.133  0.0542  1.7715 -0.0561
 8681SOL     OW37678   0.979   2.119   2.423  0.0945  0.2750 -0.1297
 8681SOL    HW137679   0.955   2.182   2.491 -0.9328 -0.3723  0.1199
 8681SOL    HW237680   0.899   2.119   2.369  0.0910 -2.1360 -0.1587
 8682SOL     OW37681   4.626   1.802   6.940 -0.4653 -0.5626 -0.2492
 8682SOL    HW137682   4.643   1.829   7.031  2.2536  0.2820 -0.9959
 8682SOL    HW237683   4.633   1.892   6.907  1.3670 -0.7041 -0.2461
 8683SOL     OW37684   3.301   4.194   3.153  0.0344 -0.1516 -0.2223
 8683SOL    HW137685   3.287   4.171   3.061 -1.0264 -0.5559  0.0384
 8683SOL    HW237686   3.386   4.156   3.173 -0.4152  0.2142  2.3386
 8684SOL     OW37687   2.919   2.357  12.087 -0.1010 -0.0220  0.1533
 8684SOL    HW137688   2.998   2.342  12.140  0.8200 -0.8426 -1.4542
 8684SOL    HW237689   2.883   2.270  12.071 -0.6794  0.0740  0.9627
 8685SOL     OW37690   3.826   3.267  10.594  0.1849 -0.4060 -0.3514
 8685SOL    HW137691   3.830   3.219  10.511 -0.5605 -0.2749 -0.4662
 8685SOL    HW237692   3.811   3.353  10.554 -0.6824  0.1969  1.2866
 8686SOL     OW37693   2.422   1.100   6.105 -0.4583 -0.7550 -0.4731
 8686SOL    HW137694   2.329   1.077   6.105  0.1845 -3.4014 -2.3639
 8686SOL    HW237695   2.415   1.190   6.136  3.0613 -0.8766  0.6239
 8687SOL     OW37696   2.016   3.355   8.084  0.4058  0.2960 -0.0571
 8687SOL    HW137697   1.946   3.377   8.023  1.9792  0.4776 -1.7829
 8687SOL    HW237698   2.063   3.438   8.091 -0.6285  0.6954  2.1227
 8688SOL     OW37699   0.146   0.109   3.437  0.4341 -0.0742 -0.1540
 8688SOL    HW137700   0.091   0.063   3.500 -0.3541 -0.8883 -1.4363
 8688SOL    HW237701   0.124   0.202   3.445  0.8299 -0.0270  0.3613
 8689SOL     OW37702   2.976   3.348   6.345 -0.1802  0.6036  0.9445
 8689SOL    HW137703   3.025   3.423   6.310 -1.1741  1.2817  1.0278
 8689SOL    HW237704   2.980   3.354   6.440 -0.9523 -0.1290  1.0235
 8690SOL     OW37705   1.730   3.848  14.441 -0.0705 -0.2826 -0.1104
 8690SOL    HW137706   1.751   3.931  14.483  2.4189 -0.2981 -1.3168
 8690SOL    HW237707   1.769   3.861  14.355 -1.5221  1.9971 -0.3989
 8691SOL     OW37708   3.386   3.576   4.037 -0.3746  0.2693  0.2758
 8691SOL    HW137709   3.330   3.596   3.963 -3.0766 -0.0706  2.2556
 8691SOL    HW237710   3.322   3.572   4.107 -0.6255 -3.1431 -0.1315
 8692SOL     OW37711   0.334   0.529   3.884 -0.9401  0.0957  0.3538
 8692SOL    HW137712   0.277   0.524   3.961 -0.6281 -1.8404  0.4496
 8692SOL    HW237713   0.306   0.618   3.862 -1.9781 -0.5605 -0.9933
 8693SOL     OW37714   0.407   2.937   1.246  0.0489 -0.3600 -0.2753
 8693SOL    HW137715   0.387   2.894   1.329 -1.4245 -0.3478 -0.6301
 8693SOL    HW237716   0.501   2.920   1.243  0.0907  0.3099 -2.9646
 8694SOL     OW37717   2.488   3.435   2.486  0.2684 -0.7774 -0.4063
 8694SOL    HW137718   2.531   3.517   2.460 -2.1355 -0.4874 -3.4662
 8694SOL    HW237719   2.540   3.366   2.444 -0.7808 -0.8898 -1.5231
 8695SOL     OW37720   2.886   0.086   7.031 -0.1662  0.1558  0.1047
 8695SOL    HW137721   2.839   0.059   7.110 -0.1343 -0.1262  0.0280
 8695SOL    HW237722   2.825   0.156   7.010  1.3821  0.9690 -1.6271
 8696SOL     OW37723   4.448   0.511   2.854  0.1041  0.0549  0.0221
 8696SOL    HW137724   4.376   0.574   2.860  0.6003  0.4572  1.8653
 8696SOL    HW237725   4.469   0.479   2.942 -2.0635 -0.0781  0.4800
 8697SOL     OW37726   1.114   1.554   9.520 -0.3345 -0.2612  0.1178
 8697SOL    HW137727   1.115   1.608   9.599  0.7042 -1.6943  1.0837
 8697SOL    HW237728   1.209   1.544   9.508  0.1430  0.4831  3.1679
 8698SOL     OW37729   3.088   2.004   7.109  0.1308  0.6411 -0.3825
 8698SOL    HW137730   3.028   2.060   7.157 -0.8461 -0.1067 -0.7358
 8698SOL    HW237731   3.114   2.055   7.033  0.6083  2.2126  0.8349
 8699SOL     OW37732   1.783   3.318   9.966  0.2649  0.0965 -0.2125
 8699SOL    HW137733   1.868   3.350   9.995  0.7136 -2.1189  0.9008
 8699SOL    HW237734   1.767   3.238  10.016  0.4833  0.8488  1.0580
 8700SOL     OW37735   1.635   1.109  15.288  0.1028 -0.0860  0.4882
 8700SOL    HW137736   1.713   1.084  15.239  0.5153 -1.1538  1.6719
 8700SOL    HW237737   1.677   1.179  15.339 -1.9016  1.5745 -0.1556
 8701SOL     OW37738   0.960   1.080   6.905 -0.5206 -0.3683  0.2766
 8701SOL    HW137739   1.046   1.072   6.864 -0.2971 -1.3805  0.9370
 8701SOL    HW237740   0.931   1.164   6.868 -2.4150 -2.4693 -3.0405
 8702SOL     OW37741   1.258   0.997   9.492  0.5016  0.5380 -0.0082
 8702SOL    HW137742   1.239   1.068   9.430  0.4562  0.9517  0.4746
 8702SOL    HW237743   1.192   1.025   9.556 -1.7419 -2.4829 -0.9971
 8703SOL     OW37744   3.749   2.689   3.191  0.8667 -0.3283 -0.1875
 8703SOL    HW137745   3.692   2.707   3.116  1.5788 -0.9718 -0.8902
 8703SOL    HW237746   3.707   2.742   3.258 -1.1153 -2.3234  0.1461
 8704SOL     OW37747   4.018   0.929   7.919  0.2836  0.8514  0.0124
 8704SOL    HW137748   4.038   0.926   8.013  0.7312  1.6214 -0.0561
 8704SOL    HW237749   3.938   0.981   7.924 -1.1740 -1.3065 -0.9156
 8705SOL     OW37750   0.750   4.040   8.811  0.0827 -0.3561  0.1974
 8705SOL    HW137751   0.676   4.019   8.752 -0.3320 -1.4040  1.0911
 8705SOL    HW237752   0.732   3.966   8.869 -0.8379 -2.6499 -2.9893
 8706SOL     OW37753   1.063   1.084   9.665 -0.2319 -0.1875  0.4583
 8706SOL    HW137754   0.998   1.149   9.639 -0.8231 -0.6199  0.8714
 8706SOL    HW237755   1.012   1.035   9.729  0.8345  0.4912  1.8285
 8707SOL     OW37756   2.421   3.799   5.693 -0.6308  0.2367  0.0451
 8707SOL    HW137757   2.395   3.875   5.745  0.7082  1.9851 -1.8777
 8707SOL    HW237758   2.334   3.773   5.661 -0.7716 -0.3070  0.8512
 8708SOL     OW37759   1.582   4.546   6.181  0.7212  0.4469  0.4501
 8708SOL    HW137760   1.491   4.523   6.199  0.9201 -1.1416 -0.6170
 8708SOL    HW237761   1.620   4.557   6.269 -3.2600 -1.5966  2.3965
 8709SOL     OW37762   4.026   1.774  16.627 -0.5638 -0.2992  0.3852
 8709SOL    HW137763   4.013   1.695  16.574 -1.3853 -0.3963  0.7293
 8709SOL    HW237764   3.978   1.825  16.562  2.6081 -0.1868 -1.8623
 8710SOL     OW37765   2.914   2.082  12.062 -0.1489 -0.3056 -0.0586
 8710SOL    HW137766   2.861   2.017  12.017  2.5365 -1.4486 -1.5621
 8710SOL    HW237767   2.968   2.103  11.986 -2.2252 -0.0972 -1.4658
 8711SOL     OW37768   2.822   1.457   5.327  0.0827  0.2110 -0.1950
 8711SOL    HW137769   2.790   1.370   5.302 -1.9021  0.3803  1.7871
 8711SOL    HW237770   2.890   1.435   5.391 -1.0612  1.6955  1.5138
 8712SOL     OW37771   4.547   0.906  12.366  0.3692 -0.6687 -0.2407
 8712SOL    HW137772   4.521   0.956  12.288  2.3967 -2.3457 -1.9743
 8712SOL    HW237773   4.641   0.921  12.370  0.1071  0.3820  1.7891
 8713SOL     OW37774   1.595   1.512   8.074 -0.2353  0.2667 -0.2716
 8713SOL    HW137775   1.534   1.503   8.000  2.1476 -3.3179 -1.7791
 8713SOL    HW237776   1.598   1.608   8.081  0.8771  0.3377 -1.7442
 8714SOL     OW37777   1.849   3.565   4.889  0.1138  0.6530 -0.1367
 8714SOL    HW137778   1.859   3.620   4.966  0.4978  1.1222 -0.5222
 8714SOL    HW237779   1.897   3.486   4.914 -2.7385 -0.6316  1.3446
 8715SOL     OW37780   0.148   1.049   6.612 -0.6156  0.2986  0.4479
 8715SOL    HW137781   0.202   1.128   6.613  0.3559 -0.3483 -0.7903
 8715SOL    HW237782   0.180   1.007   6.692 -1.0293 -2.9271 -1.0648
 8716SOL     OW37783   3.943   3.765   6.993 -0.2091 -0.5518  0.0716
 8716SOL    HW137784   3.857   3.806   6.983 -0.7524 -1.7197  0.0171
 8716SOL    HW237785   3.925   3.679   6.957  0.3684 -0.5839 -0.1497
 8717SOL     OW37786   4.393   3.976   4.186  0.2292 -0.3995  0.0232
 8717SOL    HW137787   4.478   4.013   4.165  0.3460 -0.4383  0.4269
 8717SOL    HW237788   4.369   4.014   4.270 -1.7259  0.5061 -0.9553
 8718SOL     OW37789   4.721   1.331   0.051 -0.1513  0.4566 -0.4300
 8718SOL    HW137790   4.628   1.330   0.031 -0.4142 -0.8263  0.8915
 8718SOL    HW237791   0.014   1.386  17.733 -2.4851  1.1963 -0.9057
 8719SOL     OW37792   1.795   1.195  11.086  0.5203  0.8335  0.2442
 8719SOL    HW137793   1.705   1.163  11.098  1.0330 -0.3027  1.0081
 8719SOL    HW237794   1.849   1.157  11.155  1.1076  0.0220 -0.6715
 8720SOL     OW37795   3.720   2.695   4.566  0.2557 -0.4229  0.5784
 8720SOL    HW137796   3.660   2.678   4.639 -0.6477 -0.5335 -0.1881
 8720SOL    HW237797   3.805   2.684   4.609  0.5658  0.7086  0.2649
 8721SOL     OW37798   3.219   1.334   5.267 -0.2350  0.4368 -0.5248
 8721SOL    HW137799   3.209   1.279   5.344 -0.0719  0.0816 -0.7598
 8721SOL    HW237800   3.151   1.293   5.213 -0.6142 -2.5820  2.2943
 8722SOL     OW37801   2.840   0.093   4.817  0.1315 -0.6070 -0.0612
 8722SOL    HW137802   2.785   0.073   4.892  0.7555  0.7131  0.7456
 8722SOL    HW237803   2.775   0.096   4.746  0.9233 -1.9284 -0.8494
 8723SOL     OW37804   0.425   3.978   7.669 -0.3840  0.6489  0.3413
 8723SOL    HW137805   0.434   4.038   7.743  0.4424  0.7718  0.1425
 8723SOL    HW237806   0.430   3.889   7.703 -0.1580 -0.1520 -1.8005
 8724SOL     OW37807   4.117   1.561   5.825 -0.0095 -0.3697  0.0911
 8724SOL    HW137808   4.172   1.493   5.865  1.3262  1.0850  0.7213
 8724SOL    HW237809   4.033   1.515   5.833  0.6776 -1.3137  1.8554
 8725SOL     OW37810   2.863   1.183   4.365  0.2449  0.1879 -0.8339
 8725SOL    HW137811   2.836   1.275   4.355  3.2694  1.2403  0.6196
 8725SOL    HW237812   2.858   1.152   4.275  0.7528  0.9661 -1.1365
 8726SOL     OW37813   0.964   3.232   7.716 -0.1446 -0.2048  0.1629
 8726SOL    HW137814   1.005   3.192   7.793  1.2206 -0.7101 -0.8447
 8726SOL    HW237815   0.964   3.156   7.659 -1.3815 -0.7740  0.9147
 8727SOL     OW37816   1.526   3.345   6.414 -0.2403  0.4852 -0.2293
 8727SOL    HW137817   1.504   3.411   6.479 -0.2817 -0.3336  0.5771
 8727SOL    HW237818   1.557   3.279   6.475 -1.5121 -0.5014 -0.6369
 8728SOL     OW37819   2.749   3.249   3.026  0.5767  0.0713 -0.3497
 8728SOL    HW137820   2.685   3.320   3.032  0.6188  0.0955 -0.1919
 8728SOL    HW237821   2.710   3.180   3.079 -1.0099  1.8335  0.7575
 8729SOL     OW37822   1.322   4.021   1.265  0.7412 -0.1290 -0.6370
 8729SOL    HW137823   1.299   4.028   1.172  2.1705 -2.4361 -1.1606
 8729SOL    HW237824   1.244   4.055   1.310 -0.6988 -0.8028 -2.6310
 8730SOL     OW37825   1.063   2.952   1.687  0.2786 -1.4924  0.3052
 8730SOL    HW137826   1.123   2.977   1.758 -0.6207  1.2208  0.1089
 8730SOL    HW237827   1.040   3.036   1.647 -0.4865 -0.7958  2.1696
 8731SOL     OW37828   3.990   0.281   3.224  0.0816  0.0608 -0.2381
 8731SOL    HW137829   3.909   0.327   3.201 -0.3440 -0.5735 -0.0150
 8731SOL    HW237830   4.044   0.325   3.158  0.2006 -1.7044 -1.3310
 8732SOL     OW37831   3.444   3.584   8.563 -0.5609  0.6638  0.1512
 8732SOL    HW137832   3.436   3.552   8.473  0.9160 -2.1513  1.0196
 8732SOL    HW237833   3.400   3.669   8.559 -0.1728  0.9053  0.9973
 8733SOL     OW37834   4.201   2.291   0.767  0.0940  0.0331 -0.0912
 8733SOL    HW137835   4.233   2.234   0.837  2.3931  0.3239 -0.8962
 8733SOL    HW237836   4.150   2.227   0.718  0.3502  0.5284 -1.0054
 8734SOL     OW37837   3.453   1.698  15.862  0.4292 -0.4773 -0.1526
 8734SOL    HW137838   3.424   1.779  15.904 -1.1858 -1.3775  0.4523
 8734SOL    HW237839   3.548   1.711  15.868  0.3633  0.1343 -0.3711
 8735SOL     OW37840   4.627   4.466   1.848  0.1933  0.2068 -0.4945
 8735SOL    HW137841   4.646   4.520   1.771  1.5124 -0.2356 -0.4847
 8735SOL    HW237842   4.536   4.485   1.869  0.0260 -2.4450  1.0568
 8736SOL     OW37843   3.520   2.359   3.589 -0.2239 -0.0926  0.3518
 8736SOL    HW137844   3.521   2.453   3.606  3.3693 -0.2072  0.7945
 8736SOL    HW237845   3.446   2.322   3.638 -1.1209  0.4925 -0.5521
 8737SOL     OW37846   4.153   1.248   2.730  0.1273  0.8211 -0.6445
 8737SOL    HW137847   4.111   1.178   2.780  1.4000 -0.8773 -1.9275
 8737SOL    HW237848   4.084   1.305   2.697 -2.1170 -2.7708 -2.1952
 8738SOL     OW37849   4.237   4.523   5.605  0.4782 -0.3577  0.1699
 8738SOL    HW137850   4.317   4.474   5.588  1.2432  1.1891 -0.5800
 8738SOL    HW237851   4.205   4.535   5.515  0.0730 -0.8085  0.2511
 8739SOL     OW37852   4.286   0.084  13.262  0.3574  0.3570  0.4708
 8739SOL    HW137853   4.283   0.006  13.318 -0.0359  0.5356  0.6965
 8739SOL    HW237854   4.224   0.066  13.192  0.0330 -0.1535  0.8901
 8740SOL     OW37855   2.889   3.338   9.450 -0.5781 -0.5404 -0.0604
 8740SOL    HW137856   2.955   3.280   9.413 -2.2345 -2.6035  0.1868
 8740SOL    HW237857   2.909   3.420   9.405  1.3880 -1.0361 -0.0481
 8741SOL     OW37858   3.344   2.182   3.742  0.3494  0.5241  0.4579
 8741SOL    HW137859   3.368   2.090   3.747  0.7289  0.5647 -0.6060
 8741SOL    HW237860   3.338   2.219   3.830 -1.6524  0.5001  0.3217
 8742SOL     OW37861   3.737   2.237   4.491 -0.0546  0.4026 -0.5553
 8742SOL    HW137862   3.692   2.299   4.548  3.5408  2.1438  0.3294
 8742SOL    HW237863   3.799   2.288   4.438  1.4994  0.3456  1.2350
 8743SOL     OW37864   3.755   3.147   3.308  0.1732 -0.1557 -0.4402
 8743SOL    HW137865   3.766   3.200   3.230 -2.3674  0.6307 -0.2674
 8743SOL    HW237866   3.700   3.212   3.353  0.2983 -0.1238 -0.3342
 8744SOL     OW37867   3.191   0.672   1.919  0.7274 -0.1362  0.0637
 8744SOL    HW137868   3.216   0.755   1.877  0.9629  0.0743  0.6195
 8744SOL    HW237869   3.096   0.664   1.909  0.9610 -1.1091 -1.3301
 8745SOL     OW37870   0.495   0.233   2.714  0.5309  0.6290  0.0186
 8745SOL    HW137871   0.479   0.156   2.660 -0.5153  0.4907  0.5143
 8745SOL    HW237872   0.488   0.196   2.802 -1.2631  0.3975 -0.2131
 8746SOL     OW37873   2.095   0.146   8.436 -0.2486  0.3018 -0.2115
 8746SOL    HW137874   2.073   0.132   8.528 -2.3317  2.9149 -0.3055
 8746SOL    HW237875   2.129   0.235   8.434  0.4731 -0.0370 -3.0233
 8747SOL     OW37876   1.839   2.710   7.503 -0.2216 -0.2040 -0.1606
 8747SOL    HW137877   1.930   2.732   7.480  0.4261 -1.1179  1.5217
 8747SOL    HW237878   1.867   2.624   7.534 -1.7982 -0.5404  0.3094
 8748SOL     OW37879   2.772   4.709   8.420  0.0478 -0.3918  0.7819
 8748SOL    HW137880   2.737   4.632   8.376  0.2578  1.8688 -3.2772
 8748SOL    HW237881   2.856   4.714   8.374 -0.7442 -1.0483 -0.7321
 8749SOL     OW37882   1.789   0.988  13.184 -0.0777 -0.6079  0.4534
 8749SOL    HW137883   1.754   1.044  13.115 -2.1516  0.6503  2.5175
 8749SOL    HW237884   1.775   0.906  13.138  1.0508 -0.6009  0.0928
 8750SOL     OW37885   4.098   2.375   6.843  0.2218 -0.5916  0.7130
 8750SOL    HW137886   4.082   2.290   6.885 -0.1757 -2.2811 -2.7606
 8750SOL    HW237887   4.192   2.367   6.827  0.5853  2.1545  1.5331
 8751SOL     OW37888   0.980   0.442   5.952 -0.4199 -0.4386  0.2617
 8751SOL    HW137889   0.995   0.359   5.996  1.3213  0.4141  1.2546
 8751SOL    HW237890   1.041   0.497   6.002  0.5720 -1.5085  0.2099
 8752SOL     OW37891   3.626   4.231   7.257 -0.4257 -0.1371 -0.2422
 8752SOL    HW137892   3.540   4.191   7.272 -0.9962  1.1471 -0.1275
 8752SOL    HW237893   3.589   4.306   7.210 -0.1386  0.0973 -0.0879
 8753SOL     OW37894   2.134   3.646   9.419 -0.0946 -0.5011  0.0565
 8753SOL    HW137895   2.221   3.683   9.435 -0.1703  0.7405 -2.4567
 8753SOL    HW237896   2.149   3.555   9.395 -1.1158 -0.5039 -0.6053
 8754SOL     OW37897   1.756   0.472   2.169 -0.1095 -0.1446  0.0773
 8754SOL    HW137898   1.818   0.530   2.214 -0.2746  0.4735 -0.4980
 8754SOL    HW237899   1.780   0.396   2.223 -0.8205  0.2881  1.0060
 8755SOL     OW37900   1.733   3.169   4.870 -0.4965  0.3435 -0.4413
 8755SOL    HW137901   1.799   3.117   4.915 -0.3639  0.9979  0.1312
 8755SOL    HW237902   1.722   3.118   4.790  1.1385 -2.0606  0.8773
 8756SOL     OW37903   1.020   3.526   9.365  0.9876  0.0717  0.0958
 8756SOL    HW137904   1.041   3.613   9.399 -0.0645  0.4253 -0.1645
 8756SOL    HW237905   1.042   3.539   9.273 -1.1606  1.2152 -0.2631
 8757SOL     OW37906   1.986   0.771   4.140  0.1525 -0.0660  0.1123
 8757SOL    HW137907   1.919   0.705   4.125 -2.5877  2.8904 -0.6601
 8757SOL    HW237908   1.976   0.795   4.232  0.5674  0.4737  0.0164
 8758SOL     OW37909   0.279   1.655   6.871  0.0056 -0.4227  0.5446
 8758SOL    HW137910   0.350   1.619   6.925 -0.1203 -1.6439 -0.1123
 8758SOL    HW237911   0.298   1.749   6.873  2.1227 -0.8674  1.3409
 8759SOL     OW37912   1.367   4.129   5.698  0.0819  0.1350  0.5219
 8759SOL    HW137913   1.422   4.193   5.653 -3.3239  0.4251 -3.2072
 8759SOL    HW237914   1.305   4.114   5.627  0.9889 -3.0515  0.4175
 8760SOL     OW37915   1.728   1.659   5.197  0.3067  0.2320  0.4086
 8760SOL    HW137916   1.643   1.694   5.225  0.4421  1.2126 -0.4112
 8760SOL    HW237917   1.732   1.578   5.247  0.6492  0.1749  0.2845
 8761SOL     OW37918   0.658   0.471  16.790  1.0948 -0.2105 -0.2671
 8761SOL    HW137919   0.679   0.518  16.709 -1.7006 -1.4138 -1.6873
 8761SOL    HW237920   0.743   0.456  16.832  0.8294 -1.3296 -0.1419
 8762SOL     OW37921   0.109   3.705   5.380 -0.1992  0.3738  0.1514
 8762SOL    HW137922   0.168   3.776   5.355  1.7443 -1.0052  0.8800
 8762SOL    HW237923   0.020   3.740   5.374 -0.0282  0.6624 -0.6694
 8763SOL     OW37924   2.205   2.201   4.540  0.2328 -0.3341  0.3083
 8763SOL    HW137925   2.158   2.235   4.616 -0.4007 -0.6880  0.0794
 8763SOL    HW237926   2.133   2.145   4.509 -0.5848  0.7348  0.2694
 8764SOL     OW37927   1.786   0.720   7.705 -0.5236  0.0639  0.2687
 8764SOL    HW137928   1.854   0.667   7.663  0.3390  1.7793 -0.5031
 8764SOL    HW237929   1.820   0.806   7.682 -1.5239  0.1995 -0.6753
 8765SOL     OW37930   0.730   2.065   6.686  0.2122  0.6898 -0.5179
 8765SOL    HW137931   0.812   2.055   6.734  0.3791  0.4878 -0.8440
 8765SOL    HW237932   0.735   1.992   6.623  1.8246  0.6970 -0.3788
 8766SOL     OW37933   3.000   4.109   8.962 -0.4497 -0.0838  0.1577
 8766SOL    HW137934   3.026   4.017   8.968 -0.5078 -0.3220 -3.5537
 8766SOL    HW237935   2.923   4.106   8.905 -0.7608 -0.9285  0.6137
 8767SOL     OW37936   2.575   2.096  13.064  0.1650 -0.3353 -0.2790
 8767SOL    HW137937   2.537   2.027  13.011  0.1048 -1.1064  0.7666
 8767SOL    HW237938   2.601   2.045  13.140  0.7262  1.3364  0.6619
 8768SOL     OW37939   3.833   2.397  12.236 -0.5604  0.0962 -0.1669
 8768SOL    HW137940   3.903   2.334  12.250 -0.5945 -0.2842 -1.6574
 8768SOL    HW237941   3.757   2.339  12.226 -0.8305  0.2136  1.2202
 8769SOL     OW37942   1.930   0.136   5.600  0.0852 -0.7560 -0.3206
 8769SOL    HW137943   2.022   0.113   5.614  0.2970 -0.3391 -1.0371
 8769SOL    HW237944   1.920   0.213   5.657  0.8810 -1.2671  0.5226
 8770SOL     OW37945   4.495   2.303   3.071  0.4415  0.1192  0.1877
 8770SOL    HW137946   4.505   2.381   3.015  1.7237 -0.6271 -0.6202
 8770SOL    HW237947   4.583   2.296   3.109  0.3196 -2.3611 -0.0246
 8771SOL     OW37948   3.998   0.096   4.957 -0.1794  0.5259  0.7089
 8771SOL    HW137949   3.966   0.009   4.933 -1.1682  0.9467  0.5044
 8771SOL    HW237950   3.994   0.100   5.053  2.0090 -0.4367  0.8598
 8772SOL     OW37951   4.151   2.220   9.116  0.2746 -0.2457 -0.6788
 8772SOL    HW137952   4.212   2.282   9.157 -1.2106  1.9096 -1.7129
 8772SOL    HW237953   4.067   2.256   9.145  0.2583 -0.6236 -0.2497
 8773SOL     OW37954   3.759   1.632   7.673  1.5857 -0.6442 -0.0212
 8773SOL    HW137955   3.691   1.699   7.677  0.9645 -1.2112 -1.0161
 8773SOL    HW237956   3.800   1.636   7.760 -2.2410 -1.6789  1.8558
 8774SOL     OW37957   0.105   1.661  13.105 -0.7794  0.2614  0.1945
 8774SOL    HW137958   0.036   1.710  13.061 -1.6235 -2.4093 -1.4315
 8774SOL    HW237959   0.062   1.626  13.183 -0.1774 -0.3164  0.2694
 8775SOL     OW37960   4.075   1.420   4.677  0.2197 -0.3182  0.2448
 8775SOL    HW137961   4.113   1.444   4.762  0.6145 -0.1051  0.0123
 8775SOL    HW237962   4.141   1.368   4.630  0.5855  0.5874 -0.2577
 8776SOL     OW37963   3.755   1.648   2.809 -0.1860  0.5299 -0.0191
 8776SOL    HW137964   3.673   1.624   2.767  0.2416 -1.2954  0.1927
 8776SOL    HW237965   3.800   1.683   2.732  0.6502 -1.6082 -0.5083
 8777SOL     OW37966   3.831   4.562  16.355  0.2915  0.0162 -0.2414
 8777SOL    HW137967   3.865   4.487  16.307  0.4067 -1.0964  1.5822
 8777SOL    HW237968   3.754   4.520  16.393  0.1071  0.1292 -0.4884
 8778SOL     OW37969   0.270   3.444  12.270  0.1779  0.0248  0.3910
 8778SOL    HW137970   0.196   3.390  12.242  1.9956 -2.3401  0.1735
 8778SOL    HW237971   0.338   3.387  12.306  1.1067 -1.7160 -4.1214
 8779SOL     OW37972   1.108   4.023   6.400 -0.6799  0.2764  0.1622
 8779SOL    HW137973   1.168   4.051   6.469 -1.6874  0.8003  0.8394
 8779SOL    HW237974   1.174   4.008   6.333  0.5130  0.8854  1.1953
 8780SOL     OW37975   2.902   3.741   1.913  0.5788 -0.2335  0.3021
 8780SOL    HW137976   2.836   3.803   1.881  0.2027  0.3789  2.2694
 8780SOL    HW237977   2.869   3.704   1.995 -0.9145 -1.1716 -0.7288
 8781SOL     OW37978   1.877   4.190  10.887 -0.1973 -0.3028 -0.7560
 8781SOL    HW137979   1.877   4.272  10.936 -2.3666 -0.2189 -0.9089
 8781SOL    HW237980   1.951   4.149  10.932  1.2920  1.2872 -1.7327
 8782SOL     OW37981   2.994   4.651   7.877 -0.1051 -0.5855  0.1855
 8782SOL    HW137982   3.051   4.590   7.925  0.8267 -0.5345 -0.8568
 8782SOL    HW237983   3.063   4.702   7.835 -0.0992 -1.1094 -0.4385
 8783SOL     OW37984   3.123   3.590   6.340  0.1662 -0.1648  0.0446
 8783SOL    HW137985   3.191   3.532   6.375  0.5829  0.3453  0.0937
 8783SOL    HW237986   3.165   3.606   6.256  0.3769  0.2487  0.2252
 8784SOL     OW37987   2.831   2.465   9.785 -0.1542 -0.1651 -0.1607
 8784SOL    HW137988   2.815   2.370   9.789  0.3521 -0.3649 -3.0861
 8784SOL    HW237989   2.783   2.491   9.707 -2.4694 -0.6466  1.0962
 8785SOL     OW37990   2.049   3.727   6.326 -0.4356  0.2372 -0.8016
 8785SOL    HW137991   2.024   3.806   6.374 -1.4061  0.2876 -1.3846
 8785SOL    HW237992   2.143   3.739   6.319 -0.3544 -0.0423 -0.1725
 8786SOL     OW37993   0.837   2.088   9.768 -0.3601  0.0505  0.3948
 8786SOL    HW137994   0.907   2.150   9.786  0.4717 -0.6237 -0.5241
 8786SOL    HW237995   0.775   2.117   9.835 -0.0868 -0.5207  0.8987
 8787SOL     OW37996   3.811   1.942   8.017  0.1919  0.4551  0.1019
 8787SOL    HW137997   3.725   1.944   8.060 -0.0952  1.6270 -0.5357
 8787SOL    HW237998   3.864   2.000   8.072 -0.9256 -0.8275  2.5355
 8788SOL     OW37999   3.943   1.534   8.431  0.3899  0.2169  0.2351
 8788SOL    HW138000   3.949   1.630   8.432 -2.3715  0.4006 -0.3520
 8788SOL    HW238001   3.875   1.513   8.495  1.9824  0.7324  2.1086
 8789SOL     OW38002   1.509   4.247  10.770  0.2522  0.1684  0.5201
 8789SOL    HW138003   1.447   4.267  10.700  2.6879 -1.3281 -2.0896
 8789SOL    HW238004   1.556   4.330  10.772 -2.9747  1.9775  1.6027
 8790SOL     OW38005   2.363   4.211   6.338  0.2323  0.1007 -0.0297
 8790SOL    HW138006   2.372   4.168   6.423 -1.3841 -2.3772 -1.0970
 8790SOL    HW238007   2.269   4.223   6.344  0.1872 -0.8512  1.2254
 8791SOL     OW38008   1.482   3.909   9.114 -0.1562  0.6413 -0.5651
 8791SOL    HW138009   1.578   3.916   9.118 -0.1634  0.9773 -0.8884
 8791SOL    HW238010   1.468   3.982   9.053  0.2994  2.0425  1.0136
 8792SOL     OW38011   1.767   2.149   2.687 -0.3374  0.4051 -0.3004
 8792SOL    HW138012   1.857   2.158   2.717 -0.5993  1.5580  0.1282
 8792SOL    HW238013   1.719   2.137   2.770  3.5148 -1.4334  1.6582
 8793SOL     OW38014   2.633   2.494   9.624 -0.2441  0.1379  0.4417
 8793SOL    HW138015   2.620   2.471   9.532 -2.7365 -1.6646  1.2456
 8793SOL    HW238016   2.619   2.589   9.625  1.3663  0.3826 -0.2592
 8794SOL     OW38017   2.511   1.906   4.667 -0.0787  0.4390  0.4955
 8794SOL    HW138018   2.477   1.942   4.585  1.0403 -1.0351 -0.6300
 8794SOL    HW238019   2.502   1.983   4.723 -3.1400  1.4330 -1.3564
 8795SOL     OW38020   3.139   0.915  13.077 -0.6459  1.1305  0.3861
 8795SOL    HW138021   3.065   0.857  13.093  0.1870 -0.4695 -1.5796
 8795SOL    HW238022   3.189   0.907  13.159  1.1323  2.4702 -0.5744
 8796SOL     OW38023   2.117   3.105   2.621  0.0034 -0.1886 -0.2941
 8796SOL    HW138024   2.036   3.054   2.621 -0.0783 -0.0535  0.8289
 8796SOL    HW238025   2.115   3.144   2.533  2.3618  0.4272 -0.0642
 8797SOL     OW38026   4.268   0.067   8.332  0.0142 -0.6082  0.0345
 8797SOL    HW138027   4.274   0.162   8.321 -2.3722 -0.6906 -1.9494
 8797SOL    HW238028   4.173   0.058   8.333  0.0198 -0.5135  1.1493
 8798SOL     OW38029   4.713   0.305   2.354 -0.3654  0.0851 -0.4588
 8798SOL    HW138030   4.630   0.273   2.319 -0.5277  0.8685 -0.7992
 8798SOL    HW238031   4.690   0.352   2.434 -0.1870 -1.5390  0.5323
 8799SOL     OW38032   1.622   0.606   8.114  0.7930 -0.5772 -0.0419
 8799SOL    HW138033   1.587   0.524   8.077  3.5542 -1.6887 -0.1540
 8799SOL    HW238034   1.672   0.572   8.188  0.8797 -0.5763 -0.1011
 8800SOL     OW38035   2.785   1.171   8.303  0.0966 -0.2176  0.0021
 8800SOL    HW138036   2.709   1.227   8.317  0.8753  0.7366  0.4095
 8800SOL    HW238037   2.742   1.111   8.241 -1.0408  0.4248  0.1603
 8801SOL     OW38038   4.006   0.631   2.985  0.5807 -0.2966 -0.0802
 8801SOL    HW138039   3.934   0.581   3.022 -1.0800  1.5796 -0.7400
 8801SOL    HW238040   4.026   0.568   2.915  1.1965  0.4442 -0.5777
 8802SOL     OW38041   3.534   2.436   8.505  0.0630 -0.1763 -0.5557
 8802SOL    HW138042   3.471   2.443   8.433 -2.0791 -1.4828  1.2072
 8802SOL    HW238043   3.587   2.514   8.486  0.0389  0.2593  1.2187
 8803SOL     OW38044   3.873   1.851  16.431  0.0421  0.2469 -0.4993
 8803SOL    HW138045   3.907   1.860  16.342 -0.8215  1.9228 -0.6548
 8803SOL    HW238046   3.784   1.844  16.397 -1.1404  0.8111  2.4789
 8804SOL     OW38047   0.703   2.371   7.925  0.5793 -0.4211  0.4242
 8804SOL    HW138048   0.723   2.354   8.017  0.4012  0.4668  0.6297
 8804SOL    HW238049   0.609   2.353   7.930  0.6041 -0.1520  1.9261
 8805SOL     OW38050   4.139   3.481   3.388  0.6657 -0.3290  0.4247
 8805SOL    HW138051   4.179   3.567   3.373  1.2124 -0.5225  0.7568
 8805SOL    HW238052   4.203   3.450   3.452  0.8009  1.6385  1.2358
 8806SOL     OW38053   0.364   1.369   1.544 -0.1648 -0.3266  0.0811
 8806SOL    HW138054   0.386   1.456   1.509  0.1701 -0.0404  0.9982
 8806SOL    HW238055   0.374   1.317   1.465 -1.2893 -0.6130  0.1235
 8807SOL     OW38056   1.638   2.461  12.736 -0.1455 -0.5789  0.4180
 8807SOL    HW138057   1.627   2.415  12.653  0.6757  1.5285 -0.8329
 8807SOL    HW238058   1.556   2.511  12.731 -0.5983 -1.3823 -0.2971
 8808SOL     OW38059   4.203   2.114   2.109  0.2920  0.3622 -0.0983
 8808SOL    HW138060   4.209   2.136   2.016  0.6623 -1.4658 -0.5146
 8808SOL    HW238061   4.287   2.143   2.144  0.5527 -1.2986  0.6655
 8809SOL     OW38062   1.781   1.302   5.686 -0.5822 -0.5200 -0.0252
 8809SOL    HW138063   1.693   1.325   5.717  0.3465  0.6625  1.7359
 8809SOL    HW238064   1.822   1.341   5.763 -0.8937  2.8564 -1.5772
 8810SOL     OW38065   3.218   1.989   7.934 -0.7561  0.4273  0.0564
 8810SOL    HW138066   3.191   1.955   8.020  3.4651 -2.1444  0.3323
 8810SOL    HW238067   3.228   1.910   7.882 -0.6447  0.7846 -0.4710
 8811SOL     OW38068   1.338   3.388   5.089  0.9403 -0.1871 -0.6955
 8811SOL    HW138069   1.327   3.478   5.057 -1.5153 -0.1136  0.3346
 8811SOL    HW238070   1.404   3.366   5.024  2.4673 -0.4840  0.9609
 8812SOL     OW38071   2.884   1.703   1.357  0.6598 -0.4497  0.3195
 8812SOL    HW138072   2.958   1.673   1.409  1.6064  0.0996 -0.7243
 8812SOL    HW238073   2.905   1.796   1.350  1.9483 -0.6939  0.9408
 8813SOL     OW38074   4.651   0.591  16.649  0.5562 -0.2148  0.5185
 8813SOL    HW138075   4.582   0.537  16.686  0.2222  0.5592  1.0263
 8813SOL    HW238076   4.683   0.540  16.574 -1.2061 -1.2051  0.4362
 8814SOL     OW38077   1.346   3.566   5.366 -0.6505 -0.1436  0.3365
 8814SOL    HW138078   1.441   3.560   5.360 -0.6270 -0.0459  0.6335
 8814SOL    HW238079   1.328   3.630   5.297 -4.8941 -1.9236 -0.2415
 8815SOL     OW38080   0.556   1.389  15.552 -0.3070 -0.3288  0.8589
 8815SOL    HW138081   0.490   1.335  15.595 -0.1539  0.1837  1.7310
 8815SOL    HW238082   0.507   1.471  15.553 -0.7680 -0.6125  1.9381
 8816SOL     OW38083   3.901   2.503  13.083  0.2179 -0.2288  0.0536
 8816SOL    HW138084   3.820   2.530  13.126  0.2612 -0.6044  0.3730
 8816SOL    HW238085   3.891   2.542  12.996  0.6761 -0.8106 -0.2637
 8817SOL     OW38086   1.898   2.521   5.796 -0.0054 -0.5134 -0.6014
 8817SOL    HW138087   1.818   2.518   5.743 -1.2536 -0.1660  1.2425
 8817SOL    HW238088   1.939   2.589   5.743  2.4020 -0.7052  1.0412
 8818SOL     OW38089   2.031   1.835   1.291 -0.1679  0.2580 -0.5559
 8818SOL    HW138090   1.988   1.752   1.269 -0.7086 -0.1748  2.1574
 8818SOL    HW238091   2.050   1.866   1.203 -0.8833  5.0777  0.9749
 8819SOL     OW38092   3.849   1.832   6.015 -0.5052 -0.0847  0.7272
 8819SOL    HW138093   3.769   1.781   6.003  0.0917 -0.4948 -1.5143
 8819SOL    HW238094   3.826   1.885   6.091 -2.0728 -0.3350  0.4253
 8820SOL     OW38095   1.902   3.007   7.549 -0.1275 -0.2045  0.7901
 8820SOL    HW138096   1.986   2.984   7.589  1.0236  1.2180 -0.7988
 8820SOL    HW238097   1.923   2.963   7.467  1.0850  0.0353  0.9678
 8821SOL     OW38098   2.485   0.308   6.308 -0.0816  0.1856  0.2959
 8821SOL    HW138099   2.411   0.258   6.341 -0.3520 -0.0044 -0.5913
 8821SOL    HW238100   2.449   0.338   6.224 -0.2271  0.3730  0.4260
 8822SOL     OW38101   0.671   1.549   9.498  0.0507  0.9679  0.1376
 8822SOL    HW138102   0.658   1.499   9.579  1.5081  0.3372 -0.0258
 8822SOL    HW238103   0.589   1.586   9.467  0.2184  0.6230 -0.7093
 8823SOL     OW38104   2.670   0.766   2.897 -0.2714 -0.1509 -0.3843
 8823SOL    HW138105   2.725   0.701   2.942  0.4267 -0.3672 -1.5606
 8823SOL    HW238106   2.710   0.754   2.811  1.6991 -0.4014  0.5492
 8824SOL     OW38107   3.196   1.945   5.670 -0.0646  0.4334 -0.0930
 8824SOL    HW138108   3.122   1.992   5.630  0.1708 -0.0800 -1.1360
 8824SOL    HW238109   3.262   1.933   5.602 -0.7990  1.3264 -0.9779
 8825SOL     OW38110   3.800   2.028   5.573 -0.0691  0.2892 -0.0480
 8825SOL    HW138111   3.764   1.945   5.542 -0.2838  0.6708 -0.8156
 8825SOL    HW238112   3.877   2.038   5.517 -0.6906  0.7504 -0.8235
 8826SOL     OW38113   2.321   3.669   7.951  0.3847 -0.1518  0.0740
 8826SOL    HW138114   2.383   3.631   8.014  0.1910  0.8021  0.8330
 8826SOL    HW238115   2.361   3.740   7.902 -1.6518  1.4932  0.8085
 8827SOL     OW38116   2.158   3.877   6.876  0.7864 -0.0772 -0.1170
 8827SOL    HW138117   2.186   3.965   6.904 -2.2336  0.7587  0.2474
 8827SOL    HW238118   2.214   3.835   6.941  1.0215  1.4922  0.7133
 8828SOL     OW38119   2.831   3.661  11.987 -0.2544  0.7072 -0.3011
 8828SOL    HW138120   2.906   3.619  11.944  1.2699  0.2328  2.8692
 8828SOL    HW238121   2.811   3.734  11.927 -0.7228  0.1529 -0.8161
 8829SOL     OW38122   3.991   2.850   2.984 -0.0636 -0.3008 -0.1731
 8829SOL    HW138123   3.996   2.904   3.062 -1.1224  0.5442 -0.6878
 8829SOL    HW238124   3.899   2.861   2.958 -0.8232  2.7710  3.8541
 8830SOL     OW38125   1.469   3.055   6.090  0.4355  0.3955  0.1337
 8830SOL    HW138126   1.532   3.018   6.152  0.3805 -1.5216 -0.9482
 8830SOL    HW238127   1.435   2.976   6.048  1.0410  1.7772 -2.9655
 8831SOL     OW38128   4.069   2.739   9.638 -0.1347 -0.0537 -0.2545
 8831SOL    HW138129   4.080   2.824   9.596 -2.0229  0.6066  0.6038
 8831SOL    HW238130   3.976   2.746   9.660  0.0846 -1.5032  1.1244
 8832SOL     OW38131   0.944   0.227   5.529  0.8194 -0.5177 -0.2201
 8832SOL    HW138132   0.969   0.315   5.558 -0.1103 -0.6125  0.8718
 8832SOL    HW238133   1.008   0.173   5.576  0.5447 -2.7856 -2.4721
 8833SOL     OW38134   1.051   3.533  13.878  0.0666  0.0087 -0.2513
 8833SOL    HW138135   1.103   3.604  13.916 -0.6935  0.3676  0.1084
 8833SOL    HW238136   1.069   3.471  13.949  1.2332  0.7851  0.1495
 8834SOL     OW38137   4.700   0.936   8.978  0.3427  0.4951 -0.3177
 8834SOL    HW138138   4.642   0.915   8.905  1.1340 -2.3302 -0.1357
 8834SOL    HW238139   0.041   0.893   8.947  0.0670 -1.8435  2.2340
 8835SOL     OW38140   4.003   2.328  10.843 -0.0173  0.1055 -0.0849
 8835SOL    HW138141   4.033   2.329  10.934  0.6314  0.5784 -0.3090
 8835SOL    HW238142   4.072   2.368  10.791  2.0515 -2.4644  0.7006
 8836SOL     OW38143   3.004   1.251   5.128  1.0536  0.2521 -0.6203
 8836SOL    HW138144   2.990   1.220   5.038 -1.4990  0.0366 -0.1527
 8836SOL    HW238145   2.914   1.244   5.161  0.7184 -0.4721 -1.6762
 8837SOL     OW38146   1.715   4.668   4.571  0.4496  0.4249  0.2055
 8837SOL    HW138147   1.660   4.609   4.520  1.3802  1.0078 -1.4762
 8837SOL    HW238148   1.646   4.691   4.633  1.8673 -1.4511  2.4879
 8838SOL     OW38149   3.805   4.302  12.552 -0.1013  0.1524 -0.2527
 8838SOL    HW138150   3.872   4.339  12.494 -0.9587 -0.1900 -1.4679
 8838SOL    HW238151   3.783   4.218  12.513 -0.3184 -0.9759  2.3308
 8839SOL     OW38152   3.961   4.322   5.702  0.7522 -0.2537 -0.1910
 8839SOL    HW138153   3.907   4.301   5.625  0.4642 -0.7941  0.1620
 8839SOL    HW238154   3.978   4.416   5.692  1.1779 -0.2437  0.6229
 8840SOL     OW38155   2.272   2.710   6.046  0.7427 -0.5549  0.1190
 8840SOL    HW138156   2.198   2.755   6.086  1.2401  1.9674 -1.8009
 8840SOL    HW238157   2.225   2.629   6.028 -0.8031  0.3581  0.0802
 8841SOL     OW38158   1.283   4.617   9.637 -0.5075  0.0875  0.6477
 8841SOL    HW138159   1.321   4.644   9.553 -0.2812 -0.6189  0.5263
 8841SOL    HW238160   1.249   4.695   9.682  0.6041  0.5057  0.7775
 8842SOL     OW38161   1.491   2.452   0.934  0.3893 -0.3902  0.1419
 8842SOL    HW138162   1.399   2.427   0.928  0.7669 -1.4413 -1.2716
 8842SOL    HW238163   1.526   2.383   0.990 -0.2815  0.0087  1.0472
 8843SOL     OW38164   2.607   3.183   9.733  0.4515  0.2267  0.6825
 8843SOL    HW138165   2.562   3.222   9.808 -1.4555 -1.8217  0.5952
 8843SOL    HW238166   2.644   3.261   9.690 -0.4738 -0.1858 -0.8736
 8844SOL     OW38167   1.839   4.567  14.455 -0.4446  0.1087  0.0492
 8844SOL    HW138168   1.808   4.658  14.457  1.7055  0.8485 -0.2027
 8844SOL    HW238169   1.765   4.535  14.404 -0.0726  0.3255 -0.6348
 8845SOL     OW38170   3.258   2.821   6.511 -0.1168  0.2880  0.0989
 8845SOL    HW138171   3.315   2.767   6.456 -3.5711 -0.9374 -2.2712
 8845SOL    HW238172   3.280   2.910   6.484 -1.5336  1.1240  1.6866
 8846SOL     OW38173   3.985   2.324   0.262  0.1372  0.2283  0.2813
 8846SOL    HW138174   4.002   2.259   0.329  1.0639  0.0506 -0.1400
 8846SOL    HW238175   3.911   2.375   0.295 -1.4804 -1.2251 -1.0914
 8847SOL     OW38176   2.650   3.752   4.104 -0.6524 -0.0224 -0.1471
 8847SOL    HW138177   2.718   3.721   4.045 -0.5920  0.5253 -0.3611
 8847SOL    HW238178   2.694   3.769   4.187  0.5204  1.5183 -1.1024
 8848SOL     OW38179   1.674   1.999   3.798  0.1945 -0.2480  0.1142
 8848SOL    HW138180   1.646   2.079   3.754  1.6174 -0.1227 -0.5780
 8848SOL    HW238181   1.757   1.983   3.752 -0.1541 -2.4420  0.2088
 8849SOL     OW38182   1.464   1.838  15.631 -0.4676  0.2322 -0.4940
 8849SOL    HW138183   1.444   1.800  15.545  1.5346  0.9221 -1.2669
 8849SOL    HW238184   1.423   1.771  15.686  1.4561  0.1264  0.7902
 8850SOL     OW38185   2.766   3.864   1.574 -0.3390 -0.4528  0.2199
 8850SOL    HW138186   2.720   3.801   1.519  1.1471 -0.4635 -1.0073
 8850SOL    HW238187   2.852   3.887   1.539 -0.5764  2.6034  1.6218
 8851SOL     OW38188   1.879   0.094   6.383  0.5838 -0.0721  0.7967
 8851SOL    HW138189   1.960   0.043   6.378  1.5471  1.6461 -0.6895
 8851SOL    HW238190   1.901   0.183   6.357 -1.1438  0.1876  0.1999
 8852SOL     OW38191   1.314   0.407   2.374  0.6977 -0.0926 -0.2880
 8852SOL    HW138192   1.223   0.435   2.388  0.5376 -1.0276  0.5276
 8852SOL    HW238193   1.342   0.478   2.316  2.5939  1.1110  2.0782
 8853SOL     OW38194   4.658   3.614   2.364  0.3692 -0.4437 -0.5305
 8853SOL    HW138195   4.736   3.614   2.420  0.7977 -1.9054 -1.1243
 8853SOL    HW238196   4.604   3.540   2.392 -1.7232  0.9276 -0.9187
 8854SOL     OW38197   2.631   2.492  17.378 -0.2523 -0.1156  0.3078
 8854SOL    HW138198   2.658   2.509  17.288 -1.7324  0.5634  0.0000
 8854SOL    HW238199   2.640   2.397  17.373 -0.8553 -0.1484 -0.0788
 8855SOL     OW38200   3.664   0.719   2.419 -0.4718 -0.0124  0.1665
 8855SOL    HW138201   3.692   0.763   2.499  0.2615 -0.7681  0.3320
 8855SOL    HW238202   3.741   0.665   2.405  2.6234  4.9604 -1.9313
 8856SOL     OW38203   1.246   1.557   4.085 -0.5143 -0.5345  0.2817
 8856SOL    HW138204   1.166   1.607   4.067  0.4588  1.5284  1.6201
 8856SOL    HW238205   1.222   1.479   4.134  0.7448 -0.2761  1.2936
 8857SOL     OW38206   3.833   2.113   6.564  0.0929 -0.0220 -0.1509
 8857SOL    HW138207   3.793   2.026   6.569  1.0243 -0.5697 -2.7048
 8857SOL    HW238208   3.819   2.148   6.652 -0.4608 -1.9809  0.5589
 8858SOL     OW38209   1.083   0.766   5.704  0.0893  0.7381 -0.2689
 8858SOL    HW138210   1.078   0.789   5.612  0.8808  0.3213 -0.4101
 8858SOL    HW238211   0.991   0.767   5.731  0.3418 -1.0389  0.6780
 8859SOL     OW38212   0.117   2.599  13.794  0.1925  0.1355 -0.2069
 8859SOL    HW138213   0.149   2.528  13.738  2.2657  0.8417  0.0865
 8859SOL    HW238214   0.196   2.649  13.812 -0.3126  0.7407  0.3046
 8860SOL     OW38215   2.774   4.675  17.182  0.2040 -0.2377  0.2172
 8860SOL    HW138216   2.703   4.732  17.211 -1.6472 -2.2123 -0.4172
 8860SOL    HW238217   2.743   4.585  17.191  0.0732 -0.2558 -0.4284
 8861SOL     OW38218   0.804   4.097   4.879 -0.6811  0.1719  1.0108
 8861SOL    HW138219   0.815   4.170   4.818  0.8132 -1.1731 -0.3353
 8861SOL    HW238220   0.738   4.042   4.837  1.5931  0.5793 -3.2011
 8862SOL     OW38221   1.126   1.056   4.067  0.1208 -0.3953  0.6377
 8862SOL    HW138222   1.131   0.970   4.110  1.0069 -0.5233  0.2658
 8862SOL    HW238223   1.124   1.039   3.973 -0.8318  0.6751  0.4671
 8863SOL     OW38224   1.015   4.127   2.348  0.4035 -0.5203  0.2554
 8863SOL    HW138225   1.060   4.209   2.327 -0.0376 -0.3344  0.0244
 8863SOL    HW238226   1.076   4.065   2.309 -0.3584 -1.0464 -0.1186
 8864SOL     OW38227   1.395   3.484   1.320  0.0269 -0.4939 -0.2135
 8864SOL    HW138228   1.395   3.419   1.390  1.5206  0.9442  1.1530
 8864SOL    HW238229   1.461   3.445   1.263  2.2759  1.6974  0.8897
 8865SOL     OW38230   1.229   2.447   6.270  0.2652  0.5443 -0.2259
 8865SOL    HW138231   1.287   2.523   6.270  1.5899 -0.4723  1.0883
 8865SOL    HW238232   1.182   2.458   6.352  1.6059 -4.3045  1.2089
 8866SOL     OW38233   3.260   2.854   3.213 -0.0302  0.1186 -0.0440
 8866SOL    HW138234   3.321   2.926   3.228  0.9682 -0.6986 -0.2080
 8866SOL    HW238235   3.268   2.800   3.291 -2.5488  1.2868  1.0323
 8867SOL     OW38236   1.406   1.065   1.989 -0.5799 -0.0619  0.0639
 8867SOL    HW138237   1.447   0.978   1.989 -1.0910 -0.3106 -1.8565
 8867SOL    HW238238   1.482   1.111   2.022 -0.6786  1.3765 -1.7437
 8868SOL     OW38239   3.495   1.779   5.173 -0.4665  0.1374 -0.0707
 8868SOL    HW138240   3.588   1.777   5.152 -0.4217 -1.0451  0.2669
 8868SOL    HW238241   3.462   1.700   5.131 -0.5071 -0.4912  1.1264
 8869SOL     OW38242   3.374   1.917   6.733 -0.7363  0.5660 -0.1145
 8869SOL    HW138243   3.430   1.851   6.692 -1.7218 -0.2831 -0.0801
 8869SOL    HW238244   3.339   1.862   6.804  2.8451 -0.5284  0.8032
 8870SOL     OW38245   4.180   1.593   3.119  0.5647  0.1021 -0.3309
 8870SOL    HW138246   4.230   1.661   3.164  1.2214 -1.3275  1.0769
 8870SOL    HW238247   4.094   1.601   3.161  1.3262  0.4114  1.1651
 8871SOL     OW38248   2.130   1.306   4.619 -0.1694  0.0680  0.0100
 8871SOL    HW138249   2.145   1.390   4.662  0.0094 -0.1479  0.3809
 8871SOL    HW238250   2.041   1.293   4.587  0.3424 -0.6115 -1.1442
 8872SOL     OW38251   4.600   3.829   5.254 -0.0546  0.0460  0.0488
 8872SOL    HW138252   4.568   3.787   5.174 -1.0444  1.4121 -0.2760
 8872SOL    HW238253   4.562   3.917   5.251  1.7245  0.8005 -0.8413
 8873SOL     OW38254   2.812   4.567   3.061  0.2280 -0.0708  0.6041
 8873SOL    HW138255   2.766   4.524   2.989  1.0995 -1.4306  0.8629
 8873SOL    HW238256   2.875   4.627   3.021 -2.0561  1.0195 -1.4019
 8874SOL     OW38257   0.522   0.722   6.942  0.5686  0.1684 -0.0105
 8874SOL    HW138258   0.516   0.789   6.874 -0.8074  0.4143  0.3621
 8874SOL    HW238259   0.567   0.775   7.009 -1.5774  1.8790  0.0847
 8875SOL     OW38260   0.997   2.423   2.095  0.0601 -0.2433 -0.6437
 8875SOL    HW138261   1.059   2.379   2.037 -1.0121  0.2131 -2.1443
 8875SOL    HW238262   1.061   2.462   2.154  0.6709 -1.4302 -0.5465
 8876SOL     OW38263   1.410   3.475   6.649  0.1187 -0.4908  0.2314
 8876SOL    HW138264   1.341   3.537   6.626  0.8404  0.1075 -0.2931
 8876SOL    HW238265   1.449   3.523   6.722 -1.0515 -1.7623  1.7119
 8877SOL     OW38266   0.311   2.164   7.208  0.2616  0.2605  0.1723
 8877SOL    HW138267   0.236   2.207   7.250 -0.6759 -2.0114  0.7791
 8877SOL    HW238268   0.269   2.097   7.155  1.0553  0.1854 -0.3669
 8878SOL     OW38269   2.001   4.376   2.968 -0.3058  0.7973  0.6679
 8878SOL    HW138270   2.073   4.368   2.906 -1.7500 -1.3305 -0.7190
 8878SOL    HW238271   2.052   4.407   3.043 -1.4456 -1.4095  2.3535
 8879SOL     OW38272   0.557   4.118   9.319  0.2170 -0.5746 -0.6113
 8879SOL    HW138273   0.649   4.091   9.318  0.3411 -0.1164 -1.4247
 8879SOL    HW238274   0.522   4.064   9.390 -0.0269 -1.6721 -1.5538
 8880SOL     OW38275   4.210   2.023   4.149 -0.0683 -0.1833 -0.3386
 8880SOL    HW138276   4.289   2.043   4.199 -0.8023 -2.1875  1.5950
 8880SOL    HW238277   4.223   1.935   4.115 -2.8204  0.5419 -3.2725
 8881SOL     OW38278   1.259   2.128   6.850 -0.1256  0.1437  0.4679
 8881SOL    HW138279   1.253   2.224   6.850  3.1956  0.3595 -0.8006
 8881SOL    HW238280   1.290   2.113   6.940  2.2241 -0.9265 -0.5131
 8882SOL     OW38281   0.650   2.331   3.059 -0.7094  0.5259  0.2655
 8882SOL    HW138282   0.652   2.261   3.124 -0.3677  0.8055  0.5575
 8882SOL    HW238283   0.672   2.278   2.983  0.0914  1.2993 -0.0410
 8883SOL     OW38284   4.377   1.666   3.360 -0.8571 -0.3238 -0.0673
 8883SOL    HW138285   4.394   1.573   3.375  1.2231 -0.2305 -1.7880
 8883SOL    HW238286   4.391   1.703   3.447  1.2938  0.1542 -0.6228
 8884SOL     OW38287   3.361   0.677  16.169  0.7074  0.1667  0.1369
 8884SOL    HW138288   3.316   0.623  16.103 -0.9835  1.0991  0.5508
 8884SOL    HW238289   3.298   0.747  16.180  1.7249  1.0864  0.1585
 8885SOL     OW38290   3.257   2.971  14.631 -0.1414  0.1664  0.0654
 8885SOL    HW138291   3.278   2.985  14.538 -0.8743 -2.4898 -0.4944
 8885SOL    HW238292   3.348   2.957  14.657  0.0088  0.3087 -0.3717
 8886SOL     OW38293   3.141   2.538  10.766  0.0448 -0.0097  0.0067
 8886SOL    HW138294   3.132   2.442  10.767  1.5330 -0.1261  1.8129
 8886SOL    HW238295   3.148   2.559  10.859 -1.3362  1.5148 -0.2422
 8887SOL     OW38296   2.044   3.289   7.774  0.3788 -0.2791  0.1835
 8887SOL    HW138297   2.103   3.294   7.850  0.4567  0.3015  0.0856
 8887SOL    HW238298   1.996   3.209   7.798 -0.8709  0.7717  1.1677
 8888SOL     OW38299   3.754   3.973  16.267 -0.1336  0.3782 -0.3849
 8888SOL    HW138300   3.845   3.989  16.240  0.1121  1.8312  1.2826
 8888SOL    HW238301   3.761   3.905  16.334  0.7042  1.9433  1.1567
 8889SOL     OW38302   0.002   0.355   4.928 -0.0095 -0.1599  0.2173
 8889SOL    HW138303   0.087   0.330   4.964  1.1408  0.7782 -1.7963
 8889SOL    HW238304   4.686   0.300   4.983  2.0599 -0.2288  2.2128
 8890SOL     OW38305   3.261   0.822   4.488 -0.0060  0.5605 -0.6157
 8890SOL    HW138306   3.313   0.769   4.427 -0.2844  0.7288 -0.9954
 8890SOL    HW238307   3.253   0.899   4.433  0.7726 -0.7441 -2.5617
 8891SOL     OW38308   0.343   0.643   5.467  0.3769 -0.6260  0.1933
 8891SOL    HW138309   0.382   0.574   5.412  1.2940  1.0326 -1.2227
 8891SOL    HW238310   0.345   0.602   5.553  0.1373 -1.2460 -0.0912
 8892SOL     OW38311   2.224   2.712   4.176  0.1908  0.1292 -0.4305
 8892SOL    HW138312   2.223   2.649   4.248  0.9046 -0.5958 -1.0619
 8892SOL    HW238313   2.306   2.684   4.135  0.4700  0.4271 -0.0739
 8893SOL     OW38314   4.363   0.367  16.475 -0.3301 -0.3904 -0.0434
 8893SOL    HW138315   4.336   0.395  16.563  3.0122 -1.4526  1.3171
 8893SOL    HW238316   4.337   0.441  16.420 -0.9938 -1.0659 -0.6361
 8894SOL     OW38317   3.036   0.057   4.565 -0.9146  0.8301 -0.2523
 8894SOL    HW138318   3.048   0.124   4.632 -0.4990  1.0468 -0.5410
 8894SOL    HW238319   3.071   0.108   4.492  1.3983 -1.7698 -0.9764
 8895SOL     OW38320   3.298   0.155   1.487 -0.2711  0.2829 -0.0929
 8895SOL    HW138321   3.350   0.222   1.444 -1.6933  1.2513 -0.3278
 8895SOL    HW238322   3.248   0.114   1.416 -2.8944 -0.4396  2.1732
 8896SOL     OW38323   2.667   4.301   6.624  0.3931 -0.2453 -0.0639
 8896SOL    HW138324   2.702   4.271   6.540 -0.1153 -1.9650  0.3385
 8896SOL    HW238325   2.752   4.333   6.655  0.4054 -1.4303  1.1193
 8897SOL     OW38326   0.973   4.513   6.217 -0.6620  0.4713  0.3991
 8897SOL    HW138327   0.923   4.453   6.161  0.7806 -0.5570  0.2377
 8897SOL    HW238328   0.944   4.475   6.300 -1.9558  0.4169 -0.0739
 8898SOL     OW38329   3.362   2.152  15.245  0.2149 -0.2025  0.0552
 8898SOL    HW138330   3.295   2.085  15.240 -2.9762  2.8675  1.5585
 8898SOL    HW238331   3.394   2.128  15.158  2.2383  1.6169  0.2696
 8899SOL     OW38332   2.277   4.395   2.825  0.4698 -0.5207 -0.2886
 8899SOL    HW138333   2.268   4.302   2.846  1.2819 -0.5689 -0.1535
 8899SOL    HW238334   2.253   4.394   2.733 -2.3693 -0.6319  0.4470
 8900SOL     OW38335   3.453   3.756  15.973 -0.1311 -0.3650  0.3180
 8900SOL    HW138336   3.358   3.741  15.973  0.2075 -2.4740 -0.2938
 8900SOL    HW238337   3.454   3.829  16.034  0.1012  0.0295 -0.1616
 8901SOL     OW38338   4.638   4.463  15.296 -0.6392 -0.2912  0.0330
 8901SOL    HW138339   4.721   4.432  15.331 -0.1463 -0.7610 -1.5393
 8901SOL    HW238340   4.616   4.524  15.367  0.5532  0.2976 -0.1175
 8902SOL     OW38341   0.921   0.824   7.465 -0.1488  0.0139  0.0455
 8902SOL    HW138342   0.842   0.782   7.498  0.4519 -1.5437 -0.5009
 8902SOL    HW238343   0.942   0.771   7.388  1.4007  0.0714  0.4129
 8903SOL     OW38344   1.579   0.185  14.152  0.4470 -0.6011  0.0683
 8903SOL    HW138345   1.664   0.223  14.130 -0.5063  0.5225 -1.6599
 8903SOL    HW238346   1.526   0.262  14.135  0.8386 -0.4566 -0.5021
 8904SOL     OW38347   4.171   2.768  10.112 -0.1297  0.0583  0.0402
 8904SOL    HW138348   4.224   2.828  10.164 -1.6627 -0.1202  1.8244
 8904SOL    HW238349   4.190   2.803  10.025  1.0660  0.5391  0.4982
 8905SOL     OW38350   0.230   1.409  15.548 -0.7116  0.0063 -0.1714
 8905SOL    HW138351   0.137   1.388  15.538 -0.1529 -1.8540 -1.4930
 8905SOL    HW238352   0.233   1.488  15.494 -3.4996  0.1460 -0.1628
 8906SOL     OW38353   3.140   2.358   8.450 -0.1563  0.0752  0.2849
 8906SOL    HW138354   3.103   2.445   8.433  3.4134  1.4688 -0.3560
 8906SOL    HW238355   3.233   2.379   8.460  0.6328 -1.6749 -3.3496
 8907SOL     OW38356   3.359   1.222  12.355  0.3249  0.2705 -0.2991
 8907SOL    HW138357   3.355   1.139  12.403  1.1311  0.5900  0.3215
 8907SOL    HW238358   3.455   1.224  12.357  0.3963 -0.6806 -2.5938
 8908SOL     OW38359   1.141   0.611  15.199 -0.1782  0.0152 -0.0358
 8908SOL    HW138360   1.177   0.530  15.234  0.1845  0.6144  0.9533
 8908SOL    HW238361   1.128   0.663  15.278 -1.2252 -0.8666  0.3794
 8909SOL     OW38362   4.384   2.610   7.199  0.3314 -0.0212 -0.1614
 8909SOL    HW138363   4.373   2.520   7.167 -1.3642  0.1526 -0.0920
 8909SOL    HW238364   4.408   2.662   7.122 -2.7163  2.3988  0.4996
 8910SOL     OW38365   2.817   3.251   3.354 -0.1972  0.3339  0.2874
 8910SOL    HW138366   2.870   3.243   3.275 -0.6631  0.2693 -0.0172
 8910SOL    HW238367   2.804   3.345   3.367 -1.1936  0.4625 -1.7141
 8911SOL     OW38368   0.305   1.806   5.114 -0.5346  0.0105 -0.0227
 8911SOL    HW138369   0.318   1.722   5.071 -2.8314  0.8563 -2.3305
 8911SOL    HW238370   0.392   1.838   5.138 -0.6056  0.2979 -0.1408
 8912SOL     OW38371   1.701   1.936   2.932  0.2608  0.1408 -0.3277
 8912SOL    HW138372   1.627   1.875   2.936  0.3419  0.1388  1.2806
 8912SOL    HW238373   1.694   1.990   3.011  0.2797 -0.4525  0.0768
 8913SOL     OW38374   1.991   3.926   3.170  0.1996  0.2946 -0.0228
 8913SOL    HW138375   2.067   3.971   3.208 -0.3918 -1.1164  2.8013
 8913SOL    HW238376   1.993   3.849   3.226  1.0442 -0.8096 -1.5856
 8914SOL     OW38377   2.797   2.203  15.451 -0.2277 -0.2202 -0.3248
 8914SOL    HW138378   2.828   2.137  15.389 -1.4424 -1.3181  0.2433
 8914SOL    HW238379   2.856   2.278  15.443  0.2996 -0.7365 -1.3114
 8915SOL     OW38380   2.257   3.708   7.296  0.3172  0.3805  0.1815
 8915SOL    HW138381   2.206   3.639   7.253 -1.4732  1.8833 -0.0951
 8915SOL    HW238382   2.326   3.652   7.333  1.0595  1.3375  0.2300
 8916SOL     OW38383   1.513   1.157   9.187 -0.4582  0.3268  0.1548
 8916SOL    HW138384   1.598   1.196   9.208 -1.0482  1.2619  0.8622
 8916SOL    HW238385   1.528   1.156   9.093  0.6950  0.6132  0.3357
 8917SOL     OW38386   4.645   2.150   5.849  0.0889 -0.2145  0.9296
 8917SOL    HW138387   4.606   2.200   5.920 -0.2491  0.0646  0.5496
 8917SOL    HW238388   4.573   2.090   5.831  0.8939 -0.6325 -0.9902
 8918SOL     OW38389   3.257   2.938   0.558  0.0477  0.0224  0.1921
 8918SOL    HW138390   3.351   2.956   0.555 -0.2910  1.4700 -2.4316
 8918SOL    HW238391   3.253   2.904   0.647  2.4837 -1.0806 -0.1129
 8919SOL     OW38392   2.176   4.175  16.219 -0.2276  0.0796 -0.8404
 8919SOL    HW138393   2.091   4.173  16.263 -0.1073  0.1633 -0.6041
 8919SOL    HW238394   2.233   4.128  16.280 -1.8894 -1.7570 -0.6823
 8920SOL     OW38395   1.588   1.409   2.124  0.2133 -0.1585 -0.5397
 8920SOL    HW138396   1.538   1.394   2.044  0.5255 -0.9715 -0.5843
 8920SOL    HW238397   1.534   1.376   2.195 -2.0609 -0.6786 -2.5014
 8921SOL     OW38398   3.815   2.188   1.302 -0.4988 -0.2358 -0.1859
 8921SOL    HW138399   3.772   2.268   1.274 -2.0200 -0.2573  2.0573
 8921SOL    HW238400   3.878   2.167   1.233  1.1857 -0.5644  1.4430
 8922SOL     OW38401   2.307   3.019   0.097 -0.5219 -0.4083  0.0443
 8922SOL    HW138402   2.240   3.080   0.068 -0.0661  0.3087  0.4817
 8922SOL    HW238403   2.279   2.937   0.058 -0.1361  0.4281 -1.9828
 8923SOL     OW38404   0.404   3.533   8.604  0.2040  0.2608 -0.0691
 8923SOL    HW138405   0.379   3.619   8.638  0.0238  0.5542 -0.9536
 8923SOL    HW238406   0.490   3.527   8.644  0.5594  1.8256 -0.6082
 8924SOL     OW38407   2.361   0.744   1.540 -0.6682  0.2939 -0.6037
 8924SOL    HW138408   2.298   0.678   1.512  0.0583 -0.1696 -1.1718
 8924SOL    HW238409   2.409   0.759   1.459 -2.0371  0.5082 -1.3614
 8925SOL     OW38410   2.548   0.545   2.088  0.0610  0.2323  0.0450
 8925SOL    HW138411   2.606   0.590   2.149 -2.5967  2.5700  0.8767
 8925SOL    HW238412   2.474   0.533   2.148 -0.9206 -2.4672 -1.7106
 8926SOL     OW38413   2.631   4.532  16.434 -0.2927 -0.6471  0.5405
 8926SOL    HW138414   2.653   4.484  16.354 -0.5627  0.9212 -0.4682
 8926SOL    HW238415   2.691   4.486  16.493  0.1283  2.0149  2.1748
 8927SOL     OW38416   2.747   1.232   6.631 -0.1548 -0.2523 -0.3929
 8927SOL    HW138417   2.828   1.283   6.625  0.4133 -0.8186  2.3425
 8927SOL    HW238418   2.686   1.281   6.576  1.1499 -0.7808 -2.3213
 8928SOL     OW38419   2.703   4.429   2.464  0.5274 -0.2509  0.0374
 8928SOL    HW138420   2.740   4.389   2.384  0.2368  0.2181 -0.3303
 8928SOL    HW238421   2.736   4.369   2.531 -0.2745 -0.4375  0.2617
 8929SOL     OW38422   2.774   2.015  16.408 -0.1502 -0.1023  0.3167
 8929SOL    HW138423   2.866   2.037  16.423  0.0691 -0.8182 -0.0032
 8929SOL    HW238424   2.772   1.935  16.356 -0.9918 -0.5429  1.0209
 8930SOL     OW38425   3.737   1.004   0.442 -0.1035  0.3858  0.3387
 8930SOL    HW138426   3.784   0.978   0.362 -1.0678  1.2307 -0.4963
 8930SOL    HW238427   3.705   0.919   0.472  2.4626  0.6226  3.7194
 8931SOL     OW38428   0.531   4.211   7.219 -0.1886 -0.6415 -0.4550
 8931SOL    HW138429   0.493   4.281   7.273  0.2773 -0.3885 -0.4608
 8931SOL    HW238430   0.452   4.194   7.168  0.4142 -0.3785 -1.4694
 8932SOL     OW38431   3.325   2.679   3.411  0.1197  0.4985 -0.3129
 8932SOL    HW138432   3.353   2.610   3.351  0.8634  1.4399 -1.0443
 8932SOL    HW238433   3.374   2.665   3.492  0.4325  0.6567 -0.4761
 8933SOL     OW38434   0.325   2.770  14.693 -0.4246 -0.5209  0.5387
 8933SOL    HW138435   0.307   2.781  14.786 -0.3765 -0.0378  0.4899
 8933SOL    HW238436   0.420   2.757  14.683  0.0392  2.5806  1.0019
 8934SOL     OW38437   2.005   3.011   3.085 -0.2399 -0.2935  0.5806
 8934SOL    HW138438   1.922   3.025   3.128  0.1020  0.0639  1.1184
 8934SOL    HW238439   2.067   3.045   3.150 -0.4250 -0.4822  0.8538
 8935SOL     OW38440   4.166   3.515   9.379  0.1839 -1.0194 -0.5084
 8935SOL    HW138441   4.244   3.566   9.399 -0.4213 -0.1707 -0.2930
 8935SOL    HW238442   4.198   3.426   9.364  3.2406 -0.5354  3.1007
 8936SOL     OW38443   1.238   2.230   3.323 -0.1152  0.4699  0.1257
 8936SOL    HW138444   1.330   2.254   3.313 -0.0779 -0.2935 -1.2890
 8936SOL    HW238445   1.201   2.318   3.317  1.7546  1.2823  0.3610
 8937SOL     OW38446   4.470   1.988   4.243  0.0827 -0.4272  0.0046
 8937SOL    HW138447   4.519   1.913   4.211 -2.9718 -2.7491  0.8632
 8937SOL    HW238448   4.525   2.062   4.216 -0.6686 -1.0002 -3.0290
 8938SOL     OW38449   4.192   4.235  11.359 -0.0490  0.0244  0.0491
 8938SOL    HW138450   4.241   4.169  11.310  0.8059  0.4321  0.3616
 8938SOL    HW238451   4.098   4.224  11.344  0.0449 -0.4596 -0.1789
 8939SOL     OW38452   2.115   2.886   6.884  0.0997  0.2375 -0.1456
 8939SOL    HW138453   2.174   2.902   6.958  1.8622 -0.4740 -1.4092
 8939SOL    HW238454   2.159   2.929   6.812 -0.7273 -0.5392 -1.1250
 8940SOL     OW38455   4.312   2.649  16.653 -0.1499  0.0070 -0.3154
 8940SOL    HW138456   4.281   2.736  16.680  1.5410  0.1394  1.2315
 8940SOL    HW238457   4.229   2.602  16.644  0.8716 -2.3684  2.5635
 8941SOL     OW38458   2.989   1.279   7.985  0.8132  0.1212 -0.3654
 8941SOL    HW138459   3.017   1.325   8.064 -0.1897  1.8267 -1.0026
 8941SOL    HW238460   2.894   1.278   7.994  0.7002  0.7005 -1.5154
 8942SOL     OW38461   0.979   4.247   8.756  0.2087  0.5514 -0.1810
 8942SOL    HW138462   0.922   4.320   8.781 -0.4924  0.0303 -0.2421
 8942SOL    HW238463   0.922   4.170   8.747  1.5260 -0.4191 -0.1676
 8943SOL     OW38464   1.468   4.700   0.092 -0.1425 -0.0851  0.1490
 8943SOL    HW138465   1.472   0.041   0.039 -0.3143  0.0255  0.3054
 8943SOL    HW238466   1.490   4.631   0.028  1.2005 -1.1186  1.7315
 8944SOL     OW38467   0.230   0.304   2.430 -0.5319  0.7125  0.3129
 8944SOL    HW138468   0.143   0.273   2.404  0.8087 -1.7892 -1.1745
 8944SOL    HW238469   0.213   0.396   2.452  0.0828  0.1570  3.0817
 8945SOL     OW38470   2.076   4.551   7.465  0.7768  0.4755  0.1675
 8945SOL    HW138471   2.055   4.458   7.481  0.2395  0.7632  1.1616
 8945SOL    HW238472   2.004   4.590   7.515  1.7591 -0.4533  2.3213
 8946SOL     OW38473   1.330   2.866   3.152 -0.7732  0.2132 -0.1385
 8946SOL    HW138474   1.329   2.886   3.246  1.1706 -0.4926  0.0262
 8946SOL    HW238475   1.422   2.875   3.127  0.3553 -2.7288  3.0562
 8947SOL     OW38476   1.609   3.050  12.441 -0.1418  0.1989  0.6743
 8947SOL    HW138477   1.670   3.065  12.513 -0.8794  3.0791  0.6999
 8947SOL    HW238478   1.640   3.119  12.383  2.1590 -0.3164  1.2947
 8948SOL     OW38479   0.682   1.503  13.118 -0.1809 -0.5776  0.0064
 8948SOL    HW138480   0.604   1.479  13.068  0.6993 -2.0042 -0.6762
 8948SOL    HW238481   0.712   1.584  13.075 -1.7722 -0.0719 -0.1694
 8949SOL     OW38482   3.327   3.287   4.520  0.1982 -0.3041 -0.6681
 8949SOL    HW138483   3.307   3.209   4.571  0.1037  1.5043  2.0676
 8949SOL    HW238484   3.407   3.256   4.480 -0.8410 -3.0033 -0.6419
 8950SOL     OW38485   3.709   1.372   7.172  0.6641  0.0191 -0.6354
 8950SOL    HW138486   3.722   1.450   7.226 -0.4448  0.3324 -0.8080
 8950SOL    HW238487   3.802   1.364   7.153  0.8425  2.4934 -0.8723
 8951SOL     OW38488   1.557   2.414   4.422  0.4870 -0.0171  0.3108
 8951SOL    HW138489   1.482   2.464   4.392 -0.9017 -1.4308  1.4664
 8951SOL    HW238490   1.622   2.475   4.386 -0.7323  1.0192 -0.1201
 8952SOL     OW38491   3.333   2.508   4.142  0.3933 -0.0872 -0.1871
 8952SOL    HW138492   3.277   2.549   4.208 -0.4530 -1.9511  0.2462
 8952SOL    HW238493   3.415   2.531   4.185  0.6141 -0.6865 -0.2902
 8953SOL     OW38494   0.943   1.528  15.766 -0.1143 -0.0767  0.0146
 8953SOL    HW138495   0.872   1.581  15.729  2.2553  1.0910 -2.8548
 8953SOL    HW238496   0.889   1.472  15.822  3.1708 -2.1750  1.0786
 8954SOL     OW38497   3.074   2.573   5.756 -0.2322 -0.1196  0.2432
 8954SOL    HW138498   3.143   2.639   5.765  0.7606 -0.9360 -1.6398
 8954SOL    HW238499   3.065   2.541   5.846 -1.0385 -2.0112 -0.5005
 8955SOL     OW38500   3.518   2.071   4.448  0.6915  0.2210 -0.0364
 8955SOL    HW138501   3.602   2.116   4.446  1.4141 -1.1310 -0.1616
 8955SOL    HW238502   3.521   2.014   4.371  1.5997 -0.4640  0.5043
 8956SOL     OW38503   4.378   3.330  10.451  0.5318  0.6239 -0.2195
 8956SOL    HW138504   4.362   3.256  10.509 -1.6051  1.6506  0.5080
 8956SOL    HW238505   4.355   3.289  10.368 -0.6370  1.0042 -0.0755
 8957SOL     OW38506   0.367   1.594   1.175 -0.2416  0.3957  0.1310
 8957SOL    HW138507   0.362   1.505   1.139  0.7131  0.6451 -0.6075
 8957SOL    HW238508   0.441   1.604   1.236  0.0567  0.8693 -0.3124
 8958SOL     OW38509   2.434   4.342   0.446  0.0688 -0.1490  0.1616
 8958SOL    HW138510   2.394   4.289   0.378 -0.9654  0.4619  0.2897
 8958SOL    HW238511   2.362   4.388   0.490 -0.0090 -2.6870  2.6927
 8959SOL     OW38512   1.770   4.639   7.456 -0.3262 -0.1530 -0.3868
 8959SOL    HW138513   1.785   4.722   7.410  1.0763 -1.9738 -3.2748
 8959SOL    HW238514   1.750   4.575   7.387  0.1197  0.2465 -0.8916
 8960SOL     OW38515   4.013   2.559  10.516 -0.6423 -0.1133 -0.7347
 8960SOL    HW138516   3.967   2.549  10.433 -1.6470  1.6639 -0.3863
 8960SOL    HW238517   4.101   2.573  10.483 -0.7078 -0.0604 -0.8849
 8961SOL     OW38518   0.843   0.892   4.676  0.4358  0.3968 -0.3217
 8961SOL    HW138519   0.794   0.951   4.732 -1.1168  0.5553 -1.8268
 8961SOL    HW238520   0.796   0.810   4.693  1.8715 -0.4649 -0.4925
 8962SOL     OW38521   3.171   1.759   5.859 -0.1124  0.0730  0.2116
 8962SOL    HW138522   3.172   1.824   5.929  1.5246 -0.2149  0.4399
 8962SOL    HW238523   3.171   1.819   5.784  0.3131 -1.1409 -0.7661
 8963SOL     OW38524   1.895   3.474  11.028 -0.0822 -0.0075  0.0910
 8963SOL    HW138525   1.911   3.493  11.121  3.3853  0.5080 -0.5921
 8963SOL    HW238526   1.848   3.553  11.002 -1.1374  0.2853  2.9258
 8964SOL     OW38527   2.873   3.299  16.374 -0.4861  0.3165  0.0569
 8964SOL    HW138528   2.788   3.296  16.418 -0.9988 -2.2074 -1.0977
 8964SOL    HW238529   2.903   3.208  16.376 -0.3329  0.4149  2.5183
 8965SOL     OW38530   4.739   3.529   8.069 -0.0554  0.3074  0.1509
 8965SOL    HW138531   0.049   3.453   8.038 -0.0960 -0.1947  1.3590
 8965SOL    HW238532   0.055   3.551   8.143  0.8117 -0.0069 -0.4015
 8966SOL     OW38533   2.197   3.190   5.495 -0.1859 -0.1153  0.1251
 8966SOL    HW138534   2.150   3.257   5.545 -1.1359 -0.4467 -0.3211
 8966SOL    HW238535   2.230   3.234   5.417  1.3930  1.5802  1.7392
 8967SOL     OW38536   0.209   4.243   1.791 -0.0649  0.1034  0.2822
 8967SOL    HW138537   0.121   4.207   1.783 -0.1129 -0.3644  2.9911
 8967SOL    HW238538   0.193   4.284   1.876  1.3282 -0.9636  1.0500
 8968SOL     OW38539   0.562   3.222   9.540  0.4900 -0.5245  0.2542
 8968SOL    HW138540   0.650   3.235   9.506 -1.2658  3.4349 -2.8574
 8968SOL    HW238541   0.573   3.179   9.624  1.4789 -0.8445 -0.0399
 8969SOL     OW38542   4.001   3.231   6.629 -0.4350 -0.0447 -0.0261
 8969SOL    HW138543   4.034   3.142   6.639 -0.0611  0.0292 -0.6203
 8969SOL    HW238544   3.918   3.231   6.677 -0.6278  1.3086 -0.3381
 8970SOL     OW38545   1.916   0.838  11.313 -0.2907 -0.3495 -0.0478
 8970SOL    HW138546   1.835   0.810  11.355  0.0010  1.1075  1.4753
 8970SOL    HW238547   1.976   0.766  11.332  0.7669  0.2181 -1.2371
 8971SOL     OW38548   0.008   2.002   6.628 -0.4740  0.2333  0.3177
 8971SOL    HW138549   4.725   2.044   6.545 -0.7118 -1.3926 -0.4466
 8971SOL    HW238550   4.693   2.052   6.690 -0.8213  0.4595 -0.1643
 8972SOL     OW38551   4.456   2.119  16.932 -0.1750  0.2100 -0.0668
 8972SOL    HW138552   4.365   2.090  16.943 -0.2253  0.5832  0.4613
 8972SOL    HW238553   4.434   2.191  16.873 -0.1151  1.7566  1.8088
 8973SOL     OW38554   4.428   4.633   3.403  0.0722 -0.1901  0.6279
 8973SOL    HW138555   4.352   4.582   3.432 -1.2644  1.9846  0.9573
 8973SOL    HW238556   4.419   4.624   3.308 -1.7606 -0.6026  0.8343
 8974SOL     OW38557   2.893   1.322   0.790 -0.0267 -0.5352  0.0521
 8974SOL    HW138558   2.880   1.333   0.884 -1.7545  0.4187 -0.3016
 8974SOL    HW238559   2.969   1.265   0.801 -0.6887 -2.3286 -4.5243
 8975SOL     OW38560   4.534   0.632   5.847 -0.3753 -0.3153 -0.3201
 8975SOL    HW138561   4.614   0.588   5.875  0.6171  1.7399  0.1041
 8975SOL    HW238562   4.518   0.575   5.772  0.3813  1.8781 -2.1331
 8976SOL     OW38563   3.230   2.655   8.417 -0.2759  0.1713  0.4174
 8976SOL    HW138564   3.296   2.714   8.454  0.0917 -0.5146  0.8515
 8976SOL    HW238565   3.159   2.714   8.393 -1.0429 -1.0604 -0.3416
 8977SOL     OW38566   2.840   0.891   9.416 -0.6505 -0.5039 -0.1069
 8977SOL    HW138567   2.841   0.852   9.503  1.7198 -1.7243 -0.6872
 8977SOL    HW238568   2.879   0.817   9.369 -2.5183 -2.6143  1.6390
 8978SOL     OW38569   3.193   4.094   6.652  0.0843 -0.6284 -0.1864
 8978SOL    HW138570   3.252   4.057   6.586 -0.5455 -3.0421  0.5976
 8978SOL    HW238571   3.137   4.016   6.653  0.0292 -0.5405  2.4743
 8979SOL     OW38572   0.644   3.724   8.491 -0.0846  0.4343  0.0243
 8979SOL    HW138573   0.703   3.653   8.517  1.0470 -0.0841 -3.9062
 8979SOL    HW238574   0.559   3.679   8.492  0.5416 -0.7599  0.1444
 8980SOL     OW38575   2.797   3.992   5.063  0.5132  0.0467 -0.1080
 8980SOL    HW138576   2.768   4.070   5.016 -3.6983 -1.5614 -0.2088
 8980SOL    HW238577   2.826   4.034   5.144 -0.0803  0.4533 -0.1056
 8981SOL     OW38578   1.785   3.648   8.940  0.3479 -0.5676  0.6941
 8981SOL    HW138579   1.815   3.577   8.997  0.1679  0.4303  2.0622
 8981SOL    HW238580   1.836   3.634   8.860 -0.5715  1.9376 -0.3345
 8982SOL     OW38581   0.774   4.168   8.435 -0.1981  0.0353 -0.2105
 8982SOL    HW138582   0.712   4.182   8.363 -1.4224 -0.7336  0.6985
 8982SOL    HW238583   0.735   4.088   8.470  2.0889 -0.7989  0.4346
 8983SOL     OW38584   0.315   3.956   5.858  0.4617 -0.0147 -0.6425
 8983SOL    HW138585   0.241   3.920   5.809  0.7283 -1.2789 -0.1047
 8983SOL    HW238586   0.306   3.922   5.947  2.2703  1.3601  0.0694
 8984SOL     OW38587   4.293   2.689  10.552  0.0037 -0.3451 -0.6177
 8984SOL    HW138588   4.386   2.671  10.561  0.3376  0.5954 -2.3408
 8984SOL    HW238589   4.272   2.671  10.460 -0.1467  0.5619 -0.7617
 8985SOL     OW38590   3.139   1.488  13.395  0.4084 -0.2439  0.1946
 8985SOL    HW138591   3.171   1.436  13.468  0.1109 -2.8721 -1.5636
 8985SOL    HW238592   3.188   1.569  13.406 -0.5026 -0.0660  3.0115
 8986SOL     OW38593   2.776   3.668   3.178 -0.2018  0.6623 -0.0897
 8986SOL    HW138594   2.867   3.649   3.199 -0.3286  0.4294  0.2617
 8986SOL    HW238595   2.734   3.594   3.224  1.9893  0.0649  0.9526
 8987SOL     OW38596   4.729   3.834  12.170 -0.6641 -0.3358 -0.2005
 8987SOL    HW138597   0.084   3.842  12.187 -1.0230 -0.4583  1.8220
 8987SOL    HW238598   4.706   3.764  12.232 -0.1220 -0.7957 -0.5171
 8988SOL     OW38599   1.554   4.501   4.449  0.0837  0.0495 -0.3139
 8988SOL    HW138600   1.581   4.415   4.419 -1.1439 -0.0874 -1.0270
 8988SOL    HW238601   1.520   4.533   4.366 -1.1032  0.5213  0.3430
 8989SOL     OW38602   4.224   2.038   0.917 -0.1153 -0.4437  0.0768
 8989SOL    HW138603   4.280   1.969   0.953 -0.4037 -1.7907 -2.0157
 8989SOL    HW238604   4.172   1.992   0.851  0.8910 -0.1810 -0.9014
 8990SOL     OW38605   3.766   0.847  15.068 -0.3491 -0.0839 -0.3781
 8990SOL    HW138606   3.810   0.908  15.009 -3.4705  1.3408 -1.2261
 8990SOL    HW238607   3.776   0.771  15.012 -0.2763 -0.0917 -0.3550
 8991SOL     OW38608   4.287   0.987   4.344 -0.0052 -0.0412 -0.1607
 8991SOL    HW138609   4.352   1.039   4.393 -0.7122  3.0115 -2.4898
 8991SOL    HW238610   4.280   0.905   4.393 -0.4341 -0.6518 -1.2550
 8992SOL     OW38611   2.882   3.630  10.360  0.3292 -0.3579  0.0577
 8992SOL    HW138612   2.811   3.566  10.353  0.8262 -0.9898  0.7244
 8992SOL    HW238613   2.852   3.694  10.296  1.1763  1.4464  1.4726
 8993SOL     OW38614   4.688   3.995   4.124  0.0979 -0.2726 -0.2630
 8993SOL    HW138615   4.641   4.017   4.044  0.4638 -0.4965 -0.5367
 8993SOL    HW238616   4.718   3.909   4.095 -2.1622 -1.0399 -0.3944
 8994SOL     OW38617   0.808   3.038   1.909  0.0263 -0.2923  0.4425
 8994SOL    HW138618   0.848   3.121   1.935  1.7730 -1.3693  1.1720
 8994SOL    HW238619   0.817   2.998   1.995  0.9800  0.5979  0.7584
 8995SOL     OW38620   2.979   3.142   8.616  0.0833 -0.0936  0.6798
 8995SOL    HW138621   2.996   3.060   8.662  0.5744 -0.7438 -0.6685
 8995SOL    HW238622   3.013   3.196   8.687 -0.8650  1.8362 -0.3187
 8996SOL     OW38623   3.813   3.804   9.066 -0.2718 -0.0652  0.1639
 8996SOL    HW138624   3.865   3.724   9.057  1.7954  1.4182 -0.9320
 8996SOL    HW238625   3.885   3.862   9.091  0.4115 -0.3071 -1.2527
 8997SOL     OW38626   2.844   2.962  10.115 -0.4073  0.1897 -0.1031
 8997SOL    HW138627   2.870   2.870  10.116  0.4109  0.4492  1.5827
 8997SOL    HW238628   2.752   2.966  10.143  0.2103  1.9977  1.6669
 8998SOL     OW38629   2.906   2.955  14.296 -0.4548 -0.5791  0.1574
 8998SOL    HW138630   2.869   2.870  14.321 -0.3334 -0.0013  2.2626
 8998SOL    HW238631   2.950   2.929  14.215  0.1693 -1.2377  0.7050
 8999SOL     OW38632   3.111   1.864   9.875 -0.1832 -0.0637 -0.7529
 8999SOL    HW138633   3.101   1.812   9.796 -0.2143 -3.4284  1.4484
 8999SOL    HW238634   3.072   1.944   9.841  1.4616  1.4920  1.0052
 9000SOL     OW38635   2.966   1.950   3.915 -0.3215  0.4191 -0.1577
 9000SOL    HW138636   2.973   1.909   4.002  1.3105 -1.7086 -1.2908
 9000SOL    HW238637   2.871   1.937   3.913 -0.0438 -1.4706 -0.8856
 9001SOL     OW38638   2.453   3.769   4.685 -0.0911 -0.0693 -0.8329
 9001SOL    HW138639   2.422   3.705   4.622  0.0566 -0.7670 -0.1948
 9001SOL    HW238640   2.507   3.710   4.737  1.1761  0.1627 -1.9007
 9002SOL     OW38641   2.886   4.094   7.821  0.1944 -0.2149 -0.0842
 9002SOL    HW138642   2.971   4.050   7.814 -0.7046 -1.7463 -1.4072
 9002SOL    HW238643   2.831   4.021   7.851 -1.3326  0.4882 -1.2101
 9003SOL     OW38644   1.490   2.895   5.687  0.3842  0.1377  0.0077
 9003SOL    HW138645   1.438   2.913   5.609  1.1888 -2.6131 -1.1386
 9003SOL    HW238646   1.442   2.932   5.761 -0.3169 -1.4223  0.3324
 9004SOL     OW38647   4.398   0.737   3.317  0.4883  0.4686 -0.0602
 9004SOL    HW138648   4.397   0.830   3.292 -0.0474  0.2144 -0.9927
 9004SOL    HW238649   4.344   0.700   3.247 -0.4233 -1.2200  1.5324
 9005SOL     OW38650   0.321   4.320   6.417 -0.4165  0.1245 -0.4620
 9005SOL    HW138651   0.383   4.297   6.347 -1.0217 -0.4313 -0.8093
 9005SOL    HW238652   0.384   4.344   6.485 -1.0351  0.8005 -0.1322
 9006SOL     OW38653   4.479   1.165   7.741  0.5645  0.0410  0.6859
 9006SOL    HW138654   4.416   1.162   7.813  0.4765 -0.7166  0.5822
 9006SOL    HW238655   4.417   1.174   7.668  0.1397  2.0150  1.2831
 9007SOL     OW38656   2.543   0.559   2.687  0.1096  0.0346 -0.3964
 9007SOL    HW138657   2.494   0.606   2.756 -1.9816 -1.6636 -0.7233
 9007SOL    HW238658   2.530   0.611   2.607  2.8356  0.8129 -0.3295
 9008SOL     OW38659   1.326   2.228  14.620 -0.4214  0.4650 -0.1659
 9008SOL    HW138660   1.372   2.163  14.566  0.7906  2.0251 -1.0103
 9008SOL    HW238661   1.384   2.302  14.604  0.3403 -0.2387 -0.6370
 9009SOL     OW38662   2.150   4.119   2.426  0.1595  0.0734 -0.7810
 9009SOL    HW138663   2.135   4.075   2.509  1.4913  0.0213 -0.5711
 9009SOL    HW238664   2.063   4.161   2.418  0.0529  0.0573  0.3560
 9010SOL     OW38665   3.306   0.322   2.328  0.0994  0.2484  0.4798
 9010SOL    HW138666   3.287   0.391   2.392  2.2985  0.9069  0.4070
 9010SOL    HW238667   3.394   0.340   2.295  0.1451 -0.1019  0.4162
 9011SOL     OW38668   4.291   1.754   5.267 -0.5078  0.5103 -0.0234
 9011SOL    HW138669   4.333   1.736   5.351 -0.2429 -0.3613 -0.3317
 9011SOL    HW238670   4.340   1.832   5.241 -2.4010  1.7503  0.1568
 9012SOL     OW38671   2.212   1.546   0.404  0.0618 -0.0043 -0.5152
 9012SOL    HW138672   2.299   1.539   0.443 -0.9024  0.5953  1.7266
 9012SOL    HW238673   2.216   1.467   0.349  2.2410 -0.3888  0.2075
 9013SOL     OW38674   0.129   0.897   7.910  0.6346  0.1611  0.1592
 9013SOL    HW138675   0.087   0.983   7.909  0.6597  0.2204  2.6907
 9013SOL    HW238676   0.153   0.899   7.817 -0.3937  1.0652 -0.0814
 9014SOL     OW38677   3.137   0.053  12.822  0.2906 -0.0752  0.1696
 9014SOL    HW138678   3.213   0.101  12.788  0.5963 -0.4275  0.3515
 9014SOL    HW238679   3.161   4.709  12.780  1.0232  1.1267 -1.7803
 9015SOL     OW38680   1.982   2.757   2.096 -0.0461  0.5532 -0.1209
 9015SOL    HW138681   1.987   2.795   2.184 -0.3595 -1.2798  0.6697
 9015SOL    HW238682   1.890   2.771   2.075 -0.1536 -1.9770 -1.2212
 9016SOL     OW38683   3.722   0.953   1.259 -0.0210  0.5021  0.2048
 9016SOL    HW138684   3.648   1.007   1.232  0.8610  0.0088 -3.1700
 9016SOL    HW238685   3.705   0.923   1.348  0.2688 -1.2434 -0.3089
 9017SOL     OW38686   2.769   0.311   7.558 -0.6119  0.3837  0.3181
 9017SOL    HW138687   2.751   0.265   7.639  0.5576  1.9760  1.4789
 9017SOL    HW238688   2.774   0.236   7.499  1.6300 -0.0887  1.1045
 9018SOL     OW38689   3.368   2.642  11.781  0.6651 -0.0283  0.3591
 9018SOL    HW138690   3.358   2.679  11.869  0.8329  1.1085 -0.1065
 9018SOL    HW238691   3.463   2.642  11.776  0.6401  0.1331 -0.1187
 9019SOL     OW38692   4.557   1.386   2.863 -0.1714 -0.4166  0.2326
 9019SOL    HW138693   4.627   1.446   2.891 -0.0033 -0.6134  0.2300
 9019SOL    HW238694   4.607   1.304   2.867 -0.1211 -0.5026 -2.4395
 9020SOL     OW38695   4.062   2.768  15.208  0.3065 -0.5087 -0.5086
 9020SOL    HW138696   3.989   2.777  15.269  0.1674 -0.8346 -0.6292
 9020SOL    HW238697   4.099   2.857  15.208  0.7553 -0.6948  0.9121
 9021SOL     OW38698   2.972   2.047   4.549 -0.0363 -0.5533  0.3742
 9021SOL    HW138699   3.064   2.074   4.548  0.1699 -1.2954 -0.1601
 9021SOL    HW238700   2.959   2.027   4.642  2.0646  0.4980  0.9050
 9022SOL     OW38701   4.134   3.367   8.523  0.5107  0.1919  0.1169
 9022SOL    HW138702   4.135   3.429   8.596 -2.0681 -0.2202  0.5117
 9022SOL    HW238703   4.220   3.327   8.536  0.4201  0.1167  0.5019
 9023SOL     OW38704   2.550   3.377   9.914  0.0603  0.0504  0.4816
 9023SOL    HW138705   2.462   3.403   9.941 -0.0417  0.3899 -0.1855
 9023SOL    HW238706   2.606   3.451   9.937  0.5148 -0.3865  0.7640
 9024SOL     OW38707   2.284   3.967  16.370  1.0934 -0.1329  0.0135
 9024SOL    HW138708   2.245   3.945  16.454 -1.7715  0.2596 -1.2063
 9024SOL    HW238709   2.336   3.889  16.351 -0.2051 -1.2913  1.1836
 9025SOL     OW38710   2.684   4.506   8.922 -0.8464  0.0374 -0.3092
 9025SOL    HW138711   2.739   4.551   8.858 -1.6905  0.1272 -0.9655
 9025SOL    HW238712   2.734   4.504   9.004 -0.8476  3.8877 -0.2475
 9026SOL     OW38713   1.917   3.819  15.446 -0.0786 -0.6917  0.0147
 9026SOL    HW138714   1.861   3.837  15.522 -0.7316  0.8940 -0.8404
 9026SOL    HW238715   1.905   3.728  15.420 -1.8910 -0.6684  0.7726
 9027SOL     OW38716   3.526   1.324  13.779  0.1339  0.1046 -0.2182
 9027SOL    HW138717   3.614   1.360  13.772 -0.3539  1.6239  1.1961
 9027SOL    HW238718   3.478   1.397  13.739  1.7967  2.4645  2.0962
 9028SOL     OW38719   2.854   3.774  17.543 -0.1798  0.2694  0.2536
 9028SOL    HW138720   2.891   3.702  17.491  1.2174  0.6302  0.7502
 9028SOL    HW238721   2.915   3.843  17.518 -2.2429  2.0492  0.1919
 9029SOL     OW38722   4.318   0.932   1.959 -0.2831 -0.2165 -0.2893
 9029SOL    HW138723   4.251   0.987   2.000 -0.2419  0.6536 -1.4075
 9029SOL    HW238724   4.340   0.864   2.023  1.2677 -0.9576 -1.5947
 9030SOL     OW38725   4.179   0.570   9.000  0.3435  0.2663  0.4785
 9030SOL    HW138726   4.198   0.663   8.984 -0.4023  0.0398 -1.7654
 9030SOL    HW238727   4.139   0.554   8.914 -0.0273 -0.6752  0.8316
 9031SOL     OW38728   1.138   3.976  16.613  0.1789 -0.0455  0.0043
 9031SOL    HW138729   1.139   3.885  16.580  0.2947  0.1773 -0.6147
 9031SOL    HW238730   1.094   4.030  16.547  2.8515 -1.1188 -2.6338
 9032SOL     OW38731   2.054   1.625   2.826  0.3922 -0.0536  1.0459
 9032SOL    HW138732   2.044   1.602   2.919 -1.1525  0.8076  1.0884
 9032SOL    HW238733   2.017   1.713   2.821  0.6212 -0.1066 -1.5932
 9033SOL     OW38734   4.553   3.107   2.602  0.5709 -0.1629 -0.2230
 9033SOL    HW138735   4.540   3.014   2.622  4.1055 -0.7392 -0.6681
 9033SOL    HW238736   4.595   3.139   2.682 -2.8278 -0.4433  1.6782
 9034SOL     OW38737   0.407   1.815   2.399  0.5570  0.3351 -0.3172
 9034SOL    HW138738   0.412   1.750   2.329  1.2898  0.2302 -0.1731
 9034SOL    HW238739   0.467   1.773   2.461  0.5244  0.9870  0.1594
 9035SOL     OW38740   3.057   2.914   4.347 -0.3600 -0.4080 -0.3885
 9035SOL    HW138741   3.140   2.946   4.312  0.6428 -1.5743  0.9775
 9035SOL    HW238742   2.999   2.990   4.337  0.5861  0.4622  0.8020
 9036SOL     OW38743   1.835   2.032   2.438 -0.4392  0.2993  0.1596
 9036SOL    HW138744   1.754   2.025   2.387 -0.3753  0.9907 -0.0377
 9036SOL    HW238745   1.796   2.051   2.523 -2.6035 -1.9296 -0.3444
 9037SOL     OW38746   1.324   3.420   8.159 -0.7020  0.1492  0.0785
 9037SOL    HW138747   1.263   3.486   8.191  1.0449  1.3694  0.9314
 9037SOL    HW238748   1.399   3.479   8.148 -1.0464  0.7623  1.0608
 9038SOL     OW38749   0.329   4.633   7.404 -0.2663  0.5699  0.1739
 9038SOL    HW138750   0.396   4.664   7.465 -0.3774 -0.7495  0.9786
 9038SOL    HW238751   0.265   4.703   7.410 -2.8929 -2.0137  2.2007
 9039SOL     OW38752   2.066   1.987   6.246 -0.0845  0.5523  0.1303
 9039SOL    HW138753   2.071   1.998   6.341  0.5955  0.2280  0.1390
 9039SOL    HW238754   2.158   1.980   6.220  0.7706 -1.5755  3.6761
 9040SOL     OW38755   1.574   3.382   4.977  0.4620  0.1070 -0.1433
 9040SOL    HW138756   1.658   3.348   4.947 -0.3307 -0.1723 -2.0513
 9040SOL    HW238757   1.541   3.400   4.889  0.6517  0.3700 -0.1624
 9041SOL     OW38758   2.835   2.662   9.985  0.1659  0.2980 -0.4679
 9041SOL    HW138759   2.842   2.585   9.928  1.6330  0.3122 -0.3052
 9041SOL    HW238760   2.803   2.724   9.920  1.3934  1.9026  0.4872
 9042SOL     OW38761   2.448   4.174   5.406 -0.4156  0.0486  0.0294
 9042SOL    HW138762   2.491   4.130   5.333 -2.0012 -0.5824 -0.5162
 9042SOL    HW238763   2.358   4.165   5.374 -0.5873  0.5705  0.3621
 9043SOL     OW38764   4.585   2.988   8.957  0.3189  0.4114  0.8779
 9043SOL    HW138765   4.613   2.983   8.866 -0.3539  3.2124  0.5279
 9043SOL    HW238766   4.497   3.022   8.944  1.2335  1.9878 -1.0310
 9044SOL     OW38767   0.787   2.701   1.509  0.3478 -0.3953 -0.3310
 9044SOL    HW138768   0.837   2.710   1.590 -0.8740  0.4256  0.3356
 9044SOL    HW238769   0.714   2.653   1.549 -0.3696  1.7190  0.8837
 9045SOL     OW38770   3.487   2.089   9.287 -0.4493  0.3849  0.6166
 9045SOL    HW138771   3.440   2.017   9.329 -0.6188  0.0078 -0.2254
 9045SOL    HW238772   3.417   2.150   9.264  0.2649  0.8492 -0.2955
 9046SOL     OW38773   1.377   4.025   0.205  0.0384 -0.8396 -0.4876
 9046SOL    HW138774   1.291   4.055   0.176 -0.7510 -0.6914  2.0506
 9046SOL    HW238775   1.425   4.057   0.129 -0.1345 -1.0235 -0.6761
 9047SOL     OW38776   1.131   1.092  14.687  0.4414  0.1341 -0.2744
 9047SOL    HW138777   1.117   1.185  14.703  0.7058  0.3716 -1.3907
 9047SOL    HW238778   1.128   1.053  14.774 -0.1748 -1.5329 -1.0465
 9048SOL     OW38779   2.511   3.390   7.522  0.1527  0.6370  0.0069
 9048SOL    HW138780   2.587   3.384   7.580 -0.2012 -1.5758  0.2420
 9048SOL    HW238781   2.450   3.449   7.565  0.5211  2.1206 -1.5389
 9049SOL     OW38782   3.697   0.604   5.338 -0.1208  0.4642 -0.0525
 9049SOL    HW138783   3.766   0.654   5.295  2.8158 -2.1006  1.6934
 9049SOL    HW238784   3.748   0.528   5.365  0.1208 -0.1795 -2.3190
 9050SOL     OW38785   2.965   2.065   7.394 -0.5921 -0.5718  0.3283
 9050SOL    HW138786   3.042   2.107   7.433  1.0409 -2.4816 -0.8553
 9050SOL    HW238787   2.989   1.974   7.409 -0.4172 -0.8619 -1.7647
 9051SOL     OW38788   3.447   1.011   1.292 -0.0703 -0.6890 -0.7086
 9051SOL    HW138789   3.441   0.988   1.199 -0.4717 -0.8302 -0.6476
 9051SOL    HW238790   3.354   0.994   1.308  0.1576 -1.0564  0.2370
 9052SOL     OW38791   4.479   0.954   4.836  0.0290  0.0010  0.4959
 9052SOL    HW138792   4.563   0.916   4.810 -0.4601 -0.5342 -0.2843
 9052SOL    HW238793   4.513   1.038   4.866 -0.1522  0.1588  0.2628
 9053SOL     OW38794   2.659   0.622   4.390  0.0816 -0.2143 -0.0634
 9053SOL    HW138795   2.696   0.687   4.331 -0.5044  1.4644  1.4190
 9053SOL    HW238796   2.648   0.663   4.476 -0.9526  1.2287 -0.8925
 9054SOL     OW38797   4.415   3.895   6.132 -0.1922 -0.2307 -0.0899
 9054SOL    HW138798   4.445   3.980   6.166  0.3253 -0.9422  1.2172
 9054SOL    HW238799   4.320   3.906   6.133 -0.0347  1.0076  1.9419
 9055SOL     OW38800   3.290   2.873   2.529  0.3585  0.6352  0.4864
 9055SOL    HW138801   3.237   2.810   2.479  2.7326 -0.0479 -1.1697
 9055SOL    HW238802   3.340   2.810   2.580 -0.5305 -1.1553 -0.8129
 9056SOL     OW38803   3.172   4.413  12.343  0.0835 -0.1544 -0.5038
 9056SOL    HW138804   3.178   4.319  12.327  0.4395 -0.2812  0.3805
 9056SOL    HW238805   3.154   4.403  12.436 -0.5997 -0.5447 -0.6754
 9057SOL     OW38806   3.077   3.510   9.021  0.7027 -0.2647  0.1820
 9057SOL    HW138807   3.149   3.458   9.057  0.7629  0.2852  0.8493
 9057SOL    HW238808   3.090   3.588   9.074 -0.4586 -0.0912  0.2104
 9058SOL     OW38809   1.339   2.893   3.441  0.1123 -0.0226 -0.0407
 9058SOL    HW138810   1.257   2.923   3.478  0.0912 -0.6479  0.4072
 9058SOL    HW238811   1.390   2.975   3.448 -1.0671  0.6332  0.8211
 9059SOL     OW38812   2.760   1.621  13.240  0.1700 -0.7150  0.5567
 9059SOL    HW138813   2.673   1.647  13.269  1.0336 -0.5312  2.9710
 9059SOL    HW238814   2.750   1.588  13.150  1.4363 -1.8415  0.8260
 9060SOL     OW38815   2.812   0.180   0.673 -0.2605  0.3687  0.6576
 9060SOL    HW138816   2.790   0.119   0.603 -0.6727  0.8466  0.3744
 9060SOL    HW238817   2.731   0.177   0.724  0.2503  1.3814  1.5495
 9061SOL     OW38818   0.644   0.159   7.941 -0.3400  0.3282  0.0616
 9061SOL    HW138819   0.699   0.225   7.983 -0.5142 -0.6516  1.8444
 9061SOL    HW238820   0.599   0.139   8.023 -1.3211 -0.0381 -0.5666
 9062SOL     OW38821   1.401   4.661   8.628 -0.4474  0.5543  0.2246
 9062SOL    HW138822   1.320   4.612   8.642  0.9314 -2.4845 -2.5250
 9062SOL    HW238823   1.393   4.723   8.701 -1.0970  0.1601  0.4941
 9063SOL     OW38824   1.922   3.590   2.795 -0.3764 -0.3465 -0.8987
 9063SOL    HW138825   2.011   3.596   2.831 -0.0605 -0.7862 -1.6189
 9063SOL    HW238826   1.932   3.536   2.717  1.6875 -1.0238 -0.1710
 9064SOL     OW38827   3.563   4.092   3.944  0.3109  0.1304 -0.5955
 9064SOL    HW138828   3.535   4.010   3.902  0.6452 -1.0724  1.5175
 9064SOL    HW238829   3.657   4.074   3.943  0.3709  0.3798  0.5063
 9065SOL     OW38830   1.589   4.354  17.537 -0.2114  0.8766  0.5123
 9065SOL    HW138831   1.501   4.334  17.505 -0.5655 -3.1869  4.1033
 9065SOL    HW238832   1.648   4.305  17.479 -0.8243  1.6547 -0.7598
 9066SOL     OW38833   1.267   3.499   0.744  0.1996 -0.3402  0.6915
 9066SOL    HW138834   1.269   3.528   0.653 -1.2726 -2.8001 -0.1337
 9066SOL    HW238835   1.360   3.485   0.761  0.4874  0.5582 -0.1574
 9067SOL     OW38836   3.230   4.011   7.612  0.3910 -0.4277 -0.0327
 9067SOL    HW138837   3.146   4.047   7.584  1.1375  0.9956 -0.4445
 9067SOL    HW238838   3.206   4.019   7.705  1.0418  0.8941  0.0208
 9068SOL     OW38839   3.701   1.050   6.007  0.0587  0.2456  0.1563
 9068SOL    HW138840   3.714   1.049   5.912 -2.8420  3.7261 -0.2331
 9068SOL    HW238841   3.785   1.081   6.041  0.2391 -0.1546  0.0760
 9069SOL     OW38842   1.236   3.877   2.776 -0.2914  0.4811 -0.1235
 9069SOL    HW138843   1.272   3.874   2.865  1.4071 -0.1532 -0.8394
 9069SOL    HW238844   1.166   3.940   2.793 -1.8821 -0.8285 -1.7243
 9070SOL     OW38845   3.162   0.394   4.329 -0.2899 -0.2923  0.1882
 9070SOL    HW138846   3.140   0.315   4.279 -0.2385  0.3831 -0.9031
 9070SOL    HW238847   3.156   0.373   4.422 -0.1224 -1.3849 -0.0489
 9071SOL     OW38848   0.548   2.333   0.038 -0.7201  0.3478  0.2498
 9071SOL    HW138849   0.618   2.268   0.030 -1.5147 -0.1779 -2.3710
 9071SOL    HW238850   0.492   2.292   0.104 -0.0128 -1.7013 -0.4058
 9072SOL     OW38851   0.325   2.914   7.221 -0.0583 -0.0393 -0.1326
 9072SOL    HW138852   0.307   2.947   7.133 -1.6322  1.8334  0.8804
 9072SOL    HW238853   0.280   2.830   7.220 -0.3067  0.0289  3.2468
 9073SOL     OW38854   4.129   1.832   0.685  0.3624 -0.5427 -0.1465
 9073SOL    HW138855   4.065   1.761   0.689  0.4373 -0.4350  3.3588
 9073SOL    HW238856   4.190   1.794   0.621 -1.9045 -1.9505 -1.4696
 9074SOL     OW38857   3.646   1.774   4.858  0.1169  0.3060 -0.6190
 9074SOL    HW138858   3.669   1.743   4.946 -0.2019 -0.0701 -0.6657
 9074SOL    HW238859   3.683   1.705   4.802  0.0995 -0.9526  0.9194
 9075SOL     OW38860   0.342   0.808   0.751 -0.1472  0.1714 -0.2726
 9075SOL    HW138861   0.391   0.873   0.701 -0.1920  1.4974  1.3904
 9075SOL    HW238862   0.269   0.794   0.691 -1.0520 -0.8720  1.0616
 9076SOL     OW38863   4.120   2.983   6.589 -0.6428  0.2529 -0.4902
 9076SOL    HW138864   4.138   2.893   6.562 -0.7804 -0.4095  1.6393
 9076SOL    HW238865   4.187   3.028   6.538 -0.6572  1.3065  0.4083
 9077SOL     OW38866   0.964   3.956   7.177 -0.0037 -0.2515 -0.2740
 9077SOL    HW138867   0.877   3.957   7.216  0.6288  0.1391  1.1523
 9077SOL    HW238868   0.994   4.045   7.192  0.0575 -0.0314 -1.7391
 9078SOL     OW38869   2.368   0.716   2.864  0.3138 -0.3283  0.1303
 9078SOL    HW138870   2.305   0.649   2.838  0.3901  0.3279 -1.7518
 9078SOL    HW238871   2.379   0.699   2.957 -2.5590 -2.7292  0.0363
 9079SOL     OW38872   3.068   3.766   8.728 -0.7828 -0.1232  0.1774
 9079SOL    HW138873   3.098   3.704   8.662  0.7590  2.2069 -1.3202
 9079SOL    HW238874   3.098   3.851   8.697 -1.3711 -0.5623 -1.5755
 9080SOL     OW38875   4.150   2.305   5.035  0.8389 -0.0377 -0.2518
 9080SOL    HW138876   4.057   2.285   5.046  1.1859 -0.9016  1.0256
 9080SOL    HW238877   4.148   2.375   4.970  1.4240 -0.2886 -0.5366
 9081SOL     OW38878   2.100   2.762   7.489 -0.3658 -0.1979  0.1907
 9081SOL    HW138879   2.111   2.817   7.567 -2.6758  1.2721 -0.5220
 9081SOL    HW238880   2.185   2.724   7.471 -2.0874 -2.4459 -3.1831
 9082SOL     OW38881   3.837   4.612   4.640 -0.2326  0.5095 -0.1987
 9082SOL    HW138882   3.924   4.652   4.646 -0.6483  1.0758  1.9150
 9082SOL    HW238883   3.819   4.623   4.546 -0.1516  3.9699  0.1838
 9083SOL     OW38884   1.710   3.382   4.655 -0.2756  0.0819 -0.3906
 9083SOL    HW138885   1.762   3.322   4.709 -0.5260  1.3358  1.2532
 9083SOL    HW238886   1.621   3.355   4.678 -0.8390  1.8550 -0.4955
 9084SOL     OW38887   3.780   4.649   1.004 -0.1686  0.5416  0.0129
 9084SOL    HW138888   3.755   4.663   0.912  0.5444 -1.6721 -0.5155
 9084SOL    HW238889   3.807   4.557   1.008 -0.2057  0.6559  2.3524
 9085SOL     OW38890   4.657   0.747   1.867 -0.1178  0.4567 -0.1488
 9085SOL    HW138891   4.646   0.748   1.771  0.4689  0.8173 -0.2094
 9085SOL    HW238892   4.598   0.675   1.892 -1.1516  1.7369  1.0880
 9086SOL     OW38893   1.381   3.220   8.335 -0.1748  0.5380 -0.0965
 9086SOL    HW138894   1.454   3.183   8.285  0.8144 -0.2531  1.9488
 9086SOL    HW238895   1.347   3.282   8.271 -2.2022 -1.3088 -0.8054
 9087SOL     OW38896   3.536   4.726   1.902  0.2195 -0.4623  0.2866
 9087SOL    HW138897   3.527   0.048   1.828 -2.0605 -0.5141  0.5032
 9087SOL    HW238898   3.509   0.042   1.976 -2.5652 -0.9000 -0.3973
 9088SOL     OW38899   4.065   1.430   1.614 -0.1875 -0.1661 -0.7598
 9088SOL    HW138900   4.023   1.482   1.683 -2.9094 -1.2704 -1.6028
 9088SOL    HW238901   4.148   1.477   1.609 -0.3563  0.3361  1.0729
 9089SOL     OW38902   4.075   1.285   7.608  0.5160 -0.0251 -0.0436
 9089SOL    HW138903   4.107   1.368   7.572  0.1600  0.1953  0.1458
 9089SOL    HW238904   3.986   1.313   7.630  0.0363  1.3037 -3.5248
 9090SOL     OW38905   0.840   3.274   9.706 -0.4945 -0.1506  0.4257
 9090SOL    HW138906   0.813   3.307   9.792  0.6449 -0.0604  0.7483
 9090SOL    HW238907   0.893   3.348   9.676  1.8508 -1.9306  0.2170
 9091SOL     OW38908   2.910   2.210  13.948  0.3492  0.1572  0.0422
 9091SOL    HW138909   2.999   2.187  13.922  0.2978 -0.8893  0.7946
 9091SOL    HW238910   2.930   2.256  14.029 -3.5433 -0.9650  1.6431
 9092SOL     OW38911   4.651   2.642   4.011  0.1797  0.7091  0.7139
 9092SOL    HW138912   4.577   2.698   3.990  2.1003  2.6100 -0.9492
 9092SOL    HW238913   4.678   2.615   3.923 -1.0047  0.1107  0.5357
 9093SOL     OW38914   3.684   3.849   8.418  0.3675  0.1630 -0.1622
 9093SOL    HW138915   3.749   3.781   8.436  0.9188  0.3003 -1.6426
 9093SOL    HW238916   3.622   3.800   8.364 -2.0252 -0.0899  2.7727
 9094SOL     OW38917   2.775   2.380   7.081  0.0268 -0.9353  0.2172
 9094SOL    HW138918   2.869   2.372   7.095  0.3133 -0.3465 -1.3264
 9094SOL    HW238919   2.770   2.447   7.012  0.6269  0.1390  1.2281
 9095SOL     OW38920   1.143   2.130   5.063  0.2784  0.2782 -0.3188
 9095SOL    HW138921   1.144   2.188   4.986 -0.1528 -0.5613 -0.9549
 9095SOL    HW238922   1.177   2.189   5.130  0.4831  0.6887 -0.7814
 9096SOL     OW38923   3.931   2.309   5.519 -0.6321 -0.7158  0.0620
 9096SOL    HW138924   4.020   2.292   5.551 -0.0887  1.0986 -0.4982
 9096SOL    HW238925   3.922   2.232   5.463  2.3038  0.6418 -2.2846
 9097SOL     OW38926   4.437   4.634   8.505 -0.0395  0.4458  0.6773
 9097SOL    HW138927   4.391   4.680   8.435 -0.6877 -0.7344  0.3347
 9097SOL    HW238928   4.466   4.705   8.562 -0.2028  0.6885  0.4595
 9098SOL     OW38929   3.101   3.767   9.241 -0.5010 -0.1691 -0.2601
 9098SOL    HW138930   3.193   3.742   9.253 -0.0998  0.4669 -1.9314
 9098SOL    HW238931   3.105   3.815   9.158 -1.1149 -0.5599 -0.5146
 9099SOL     OW38932   1.639   1.049  11.277  0.1250 -0.2165 -0.4865
 9099SOL    HW138933   1.638   1.106  11.354  0.0752  1.3132 -1.6285
 9099SOL    HW238934   1.650   0.965  11.322 -0.5319 -0.0849 -0.0776
 9100SOL     OW38935   1.148   4.573   2.576 -0.5280  0.3074  0.3373
 9100SOL    HW138936   1.230   4.603   2.616  0.0570 -1.5420  0.5619
 9100SOL    HW238937   1.137   4.487   2.618 -0.7167  0.9324  1.5514
 9101SOL     OW38938   4.058   2.203   1.747  0.2894 -0.6225 -0.0122
 9101SOL    HW138939   4.136   2.259   1.745  1.1290 -1.7913  0.3780
 9101SOL    HW238940   4.028   2.221   1.658  1.3024  2.8324  0.3111
 9102SOL     OW38941   4.388   2.463   5.575  0.5079 -0.0591  0.1743
 9102SOL    HW138942   4.453   2.395   5.555  0.4585  0.6682 -2.4652
 9102SOL    HW238943   4.437   2.539   5.604 -1.1248  1.2921 -0.6089
 9103SOL     OW38944   1.587   4.448   2.715 -0.3695  0.0303 -0.1954
 9103SOL    HW138945   1.638   4.487   2.786 -0.4965  0.2116 -0.2009
 9103SOL    HW238946   1.650   4.452   2.643 -0.5621  1.1513 -0.3045
 9104SOL     OW38947   3.089   0.293   2.709 -0.7395  0.2391  0.2776
 9104SOL    HW138948   3.063   0.343   2.632  0.6247  0.3563 -0.1031
 9104SOL    HW238949   3.149   0.352   2.754  1.0478 -0.0427 -1.7492
 9105SOL     OW38950   2.614   1.780  16.326  0.7770  0.1133  0.2475
 9105SOL    HW138951   2.645   1.742  16.244 -4.3420 -0.7921 -1.2875
 9105SOL    HW238952   2.652   1.726  16.395 -0.1782 -0.5503  0.2597
 9106SOL     OW38953   2.361   3.609   4.463 -0.2303 -0.1962  0.3228
 9106SOL    HW138954   2.386   3.518   4.453 -0.5939 -0.1009 -1.4570
 9106SOL    HW238955   2.346   3.639   4.373  0.3159 -0.7321  0.0596
 9107SOL     OW38956   0.911   4.647   5.437  0.3976 -0.2836 -0.0911
 9107SOL    HW138957   0.981   4.604   5.388  0.4790  0.8536 -0.9519
 9107SOL    HW238958   0.957   4.679   5.515  0.2425  1.0882 -0.5814
 9108SOL     OW38959   0.949   4.591   7.654  0.5005  0.3567  0.0349
 9108SOL    HW138960   1.004   4.514   7.639 -1.1744 -1.2379  2.0912
 9108SOL    HW238961   1.016   4.653   7.685  3.6211 -2.9177 -0.0812
 9109SOL     OW38962   3.436   2.396   2.056 -0.0865  0.3669 -0.2965
 9109SOL    HW138963   3.353   2.401   2.008  0.2288  0.7330 -0.7943
 9109SOL    HW238964   3.489   2.465   2.018  0.4933  0.5510  0.8416
 9110SOL     OW38965   4.656   0.680   6.640 -0.4388 -0.1574  0.4130
 9110SOL    HW138966   0.003   0.672   6.681  1.1710 -0.2234 -2.9853
 9110SOL    HW238967   4.645   0.588   6.616 -2.8856  0.7250 -1.8511
 9111SOL     OW38968   3.371   2.080  10.272  0.1020 -0.3551 -0.3637
 9111SOL    HW138969   3.378   2.175  10.263  1.2189 -0.1581  2.7619
 9111SOL    HW238970   3.340   2.051  10.186 -1.1378 -2.2408  0.7227
 9112SOL     OW38971   2.523   3.125  12.405  0.0002 -0.3142 -0.2862
 9112SOL    HW138972   2.530   3.040  12.448  3.7951 -1.0054 -2.3150
 9112SOL    HW238973   2.491   3.182  12.476 -2.2421 -1.0075 -0.7322
 9113SOL     OW38974   4.634   1.193   2.612 -0.1091  0.4973 -0.0085
 9113SOL    HW138975   4.576   1.263   2.582  0.5976  1.0228 -0.1765
 9113SOL    HW238976   4.596   1.155   2.690 -0.4343  0.4054 -0.2127
 9114SOL     OW38977   0.807   2.067  11.412 -0.5104 -0.1217 -0.0791
 9114SOL    HW138978   0.878   2.038  11.355  1.1942  0.2807  1.8566
 9114SOL    HW238979   0.853   2.109  11.485 -0.4660  0.1328 -0.2526
 9115SOL     OW38980   4.139   4.694  11.903 -0.3505 -0.0960  0.5818
 9115SOL    HW138981   4.207   4.718  11.841 -0.8887  1.1855  0.4663
 9115SOL    HW238982   4.084   0.034  11.899 -1.1510 -0.6565  0.5263
 9116SOL     OW38983   3.290   2.274   3.398  0.0318 -0.3634 -0.3594
 9116SOL    HW138984   3.356   2.205   3.405 -0.1888 -0.6383 -1.0001
 9116SOL    HW238985   3.343   2.346   3.366 -0.4296  0.1521  0.0407
 9117SOL     OW38986   3.986   3.430   7.656  0.1042  0.0341 -0.1246
 9117SOL    HW138987   4.042   3.357   7.629  0.3241  0.4106 -0.7049
 9117SOL    HW238988   3.996   3.434   7.751 -1.9639 -1.4603  0.1604
 9118SOL     OW38989   4.720   3.789   4.562 -0.2734 -0.0802 -0.0988
 9118SOL    HW138990   0.006   3.868   4.515  0.3112  0.1101  0.5305
 9118SOL    HW238991   0.067   3.746   4.560 -0.2412 -0.2251  3.4429
 9119SOL     OW38992   0.538   1.737   7.468 -0.2332 -0.1819 -0.0051
 9119SOL    HW138993   0.541   1.800   7.396 -1.3250 -2.0451 -1.6968
 9119SOL    HW238994   0.468   1.769   7.524 -1.2593 -1.6919 -0.4181
 9120SOL     OW38995   3.830   1.395  10.275  0.0740 -0.0815 -0.3297
 9120SOL    HW138996   3.738   1.386  10.300  0.4251 -2.1668  0.1985
 9120SOL    HW238997   3.832   1.344  10.194  1.2963 -0.3401 -0.1368
 9121SOL     OW38998   1.705   0.718   9.685  0.0736 -0.3576 -0.1098
 9121SOL    HW138999   1.618   0.734   9.723  0.5769  0.0041  0.8973
 9121SOL    HW239000   1.706   0.627   9.657  1.9455  0.2130 -1.8430
 9122SOL     OW39001   0.768   3.132  10.407 -0.6169 -0.3811 -0.2371
 9122SOL    HW139002   0.697   3.191  10.381  0.5857  1.2117  0.0844
 9122SOL    HW239003   0.759   3.146  10.501 -0.4139 -1.9027  0.0128
 9123SOL     OW39004   2.352   1.822  13.574  0.4088 -0.2013  0.1391
 9123SOL    HW139005   2.346   1.885  13.502  0.1203 -2.0641 -1.4563
 9123SOL    HW239006   2.380   1.892  13.633  0.5440 -0.4333  0.3497
 9124SOL     OW39007   4.261   3.688   6.782 -0.5161 -0.4901 -0.1132
 9124SOL    HW139008   4.292   3.676   6.872 -2.4890 -1.3880  0.4420
 9124SOL    HW239009   4.174   3.648   6.788  0.4555 -2.7863 -1.5329
 9125SOL     OW39010   3.823   2.356   3.729 -0.0315  0.1901 -0.1719
 9125SOL    HW139011   3.768   2.362   3.807 -0.2584  3.3380 -0.5525
 9125SOL    HW239012   3.768   2.411   3.673 -3.5064 -2.5461  0.5694
 9126SOL     OW39013   0.096   3.701   6.457 -0.0182 -0.7682 -0.2908
 9126SOL    HW139014   0.033   3.761   6.416  0.3613 -0.7150 -0.7989
 9126SOL    HW239015   0.134   3.665   6.377  1.0791 -1.5839  0.6062
 9127SOL     OW39016   0.340   4.091   4.757  0.0929 -0.0431  0.0462
 9127SOL    HW139017   0.367   4.052   4.840  0.6901 -3.8298 -1.9432
 9127SOL    HW239018   0.340   4.017   4.696 -1.0463  1.3458 -1.6536
 9128SOL     OW39019   3.601   2.109   7.015  0.1820 -0.0873 -0.7712
 9128SOL    HW139020   3.529   2.073   6.963 -1.3596  1.0186  0.5624
 9128SOL    HW239021   3.609   2.046   7.087 -0.4997 -0.1409 -0.7367
 9129SOL     OW39022   0.779   1.012   6.625  0.0437  0.0370 -0.4200
 9129SOL    HW139023   0.813   1.100   6.643 -0.8734  0.1681  0.6987
 9129SOL    HW239024   0.692   1.044   6.599  0.9837  0.4530 -3.0269
 9130SOL     OW39025   1.547   3.172   3.854 -0.2774  0.1869 -0.0068
 9130SOL    HW139026   1.619   3.144   3.910 -0.5296  0.7142  0.5842
 9130SOL    HW239027   1.475   3.123   3.892  1.9161 -1.3980  2.1252
 9131SOL     OW39028   2.025   3.542  17.443 -0.4293 -0.0232 -0.5370
 9131SOL    HW139029   2.049   3.624  17.486 -0.7605  0.6416 -1.6259
 9131SOL    HW239030   2.016   3.483  17.517 -0.3622 -0.1709 -0.6473
 9132SOL     OW39031   2.268   1.034   5.648 -0.9107 -0.1287  0.0441
 9132SOL    HW139032   2.345   1.017   5.594  1.1514  0.5971  2.7410
 9132SOL    HW239033   2.258   1.129   5.639 -1.4355 -0.1705  0.1725
 9133SOL     OW39034   2.735   3.267  17.594 -0.1545  0.1713 -0.1552
 9133SOL    HW139035   2.756   3.331  17.526 -2.2181 -1.1306 -2.0168
 9133SOL    HW239036   2.703   3.191  17.547  0.8170 -1.5000  1.8926
 9134SOL     OW39037   3.329   0.226  12.725  0.0920 -0.7352 -0.0898
 9134SOL    HW139038   3.382   0.284  12.779  0.0776 -1.3302  0.5631
 9134SOL    HW239039   3.399   0.163  12.708 -0.5495 -1.4422 -0.1357
 9135SOL     OW39040   0.804   0.772   5.770  0.2967 -0.0858  0.2073
 9135SOL    HW139041   0.736   0.708   5.746 -0.5826  0.6661  0.6913
 9135SOL    HW239042   0.820   0.748   5.861  1.7620 -0.5003 -0.1612
 9136SOL     OW39043   1.704   4.099   2.766 -0.1885 -0.4798  0.1544
 9136SOL    HW139044   1.738   4.152   2.838 -1.1724  1.4924 -0.8345
 9136SOL    HW239045   1.699   4.008   2.794 -1.4069 -0.2996  0.5485
 9137SOL     OW39046   0.055   2.842   4.318  0.1277  0.0018 -0.4308
 9137SOL    HW139047   0.048   2.936   4.335  0.5257  0.2630 -1.7182
 9137SOL    HW239048   0.114   2.810   4.386 -1.2527 -0.8490  0.3679
 9138SOL     OW39049   0.481   4.412   5.790 -0.0352 -0.1509  1.0571
 9138SOL    HW139050   0.403   4.392   5.738  0.5735 -1.0087  0.4672
 9138SOL    HW239051   0.481   4.508   5.784  1.1593 -0.2457 -0.3936
 9139SOL     OW39052   1.614   0.455   3.012  0.1375 -0.4202 -0.1325
 9139SOL    HW139053   1.639   0.369   2.977 -1.7388 -0.4015 -1.5150
 9139SOL    HW239054   1.651   0.450   3.100 -2.3087  0.4440  0.9462
 9140SOL     OW39055   4.323   2.743   4.820 -0.5236  0.3262  0.4518
 9140SOL    HW139056   4.306   2.705   4.734 -0.3363  1.1713  0.0426
 9140SOL    HW239057   4.242   2.742   4.871 -1.6286 -1.6217 -1.3338
 9141SOL     OW39058   1.073   4.085   6.710 -0.5125  0.6384  0.3586
 9141SOL    HW139059   0.997   4.101   6.767 -0.4435  2.8808 -0.1671
 9141SOL    HW239060   1.062   4.137   6.630 -1.4600  0.1684  0.1859
 9142SOL     OW39061   1.351   1.246   6.827 -0.8588 -1.1597 -0.4267
 9142SOL    HW139062   1.410   1.276   6.758 -1.1504 -0.1591 -0.2371
 9142SOL    HW239063   1.405   1.174   6.859 -0.5649 -1.6248 -1.9859
 9143SOL     OW39064   3.141   2.736   7.343 -0.7900  0.0986 -0.3986
 9143SOL    HW139065   3.188   2.677   7.403 -1.6895  1.8386  1.9973
 9143SOL    HW239066   3.089   2.782   7.409  0.3614  1.5408 -0.4971
 9144SOL     OW39067   2.456   0.897   6.544 -0.0050  0.0656  0.5984
 9144SOL    HW139068   2.470   0.802   6.537  0.5322  0.2175 -0.3944
 9144SOL    HW239069   2.547   0.914   6.519 -0.5644  3.0755  0.6545
 9145SOL     OW39070   2.368   1.960   2.094 -0.3052  0.1417  0.0919
 9145SOL    HW139071   2.353   1.878   2.047 -0.8001  0.3849 -0.1698
 9145SOL    HW239072   2.376   2.009   2.012  2.5067 -1.1361 -0.3957
 9146SOL     OW39073   1.841   0.207   5.332 -0.5014 -0.3495 -0.1368
 9146SOL    HW139074   1.908   0.270   5.305  0.1180 -1.1401 -0.4476
 9146SOL    HW239075   1.869   0.185   5.420  1.0952 -0.9284 -0.7876
 9147SOL     OW39076   3.430   4.106   2.246 -0.2824 -0.0555 -0.1537
 9147SOL    HW139077   3.400   4.019   2.270  0.0939 -0.0554  0.3173
 9147SOL    HW239078   3.350   4.156   2.231 -0.3556 -0.0533  0.2391
 9148SOL     OW39079   0.743   1.554   1.387 -0.2152  0.3415 -0.0610
 9148SOL    HW139080   0.721   1.556   1.294 -1.4464 -2.5058  0.1603
 9148SOL    HW239081   0.659   1.560   1.432 -1.3956 -1.2425 -2.0862
 9149SOL     OW39082   0.846   0.247   3.927 -0.1606 -0.1261  0.0685
 9149SOL    HW139083   0.852   0.334   3.966 -0.0902  0.3395 -0.9917
 9149SOL    HW239084   0.936   0.223   3.907  0.3451  2.3337 -0.6041
 9150SOL     OW39085   2.733   2.503  17.634 -0.0893 -0.2616 -0.3622
 9150SOL    HW139086   2.743   2.597  17.650  2.5849 -0.6720  0.3792
 9150SOL    HW239087   2.691   2.511  17.548  1.0275  3.1611 -0.5864
 9151SOL     OW39088   4.277   1.819   8.959 -0.0325 -0.2070 -0.2441
 9151SOL    HW139089   4.254   1.773   9.040  0.5826 -1.3544 -0.7166
 9151SOL    HW239090   4.309   1.740   8.915 -2.8750 -0.0624 -2.5484
 9152SOL     OW39091   3.042   1.143   2.826  0.2650  0.7798  0.1720
 9152SOL    HW139092   3.000   1.220   2.789  1.2595  1.0618 -0.3569
 9152SOL    HW239093   3.135   1.154   2.807  0.0617  2.4751  0.1885
 9153SOL     OW39094   4.184   3.093   9.121 -0.0502  0.3214 -0.0068
 9153SOL    HW139095   4.216   3.077   9.032  0.3088 -2.5801  0.6478
 9153SOL    HW239096   4.247   3.039   9.168 -0.1378  0.5678  0.3976
 9154SOL     OW39097   4.469   4.140   6.224  0.0713 -0.3100 -0.5145
 9154SOL    HW139098   4.396   4.118   6.281  0.9868  0.4720  0.9346
 9154SOL    HW239099   4.528   4.192   6.279 -0.0046  0.0034 -0.7288
 9155SOL     OW39100   3.580   2.608   8.853 -0.7537  0.4330  0.6843
 9155SOL    HW139101   3.627   2.544   8.906  1.5578  0.5191 -1.2115
 9155SOL    HW239102   3.596   2.685   8.907 -0.0987  1.6651 -1.2550
 9156SOL     OW39103   0.193   4.090   4.153  0.1735  0.3217  0.6755
 9156SOL    HW139104   0.103   4.061   4.163  0.7329 -0.6720  2.9280
 9156SOL    HW239105   0.196   4.155   4.224 -3.4843  0.1474  0.9961
 9157SOL     OW39106   3.600   3.156   9.323  0.0710  0.6137  0.3010
 9157SOL    HW139107   3.670   3.191   9.378 -0.4945  0.2239  1.2715
 9157SOL    HW239108   3.520   3.152   9.376  0.7502 -0.8585  1.2316
 9158SOL     OW39109   4.364   4.347   0.730 -0.0504  0.7484  0.0377
 9158SOL    HW139110   4.313   4.382   0.657 -0.3549 -0.1549 -0.1777
 9158SOL    HW239111   4.302   4.280   0.759  2.5640 -2.2952 -1.4568
 9159SOL     OW39112   1.947   3.447   6.178  0.3522 -0.0888  0.2928
 9159SOL    HW139113   1.986   3.514   6.234  0.8440 -1.2624  1.3495
 9159SOL    HW239114   1.979   3.477   6.093 -1.4038 -2.0755 -1.0540
 9160SOL     OW39115   4.705   4.110   1.849 -0.0683 -0.1253 -0.5794
 9160SOL    HW139116   0.008   4.038   1.896 -0.1012  0.5504  0.4843
 9160SOL    HW239117   4.651   4.150   1.916  0.0068 -1.4949  0.3032
 9161SOL     OW39118   2.728   2.489   4.182  0.7857 -0.1327 -0.4835
 9161SOL    HW139119   2.739   2.476   4.088 -0.0924  1.4755 -0.8153
 9161SOL    HW239120   2.797   2.430   4.209 -1.2709 -2.3128 -0.0235
 9162SOL     OW39121   3.079   2.545   4.702 -0.0012  0.0775  0.1765
 9162SOL    HW139122   3.064   2.638   4.686 -0.3828 -0.1365 -0.6865
 9162SOL    HW239123   2.992   2.510   4.683  0.5042 -0.8823 -0.3650
 9163SOL     OW39124   4.086   1.056   8.798  0.0495 -0.5434 -0.3369
 9163SOL    HW139125   4.172   1.049   8.838  0.0425 -0.6688 -0.3433
 9163SOL    HW239126   4.045   1.136   8.830  1.8227  0.2855 -0.1892
 9164SOL     OW39127   4.540   4.566   6.857  0.5214 -0.1871 -0.1533
 9164SOL    HW139128   4.454   4.525   6.873  1.0158  0.2702  3.5185
 9164SOL    HW239129   4.591   4.488   6.880  0.9106  0.0103 -0.3542
 9165SOL     OW39130   2.482   1.340   7.727 -0.5325  0.0605  0.4468
 9165SOL    HW139131   2.509   1.330   7.636  2.6410  1.7343  1.2052
 9165SOL    HW239132   2.419   1.268   7.734  2.0491 -2.3020 -0.8622
 9166SOL     OW39133   2.744   3.988  15.156 -0.4546 -0.0883  0.4858
 9166SOL    HW139134   2.790   4.064  15.121 -1.9416  0.5316 -0.1586
 9166SOL    HW239135   2.669   3.992  15.097 -1.6174  0.0980  1.9486
 9167SOL     OW39136   2.268   4.188   0.254 -0.0175  0.3661  0.4095
 9167SOL    HW139137   2.279   4.241   0.175  1.2887  1.6501  1.4571
 9167SOL    HW239138   2.183   4.220   0.283 -0.2680  0.0083  0.0701
 9168SOL     OW39139   0.527   4.180   7.932 -0.3385 -0.8559  0.3668
 9168SOL    HW139140   0.590   4.120   7.891  1.0431  1.0915 -0.3292
 9168SOL    HW239141   0.590   4.232   7.982 -1.0510  0.6676 -0.3364
 9169SOL     OW39142   4.061   2.129   6.958  0.0127 -0.4155 -0.8733
 9169SOL    HW139143   4.082   2.096   7.045  1.9684 -0.8622 -1.5288
 9169SOL    HW239144   4.068   2.043   6.917 -4.1699 -0.6511 -1.0796
 9170SOL     OW39145   4.124   2.195   2.953  0.4842 -0.0026  0.3265
 9170SOL    HW139146   4.029   2.207   2.961  0.9067  3.1251  0.5289
 9170SOL    HW239147   4.128   2.111   2.907 -0.6532 -1.4737  2.8595
 9171SOL     OW39148   1.603   3.826   7.549  0.1397 -0.1279  0.0602
 9171SOL    HW139149   1.555   3.888   7.494 -1.6351  0.3927  2.2504
 9171SOL    HW239150   1.533   3.771   7.581 -0.3549  1.9166  2.4690
 9172SOL     OW39151   3.084   2.923   8.748 -0.2537  0.0433 -0.4192
 9172SOL    HW139152   3.178   2.903   8.747 -0.2203  0.0952  1.4463
 9172SOL    HW239153   3.052   2.835   8.766 -0.6745  0.0925 -0.9207
 9173SOL     OW39154   1.355   1.413   6.409  1.0819  0.2118 -0.4317
 9173SOL    HW139155   1.400   1.402   6.326  0.1494  0.4353 -0.9717
 9173SOL    HW239156   1.275   1.451   6.373 -0.3969 -0.7846  1.8319
 9174SOL     OW39157   4.096   4.351  16.464 -0.0231  0.3164  0.0330
 9174SOL    HW139158   4.050   4.429  16.494  1.6704  1.0124  0.7948
 9174SOL    HW239159   4.028   4.307  16.412  1.8549 -0.7490 -1.4954
 9175SOL     OW39160   2.644   3.683   5.847 -0.1586 -0.0368 -0.5006
 9175SOL    HW139161   2.571   3.717   5.795 -1.3679 -2.1096 -0.1903
 9175SOL    HW239162   2.680   3.766   5.877  2.0690 -1.0374 -0.3970
 9176SOL     OW39163   1.617   4.396  17.176  0.2284 -0.0485  0.0697
 9176SOL    HW139164   1.638   4.480  17.217  1.0318 -0.5518  0.7048
 9176SOL    HW239165   1.553   4.421  17.110 -1.6907  0.7708  2.2368
 9177SOL     OW39166   4.624   3.426   4.009  0.1209 -0.0397  0.0561
 9177SOL    HW139167   4.615   3.331   4.017  0.6281 -0.3188 -2.5009
 9177SOL    HW239168   4.686   3.421   3.936 -1.7293  1.8495 -1.6378
 9178SOL     OW39169   3.244   0.124   1.097  0.1854 -0.1846 -0.1274
 9178SOL    HW139170   3.188   0.074   1.156  0.9592 -0.2857  0.5274
 9178SOL    HW239171   3.180   0.192   1.076 -0.1841 -0.4223  0.2512
 9179SOL     OW39172   1.589   1.914   7.364 -0.0975 -0.6392 -0.0007
 9179SOL    HW139173   1.608   1.985   7.303 -0.4518 -0.2912  0.2927
 9179SOL    HW239174   1.510   1.956   7.399 -1.1245 -0.4232 -2.6206
 9180SOL     OW39175   3.759   3.815   4.089 -0.5653  0.2593  0.1527
 9180SOL    HW139176   3.782   3.885   4.028 -0.0264 -1.9935 -2.2229
 9180SOL    HW239177   3.838   3.808   4.142 -0.2892 -0.2862 -0.3276
 9181SOL     OW39178   4.424   3.833   5.518  0.3525 -0.4572 -0.1663
 9181SOL    HW139179   4.339   3.831   5.473  0.4737  0.8520 -0.4606
 9181SOL    HW239180   4.400   3.885   5.595 -0.4375 -0.6791 -0.2579
 9182SOL     OW39181   1.626   2.438   3.550  0.1130  0.1133  0.2996
 9182SOL    HW139182   1.693   2.505   3.560  1.5895 -1.5222  1.4171
 9182SOL    HW239183   1.649   2.412   3.460 -0.0114 -0.5737  0.4668
 9183SOL     OW39184   3.903   4.360   2.639  0.4590 -0.0433  0.4420
 9183SOL    HW139185   3.876   4.304   2.566 -1.5286  0.2448  0.9571
 9183SOL    HW239186   3.995   4.339   2.622  0.6071 -1.2833  2.8172
 9184SOL     OW39187   3.032   0.193  14.299 -0.5798 -0.6177 -0.3651
 9184SOL    HW139188   2.955   0.155  14.341 -1.3713  0.5707 -0.7579
 9184SOL    HW239189   3.090   0.230  14.366 -2.0477 -0.5997  0.8912
 9185SOL     OW39190   0.261   3.975  16.084  0.8868 -0.2145  0.0138
 9185SOL    HW139191   0.232   3.903  16.141 -0.0940  0.0236 -0.1913
 9185SOL    HW239192   0.254   3.934  15.998  1.8236  0.7224 -0.5039
 9186SOL     OW39193   2.044   1.462  10.792 -0.1962 -0.1768  0.1380
 9186SOL    HW139194   1.952   1.476  10.816 -0.9264 -0.3103 -2.5641
 9186SOL    HW239195   2.051   1.375  10.752  0.2566 -0.9395  1.9114
 9187SOL     OW39196   4.075   4.295   7.465  0.2356 -0.4891 -0.1854
 9187SOL    HW139197   4.092   4.306   7.371  1.4463 -1.4476 -0.0724
 9187SOL    HW239198   3.982   4.316   7.479  0.0826 -1.2360 -0.0881
 9188SOL     OW39199   4.086   2.415   6.225 -0.0510  0.2266  0.2922
 9188SOL    HW139200   4.001   2.423   6.268  0.4319 -1.4390  1.5611
 9188SOL    HW239201   4.125   2.502   6.215 -0.4951  0.4544  0.5456
 9189SOL     OW39202   0.890   0.514   2.811 -0.2422 -0.2090  0.3166
 9189SOL    HW139203   0.812   0.500   2.758  0.0842 -2.4047  0.3839
 9189SOL    HW239204   0.957   0.464   2.764 -0.2268 -0.4045  0.5389
 9190SOL     OW39205   1.352   4.449   6.319 -0.2225 -0.1585 -0.2402
 9190SOL    HW139206   1.262   4.417   6.316 -0.2762  0.0523 -0.7393
 9190SOL    HW239207   1.367   4.482   6.408 -0.0873 -0.3902 -0.1770
 9191SOL     OW39208   3.243   2.086  11.409 -0.0623  0.4468  0.2502
 9191SOL    HW139209   3.219   2.057  11.320 -2.3275  0.4257  0.8549
 9191SOL    HW239210   3.264   1.999  11.444 -1.5096 -0.2146 -0.4938
 9192SOL     OW39211   2.113   2.817   8.267 -0.1868 -0.4216 -0.3462
 9192SOL    HW139212   2.091   2.907   8.292  0.9415 -0.1730 -0.2592
 9192SOL    HW239213   2.041   2.767   8.307  0.6834  0.3829  2.2622
 9193SOL     OW39214   4.277   1.051   8.406 -0.5538 -0.0548 -0.7051
 9193SOL    HW139215   4.359   1.045   8.357 -1.1072  0.7404 -1.7568
 9193SOL    HW239216   4.284   1.134   8.452 -1.7326 -0.7860  0.7878
 9194SOL     OW39217   0.951   3.645   4.707  0.1314  0.5776 -0.4482
 9194SOL    HW139218   0.980   3.594   4.782 -3.3117 -1.6142 -0.5874
 9194SOL    HW239219   0.879   3.691   4.751 -0.6417 -1.4081  0.3960
 9195SOL     OW39220   0.000   3.176   5.878 -0.3072  0.2841 -0.1560
 9195SOL    HW139221   0.066   3.116   5.843 -1.3277 -3.6688  4.6989
 9195SOL    HW239222   4.661   3.145   5.831 -0.8707  0.2124  0.8178
 9196SOL     OW39223   4.006   0.265   2.304 -0.6331  0.0160 -0.2732
 9196SOL    HW139224   4.023   0.194   2.367  1.2941 -0.1366 -0.9702
 9196SOL    HW239225   3.929   0.233   2.256 -0.4455 -0.1129 -0.4891
 9197SOL     OW39226   3.414   4.165   7.492 -0.1177 -0.0050  0.8871
 9197SOL    HW139227   3.371   4.096   7.542 -1.7422 -0.3337 -0.9469
 9197SOL    HW239228   3.339   4.214   7.457  0.7362 -0.0141 -0.9569
 9198SOL     OW39229   1.231   1.301  17.030 -0.1184 -0.6267  0.1060
 9198SOL    HW139230   1.192   1.388  17.037  0.9364 -0.1670  0.2341
 9198SOL    HW239231   1.306   1.318  17.087  2.1188  0.0965 -3.0675
 9199SOL     OW39232   3.961   3.688   2.007 -0.1203 -0.6434 -0.2571
 9199SOL    HW139233   3.923   3.770   2.039  2.6672  1.3328 -1.9731
 9199SOL    HW239234   3.946   3.711   1.915 -2.5873 -0.5227  0.2040
 9200SOL     OW39235   0.549   0.533   7.255  0.0241  0.1840 -0.2541
 9200SOL    HW139236   0.489   0.516   7.182 -0.4017  0.7880 -0.0419
 9200SOL    HW239237   0.479   0.537   7.319  1.2260  0.2065  1.0606
 9201SOL     OW39238   0.679   4.695   9.710  0.6776  0.4395 -0.0375
 9201SOL    HW139239   0.681   0.006   9.792  0.3531 -0.3272  0.4327
 9201SOL    HW239240   0.706   0.024   9.648 -1.0072  1.1336 -0.0301
 9202SOL     OW39241   0.155   1.106  16.563 -0.0966  0.3991  0.2136
 9202SOL    HW139242   0.221   1.039  16.584 -1.1721 -0.6795  0.1441
 9202SOL    HW239243   0.111   1.112  16.647  0.6292  1.6272  0.5064
 9203SOL     OW39244   4.525   1.513   7.061  0.0015  0.2459 -0.1878
 9203SOL    HW139245   4.617   1.528   7.040 -0.1227  0.3327 -0.6634
 9203SOL    HW239246   4.490   1.496   6.974 -0.5491  4.3678 -0.7567
 9204SOL     OW39247   2.449   4.261   6.767 -0.0669 -0.0213 -0.0275
 9204SOL    HW139248   2.423   4.347   6.735  1.8155  0.4682 -0.2300
 9204SOL    HW239249   2.532   4.261   6.720 -0.7531 -1.5291 -1.2174
 9205SOL     OW39250   4.710   3.225   6.800 -0.3651 -0.4433  0.5837
 9205SOL    HW139251   4.694   3.213   6.706 -0.5271  1.8879  0.3139
 9205SOL    HW239252   4.629   3.200   6.843 -2.6626  2.8395 -1.8330
 9206SOL     OW39253   3.450   0.157   2.106 -0.1850 -0.2273 -0.1954
 9206SOL    HW139254   3.362   0.172   2.071 -0.4428 -0.9630  0.1263
 9206SOL    HW239255   3.484   0.239   2.141 -0.4985 -0.5568  0.8762
 9207SOL     OW39256   0.358   3.548   6.591 -0.0095 -0.2867  0.2014
 9207SOL    HW139257   0.276   3.542   6.640 -2.1015  3.3681 -2.8242
 9207SOL    HW239258   0.421   3.521   6.658 -0.0924  0.8273  0.7340
 9208SOL     OW39259   3.367   0.834  10.180  0.0726  0.2691  0.4716
 9208SOL    HW139260   3.367   0.922  10.143  1.8956  1.3837  3.0794
 9208SOL    HW239261   3.367   0.853  10.274  2.3689  0.9367  0.3324
 9209SOL     OW39262   0.130   0.131   9.099  0.2743  0.0211  0.6547
 9209SOL    HW139263   0.082   0.176   9.168 -1.3639 -2.0344  0.8451
 9209SOL    HW239264   0.210   0.183   9.096 -0.3537  0.9958  1.0843
 9210SOL     OW39265   3.627   0.317   8.693  0.0533  0.3662 -0.0672
 9210SOL    HW139266   3.533   0.328   8.682  0.2310  1.4572 -0.5489
 9210SOL    HW239267   3.657   0.379   8.626 -0.8583  0.4837 -0.3736
 9211SOL     OW39268   2.894   0.286   2.341 -0.5580 -0.1114  0.1741
 9211SOL    HW139269   2.830   0.252   2.403  0.2188 -2.1505 -0.1354
 9211SOL    HW239270   2.829   0.327   2.284 -0.3090  1.6206  1.1152
 9212SOL     OW39271   2.351   4.256   4.127 -0.2343  0.3837  0.0240
 9212SOL    HW139272   2.385   4.182   4.177 -0.7800  1.4711  1.9744
 9212SOL    HW239273   2.348   4.329   4.188  1.1696 -0.6172  1.2902
 9213SOL     OW39274   2.243   0.694   1.830  0.3269  0.0625 -0.0521
 9213SOL    HW139275   2.308   0.645   1.780  0.0782  2.1426 -2.3466
 9213SOL    HW239276   2.184   0.622   1.853  0.1633 -0.7646 -3.0171
 9214SOL     OW39277   2.471   1.953   4.092  0.8006  0.3591  0.2187
 9214SOL    HW139278   2.446   1.861   4.106  1.3770 -0.0132 -1.2191
 9214SOL    HW239279   2.500   1.979   4.179 -2.0066  0.5964  1.1058
 9215SOL     OW39280   0.041   3.483   7.199  0.2387 -0.3206 -0.2966
 9215SOL    HW139281   0.008   3.474   7.110 -0.7208 -0.5175  0.0807
 9215SOL    HW239282   4.708   3.525   7.247 -0.3383 -1.1234 -0.4692
 9216SOL     OW39283   4.490   3.970   2.259 -0.3507  0.4624  0.5376
 9216SOL    HW139284   4.479   4.021   2.179 -1.3970  1.0112  1.0425
 9216SOL    HW239285   4.566   4.010   2.302  2.1181 -1.3978 -2.0345
 9217SOL     OW39286   2.276   1.093   4.540  0.3854  0.1449 -0.4190
 9217SOL    HW139287   2.225   1.035   4.597  1.1974 -0.7756 -0.6161
 9217SOL    HW239288   2.243   1.180   4.562 -2.4143 -1.1553  0.5605
 9218SOL     OW39289   4.565   1.075   4.409 -0.1818  0.1782 -0.0528
 9218SOL    HW139290   4.563   1.063   4.504 -0.2978  0.8081  0.0255
 9218SOL    HW239291   4.609   0.996   4.378 -0.3794 -0.1165  0.4248
 9219SOL     OW39292   0.486   3.502  12.100  0.3099 -0.8570  0.5740
 9219SOL    HW139293   0.474   3.590  12.065  0.8054 -1.3827 -0.9503
 9219SOL    HW239294   0.419   3.502  12.168 -0.5035 -0.5494 -0.2302
 9220SOL     OW39295   0.804   3.382   9.371  0.2086 -0.2164 -0.0182
 9220SOL    HW139296   0.877   3.444   9.364 -1.6443  1.8291 -1.2443
 9220SOL    HW239297   0.841   3.312   9.317  1.8634  0.1982  0.5557
 9221SOL     OW39298   0.386   1.329   2.621 -0.2089  0.0184 -0.0990
 9221SOL    HW139299   0.360   1.311   2.711 -1.6365 -0.2728 -0.5634
 9221SOL    HW239300   0.302   1.363   2.588 -0.4901 -0.9423 -0.3681
 9222SOL     OW39301   1.304   3.198   6.265 -0.7394 -0.4038 -0.2089
 9222SOL    HW139302   1.364   3.259   6.309 -1.4999  0.1294  0.0944
 9222SOL    HW239303   1.356   3.173   6.189  0.2366 -0.4076  0.4565
 9223SOL     OW39304   2.600   2.201   2.527 -0.5966 -0.2424 -0.3284
 9223SOL    HW139305   2.549   2.262   2.473  0.1205  2.2328  1.8200
 9223SOL    HW239306   2.661   2.256   2.576  0.4798 -0.1441 -1.7508
 9224SOL     OW39307   1.088   3.385   2.392 -0.0459  0.2055  0.0185
 9224SOL    HW139308   1.138   3.466   2.405  2.2974 -1.0789 -1.0909
 9224SOL    HW239309   1.024   3.420   2.330  1.3283  0.3719 -1.3091
 9225SOL     OW39310   3.785   3.271   6.831  0.6261 -0.0391  0.4606
 9225SOL    HW139311   3.696   3.296   6.856 -0.4065 -1.0391 -2.2138
 9225SOL    HW239312   3.819   3.250   6.917  1.4739  1.6102  0.5287
 9226SOL     OW39313   3.703   4.549   8.438 -0.3214 -0.0585  0.3686
 9226SOL    HW139314   3.726   4.508   8.521  2.1408  1.7956  0.6068
 9226SOL    HW239315   3.654   4.473   8.405  0.0117 -0.3795  0.6091
 9227SOL     OW39316   3.434   3.932   9.630  0.4213  0.2191 -0.4199
 9227SOL    HW139317   3.445   4.014   9.677 -1.8729  1.3721 -1.9325
 9227SOL    HW239318   3.462   3.872   9.699  0.5577  1.7509  0.8399
 9228SOL     OW39319   1.000   2.907   4.895 -0.4599  0.1120  0.1425
 9228SOL    HW139320   0.905   2.915   4.899 -0.4513 -1.0008  2.4993
 9228SOL    HW239321   1.006   2.851   4.972 -0.4177 -1.6161 -1.1013
 9229SOL     OW39322   0.868   2.440   6.352 -0.2631  0.0790  0.5061
 9229SOL    HW139323   0.846   2.484   6.434 -0.2517  0.8476  0.0935
 9229SOL    HW239324   0.906   2.358   6.383 -1.8116 -0.1285  1.8275
 9230SOL     OW39325   0.032   3.485   9.258 -0.2312  0.2378  0.0196
 9230SOL    HW139326   0.067   3.399   9.280  2.3686  0.9579 -1.2474
 9230SOL    HW239327   0.085   3.535   9.320  0.1047  1.9816 -1.6586
 9231SOL     OW39328   3.228   3.150   8.359  0.2094  0.7096  0.4889
 9231SOL    HW139329   3.244   3.057   8.339  1.7521  1.0312  0.2205
 9231SOL    HW239330   3.290   3.161   8.430  0.1208 -1.4534  0.8925
 9232SOL     OW39331   3.431   2.182  14.457 -0.4163 -0.0963 -0.5098
 9232SOL    HW139332   3.520   2.194  14.423 -1.7901  2.8445 -3.0843
 9232SOL    HW239333   3.365   2.206  14.393 -0.8654  1.2599  0.4549
 9233SOL     OW39334   0.991   0.077   2.603 -0.1094 -0.0958  0.1291
 9233SOL    HW139335   1.037   4.733   2.614 -1.0545 -0.7367 -0.7838
 9233SOL    HW239336   0.998   0.090   2.508 -0.9891 -1.1620 -0.0712
 9234SOL     OW39337   0.759   1.893   2.683  0.4185 -0.7403 -0.0125
 9234SOL    HW139338   0.726   1.965   2.629 -0.7892 -1.0787  0.2720
 9234SOL    HW239339   0.756   1.929   2.771 -2.3808 -1.5326  0.2217
 9235SOL     OW39340   2.093   0.887   8.178 -0.5130 -0.3674  0.2755
 9235SOL    HW139341   2.070   0.836   8.256  0.9445 -0.1181  0.8763
 9235SOL    HW239342   2.033   0.960   8.196 -0.0226 -0.6392  2.9839
 9236SOL     OW39343   3.632   4.715   9.112  0.6225 -0.6209  0.5479
 9236SOL    HW139344   3.718   0.011   9.088 -0.6429  1.5908 -0.7612
 9236SOL    HW239345   3.586   0.060   9.127 -0.5465 -1.1627 -0.0132
 9237SOL     OW39346   2.814   2.742   1.784  0.1251  0.3032  0.8906
 9237SOL    HW139347   2.797   2.689   1.862 -0.2189 -0.5919  0.2069
 9237SOL    HW239348   2.863   2.804   1.837 -1.7012  1.8679  0.7651
 9238SOL     OW39349   4.364   0.979   9.705  0.3140  0.1934  1.0027
 9238SOL    HW139350   4.295   0.935   9.654  0.8813  0.4049  0.0448
 9238SOL    HW239351   4.437   0.918   9.695 -0.2680 -0.6300  1.7187
 9239SOL     OW39352   2.667   4.583   7.588  0.7794  0.2143 -0.1248
 9239SOL    HW139353   2.727   4.553   7.656  0.5056 -0.2316 -0.0814
 9239SOL    HW239354   2.729   4.615   7.522  0.7541  0.2726 -0.1209
 9240SOL     OW39355   2.470   2.507   5.416  0.5473  0.5076 -0.0586
 9240SOL    HW139356   2.509   2.592   5.434  1.3826  0.6959 -2.8220
 9240SOL    HW239357   2.434   2.526   5.330 -0.2040  1.0732  0.3806
 9241SOL     OW39358   3.360   1.324   4.510  0.2809  0.7399 -0.3674
 9241SOL    HW139359   3.408   1.405   4.525  0.9776  0.5055 -1.3308
 9241SOL    HW239360   3.431   1.270   4.544  0.8845  1.2448 -0.8336
 9242SOL     OW39361   3.893   3.926   9.483 -0.2477 -0.4138 -0.4111
 9242SOL    HW139362   3.841   3.888   9.413  1.6246 -3.8668  0.0815
 9242SOL    HW239363   3.906   3.850   9.539 -2.5488 -0.5095 -0.0047
 9243SOL     OW39364   4.561   1.090   7.105  0.3466 -0.3677  0.0424
 9243SOL    HW139365   4.467   1.069   7.110  0.0688  1.1550  1.3953
 9243SOL    HW239366   4.589   1.006   7.069 -0.5020  0.1038 -1.7171
 9244SOL     OW39367   0.966   4.422   6.487  0.1968 -0.0070  0.5006
 9244SOL    HW139368   0.935   4.436   6.577 -0.2819  1.2849  0.1352
 9244SOL    HW239369   1.029   4.350   6.494 -0.8884 -1.0979 -0.9099
 9245SOL     OW39370   2.044   1.200   6.902  0.5952  0.3027  0.2941
 9245SOL    HW139371   2.047   1.252   6.982  1.8625  2.9119 -1.4539
 9245SOL    HW239372   1.958   1.157   6.909  0.2769  0.7501 -0.9491
 9246SOL     OW39373   1.290   1.567   1.904 -1.2455  0.0480  0.7039
 9246SOL    HW139374   1.247   1.648   1.878  0.8632  0.6520 -0.8885
 9246SOL    HW239375   1.328   1.614   1.979  1.4542  3.0990 -2.5735
 9247SOL     OW39376   2.346   0.339   6.048  0.2898 -0.4571 -0.1731
 9247SOL    HW139377   2.368   0.253   6.010  0.2941 -1.4781  2.1155
 9247SOL    HW239378   2.425   0.387   6.025  1.9272 -2.0037  2.1122
 9248SOL     OW39379   4.199   2.837   3.564  0.5740 -0.2687 -0.2911
 9248SOL    HW139380   4.288   2.849   3.596 -0.0775  4.4250 -0.1945
 9248SOL    HW239381   4.170   2.928   3.563 -1.1090 -0.7929  0.2595
 9249SOL     OW39382   4.360   1.966   6.582 -0.6404  0.2073  0.7203
 9249SOL    HW139383   4.296   2.033   6.560 -0.4360  0.6664  1.5094
 9249SOL    HW239384   4.401   1.941   6.499  1.6413  0.6526  1.6969
 9250SOL     OW39385   1.270   4.471   5.560 -0.0337  0.6464 -0.5736
 9250SOL    HW139386   1.231   4.470   5.472  1.9045  0.8586 -1.4154
 9250SOL    HW239387   1.190   4.459   5.612 -0.5772  1.2509 -1.2692
 9251SOL     OW39388   2.565   4.319  17.427  0.2361 -0.0462  0.1695
 9251SOL    HW139389   2.527   4.231  17.427 -2.9730  1.3166  3.2291
 9251SOL    HW239390   2.583   4.341  17.336 -1.3896  1.9349  0.3249
 9252SOL     OW39391   2.592   0.586  13.564 -0.2396  0.4278  0.7859
 9252SOL    HW139392   2.532   0.592  13.490  2.1359  1.2810 -1.0916
 9252SOL    HW239393   2.586   0.673  13.604  1.2359  0.5889  0.6765
 9253SOL     OW39394   4.545   1.049   2.370  0.2797  0.6360  0.8017
 9253SOL    HW139395   4.624   1.036   2.422  2.0818  2.2695 -1.4952
 9253SOL    HW239396   4.544   0.984   2.300  2.7976  1.6391 -0.1835
 9254SOL     OW39397   0.290   4.401   1.589  0.0534  0.0923  0.6527
 9254SOL    HW139398   0.372   4.432   1.628  0.2732  0.2345  0.0708
 9254SOL    HW239399   0.268   4.340   1.659 -2.1562 -1.9375 -1.7930
 9255SOL     OW39400   0.726   3.015   2.325 -0.4144 -0.1299 -0.2226
 9255SOL    HW139401   0.822   3.013   2.327 -0.4307  0.4545  0.8810
 9255SOL    HW239402   0.708   3.051   2.412 -1.0131 -0.7652 -0.0814
 9256SOL     OW39403   0.455   0.050   6.007 -0.1160 -0.0209  0.3170
 9256SOL    HW139404   0.419   4.731   6.074  0.0883  0.1424  0.5657
 9256SOL    HW239405   0.394   0.124   6.016 -0.3722 -0.4141  1.7661
 9257SOL     OW39406   2.964   0.256  11.708  0.2515 -0.1260 -0.4010
 9257SOL    HW139407   3.054   0.288  11.718  0.2422 -0.8374  2.0703
 9257SOL    HW239408   2.957   0.186  11.774 -1.3224  2.9127  2.6219
 9258SOL     OW39409   1.773   4.630  10.616 -0.2548  0.6051  0.4126
 9258SOL    HW139410   1.761   4.548  10.664 -0.5727  0.7418  0.5601
 9258SOL    HW239411   1.861   4.605  10.587  0.4468 -0.6068  3.5847
 9259SOL     OW39412   1.649   0.084   6.066  0.4381  0.8345  0.2073
 9259SOL    HW139413   1.741   0.088   6.042  0.8474 -1.9697  1.4136
 9259SOL    HW239414   1.650   4.739   6.111  0.5123  0.4411 -0.5260
 9260SOL     OW39415   1.399   3.666   5.666 -0.0649  0.6220 -0.4504
 9260SOL    HW139416   1.423   3.585   5.710  0.8314  1.2501  0.2193
 9260SOL    HW239417   1.382   3.641   5.575  0.4683  2.2347 -0.9941
 9261SOL     OW39418   1.027   0.817   4.244  0.0276  0.0264 -0.0054
 9261SOL    HW139419   1.013   0.786   4.334 -2.1026  0.5886 -0.1505
 9261SOL    HW239420   0.942   0.788   4.209  0.7513  0.2123 -1.8964
 9262SOL     OW39421   1.741   0.520  17.417  0.0565  0.4009  0.3451
 9262SOL    HW139422   1.768   0.563  17.336  1.1418  0.2743  0.6406
 9262SOL    HW239423   1.733   0.592  17.479  1.5534  1.3189 -0.5259
 9263SOL     OW39424   2.192   0.220  12.214  0.0348  1.0360  0.2695
 9263SOL    HW139425   2.270   0.256  12.172 -0.8018  2.0731 -0.4092
 9263SOL    HW239426   2.206   0.223  12.308  1.9439  1.1544 -0.0260
 9264SOL     OW39427   1.410   1.054   7.985  0.4006 -0.2263 -0.0357
 9264SOL    HW139428   1.318   1.028   7.976  0.3510 -0.3949  0.9653
 9264SOL    HW239429   1.454   0.975   7.956  2.4719 -0.0394  2.6620
 9265SOL     OW39430   0.321   1.281  11.972 -0.3070 -0.2071 -0.8086
 9265SOL    HW139431   0.352   1.191  11.972 -1.1401 -0.4883 -1.0622
 9265SOL    HW239432   0.299   1.296  11.880  0.1129  0.0157 -0.8736
 9266SOL     OW39433   1.715   0.752   9.416  0.3586  0.0472  0.3389
 9266SOL    HW139434   1.623   0.726   9.409  0.0662  1.1185  0.1269
 9266SOL    HW239435   1.723   0.739   9.511  0.6979  2.2926  0.6278
 9267SOL     OW39436   3.304   0.366   0.174  0.4876 -0.2641 -0.3469
 9267SOL    HW139437   3.328   0.283   0.213 -1.8809 -0.4949  0.6081
 9267SOL    HW239438   3.316   0.342   0.082  3.3402  2.7350 -0.7940
 9268SOL     OW39439   1.779   2.012   0.982  0.2865 -0.2370 -0.2150
 9268SOL    HW139440   1.748   1.926   0.955  0.1092 -0.3923  0.4897
 9268SOL    HW239441   1.701   2.055   1.015 -1.1315 -1.5961 -1.8282
 9269SOL     OW39442   0.793   4.413   6.702 -0.4134 -0.1272  0.1165
 9269SOL    HW139443   0.842   4.443   6.778 -0.1187  0.4521 -0.3059
 9269SOL    HW239444   0.783   4.320   6.722  1.5974 -0.0300  1.5028
 9270SOL     OW39445   1.631   1.624   6.507  0.0906 -0.2273 -0.3855
 9270SOL    HW139446   1.711   1.573   6.518 -0.3320 -0.3743  1.9735
 9270SOL    HW239447   1.645   1.686   6.435 -0.6191  1.3208  0.8100
 9271SOL     OW39448   1.030   4.675  14.409  0.6503 -0.5500  0.0479
 9271SOL    HW139449   1.009   0.023  14.445  0.9977  0.0459 -1.1775
 9271SOL    HW239450   0.948   4.641  14.372  0.9499 -1.1432 -0.0747
 9272SOL     OW39451   2.210   1.406  12.521  1.0163 -0.6017 -0.1707
 9272SOL    HW139452   2.154   1.375  12.450 -0.1445  0.8857  0.0940
 9272SOL    HW239453   2.280   1.448  12.470 -1.3638  1.2111 -1.9339
 9273SOL     OW39454   2.413   1.824   7.487 -0.6134  0.0963  0.2246
 9273SOL    HW139455   2.426   1.912   7.451  0.0184 -0.1923 -0.2357
 9273SOL    HW239456   2.442   1.829   7.578 -0.2309  1.4547  0.0273
 9274SOL     OW39457   4.360   1.362   3.063  0.2647 -0.0170 -0.2578
 9274SOL    HW139458   4.436   1.383   3.008  0.7110  0.7862  0.6545
 9274SOL    HW239459   4.318   1.447   3.073 -0.7106 -0.7847  1.9999
 9275SOL     OW39460   2.670   1.664  17.278 -0.0745 -0.2188 -0.2017
 9275SOL    HW139461   2.721   1.617  17.345  2.0292  1.4780 -0.6000
 9275SOL    HW239462   2.739   1.725  17.250 -1.3558  0.9659 -0.7505
 9276SOL     OW39463   0.441   4.400   6.064 -0.1454  0.4618 -0.4504
 9276SOL    HW139464   0.444   4.364   5.975  1.0761 -0.1955 -0.1461
 9276SOL    HW239465   0.446   4.321   6.117  1.5412  0.2827 -0.8644
 9277SOL     OW39466   2.918   2.957   6.870 -0.1372  0.1824  0.2838
 9277SOL    HW139467   2.891   2.975   6.780 -2.9834  1.7548  1.4906
 9277SOL    HW239468   2.849   2.990   6.926 -0.6295 -1.9800  0.9634
 9278SOL     OW39469   0.090   4.166  15.977  0.0852  0.4603 -0.0614
 9278SOL    HW139470   0.106   4.107  16.050  0.2525  0.7498  0.1377
 9278SOL    HW239471   0.156   4.127  15.918 -0.4127 -0.8048  0.2187
 9279SOL     OW39472   2.537   2.162  16.435  0.6858  0.0599  0.3713
 9279SOL    HW139473   2.566   2.253  16.427  1.2777 -0.0549  1.2613
 9279SOL    HW239474   2.624   2.122  16.427  1.3385  1.9203 -1.9366
 9280SOL     OW39475   0.512   2.471   5.271 -0.1489 -0.0769  0.2898
 9280SOL    HW139476   0.529   2.542   5.333 -0.0379  0.5500 -0.4568
 9280SOL    HW239477   0.562   2.500   5.195  3.0145 -0.0964  2.3849
 9281SOL     OW39478   2.471   1.792  14.640 -0.3670 -0.4092  0.1864
 9281SOL    HW139479   2.383   1.819  14.663 -0.8181 -1.6787 -0.0297
 9281SOL    HW239480   2.455   1.751  14.554  0.7183  3.1205 -1.6968
 9282SOL     OW39481   3.824   2.343   4.238  0.0556 -0.5615  0.4277
 9282SOL    HW139482   3.889   2.282   4.204  0.7327  0.9671 -1.0240
 9282SOL    HW239483   3.752   2.290   4.203  0.3481 -1.1927  0.8024
 9283SOL     OW39484   4.638   1.039  13.507  0.3448 -0.3732  1.2897
 9283SOL    HW139485   4.588   0.978  13.561  0.7504 -0.2573  1.7888
 9283SOL    HW239486   4.576   1.111  13.494  1.6209  0.7022  1.2572
 9284SOL     OW39487   1.308   1.816   5.770 -0.3547  0.5322  0.0625
 9284SOL    HW139488   1.349   1.731   5.782 -1.7140 -0.7022 -4.1136
 9284SOL    HW239489   1.355   1.833   5.689  0.5811  1.1977  0.7459
 9285SOL     OW39490   3.679   4.488   8.972  0.6837 -0.9736  0.5505
 9285SOL    HW139491   3.606   4.432   8.999 -0.3591  0.7918  1.4503
 9285SOL    HW239492   3.656   4.572   9.012  1.9036 -0.2417 -0.2829
 9286SOL     OW39493   4.666   3.987   7.697  0.3928 -0.1978 -0.0630
 9286SOL    HW139494   4.730   4.017   7.763  3.7852  0.1052 -3.5002
 9286SOL    HW239495   4.595   4.045   7.724  1.3954  0.1266  1.8977
 9287SOL     OW39496   0.810   1.812   7.278  0.8768 -0.1916 -0.2369
 9287SOL    HW139497   0.782   1.893   7.321 -0.2501 -0.3645 -0.6555
 9287SOL    HW239498   0.897   1.836   7.246  1.7976 -0.2158  2.1816
 9288SOL     OW39499   0.530   1.294   9.208 -0.4927 -0.2583 -0.3382
 9288SOL    HW139500   0.589   1.363   9.177  0.8011 -0.9461  0.5919
 9288SOL    HW239501   0.447   1.326   9.173 -0.6036  0.9085  0.9930
 9289SOL     OW39502   4.093   3.761  10.345  0.2028 -0.4430 -0.1193
 9289SOL    HW139503   4.119   3.686  10.399 -0.2619 -0.2674  0.3525
 9289SOL    HW239504   4.098   3.822  10.419  2.2565  1.7728 -2.0944
 9290SOL     OW39505   2.851   4.425   5.317 -0.1778  0.2534  0.2437
 9290SOL    HW139506   2.777   4.397   5.264  0.9437 -3.5628  0.7145
 9290SOL    HW239507   2.839   4.519   5.301  1.8949  0.4967  0.0712
 9291SOL     OW39508   2.740   0.583   8.556  0.7986 -0.4495 -0.9475
 9291SOL    HW139509   2.752   0.611   8.647  1.9824  0.3308 -1.3399
 9291SOL    HW239510   2.739   0.666   8.509 -0.5391  0.3645  0.5285
 9292SOL     OW39511   0.144   3.691   9.733 -0.4936 -0.5143 -0.1834
 9292SOL    HW139512   0.144   3.723   9.643  1.3112 -2.4525 -0.8875
 9292SOL    HW239513   0.107   3.770   9.772 -1.8243 -1.9591  1.4780
 9293SOL     OW39514   0.887   3.976   1.596  0.3858  0.2798 -0.0410
 9293SOL    HW139515   0.841   4.045   1.549 -0.2825  0.3643  0.7333
 9293SOL    HW239516   0.884   3.914   1.522 -0.1517 -1.2517  1.2576
 9294SOL     OW39517   1.213   2.088   2.295  0.2361  0.0949  0.1990
 9294SOL    HW139518   1.123   2.119   2.290  0.0645 -0.3936  0.2605
 9294SOL    HW239519   1.249   2.160   2.347 -0.4294  0.8485 -0.3961
 9295SOL     OW39520   3.202   1.199   4.814  0.2018  0.0170 -0.4401
 9295SOL    HW139521   3.134   1.262   4.837 -0.5087 -0.9800  0.1538
 9295SOL    HW239522   3.169   1.169   4.729  0.5424 -1.3620 -0.0905
 9296SOL     OW39523   4.410   2.190  12.880  0.0898 -0.2404  0.1468
 9296SOL    HW139524   4.361   2.139  12.944 -3.3298  0.7162 -1.6708
 9296SOL    HW239525   4.363   2.271  12.901 -0.9987 -0.9768  0.5876
 9297SOL     OW39526   0.899   4.505   6.929  0.0211  0.1030  0.0124
 9297SOL    HW139527   0.841   4.442   6.972  1.4580  0.1863  2.0754
 9297SOL    HW239528   0.964   4.512   6.998  0.3643 -2.3914 -0.0591
 9298SOL     OW39529   3.538   0.421  13.827 -0.0238  0.3748 -0.1209
 9298SOL    HW139530   3.517   0.441  13.735  0.1302  1.4113  0.0685
 9298SOL    HW239531   3.600   0.349  13.820 -0.8535 -0.3565  0.0682
 9299SOL     OW39532   1.068   3.327   3.899  0.0249  0.1188 -0.3233
 9299SOL    HW139533   1.141   3.303   3.843 -0.7030 -2.2956 -0.2321
 9299SOL    HW239534   1.056   3.417   3.868  0.3308 -0.0581 -0.9404
 9300SOL     OW39535   1.061   1.855   5.887  0.6524  0.4521  0.0140
 9300SOL    HW139536   1.125   1.852   5.815 -0.6944  1.7880 -1.2438
 9300SOL    HW239537   1.038   1.762   5.895 -1.7708  0.9777 -0.8684
 9301SOL     OW39538   2.061   0.008   3.281  0.0363 -0.0207 -0.3323
 9301SOL    HW139539   1.994   0.033   3.218  0.2728  2.3248  0.3399
 9301SOL    HW239540   2.007   0.002   3.360 -0.1801 -0.8814 -0.5383
 9302SOL     OW39541   0.998   0.779   5.436 -0.1595 -0.6276 -0.1307
 9302SOL    HW139542   0.982   0.866   5.400 -1.1628 -0.8940 -0.3481
 9302SOL    HW239543   1.092   0.771   5.425 -0.3350  0.7802 -2.8848
 9303SOL     OW39544   1.027   1.968   9.432  0.2599  0.3012  0.3788
 9303SOL    HW139545   1.006   1.906   9.502  0.8515  0.4435  0.6839
 9303SOL    HW239546   0.966   1.941   9.364  0.5266  2.8099 -0.8636
 9304SOL     OW39547   4.345   2.816   6.061 -0.1037  0.2517  0.6845
 9304SOL    HW139548   4.343   2.888   6.124 -0.1211 -0.1686  1.1638
 9304SOL    HW239549   4.256   2.827   6.029  0.4364 -2.3296 -1.7100
 9305SOL     OW39550   4.051   0.531   0.596  0.1860  0.8518  0.2920
 9305SOL    HW139551   3.985   0.509   0.531  0.4328 -2.2964  1.1059
 9305SOL    HW239552   4.002   0.527   0.679  2.0081 -1.7336  1.2492
 9306SOL     OW39553   1.421   4.459   4.698  0.5851  0.7013  0.0324
 9306SOL    HW139554   1.347   4.416   4.654 -0.1822  1.3134  0.7273
 9306SOL    HW239555   1.447   4.526   4.634 -1.2814  1.1907 -0.2385
 9307SOL     OW39556   1.112   4.454   3.576 -0.2106  0.4165 -0.0269
 9307SOL    HW139557   1.028   4.460   3.623 -0.5837 -0.3849 -0.5976
 9307SOL    HW239558   1.126   4.547   3.557 -1.2965  0.8437  1.2877
 9308SOL     OW39559   2.612   4.659   9.443  0.0877  0.1081  0.3340
 9308SOL    HW139560   2.617   4.574   9.397  2.4060 -0.9918  2.6341
 9308SOL    HW239561   2.704   4.684   9.442 -0.2768  1.4453  2.3947
 9309SOL     OW39562   0.883   2.715   2.465 -0.4937 -0.2634 -0.2372
 9309SOL    HW139563   0.809   2.682   2.413 -2.2439  0.9017  1.5412
 9309SOL    HW239564   0.868   2.668   2.546  2.0708  0.4790  0.6487
 9310SOL     OW39565   4.474   4.314   2.353 -0.5309  0.6212  0.4278
 9310SOL    HW139566   4.416   4.280   2.285  0.0465  1.7053 -0.6011
 9310SOL    HW239567   4.436   4.401   2.362 -0.1270  1.0396 -1.9574
 9311SOL     OW39568   1.086   0.970   3.791  0.1635 -0.5735 -0.4367
 9311SOL    HW139569   1.038   1.036   3.740 -0.4497 -1.3687 -0.8853
 9311SOL    HW239570   1.176   1.003   3.781  0.0192  0.4693  1.8970
 9312SOL     OW39571   0.927   3.042   5.917  0.1933  0.4942  0.4568
 9312SOL    HW139572   0.838   3.064   5.888 -0.0531 -0.6461  0.3632
 9312SOL    HW239573   0.919   2.953   5.950 -1.2949 -0.4173 -2.3539
 9313SOL     OW39574   4.292   3.747   4.107 -0.6973  0.2644  0.1194
 9313SOL    HW139575   4.384   3.733   4.086 -0.3681  2.8049 -0.1398
 9313SOL    HW239576   4.301   3.830   4.154 -0.9556  0.9539 -1.0500
 9314SOL     OW39577   1.111   1.341   8.306  0.5999 -0.6708  0.2833
 9314SOL    HW139578   1.147   1.387   8.230 -0.3118  1.4120  1.1213
 9314SOL    HW239579   1.185   1.284   8.327  1.4906  0.8420  1.2348
 9315SOL     OW39580   3.067   2.651   6.583  0.3071 -0.0062 -0.2093
 9315SOL    HW139581   3.151   2.696   6.595  0.1956 -0.2329  1.4007
 9315SOL    HW239582   3.081   2.574   6.637 -1.2751  0.4970  0.9170
 9316SOL     OW39583   0.877   2.542   7.119 -0.2429  0.1879  0.5831
 9316SOL    HW139584   0.940   2.600   7.161 -0.4041 -0.4610  1.7073
 9316SOL    HW239585   0.801   2.600   7.115 -1.2622 -1.1951 -0.5291
 9317SOL     OW39586   2.923   2.291  16.125 -0.3551 -0.7440 -0.0568
 9317SOL    HW139587   2.972   2.215  16.093  2.7398  1.4654 -0.5662
 9317SOL    HW239588   2.839   2.261  16.091  0.2865 -0.8435 -1.5522
 9318SOL     OW39589   0.665   3.913  11.739 -0.6855 -0.5806 -0.3507
 9318SOL    HW139590   0.706   3.938  11.656  0.4632 -1.3645 -0.0261
 9318SOL    HW239591   0.737   3.879  11.792  0.8263 -0.9765 -2.6111
 9319SOL     OW39592   2.067   0.830   7.715  0.4419  0.1954 -0.3580
 9319SOL    HW139593   2.035   0.749   7.755  2.2280 -0.0497  0.5827
 9319SOL    HW239594   2.158   0.824   7.746  0.6684  3.9212 -0.2925
 9320SOL     OW39595   1.881   1.667   3.886 -0.2669  0.2266 -0.6325
 9320SOL    HW139596   1.873   1.762   3.881 -0.5205  0.2130 -0.4922
 9320SOL    HW239597   1.853   1.655   3.796  2.2277  1.6526 -1.6092
 9321SOL     OW39598   2.776   2.714  14.111 -0.0449 -0.3784 -0.3623
 9321SOL    HW139599   2.734   2.735  14.195  0.0813  0.2087 -0.4455
 9321SOL    HW239600   2.772   2.802  14.073 -3.3235 -1.1309 -1.7811
 9322SOL     OW39601   2.622   3.913   8.397 -0.1028 -0.3607 -0.0267
 9322SOL    HW139602   2.678   3.976   8.442 -0.5682 -0.6298  0.9234
 9322SOL    HW239603   2.622   3.844   8.464 -1.8753 -1.1866 -0.8770
 9323SOL     OW39604   1.179   3.251  16.836 -0.3186 -0.4579  0.5210
 9323SOL    HW139605   1.253   3.212  16.881 -0.8918 -3.0837 -0.8560
 9323SOL    HW239606   1.125   3.174  16.851  0.5060 -1.2186 -0.4270
 9324SOL     OW39607   4.410   0.337   1.280 -0.0523 -0.1004  0.0007
 9324SOL    HW139608   4.329   0.347   1.229 -1.0667 -0.7962  1.4899
 9324SOL    HW239609   4.439   0.253   1.244 -2.4555 -0.6601 -0.6280
 9325SOL     OW39610   2.612   1.002   9.258 -0.1050 -0.1704 -0.1785
 9325SOL    HW139611   2.684   0.947   9.291 -0.8770  0.8199  3.1378
 9325SOL    HW239612   2.670   1.064   9.214 -0.1931  0.2594  0.3244
 9326SOL     OW39613   2.276   1.919   5.833 -0.2970  0.1319  0.1304
 9326SOL    HW139614   2.236   1.983   5.775  0.8803  2.0263  1.4148
 9326SOL    HW239615   2.204   1.884   5.886 -0.1294 -0.6184 -0.1416
 9327SOL     OW39616   0.409   2.943   4.343  0.0383  0.0261 -0.2973
 9327SOL    HW139617   0.383   2.956   4.434  1.8828  0.8857  0.0915
 9327SOL    HW239618   0.503   2.931   4.353  0.0677 -0.2262 -0.8601
 9328SOL     OW39619   3.036   2.397   7.379  0.4962 -0.1419 -0.0278
 9328SOL    HW139620   3.042   2.312   7.334  0.5116 -1.2415  2.0659
 9328SOL    HW239621   3.031   2.461   7.308  0.4880 -0.9129 -0.7334
 9329SOL     OW39622   3.917   4.263   0.793  0.0216 -0.2060 -0.1842
 9329SOL    HW139623   3.873   4.299   0.870  0.4832  1.6331 -0.7688
 9329SOL    HW239624   3.870   4.317   0.729  1.4499  0.5615 -0.5856
 9330SOL     OW39625   1.777   2.755   6.021  0.6083 -0.2664  0.0328
 9330SOL    HW139626   1.793   2.838   6.067 -3.3083  0.6922 -0.3023
 9330SOL    HW239627   1.813   2.776   5.935 -1.2106  0.2033 -0.6227
 9331SOL     OW39628   4.333   3.335   7.151  0.1239  0.1488  0.1291
 9331SOL    HW139629   4.282   3.412   7.176  0.5695  0.3143  0.5265
 9331SOL    HW239630   4.382   3.385   7.086 -1.5834  0.4868 -0.9063
 9332SOL     OW39631   3.042   2.342  15.395  0.2850  0.1990  0.4762
 9332SOL    HW139632   3.114   2.405  15.399 -1.0238  1.6006  2.3203
 9332SOL    HW239633   2.986   2.374  15.324 -1.2053  1.5585  2.2601
 9333SOL     OW39634   1.718   4.515  10.860 -0.5176  0.5389 -0.4937
 9333SOL    HW139635   1.666   4.498  10.939 -0.0935  1.5491 -0.0008
 9333SOL    HW239636   1.752   4.602  10.880 -0.2380  0.4769 -0.6949
 9334SOL     OW39637   0.491   1.337   8.072  0.5099  0.1138  0.0639
 9334SOL    HW139638   0.467   1.404   8.009 -1.3196 -1.7358 -1.2189
 9334SOL    HW239639   0.582   1.316   8.054  0.1574 -1.2784 -0.1337
 9335SOL     OW39640   2.759   1.436   2.410 -0.3526 -0.2754  1.1445
 9335SOL    HW139641   2.836   1.473   2.367  0.9912 -1.6034  2.4071
 9335SOL    HW239642   2.686   1.472   2.359 -0.5985 -1.9005  0.3469
 9336SOL     OW39643   2.742   4.695   3.848  0.0826 -0.3844 -0.2569
 9336SOL    HW139644   2.663   4.732   3.889  1.2682  1.1977  0.5805
 9336SOL    HW239645   2.796   4.668   3.922 -1.2474  2.2254  1.6885
 9337SOL     OW39646   3.561   4.110   3.275 -0.2732 -0.0197 -0.0119
 9337SOL    HW139647   3.520   4.143   3.355  1.5561 -1.9769  1.7148
 9337SOL    HW239648   3.626   4.051   3.312  0.5049  0.5771 -0.4202
 9338SOL     OW39649   0.442   4.534   0.900 -0.0443  0.1381 -0.2637
 9338SOL    HW139650   0.522   4.575   0.934 -0.4911  1.9733 -1.4188
 9338SOL    HW239651   0.461   4.444   0.873  3.2087  1.1304 -1.3165
 9339SOL     OW39652   3.141   1.732   9.637  0.2393 -0.0717 -0.2213
 9339SOL    HW139653   3.188   1.791   9.578 -0.2046 -0.0113 -0.5187
 9339SOL    HW239654   3.099   1.681   9.568  0.0334 -2.4885  1.6790
 9340SOL     OW39655   0.100   0.870  12.247  0.6512 -0.1291  0.1114
 9340SOL    HW139656   0.101   0.941  12.183  0.6077  2.4793  2.9709
 9340SOL    HW239657   0.185   0.877  12.291  0.9144  2.3635 -0.8037
 9341SOL     OW39658   1.799   0.299   7.658 -0.2984 -0.4575 -0.4117
 9341SOL    HW139659   1.833   0.318   7.571 -0.6526  0.8693 -0.2621
 9341SOL    HW239660   1.830   0.379   7.700 -1.0527  0.1150 -0.9406
 9342SOL     OW39661   3.281   1.346   4.199  0.0824  0.1268  0.1450
 9342SOL    HW139662   3.262   1.284   4.269 -1.0147  3.1731  2.5276
 9342SOL    HW239663   3.245   1.426   4.236 -0.4561  0.4049 -0.9570
 9343SOL     OW39664   0.280   4.213   2.954 -1.0573  0.3600 -0.6217
 9343SOL    HW139665   0.267   4.307   2.957 -2.0188  0.2813 -2.3224
 9343SOL    HW239666   0.317   4.200   2.867  1.5314  0.0293  0.5177
 9344SOL     OW39667   2.223   3.128   8.615  0.1867 -0.0513  0.0433
 9344SOL    HW139668   2.271   3.209   8.633  0.0938 -0.8185  3.7504
 9344SOL    HW239669   2.303   3.077   8.601 -1.0188 -1.6976 -0.8078
 9345SOL     OW39670   1.063   0.718  16.764 -0.2017  0.3268  0.0885
 9345SOL    HW139671   1.016   0.735  16.845 -1.9509  1.0570 -1.0877
 9345SOL    HW239672   1.151   0.694  16.794  0.0380  2.0023  0.7144
 9346SOL     OW39673   4.077   3.310   5.876 -0.3072 -0.2109  0.1836
 9346SOL    HW139674   4.080   3.373   5.947 -0.7129 -0.7458  0.6669
 9346SOL    HW239675   3.983   3.294   5.878 -0.5529  1.2230 -0.1480
 9347SOL     OW39676   2.561   3.663   7.369  0.4206  0.2104 -0.0933
 9347SOL    HW139677   2.641   3.615   7.391 -0.3802 -0.7688  0.6960
 9347SOL    HW239678   2.543   3.726   7.439 -0.0814  1.8974 -1.7381
 9348SOL     OW39679   0.701   4.373  12.902 -1.0452  0.6913 -0.2662
 9348SOL    HW139680   0.616   4.405  12.870  0.8831  2.4487 -3.6115
 9348SOL    HW239681   0.731   4.313  12.834 -0.5306  0.6690 -0.0217
 9349SOL     OW39682   4.643   1.010   6.366  0.8466 -0.2468  0.4794
 9349SOL    HW139683   4.619   1.090   6.412  1.1776  0.1054  0.0320
 9349SOL    HW239684   0.000   1.012   6.372  0.8871  1.9233 -0.9680
 9350SOL     OW39685   3.321   4.131  14.895 -0.5062 -0.1323 -0.1535
 9350SOL    HW139686   3.280   4.212  14.864 -2.4389 -1.3800 -0.8358
 9350SOL    HW239687   3.365   4.175  14.968  0.0659  1.5888 -1.5362
 9351SOL     OW39688   2.325   0.157   9.291 -0.5341  0.1319  0.1866
 9351SOL    HW139689   2.239   0.199   9.287 -0.3921  0.2383 -1.7138
 9351SOL    HW239690   2.368   0.193   9.213  2.2952  1.4540  2.3449
 9352SOL     OW39691   1.875   3.150  17.021  0.8240  0.2501 -0.0614
 9352SOL    HW139692   1.863   3.244  17.003  1.6871  0.4049  0.1894
 9352SOL    HW239693   1.948   3.139  17.082  0.9012  1.4009  0.0647
 9353SOL     OW39694   1.712   0.391   8.887 -0.2824 -0.1579 -0.4042
 9353SOL    HW139695   1.636   0.437   8.923  1.2686  1.4946  0.7075
 9353SOL    HW239696   1.783   0.445   8.921  0.0112 -0.0748 -1.1501
 9354SOL     OW39697   3.254   1.690  17.462  0.6412 -0.6149 -0.4343
 9354SOL    HW139698   3.177   1.634  17.451  0.6907 -1.0030  1.2165
 9354SOL    HW239699   3.225   1.770  17.419  2.3101 -1.4611 -3.1126
 9355SOL     OW39700   4.099   2.284   4.758  0.7421 -0.0404  0.5786
 9355SOL    HW139701   4.191   2.283   4.732  0.8287 -1.9460  0.9751
 9355SOL    HW239702   4.069   2.313   4.672  1.5925  0.3033  0.4079
 9356SOL     OW39703   0.219   0.975   7.307 -0.0266  0.1403 -0.2291
 9356SOL    HW139704   0.212   1.055   7.254  0.3563  0.1695 -0.2352
 9356SOL    HW239705   0.192   1.018   7.388 -0.1732 -0.3922  0.0057
 9357SOL     OW39706   2.066   0.176   4.260 -0.2584  0.1649 -0.1330
 9357SOL    HW139707   2.104   0.125   4.189 -0.2415 -2.1825  1.5692
 9357SOL    HW239708   2.033   0.103   4.313  0.4681 -1.1991 -1.5642
 9358SOL     OW39709   1.321   2.389  10.240  0.0542 -1.1092 -0.6199
 9358SOL    HW139710   1.303   2.474  10.199 -1.1180 -0.8087  0.5153
 9358SOL    HW239711   1.264   2.391  10.317  0.5680  1.7215 -0.3032
 9359SOL     OW39712   0.010   1.845   5.723  0.0490 -0.6782  0.0160
 9359SOL    HW139713   0.071   1.877   5.657  0.8505  1.7915  1.9502
 9359SOL    HW239714   4.672   1.897   5.698 -0.8336 -1.7798  0.4411
 9360SOL     OW39715   4.366   1.211   5.172 -0.2779  0.3625 -0.1721
 9360SOL    HW139716   4.429   1.211   5.100  0.4597 -4.3039  0.4884
 9360SOL    HW239717   4.417   1.246   5.245 -0.9231  1.0582 -0.0432
 9361SOL     OW39718   3.073   4.231  14.220 -0.2041 -0.3402 -0.1527
 9361SOL    HW139719   3.034   4.298  14.163  1.3823 -0.3138 -1.2033
 9361SOL    HW239720   2.997   4.206  14.272 -0.8145 -2.4421 -2.0626
 9362SOL     OW39721   2.159   4.093   5.589 -0.4752  0.2290  0.2898
 9362SOL    HW139722   2.076   4.096   5.638 -1.4048  1.2412 -1.3746
 9362SOL    HW239723   2.167   3.998   5.578  0.6548  0.5185 -1.4322
 9363SOL     OW39724   0.618   0.839   0.077 -0.4062 -0.1607 -0.3028
 9363SOL    HW139725   0.660   0.885   0.149 -0.0993  1.4114 -1.4826
 9363SOL    HW239726   0.534   0.830   0.122 -0.2065 -0.6663 -0.0296
 9364SOL     OW39727   2.819   1.545   1.867  0.1316 -0.2041  0.2309
 9364SOL    HW139728   2.754   1.612   1.844 -0.3422 -0.6848  0.1616
 9364SOL    HW239729   2.770   1.463   1.864 -0.1190 -0.1127  1.9377
 9365SOL     OW39730   4.208   3.162   4.145 -0.5064 -0.3606 -0.4372
 9365SOL    HW139731   4.226   3.141   4.236 -0.5133  1.0664 -0.1044
 9365SOL    HW239732   4.256   3.243   4.130 -0.7915 -0.6335 -2.8238
 9366SOL     OW39733   4.156   2.828   2.425  0.0324 -0.1621  0.6370
 9366SOL    HW139734   4.084   2.877   2.384  0.7506  0.4675  0.1383
 9366SOL    HW239735   4.191   2.781   2.350 -1.7209 -0.8308  0.2244
 9367SOL     OW39736   4.077   1.508   0.132  0.2080  0.3429 -0.1955
 9367SOL    HW139737   4.089   1.591   0.086  1.5208  0.5613  0.5471
 9367SOL    HW239738   4.115   1.519   0.219  0.6286  2.7962 -0.6923
 9368SOL     OW39739   2.464   0.554   7.685  0.1070  0.3256  0.1532
 9368SOL    HW139740   2.480   0.582   7.595  1.0737 -1.9980 -0.3858
 9368SOL    HW239741   2.392   0.610   7.715 -0.8792 -0.9562  0.1679
 9369SOL     OW39742   3.776   2.049  14.823 -0.1667 -0.1770 -0.1613
 9369SOL    HW139743   3.682   2.032  14.815 -0.4004  1.4646 -0.9958
 9369SOL    HW239744   3.775   2.141  14.851  1.1180 -0.6121  1.3259
 9370SOL     OW39745   2.162   0.551   2.779 -0.2835 -0.8420 -0.1097
 9370SOL    HW139746   2.096   0.519   2.839  1.3948 -2.7091  0.7345
 9370SOL    HW239747   2.158   0.491   2.705  1.3023 -0.6091 -0.3930
 9371SOL     OW39748   4.473   4.077   5.203  0.3399 -0.2818  0.4386
 9371SOL    HW139749   4.445   4.118   5.285  0.2013 -0.3081  0.4032
 9371SOL    HW239750   4.418   4.118   5.137  0.9961  1.1051  0.7365
 9372SOL     OW39751   1.219   4.520  16.601 -0.5379 -0.0415 -0.1310
 9372SOL    HW139752   1.236   4.440  16.651 -3.1294 -1.8344 -2.1396
 9372SOL    HW239753   1.192   4.476  16.521 -0.0135 -1.1064  0.2786
 9373SOL     OW39754   4.368   1.524  13.016 -0.1671  0.8380 -0.7995
 9373SOL    HW139755   4.422   1.603  13.006 -0.7660  1.2195 -1.0263
 9373SOL    HW239756   4.299   1.545  12.954 -2.7547 -0.8915  1.5190
 9374SOL     OW39757   3.561   2.551   4.266 -0.0582  0.4751  0.1776
 9374SOL    HW139758   3.608   2.473   4.295  0.5773  1.2569  1.2167
 9374SOL    HW239759   3.626   2.592   4.209 -1.1243  1.1612 -0.5535
 9375SOL     OW39760   2.674   2.209  17.354  0.8768 -0.1460 -0.0082
 9375SOL    HW139761   2.689   2.129  17.405  0.8275 -0.8272 -1.0403
 9375SOL    HW239762   2.650   2.172  17.268  0.4866  0.1050 -0.0094
 9376SOL     OW39763   1.380   4.309   3.460  0.5094  0.6068  0.0600
 9376SOL    HW139764   1.360   4.226   3.502 -0.6391  1.6071  1.5191
 9376SOL    HW239765   1.289   4.339   3.451  0.8540  1.5079 -0.4549
 9377SOL     OW39766   3.645   2.375   5.233  0.2503 -0.0362  0.7835
 9377SOL    HW139767   3.678   2.388   5.322 -0.0621  0.6711  0.7954
 9377SOL    HW239768   3.557   2.352   5.265 -1.1626 -1.1910 -3.9714
 9378SOL     OW39769   2.626   1.604   2.991 -0.3164  0.3632  0.1760
 9378SOL    HW139770   2.717   1.594   3.018 -0.0199 -0.3561 -1.1000
 9378SOL    HW239771   2.617   1.543   2.918  1.6241 -0.2622  0.4661
 9379SOL     OW39772   4.586   1.345   8.606  0.0117 -0.2216  0.6087
 9379SOL    HW139773   4.609   1.405   8.676 -0.4383  1.8862 -1.0652
 9379SOL    HW239774   4.555   1.267   8.653 -0.4414 -0.6784 -0.4518
 9380SOL     OW39775   1.510   1.730   2.876  0.3625 -0.1951  0.1700
 9380SOL    HW139776   1.420   1.747   2.849  0.3836  0.5979  0.5964
 9380SOL    HW239777   1.507   1.635   2.864 -0.1577 -0.3927  1.7752
 9381SOL     OW39778   4.359   3.045   4.737  0.5795 -0.1587  0.4199
 9381SOL    HW139779   4.371   2.963   4.783  1.1228 -1.2341 -1.6352
 9381SOL    HW239780   4.452   3.064   4.729 -0.1044  2.7749 -0.9197
 9382SOL     OW39781   3.488   3.245   8.109  0.2260  0.3695 -0.3082
 9382SOL    HW139782   3.525   3.308   8.170  1.0812  1.0732 -1.5536
 9382SOL    HW239783   3.480   3.294   8.026  0.6021  0.2496 -0.4151
 9383SOL     OW39784   1.448   3.197  14.441  0.1028 -0.0343  0.1172
 9383SOL    HW139785   1.449   3.116  14.389 -0.8136  1.1274 -1.7093
 9383SOL    HW239786   1.523   3.244  14.404  0.3021 -1.1454 -0.8764
 9384SOL     OW39787   3.176   3.754  15.981  0.4753  0.2583 -0.2956
 9384SOL    HW139788   3.146   3.801  15.903 -2.2321 -1.4327 -0.2556
 9384SOL    HW239789   3.113   3.683  15.972  1.8175 -0.9454 -0.2841
 9385SOL     OW39790   0.193   0.573   9.935  0.3129  0.2380 -0.6504
 9385SOL    HW139791   0.173   0.501   9.995 -0.3709  2.1630  1.4366
 9385SOL    HW239792   0.192   0.647   9.995 -0.1955 -0.5665  0.3365
 9386SOL     OW39793   1.525   1.167  16.592 -0.6949 -0.8173 -0.5330
 9386SOL    HW139794   1.552   1.259  16.586 -0.7839 -0.4607  4.4677
 9386SOL    HW239795   1.464   1.164  16.519  1.8960  1.1834 -2.7604
 9387SOL     OW39796   4.253   3.191   6.439 -0.8817 -0.1663 -0.1585
 9387SOL    HW139797   4.193   3.265   6.451  0.2011  0.8525 -1.0824
 9387SOL    HW239798   4.335   3.240   6.430 -0.8855 -0.0069  0.6336
 9388SOL     OW39799   1.718   1.426  16.306 -0.5033 -0.5657 -0.2664
 9388SOL    HW139800   1.810   1.416  16.284 -0.6194 -0.7033 -0.6902
 9388SOL    HW239801   1.684   1.464  16.225  0.3941  2.1881  0.6710
 9389SOL     OW39802   3.574   1.382  10.364 -0.3007 -0.5172 -0.0120
 9389SOL    HW139803   3.520   1.459  10.383 -1.1996 -1.0242 -0.4990
 9389SOL    HW239804   3.509   1.331  10.316  1.4295 -0.0748 -2.8356
 9390SOL     OW39805   3.389   3.272   7.243 -0.0192  0.0834 -0.1036
 9390SOL    HW139806   3.470   3.263   7.293  1.2815 -1.2410 -2.4280
 9390SOL    HW239807   3.327   3.302   7.309 -1.2574  2.3755 -2.3497
 9391SOL     OW39808   0.893   1.359   2.520 -0.7429 -0.6175  0.5492
 9391SOL    HW139809   0.823   1.407   2.476 -0.8918 -1.4742 -0.1447
 9391SOL    HW239810   0.907   1.293   2.452  0.4775 -0.2697  0.4520
 9392SOL     OW39811   3.100   2.719   0.489 -0.3257 -0.9715 -0.1307
 9392SOL    HW139812   3.053   2.791   0.448 -1.2157 -0.6972  1.3789
 9392SOL    HW239813   3.158   2.782   0.531 -0.7973 -1.0185  0.6040
 9393SOL     OW39814   4.385   3.313   8.596  0.5276 -0.4939 -0.5401
 9393SOL    HW139815   4.443   3.272   8.531 -0.4024  0.9531 -2.2717
 9393SOL    HW239816   4.417   3.268   8.675 -0.9221  0.9977  0.8724
 9394SOL     OW39817   2.214   0.629   6.549 -0.1441 -0.3100 -0.4069
 9394SOL    HW139818   2.154   0.686   6.595  0.7713  0.8580 -0.6707
 9394SOL    HW239819   2.159   0.592   6.479 -0.9970 -1.4841  0.8974
 9395SOL     OW39820   0.778   3.467   3.311 -0.3527  0.1287  0.4449
 9395SOL    HW139821   0.813   3.380   3.328 -0.7659 -0.3688 -1.2390
 9395SOL    HW239822   0.691   3.458   3.350 -0.3729 -2.0370 -0.1161
 9396SOL     OW39823   4.237   0.011   2.748 -0.1603  0.3159 -0.1342
 9396SOL    HW139824   4.316   0.028   2.799 -1.3868 -0.4158  1.9634
 9396SOL    HW239825   4.228   4.655   2.759  0.3084  0.2508 -0.3291
 9397SOL     OW39826   1.715   2.003   6.843  0.0390 -0.3098  0.0656
 9397SOL    HW139827   1.743   1.926   6.891  1.5455  0.8277  1.0072
 9397SOL    HW239828   1.773   2.063   6.891 -0.9344  0.4339  0.3247
 9398SOL     OW39829   4.443   0.918  10.206 -0.2042  0.6863  0.1501
 9398SOL    HW139830   4.515   0.982  10.204  0.0344  0.4114 -0.0901
 9398SOL    HW239831   4.499   0.848  10.241  2.4640  2.3164 -0.8431
 9399SOL     OW39832   0.051   2.007  10.962  0.2638  0.2142 -0.1872
 9399SOL    HW139833   0.138   1.972  10.949  0.5639  0.0124  2.3052
 9399SOL    HW239834   4.736   1.940  10.919 -0.2861 -0.5942  1.7387
 9400SOL     OW39835   1.309   1.706   3.701  0.4307  0.0486 -0.0412
 9400SOL    HW139836   1.313   1.760   3.622 -1.1541 -0.9242 -0.7874
 9400SOL    HW239837   1.241   1.644   3.673  1.8288 -1.3667 -0.3487
 9401SOL     OW39838   4.097   3.481  10.383 -0.5092  0.0751  0.3686
 9401SOL    HW139839   4.189   3.475  10.411 -0.1313  2.1110 -0.4193
 9401SOL    HW239840   4.062   3.518  10.464  1.6913 -0.9950  1.8336
 9402SOL     OW39841   1.083   1.937   4.186  0.6218 -0.0580 -0.0068
 9402SOL    HW139842   1.094   1.878   4.262  1.6041  1.3684  0.9548
 9402SOL    HW239843   1.067   2.022   4.225 -1.9126 -0.2289 -0.7010
 9403SOL     OW39844   3.003   4.082   9.654  0.1839  0.5257 -0.3335
 9403SOL    HW139845   2.997   4.020   9.581 -1.1340  0.4913 -0.1898
 9403SOL    HW239846   3.001   4.019   9.726  0.8405  1.4146  0.4464
 9404SOL     OW39847   1.387   2.193  17.662 -0.2920  0.0907 -0.2509
 9404SOL    HW139848   1.362   2.198  17.570 -1.5198 -0.1939  0.0766
 9404SOL    HW239849   1.323   2.248  17.707 -0.8672 -0.1033 -0.8447
 9405SOL     OW39850   0.067   3.759   8.810  0.5881  0.0153 -0.4085
 9405SOL    HW139851   4.736   3.809   8.768  1.6975  2.6202  0.7784
 9405SOL    HW239852   0.059   3.789   8.901  1.0164  4.0787 -1.6978
 9406SOL     OW39853   4.635   1.391  15.188  0.5811  0.6069  0.2121
 9406SOL    HW139854   4.710   1.439  15.222  2.2383 -2.3671  0.8122
 9406SOL    HW239855   4.669   1.357  15.105  3.7222 -0.8089  2.0755
 9407SOL     OW39856   0.262   2.595   3.502 -0.1856 -0.8082  0.3657
 9407SOL    HW139857   0.270   2.572   3.409  2.1676 -2.8053  1.0360
 9407SOL    HW239858   0.231   2.685   3.500  0.5151 -0.5803 -0.3190
 9408SOL     OW39859   3.505   0.824  17.564 -0.2878  0.3670  0.1079
 9408SOL    HW139860   3.516   0.879  17.642 -0.4384  1.3703 -0.5729
 9408SOL    HW239861   3.489   0.736  17.598  2.6203 -0.9732 -1.9874
 9409SOL     OW39862   3.377   4.168   7.173 -0.4384 -0.6539  0.3691
 9409SOL    HW139863   3.334   4.117   7.105 -1.2923  0.0347  0.3822
 9409SOL    HW239864   3.407   4.236   7.113  1.8421 -0.6774  1.4869
 9410SOL     OW39865   3.261   3.472   4.879  0.2911  0.1154  0.1895
 9410SOL    HW139866   3.312   3.550   4.900 -0.3199  0.6390 -0.2616
 9410SOL    HW239867   3.227   3.434   4.960 -0.3747 -0.8930 -0.5576
 9411SOL     OW39868   4.178   0.570   6.625 -0.3359 -0.3574  0.1030
 9411SOL    HW139869   4.155   0.514   6.551 -0.8448 -2.3573  1.7773
 9411SOL    HW239870   4.122   0.644   6.605 -1.1056 -1.6896 -2.6644
 9412SOL     OW39871   2.847   0.888  15.421 -0.0211 -0.2977 -0.0465
 9412SOL    HW139872   2.908   0.889  15.347 -1.3644 -1.2095 -1.1580
 9412SOL    HW239873   2.765   0.905  15.376 -0.1884 -0.4777  0.1881
 9413SOL     OW39874   0.675   4.598   4.892  0.0162 -0.3616 -0.3057
 9413SOL    HW139875   0.677   4.613   4.986 -2.1108  1.8676 -0.6181
 9413SOL    HW239876   0.640   4.510   4.905  0.3848 -0.5047 -0.2937
 9414SOL     OW39877   2.857   4.079   6.081  0.1636  0.1118 -0.4239
 9414SOL    HW139878   2.871   4.093   6.174  4.8585 -0.7437 -0.9548
 9414SOL    HW239879   2.763   4.076   6.068 -0.0153  1.7454  0.5362
 9415SOL     OW39880   1.429   3.393   2.219  0.0337 -0.0001 -0.1843
 9415SOL    HW139881   1.367   3.363   2.153 -2.3308  0.6616  1.7350
 9415SOL    HW239882   1.474   3.459   2.167  0.1460 -0.8715 -1.1881
 9416SOL     OW39883   0.513   4.185   6.243 -0.2244  0.7777  0.2380
 9416SOL    HW139884   0.546   4.097   6.228  0.2894  0.4818  3.0912
 9416SOL    HW239885   0.587   4.237   6.274 -0.4799  1.6213 -0.5580
 9417SOL     OW39886   1.333   2.483   3.766 -0.5077  0.5253  0.3085
 9417SOL    HW139887   1.257   2.503   3.712 -0.8718 -1.6665 -0.0110
 9417SOL    HW239888   1.294   2.409   3.813  1.2071  0.0957  1.0620
 9418SOL     OW39889   4.593   3.458   1.597  0.2116  0.3902  0.3572
 9418SOL    HW139890   4.575   3.385   1.537 -2.3010 -0.2019  1.8273
 9418SOL    HW239891   4.676   3.489   1.561 -0.3516  2.5992  0.9638
 9419SOL     OW39892   1.637   0.354   5.881 -0.1688 -0.2152 -0.1256
 9419SOL    HW139893   1.665   0.399   5.960 -0.4224 -0.5597  0.1608
 9419SOL    HW239894   1.599   0.274   5.917  0.5229 -0.5404 -0.1029
 9420SOL     OW39895   1.105   2.220  14.812  0.1048 -0.2030 -0.0282
 9420SOL    HW139896   1.189   2.230  14.767 -0.0148  0.5394 -0.0905
 9420SOL    HW239897   1.111   2.284  14.883  1.5439 -1.6083  1.1117
 9421SOL     OW39898   0.829   0.891   2.330  0.4540 -0.1678  0.2412
 9421SOL    HW139899   0.851   0.879   2.237  1.1108  1.8510  0.1240
 9421SOL    HW239900   0.819   0.986   2.330  0.4417 -0.1699  0.3628
 9422SOL     OW39901   0.435   0.351  16.150 -0.4930  0.5399  0.0898
 9422SOL    HW139902   0.491   0.416  16.192  0.1086  0.5237 -0.6937
 9422SOL    HW239903   0.373   0.407  16.104  0.6529  2.9834  1.5282
 9423SOL     OW39904   2.716   4.438   5.029  1.0481  0.0396  0.2998
 9423SOL    HW139905   2.646   4.498   5.004  1.4869  0.8468  0.9827
 9423SOL    HW239906   2.784   4.455   4.963  0.3073  2.4564  0.1660
 9424SOL     OW39907   4.515   4.241   4.342  0.6243 -0.3327 -0.6603
 9424SOL    HW139908   4.488   4.279   4.259 -2.0565  0.9125  0.7407
 9424SOL    HW239909   4.437   4.189   4.366 -0.4560  2.8912  2.8010
 9425SOL     OW39910   0.274   0.489   4.784 -0.4872  0.1979 -0.8412
 9425SOL    HW139911   0.199   0.549   4.790 -0.2171  0.4636 -0.0801
 9425SOL    HW239912   0.287   0.473   4.878 -3.7345 -0.0617 -0.4237
 9426SOL     OW39913   1.469   2.076   2.708 -0.1398  0.5130 -0.8729
 9426SOL    HW139914   1.527   2.023   2.653  0.6929  1.3630 -0.8064
 9426SOL    HW239915   1.382   2.056   2.672  0.1269 -0.1445 -1.1649
 9427SOL     OW39916   1.372   2.966   7.079  0.2852  0.5175  0.7015
 9427SOL    HW139917   1.456   2.943   7.120  0.8962  3.0139  0.9056
 9427SOL    HW239918   1.323   2.963   7.161 -0.9005  0.4683 -0.0196
 9428SOL     OW39919   1.475   2.327   3.252 -1.2463 -0.1812  0.4689
 9428SOL    HW139920   1.567   2.341   3.278 -1.1110  1.4697 -0.9244
 9428SOL    HW239921   1.439   2.413   3.274  0.2119  0.3972  0.5974
 9429SOL     OW39922   2.650   3.138   5.611 -0.2867  0.4193 -0.3106
 9429SOL    HW139923   2.731   3.087   5.610  1.2052  2.7812 -0.5868
 9429SOL    HW239924   2.606   3.092   5.539  0.9156  0.5561 -1.1393
 9430SOL     OW39925   0.969   0.716   3.609 -0.9170  0.2804  0.1466
 9430SOL    HW139926   0.954   0.798   3.562  0.2640  0.0602 -0.5956
 9430SOL    HW239927   0.926   0.655   3.549  1.4464 -0.7178 -0.5191
 9431SOL     OW39928   0.372   2.237   0.244 -0.0407  0.5131 -0.5454
 9431SOL    HW139929   0.426   2.169   0.285 -2.3582  0.5250  2.5520
 9431SOL    HW239930   0.322   2.277   0.315 -2.3501  2.1934 -3.1189
 9432SOL     OW39931   1.388   4.170   2.487 -0.0243 -0.6601 -0.0067
 9432SOL    HW139932   1.421   4.173   2.398  1.9433  0.7117  0.7680
 9432SOL    HW239933   1.456   4.111   2.519  2.5320  2.1760 -0.1975
 9433SOL     OW39934   3.225   4.725   6.450 -0.5907  0.0766  0.0667
 9433SOL    HW139935   3.254   0.077   6.444  1.1485 -0.4370  0.8042
 9433SOL    HW239936   3.131   4.738   6.440 -0.6270  0.0644  0.3832
 9434SOL     OW39937   3.979   4.450   4.246 -0.0938  0.2599  0.0380
 9434SOL    HW139938   3.980   4.361   4.281  0.2187  0.7891  1.3703
 9434SOL    HW239939   3.942   4.432   4.159 -0.6398  2.0696 -0.1187
 9435SOL     OW39940   3.920   1.197   3.384 -0.3208  0.2223 -0.3758
 9435SOL    HW139941   3.844   1.247   3.412  0.3989  1.7965 -1.2365
 9435SOL    HW239942   3.931   1.239   3.298 -1.6165  0.2027 -0.5421
 9436SOL     OW39943   2.429   1.577   6.427  0.3783  0.1816  0.2523
 9436SOL    HW139944   2.358   1.639   6.439 -0.0229 -0.3585  0.6871
 9436SOL    HW239945   2.444   1.610   6.338  1.3453  1.4227  0.8732
 9437SOL     OW39946   0.250   1.984   2.541 -0.0201 -0.1008  0.5215
 9437SOL    HW139947   0.256   1.946   2.628 -0.0871  0.2195  0.6672
 9437SOL    HW239948   0.318   1.934   2.496  0.7607  0.5068  1.0360
 9438SOL     OW39949   3.337   2.235   1.798  0.1531  0.9735 -0.1928
 9438SOL    HW139950   3.326   2.314   1.851 -0.6805  0.5202  0.3122
 9438SOL    HW239951   3.428   2.207   1.813 -0.6025 -2.1823 -1.5791
 9439SOL     OW39952   2.481   3.453   6.926 -0.2545 -0.3581  0.4331
 9439SOL    HW139953   2.521   3.513   6.989  0.6161 -1.9454  1.4030
 9439SOL    HW239954   2.424   3.516   6.882  0.8687 -0.0301 -0.5308
 9440SOL     OW39955   3.319   4.338   7.739 -0.0666 -0.5724  0.2428
 9440SOL    HW139956   3.378   4.265   7.719 -1.2938 -2.1013  2.2615
 9440SOL    HW239957   3.300   4.372   7.652 -0.1268  0.1461  0.5327
 9441SOL     OW39958   0.303   0.605   4.380  0.4225 -0.5622  0.0760
 9441SOL    HW139959   0.274   0.669   4.314 -0.2975  0.5955  1.5272
 9441SOL    HW239960   0.254   0.629   4.459  1.4281 -1.6354  1.0174
 9442SOL     OW39961   0.221   1.713   6.129  0.3459 -0.2631 -0.1179
 9442SOL    HW139962   0.225   1.638   6.070  1.4202 -0.2070 -0.1140
 9442SOL    HW239963   0.128   1.733   6.133 -0.3836 -3.2762 -1.4105
 9443SOL     OW39964   2.803   2.605   2.012 -0.0052  0.2605 -0.3628
 9443SOL    HW139965   2.867   2.576   2.078 -0.7806  0.7914  0.6216
 9443SOL    HW239966   2.784   2.523   1.967  0.4764  1.2775 -2.4273
 9444SOL     OW39967   0.029   3.784   3.295 -0.2826 -0.0073 -0.3098
 9444SOL    HW139968   4.690   3.825   3.256 -0.4199  1.0310  1.0564
 9444SOL    HW239969   0.099   3.830   3.248  1.8048 -3.0007 -0.1161
 9445SOL     OW39970   0.556   2.577  14.676 -0.4421  0.4833 -0.3050
 9445SOL    HW139971   0.502   2.515  14.725  0.3644  0.1003  0.0993
 9445SOL    HW239972   0.523   2.563  14.588 -1.5098  0.3340  0.1157
 9446SOL     OW39973   4.375   2.359   4.653 -0.0536 -0.0739 -0.2964
 9446SOL    HW139974   4.384   2.264   4.648 -1.2025 -0.2265  0.6288
 9446SOL    HW239975   4.448   2.379   4.712 -1.6163  1.4324  1.1083
 9447SOL     OW39976   0.575   1.333   3.741 -0.1361 -0.2010  0.4468
 9447SOL    HW139977   0.507   1.381   3.789  0.0968 -0.7391  1.3222
 9447SOL    HW239978   0.525   1.293   3.670  0.8992 -1.0849  0.2121
 9448SOL     OW39979   2.141   2.470   9.185 -0.1553 -0.5846 -0.3096
 9448SOL    HW139980   2.231   2.450   9.159 -0.5190 -0.7982 -1.4158
 9448SOL    HW239981   2.102   2.403   9.129  1.9646 -1.6378 -0.5193
 9449SOL     OW39982   0.778   4.531   1.792  0.2738 -0.1672 -0.6744
 9449SOL    HW139983   0.869   4.558   1.782 -0.5237  2.6005 -0.6227
 9449SOL    HW239984   0.797   4.473   1.866 -0.4160 -1.4435 -1.5005
 9450SOL     OW39985   3.294   2.190  14.212 -0.2338  0.2436 -0.1362
 9450SOL    HW139986   3.225   2.143  14.165 -1.8449  0.3136  2.1574
 9450SOL    HW239987   3.317   2.257  14.148  0.8705 -2.6213 -2.7134
 9451SOL     OW39988   0.773   2.087  12.633  0.1078  0.0125 -0.2084
 9451SOL    HW139989   0.694   2.136  12.611  0.1126 -1.0562 -2.6400
 9451SOL    HW239990   0.838   2.144  12.592 -0.4765  1.2897  0.6044
 9452SOL     OW39991   2.565   4.655   6.838 -0.9500 -0.3068 -0.7571
 9452SOL    HW139992   2.561   4.590   6.908 -2.0371  1.4672  0.8262
 9452SOL    HW239993   2.506   4.611   6.777 -0.4760 -0.3412 -1.1868
 9453SOL     OW39994   0.997   2.755   1.990 -0.1654  0.1299 -0.2615
 9453SOL    HW139995   1.052   2.824   2.027 -2.7459  2.5810 -0.9374
 9453SOL    HW239996   0.914   2.758   2.038  0.6829  3.4144  0.9905
 9454SOL     OW39997   0.575   0.466   9.884  0.1930  0.1271 -0.2165
 9454SOL    HW139998   0.623   0.436   9.807  1.1398 -2.2966  1.3160
 9454SOL    HW239999   0.607   0.415   9.958 -0.8473 -1.3286 -0.7651
 9455SOL     OW40000   3.529   0.885   7.768  0.0439  0.4011 -0.5207
 9455SOL    HW140001   3.523   0.958   7.830 -1.0111 -1.0804  1.1243
 9455SOL    HW240002   3.445   0.888   7.722  0.3448 -2.9068 -1.2676
 9456SOL     OW40003   3.387   0.274   4.850 -0.3709 -0.2700 -0.0535
 9456SOL    HW140004   3.469   0.315   4.879 -1.1976 -0.5914  2.7979
 9456SOL    HW240005   3.416   0.213   4.782  1.6750 -0.9371  1.3794
 9457SOL     OW40006   1.282   4.221   0.383 -0.0790 -0.4455  0.1152
 9457SOL    HW140007   1.341   4.241   0.455 -2.5221  0.3070  1.9190
 9457SOL    HW240008   1.345   4.182   0.322 -0.1440  0.1426 -0.3302
 9458SOL     OW40009   3.680   4.417   3.401  0.5160  0.5166  0.2064
 9458SOL    HW140010   3.655   4.424   3.308 -1.2100 -1.5008  0.5218
 9458SOL    HW240011   3.623   4.486   3.434  0.4659  0.6819 -0.2141
 9459SOL     OW40012   0.764   1.518   8.613 -0.0513  0.3693  0.4061
 9459SOL    HW140013   0.794   1.462   8.685 -1.7140 -2.0750 -0.8414
 9459SOL    HW240014   0.849   1.532   8.570  0.1495 -0.5540  0.5045
 9460SOL     OW40015   2.758   3.534  12.251 -0.2899 -0.0714  0.2520
 9460SOL    HW140016   2.666   3.556  12.264 -0.1477  1.1140 -0.7277
 9460SOL    HW240017   2.770   3.571  12.163 -2.4757  0.2997  0.1178
 9461SOL     OW40018   0.355   3.004   2.484 -0.2549  0.1803 -0.2149
 9461SOL    HW140019   0.400   3.003   2.399  1.9011  0.0660  0.9377
 9461SOL    HW240020   0.313   3.090   2.478  0.4771  0.4859 -0.8794
 9462SOL     OW40021   0.402   3.393   7.770 -0.7121 -0.4599 -0.3765
 9462SOL    HW140022   0.407   3.387   7.675  1.7729 -1.6868 -0.1674
 9462SOL    HW240023   0.457   3.317   7.792 -0.8701 -0.8034 -1.1692
 9463SOL     OW40024   0.117   0.422   8.471  0.2866 -0.1838  0.2431
 9463SOL    HW140025   0.151   0.347   8.423 -1.5420 -0.8668  0.0067
 9463SOL    HW240026   0.189   0.484   8.461  0.7870 -0.7184  0.5877
 9464SOL     OW40027   3.532   3.186   6.368  0.1573  0.3381  0.6149
 9464SOL    HW140028   3.468   3.157   6.303  0.8118  0.6116 -0.1468
 9464SOL    HW240029   3.620   3.189   6.331  0.6063 -0.8554  1.5878
 9465SOL     OW40030   2.586   1.842   2.873 -0.4739 -0.5183  0.0407
 9465SOL    HW140031   2.601   1.759   2.918  1.0476  0.7388  1.8796
 9465SOL    HW240032   2.590   1.816   2.781  0.1445  0.7753 -0.3100
 9466SOL     OW40033   1.621   2.265   2.504 -0.8330  0.4687 -0.3048
 9466SOL    HW140034   1.709   2.287   2.475  0.1715 -1.1688  1.4468
 9466SOL    HW240035   1.648   2.215   2.582 -0.9928 -0.1906 -0.6709
 9467SOL     OW40036   2.490   4.304   1.664 -0.0541 -0.2441  0.1996
 9467SOL    HW140037   2.526   4.219   1.639  1.3256  0.0227  1.2800
 9467SOL    HW240038   2.401   4.279   1.641  0.9177 -3.4657 -0.0664
 9468SOL     OW40039   1.486   0.423   0.929  0.1069  0.0025 -0.1028
 9468SOL    HW140040   1.570   0.462   0.907  1.2530 -1.7810  1.1451
 9468SOL    HW240041   1.435   0.464   0.859  2.2599  0.9832 -1.0857
 9469SOL     OW40042   0.785   3.961   1.009 -0.1761  0.2724 -0.5838
 9469SOL    HW140043   0.761   4.039   0.959 -2.3657  0.2174  0.3600
 9469SOL    HW240044   0.875   3.947   0.981  1.0506  2.5616  2.2593
 9470SOL     OW40045   2.663   1.513   8.853  0.3766 -0.6530 -0.1481
 9470SOL    HW140046   2.724   1.495   8.924  0.1791  3.9411  1.1949
 9470SOL    HW240047   2.730   1.546   8.793 -0.4463 -0.2770 -0.8715
 9471SOL     OW40048   1.853   3.414   6.487  0.0884 -0.2097 -0.6306
 9471SOL    HW140049   1.821   3.353   6.555  2.2140 -2.2468 -1.4603
 9471SOL    HW240050   1.775   3.423   6.432  0.5559  1.1990 -1.0311
 9472SOL     OW40051   2.391   0.862   7.243 -0.1763  0.4406  0.3547
 9472SOL    HW140052   2.473   0.877   7.290  0.6586  0.2844 -1.0500
 9472SOL    HW240053   2.328   0.845   7.313  0.1264  2.2335  1.0466
 9473SOL     OW40054   1.640   3.089   7.435 -0.1825 -0.0184  0.3451
 9473SOL    HW140055   1.625   3.021   7.369 -0.1177  0.0987  0.2100
 9473SOL    HW240056   1.735   3.091   7.448 -0.0737  2.3838 -0.9936
 9474SOL     OW40057   3.135   0.511  10.754  0.2061 -0.5171  0.2433
 9474SOL    HW140058   3.146   0.560  10.836 -0.2416 -1.1237  0.6642
 9474SOL    HW240059   3.133   0.584  10.692 -2.3577 -0.8554 -0.0713
 9475SOL     OW40060   2.758   4.065  15.432  0.3982  0.4647  0.5712
 9475SOL    HW140061   2.743   4.060  15.337  0.1476  2.6648  0.4926
 9475SOL    HW240062   2.733   3.978  15.462 -0.8908  0.1507 -1.3666
 9476SOL     OW40063   1.884   0.078   3.800 -0.5899 -0.3954 -0.3266
 9476SOL    HW140064   1.885   0.016   3.872  0.1183  0.3865  0.3311
 9476SOL    HW240065   1.818   0.139   3.832  1.2917  1.4729 -0.0089
 9477SOL     OW40066   4.382   0.517   9.255  0.0386  0.2281 -0.2799
 9477SOL    HW140067   4.326   0.446   9.223  0.8208 -0.9871  1.0264
 9477SOL    HW240068   4.363   0.596   9.205 -0.7375 -0.1922 -0.6568
 9478SOL     OW40069   2.379   1.969   4.450  0.1241 -0.5155  0.0177
 9478SOL    HW140070   2.340   2.057   4.451  0.7724 -0.2300  0.1805
 9478SOL    HW240071   2.301   1.913   4.451  0.2472 -0.6372  2.8834
 9479SOL     OW40072   1.352   2.570   8.656 -0.6333  0.1347 -0.1827
 9479SOL    HW140073   1.322   2.581   8.746 -0.8077  1.6087 -0.4259
 9479SOL    HW240074   1.409   2.494   8.654 -1.5654 -0.5707 -0.1683
 9480SOL     OW40075   4.223   2.901  14.773  0.1365 -0.3099  0.6436
 9480SOL    HW140076   4.248   2.825  14.721  0.6410  1.5240 -1.7647
 9480SOL    HW240077   4.176   2.951  14.706 -1.3602 -0.3228  1.6763
 9481SOL     OW40078   4.227   1.706   7.389  0.1694  0.4769 -0.3137
 9481SOL    HW140079   4.142   1.710   7.434  0.9725 -4.0986  1.5637
 9481SOL    HW240080   4.233   1.794   7.350 -1.4029  0.8830  0.3337
 9482SOL     OW40081   3.637   2.870   3.790  0.1239  0.3407  0.8781
 9482SOL    HW140082   3.656   2.825   3.873  0.7208 -0.3152  0.3806
 9482SOL    HW240083   3.707   2.933   3.779 -0.2930  1.0145  2.0939
 9483SOL     OW40084   4.240   1.442   5.524  0.1051  0.3597 -0.4531
 9483SOL    HW140085   4.238   1.534   5.500  2.3251  0.5477  0.1202
 9483SOL    HW240086   4.149   1.434   5.554  0.7190  0.2475  1.3836
 9484SOL     OW40087   3.050   0.807  16.434  0.0990 -0.0053 -0.3325
 9484SOL    HW140088   3.069   0.884  16.487  0.1448 -1.6986  2.1301
 9484SOL    HW240089   3.073   0.833  16.345 -0.0599 -2.4684 -1.1178
 9485SOL     OW40090   2.313   3.427   9.421  0.2854  0.1791  0.3530
 9485SOL    HW140091   2.318   3.415   9.326  0.2727 -0.1481  0.3935
 9485SOL    HW240092   2.391   3.387   9.460  0.4304 -0.0160 -0.1347
 9486SOL     OW40093   2.848   0.253   4.151  0.1167 -0.6117 -0.0641
 9486SOL    HW140094   2.896   0.229   4.072 -0.8515 -1.4599 -0.4008
 9486SOL    HW240095   2.856   0.348   4.158 -1.1706 -0.5882  1.1004
 9487SOL     OW40096   2.841   4.319   6.992  0.5127  0.0923  0.0433
 9487SOL    HW140097   2.847   4.402   6.945  1.3502 -0.3804 -0.6972
 9487SOL    HW240098   2.932   4.287   6.993 -0.2245 -2.0094 -0.5885
 9488SOL     OW40099   4.607   2.281   5.565  0.0604  0.1017 -0.3471
 9488SOL    HW140100   4.598   2.216   5.634 -2.1427  1.0357  0.2215
 9488SOL    HW240101   4.689   2.325   5.587 -1.3632  2.2551  0.5974
 9489SOL     OW40102   3.936   1.383   2.346 -0.0161 -0.1562  0.3593
 9489SOL    HW140103   4.022   1.346   2.364  0.7128  0.9933 -0.7904
 9489SOL    HW240104   3.955   1.398   2.254 -1.2062  1.5540  0.3961
 9490SOL     OW40105   2.729   1.335   1.548 -0.6705 -0.1239 -0.0329
 9490SOL    HW140106   2.809   1.387   1.549 -0.4683 -0.4368  0.0520
 9490SOL    HW240107   2.761   1.249   1.520 -1.1864 -0.1460 -0.5608
 9491SOL     OW40108   3.069   2.156   1.189  0.3267  0.1434 -0.0990
 9491SOL    HW140109   3.159   2.124   1.194  0.8708  1.4372 -1.6494
 9491SOL    HW240110   3.043   2.134   1.099 -1.8583 -0.6741  0.7297
 9492SOL     OW40111   4.451   0.706   3.700  0.1897  0.6243  0.0248
 9492SOL    HW140112   4.456   0.651   3.778 -2.3365 -1.0996 -1.0342
 9492SOL    HW240113   4.428   0.790   3.740 -1.4021  1.6070 -2.9682
 9493SOL     OW40114   0.689   1.008   0.270  0.9631  0.2323 -0.6229
 9493SOL    HW140115   0.675   1.059   0.190 -0.7874 -1.4948 -1.4152
 9493SOL    HW240116   0.648   1.068   0.333  1.3016 -0.9412  0.7077
 9494SOL     OW40117   3.511   4.650   5.187 -0.0235  0.0130  0.0984
 9494SOL    HW140118   3.601   4.654   5.219 -0.0483  2.4327 -0.1396
 9494SOL    HW240119   3.517   4.709   5.112 -0.8227  0.4901  0.4065
 9495SOL     OW40120   0.398   1.996   9.736 -0.8433 -0.1211 -0.2324
 9495SOL    HW140121   0.380   1.919   9.790  0.0399  2.3746  3.5730
 9495SOL    HW240122   0.398   2.069   9.797  0.0450  1.1724 -1.7755
 9496SOL     OW40123   4.307   0.442   4.358 -0.1646 -0.4467 -0.1746
 9496SOL    HW140124   4.304   0.398   4.273  0.1337  0.6395 -0.7638
 9496SOL    HW240125   4.390   0.411   4.394  0.5382 -0.0365 -1.4257
 9497SOL     OW40126   3.620   4.576   6.613  0.1684  0.6542  0.3680
 9497SOL    HW140127   3.706   4.607   6.585 -0.1642  1.8349  0.6635
 9497SOL    HW240128   3.579   4.591   6.528  2.2558 -0.9893 -0.9097
 9498SOL     OW40129   2.466   0.076  12.423 -0.4105 -0.1055 -0.5198
 9498SOL    HW140130   2.487   0.146  12.362 -1.6411  0.8656  0.1841
 9498SOL    HW240131   2.389   0.111  12.467 -1.0030 -3.4045  1.0660
 9499SOL     OW40132   1.022   0.561   6.361  0.8969  0.5093  0.6638
 9499SOL    HW140133   0.927   0.558   6.373  0.6994 -0.7615 -1.1812
 9499SOL    HW240134   1.036   0.650   6.394 -1.0012  0.3317  1.9662
 9500SOL     OW40135   1.103   0.827  13.407  0.1442 -0.2851 -0.4387
 9500SOL    HW140136   1.012   0.831  13.379  0.3030  0.3657 -0.8504
 9500SOL    HW240137   1.119   0.897  13.470  2.7829 -0.9777 -0.3458
 9501SOL     OW40138   3.796   2.674   3.512 -0.0724  0.1321  0.7783
 9501SOL    HW140139   3.813   2.765   3.488 -3.1269  0.0498 -1.7676
 9501SOL    HW240140   3.886   2.648   3.528 -0.7581 -1.4632  2.0772
 9502SOL     OW40141   2.387   3.152   7.648 -0.5185 -0.2042 -0.8407
 9502SOL    HW140142   2.321   3.127   7.584 -1.3352  0.7158 -0.3642
 9502SOL    HW240143   2.430   3.219   7.595 -0.1141 -1.2247 -1.8079
 9503SOL     OW40144   0.685   0.469   4.662 -0.3114 -0.8070  0.1858
 9503SOL    HW140145   0.704   0.492   4.571  0.8941  0.0198  0.6432
 9503SOL    HW240146   0.611   0.528   4.674  0.9318  0.7017  0.4516
 9504SOL     OW40147   2.511   2.674   4.084  0.3431  0.2400  0.5434
 9504SOL    HW140148   2.512   2.627   4.000 -1.7618 -0.0625  0.7073
 9504SOL    HW240149   2.596   2.648   4.120  0.7781 -1.2765 -1.5510
 9505SOL     OW40150   4.710   3.337  12.605  0.4614  0.3405  0.5339
 9505SOL    HW140151   4.689   3.331  12.698  0.8448  0.6678  0.6408
 9505SOL    HW240152   4.660   3.414  12.576  0.5237 -0.3327 -1.3891
 9506SOL     OW40153   3.032   1.319   7.396  0.2340  0.1858  0.7292
 9506SOL    HW140154   2.980   1.387   7.438  3.4473  1.0638  3.3163
 9506SOL    HW240155   3.117   1.361   7.377  0.8314 -0.9256  0.9531
 9507SOL     OW40156   1.599   0.301  17.427 -0.0927  0.1808  0.2657
 9507SOL    HW140157   1.651   0.381  17.436  0.7073 -0.2059 -0.9815
 9507SOL    HW240158   1.572   0.302  17.335 -0.2248  1.2164  0.3128
 9508SOL     OW40159   2.431   3.719   9.404  0.1325  0.2604 -0.0784
 9508SOL    HW140160   2.479   3.676   9.333  0.1879  2.4687 -1.3772
 9508SOL    HW240161   2.490   3.707   9.478 -0.2187 -1.5259 -0.0912
 9509SOL     OW40162   0.849   2.115  13.042  0.5037  0.0966  0.0987
 9509SOL    HW140163   0.820   2.046  12.982 -2.0066  0.9575  0.3008
 9509SOL    HW240164   0.942   2.116  13.019  0.3323  1.7708 -0.4757
 9510SOL     OW40165   3.513   2.852   5.330 -0.5341  0.0345 -0.1267
 9510SOL    HW140166   3.600   2.891   5.337 -0.2306 -0.7617  0.4505
 9510SOL    HW240167   3.512   2.807   5.415  0.9148 -0.4570 -0.3698
 9511SOL     OW40168   2.486   3.631   8.179 -0.1369 -0.4047  0.1992
 9511SOL    HW140169   2.425   3.692   8.219 -0.0718 -0.1806 -0.0420
 9511SOL    HW240170   2.561   3.635   8.239  0.6090 -1.1453 -0.6738
 9512SOL     OW40171   4.604   4.654   3.892  0.0234 -0.2869  0.3279
 9512SOL    HW140172   4.581   4.670   3.800  0.2740 -2.1664 -0.0564
 9512SOL    HW240173   4.628   4.562   3.903 -0.9235 -0.4513  1.0373
 9513SOL     OW40174   1.763   2.186   8.729 -0.2372  0.7730  0.4134
 9513SOL    HW140175   1.671   2.174   8.708 -0.5839  2.8829  0.7867
 9513SOL    HW240176   1.767   2.185   8.825 -0.6802 -0.2072  0.4229
 9514SOL     OW40177   2.085   1.321  14.882 -0.6339  0.3452  0.0789
 9514SOL    HW140178   1.992   1.326  14.900 -0.5126 -0.1470  0.8222
 9514SOL    HW240179   2.092   1.225  14.888  2.0785  0.6556  1.8531
 9515SOL     OW40180   1.685   2.828  10.981 -0.7848  0.3916  0.2332
 9515SOL    HW140181   1.608   2.880  10.957 -0.2388 -0.8419 -4.1614
 9515SOL    HW240182   1.653   2.779  11.056  1.6094  0.2130  1.1401
 9516SOL     OW40183   2.254   1.613   3.984  0.8165  0.6127 -0.3214
 9516SOL    HW140184   2.330   1.557   3.998  2.0782  1.6305 -2.9549
 9516SOL    HW240185   2.192   1.542   3.997  0.9885  0.9190  2.1954
 9517SOL     OW40186   4.344   3.668   3.394  0.2954 -0.2058 -0.2986
 9517SOL    HW140187   4.295   3.747   3.414  1.3959 -0.5153  3.6540
 9517SOL    HW240188   4.432   3.703   3.381  0.5780 -0.8036 -0.0441
 9518SOL     OW40189   0.893   2.284   1.737 -0.5275 -0.0594 -0.1106
 9518SOL    HW140190   0.929   2.298   1.650  0.7636  1.3681  0.6464
 9518SOL    HW240191   0.968   2.286   1.797 -1.0531  1.4811  0.5103
 9519SOL     OW40192   2.567   3.936   7.147  0.3695 -0.2046  0.0449
 9519SOL    HW140193   2.500   3.938   7.216  1.8156  0.8978  1.4249
 9519SOL    HW240194   2.579   4.031   7.145  0.5440 -0.1848  1.9451
 9520SOL     OW40195   1.315   0.985  17.139  0.2326 -0.0834 -0.0214
 9520SOL    HW140196   1.378   1.049  17.105 -0.2288 -0.1869 -1.0436
 9520SOL    HW240197   1.345   0.988  17.230 -2.4933 -0.0592  0.8722
 9521SOL     OW40198   1.747   0.709   0.366  0.4298  0.0577 -0.0834
 9521SOL    HW140199   1.663   0.677   0.334  0.0466  0.0775  0.9103
 9521SOL    HW240200   1.793   0.751   0.293  0.5837 -0.7897 -0.4771
 9522SOL     OW40201   3.690   1.399   1.502 -0.1165 -0.2240 -0.6709
 9522SOL    HW140202   3.631   1.325   1.495 -0.3824 -0.0752  0.0028
 9522SOL    HW240203   3.722   1.402   1.592 -5.2016 -1.7337  1.1890
 9523SOL     OW40204   4.599   2.888   8.585 -0.4077 -0.1695 -0.0040
 9523SOL    HW140205   4.577   2.858   8.497 -2.3335  1.9838 -0.2508
 9523SOL    HW240206   4.664   2.956   8.568  0.8283 -0.7566  2.3085
 9524SOL     OW40207   2.428   3.736   6.739 -0.6808  0.4834 -0.6655
 9524SOL    HW140208   2.369   3.779   6.677 -1.1586  1.4404  0.4682
 9524SOL    HW240209   2.379   3.755   6.818 -0.3678 -0.8057 -0.1484
 9525SOL     OW40210   3.754   4.304   8.091 -0.2244 -0.0346 -0.2006
 9525SOL    HW140211   3.839   4.311   8.136  0.2670  3.0008 -1.5987
 9525SOL    HW240212   3.691   4.300   8.162 -1.7881  1.4355 -1.4979
 9526SOL     OW40213   4.129   0.589   1.545 -0.4725 -0.3190 -0.0719
 9526SOL    HW140214   4.101   0.607   1.635  1.7620 -0.7175  0.7109
 9526SOL    HW240215   4.141   0.495   1.563  0.8478  0.0831  1.1662
 9527SOL     OW40216   2.041   1.961   6.677 -0.8529 -0.0528 -0.2230
 9527SOL    HW140217   2.113   2.021   6.659  0.4194 -2.3548 -2.9317
 9527SOL    HW240218   2.082   1.887   6.722 -2.3853  0.2999  1.7117
 9528SOL     OW40219   3.129   1.409   7.022 -0.0336  0.0457 -0.0054
 9528SOL    HW140220   3.184   1.333   7.003  2.6946  2.1217 -0.4358
 9528SOL    HW240221   3.046   1.378   6.985  0.9914 -0.3766 -1.9524
 9529SOL     OW40222   3.344   2.908   8.866 -0.7938  0.5970 -0.0294
 9529SOL    HW140223   3.340   2.839   8.932 -0.8968  2.8356  2.3296
 9529SOL    HW240224   3.420   2.957   8.899  1.4382 -2.4260 -0.7440
 9530SOL     OW40225   2.991   0.536   7.834 -0.0467  0.4530 -0.1753
 9530SOL    HW140226   2.895   0.538   7.835 -0.0113  3.2769 -1.4648
 9530SOL    HW240227   3.013   0.627   7.812 -0.1504  0.3304 -0.7835
 9531SOL     OW40228   3.331   4.141   2.861  0.1916  0.3552 -0.1419
 9531SOL    HW140229   3.338   4.110   2.771 -1.1776  0.8960 -0.4424
 9531SOL    HW240230   3.318   4.235   2.845  0.1984  0.3824  0.0094
 9532SOL     OW40231   2.143   1.101   7.481  0.6966 -0.3597  0.1206
 9532SOL    HW140232   2.065   1.072   7.434  0.9492 -0.7352 -0.0708
 9532SOL    HW240233   2.156   1.181   7.431  1.1912  0.9103  2.2927
 9533SOL     OW40234   4.034   4.080  16.211  0.4625  0.0608 -0.4391
 9533SOL    HW140235   4.078   4.054  16.130 -0.1145  2.0261 -1.3822
 9533SOL    HW240236   4.109   4.066  16.269  2.6487  0.2693 -3.2269
 9534SOL     OW40237   1.905   3.830  17.414 -1.0294  0.3755 -0.7002
 9534SOL    HW140238   1.969   3.876  17.360  1.1647 -1.4144  0.3578
 9534SOL    HW240239   1.920   3.873  17.498 -1.6005 -1.9464  0.6121
 9535SOL     OW40240   2.488   0.383   8.575 -0.8275  0.0959  0.2640
 9535SOL    HW140241   2.538   0.440   8.517 -1.1503 -0.1934 -0.2916
 9535SOL    HW240242   2.548   0.311   8.594 -0.0857  0.0834 -2.1099
 9536SOL     OW40243   1.855   2.200   7.062 -0.4222  0.0446 -0.0944
 9536SOL    HW140244   1.921   2.149   7.016 -1.6929 -0.4654 -1.3144
 9536SOL    HW240245   1.862   2.290   7.029  0.3319 -0.0179 -0.1007
 9537SOL     OW40246   2.561   1.496   4.502 -0.4105 -0.2836 -0.0132
 9537SOL    HW140247   2.481   1.491   4.449  0.8510 -0.3329 -1.9118
 9537SOL    HW240248   2.535   1.552   4.575 -0.6911 -2.9164  1.9077
 9538SOL     OW40249   3.518   0.579  13.573  0.4899  0.2016 -0.3990
 9538SOL    HW140250   3.433   0.571  13.531  1.1631 -1.6752 -1.4086
 9538SOL    HW240251   3.533   0.670  13.599 -0.8582  0.5854 -1.0176
 9539SOL     OW40252   3.461   2.527   7.477  0.1047 -0.3727 -0.5567
 9539SOL    HW140253   3.380   2.514   7.527 -2.0455 -0.6616 -4.0581
 9539SOL    HW240254   3.510   2.577   7.542  0.2995 -2.3851  0.8088
 9540SOL     OW40255   0.301   3.209   2.805  0.0605 -0.3601  0.5199
 9540SOL    HW140256   0.261   3.200   2.719 -1.0143  1.2054  0.8578
 9540SOL    HW240257   0.232   3.263   2.841  1.6165  0.7767  1.8084
 9541SOL     OW40258   3.962   0.928   0.063  0.0970  0.1779 -0.0822
 9541SOL    HW140259   3.918   0.863   0.118 -1.3987  1.3542  0.1196
 9541SOL    HW240260   3.906   0.930  17.739  1.0979  1.5411 -0.7723
 9542SOL     OW40261   1.964   0.177   4.715 -0.2348 -0.1237  0.7162
 9542SOL    HW140262   2.054   0.152   4.699 -0.3877  0.2613 -0.7364
 9542SOL    HW240263   1.937   0.228   4.638 -0.1113 -0.3418  0.5271
 9543SOL     OW40264   4.025   1.506   8.935 -0.3099 -0.0162  0.1939
 9543SOL    HW140265   4.051   1.468   9.019 -0.7213  0.8186  0.6994
 9543SOL    HW240266   3.999   1.595   8.958  0.1563 -0.1072  1.0675
 9544SOL     OW40267   0.838   1.373   7.232  0.2287  0.0802  1.1090
 9544SOL    HW140268   0.812   1.451   7.281 -0.3995  1.1844 -0.9896
 9544SOL    HW240269   0.759   1.319   7.234 -0.3422  0.8226 -1.0534
 9545SOL     OW40270   2.000   2.701  10.415  0.2097  0.1277 -0.2523
 9545SOL    HW140271   1.918   2.658  10.440  0.9430 -2.0301 -1.5586
 9545SOL    HW240272   2.026   2.654  10.336  2.7927  1.7572 -0.3974
 9546SOL     OW40273   0.747   3.607   2.340  0.1806  0.5577 -0.6995
 9546SOL    HW140274   0.708   3.689   2.311  2.1236  1.6236 -0.2766
 9546SOL    HW240275   0.788   3.638   2.420  0.5148 -0.3625 -0.5114
 9547SOL     OW40276   2.387   3.917   7.826 -0.4717  0.0665 -0.5714
 9547SOL    HW140277   2.315   3.979   7.830 -1.1316 -0.8739  2.2170
 9547SOL    HW240278   2.456   3.955   7.880  2.2486 -1.8103 -2.6964
 9548SOL     OW40279   2.888   0.309   3.493  0.4230 -0.5466 -0.5405
 9548SOL    HW140280   2.822   0.289   3.559  1.9589  2.1520  1.8298
 9548SOL    HW240281   2.901   0.217   3.471  0.5872 -0.4726 -0.7549
 9549SOL     OW40282   1.607   2.343  17.637 -0.1183  0.3316  0.5888
 9549SOL    HW140283   1.555   2.420  17.615 -0.1522  0.6657  1.8007
 9549SOL    HW240284   1.544   2.272  17.646  1.2545 -0.9067  0.6061
 9550SOL     OW40285   3.360   3.566   6.979 -0.7067 -0.4936 -0.2340
 9550SOL    HW140286   3.426   3.498   6.966  0.3172  0.5562 -0.4895
 9550SOL    HW240287   3.392   3.607   7.060  0.9320 -0.1939 -1.0279
 9551SOL     OW40288   2.051   2.330   5.578 -0.2965  0.3003 -0.0131
 9551SOL    HW140289   2.139   2.309   5.546  0.0643 -1.8413  2.3712
 9551SOL    HW240290   2.053   2.413   5.627  1.6315 -1.4348  2.8437
 9552SOL     OW40291   0.019   1.285  12.798 -0.7078 -0.1585 -0.2139
 9552SOL    HW140292   0.049   1.376  12.789 -2.3093  0.4843  0.9326
 9552SOL    HW240293   4.670   1.295  12.836 -0.5774  0.8620 -0.1727
 9553SOL     OW40294   2.606   3.042  14.105 -0.3415 -0.2876  0.3048
 9553SOL    HW140295   2.633   3.076  14.190  1.3049 -0.5168 -0.1178
 9553SOL    HW240296   2.529   2.993  14.132 -0.3957 -0.5647 -0.3371
 9554SOL     OW40297   3.481   4.716   8.443  0.2829  0.2662  0.7288
 9554SOL    HW140298   3.564   4.674   8.421 -0.4246  0.0768 -1.5611
 9554SOL    HW240299   3.491   0.001   8.536 -0.0461 -0.7785  1.0391
 9555SOL     OW40300   4.148   4.493   8.479  0.4773  0.3170 -0.4195
 9555SOL    HW140301   4.220   4.547   8.514 -0.5564  0.3086  1.7454
 9555SOL    HW240302   4.132   4.434   8.553  0.9244 -0.0649 -0.6286
 9556SOL     OW40303   2.905   3.265   5.216  0.3801 -0.0303  0.2265
 9556SOL    HW140304   2.812   3.242   5.220  0.0980  0.8092 -1.3577
 9556SOL    HW240305   2.905   3.338   5.279 -0.3644  0.0586  0.1281
 9557SOL     OW40306   4.701   3.178   1.661  1.1399  0.2434 -0.5006
 9557SOL    HW140307   0.044   3.198   1.614  1.0390 -0.6280 -1.0475
 9557SOL    HW240308   4.640   3.214   1.597  0.3060 -1.4431 -0.6462
 9558SOL     OW40309   0.856   0.149   3.296  0.7806  0.5049  0.1728
 9558SOL    HW140310   0.818   0.080   3.241 -1.5497  0.4495  1.8470
 9558SOL    HW240311   0.950   0.131   3.293  0.3323 -1.4349 -1.7981
 9559SOL     OW40312   3.026   0.584  12.597  0.4857 -0.1423 -0.6145
 9559SOL    HW140313   3.062   0.498  12.620  1.9904  1.1075  1.7374
 9559SOL    HW240314   2.963   0.550  12.534 -1.4186 -0.3752  1.4012
 9560SOL     OW40315   4.648   2.476  12.517  0.1592  0.5277  0.4431
 9560SOL    HW140316   4.599   2.454  12.596 -1.6068  0.9360 -0.5375
 9560SOL    HW240317   4.577   2.464  12.453  1.6605  1.2126 -1.3619
 9561SOL     OW40318   4.462   1.322  17.752 -0.6670  0.0675  0.3050
 9561SOL    HW140319   4.428   1.361  17.672  3.9556  2.0559 -0.6700
 9561SOL    HW240320   4.390   1.265   0.027 -1.1137  0.4560 -0.0556
 9562SOL     OW40321   2.726   1.952   6.071  0.3564  0.0705  0.1386
 9562SOL    HW140322   2.717   1.949   5.975  0.8480  1.2168  0.0528
 9562SOL    HW240323   2.646   1.995   6.101  0.2584 -1.2930  1.8060
 9563SOL     OW40324   2.881   3.300   5.955  0.0078 -0.1631  0.0146
 9563SOL    HW140325   2.896   3.383   5.909  1.5574  0.8331  2.3515
 9563SOL    HW240326   2.785   3.299   5.953  0.0412 -0.0695 -1.6418
 9564SOL     OW40327   4.035   2.690   4.886  0.3263  0.4999  0.1239
 9564SOL    HW140328   3.971   2.622   4.866  2.8031 -1.6626 -0.4035
 9564SOL    HW240329   4.047   2.685   4.981  0.0691 -0.5357  0.0947
 9565SOL     OW40330   3.186   0.935   1.308  0.1614  0.6030 -0.4734
 9565SOL    HW140331   3.113   0.948   1.247 -1.6475 -0.4017  1.5003
 9565SOL    HW240332   3.160   0.852   1.347 -1.8306 -0.1008 -3.2929
 9566SOL     OW40333   3.221   3.023   6.701  0.5596  0.0940 -0.0322
 9566SOL    HW140334   3.223   2.934   6.665  0.6717  0.5845 -1.2370
 9566SOL    HW240335   3.206   3.012   6.795 -1.7494  1.4066 -0.2368
 9567SOL     OW40336   3.922   1.893  17.134  0.8264 -0.9144 -0.1698
 9567SOL    HW140337   3.938   1.859  17.047  0.8240 -0.9934 -0.1389
 9567SOL    HW240338   3.929   1.988  17.124 -0.7804 -0.6128  1.5340
 9568SOL     OW40339   0.585   4.687  11.401 -0.2177  0.0600 -0.2054
 9568SOL    HW140340   0.536   0.006  11.343  0.8847  0.2484 -0.9506
 9568SOL    HW240341   0.670   4.706  11.363  0.6436 -0.6339  1.3692
 9569SOL     OW40342   0.446   1.856   7.049  0.0190 -0.5551  0.4251
 9569SOL    HW140343   0.472   1.929   6.994 -1.9798 -0.5992 -0.6035
 9569SOL    HW240344   0.524   1.801   7.045 -0.8974 -1.7957 -0.5963
   4.73869   4.73869  17.75269
