Membrane in water
40344
    1TMC1    C1    1   3.975   0.339  11.247 -0.4674 -0.9192  0.1158
    1TMC1    C2    2   3.880   0.436  11.229  0.0233  0.2287 -0.1402
    1TMC1    C3    3   3.905   0.540  11.140  1.0449 -0.3034  0.2217
    1TMC1    C4    4   4.092   0.335  11.185 -0.1323  0.5856  0.5928
    1TMC1    C5    5   4.114   0.441  11.100  0.0815  0.4678 -0.3440
    1TMC1    C6    6   4.025   0.543  11.075  0.2515  0.3043 -0.0969
    1TMC1     C    7   3.932   0.204  11.282 -0.8104  0.0834  0.1245
    1TMC1     O    8   3.825   0.202  11.344 -0.7814  1.1321  0.5184
    1TMC1     H    9   3.788   0.440  11.286 -2.1589 -3.3109 -3.3613
    1TMC1    H1   10   4.176   0.270  11.211 -0.2601  0.6039  1.0495
    1TMC1    H2   11   4.052   0.633  11.022 -0.2618  1.3345  1.3824
    1TMC1    C7   12   4.240   0.459  11.030 -0.1675  0.4672  0.2059
    1TMC1    C8   13   3.830   0.661  11.172 -0.1356 -0.1018 -0.8002
    1TMC1    O1   14   4.309   0.362  11.006  0.0841 -0.5403  0.4126
    1TMC1    O2   15   3.818   0.686  11.291  0.0853  0.2923  0.2148
    1TMC1    O3   16   4.296   0.584  11.058  0.4923  0.0248 -0.3358
    1TMC1    H3   17   4.232   0.643  11.103  0.5110  0.2142 -0.5602
    1TMC1    O5   18   3.834   0.753  11.068  0.3062  0.2232 -0.0282
    1TMC1    H5   19   3.841   0.710  10.981  1.8192  0.7687 -0.1881
    2MPD2     C   20   3.953   4.433  11.299  0.2214  0.5177 -0.3984
    2MPD2    C1   21   3.856   4.515  11.343  0.8522  0.3947 -0.2939
    2MPD2    C2   22   3.866   4.651  11.318  0.0710  0.2888  0.1840
    2MPD2    C3   23   3.976   4.701  11.245 -0.0180  0.5678 -0.0541
    2MPD2    C4   24   4.076   4.613  11.207 -0.0106  0.3661  0.2642
    2MPD2    C5   25   4.069   4.480  11.239 -0.2480 -0.4830  0.4064
    2MPD2     H   26   3.782   4.708  11.357 -0.0727 -0.6646  1.2848
    2MPD2    H1   27   4.166   4.647  11.157  2.1463 -2.7435  2.0339
    2MPD2    H2   28   3.946   4.326  11.317  0.4010  0.4458 -0.7610
    2MPD2    H3   29   4.146   4.409  11.210 -0.0583 -0.6710  1.3857
    2MPD2     N   30   4.005   0.097  11.216  0.1965  0.0058 -0.3574
    2MPD2    H5   31   4.079   0.115  11.148  0.3959  1.4653  0.2330
    2MPD2    N1   32   3.729   4.471  11.394  0.0136  0.1023  0.1400
    2MPD2    H7   33   3.665   4.548  11.408 -1.1330 -0.7883 -0.1782
    3TMC1    C1   34   2.920   0.607  10.625  0.0425  0.3332 -0.1539
    3TMC1    C2   35   3.004   0.708  10.665 -0.5174 -0.3829 -0.2483
    3TMC1    C3   36   3.126   0.707  10.605  0.1549  0.2886  0.3537
    3TMC1    C4   37   2.960   0.509  10.541  0.3282  0.6220  0.6799
    3TMC1    C5   38   3.083   0.517  10.486 -0.4852 -0.2498  0.1966
    3TMC1    C6   39   3.168   0.617  10.511  0.1206 -0.4157 -0.0699
    3TMC1     C   40   2.780   0.614  10.671  0.2242 -0.2352  0.1112
    3TMC1     O   41   2.707   0.522  10.630  0.8529 -0.4321 -0.4096
    3TMC1     H   42   2.970   0.795  10.720  2.0725  0.0031  0.7126
    3TMC1    H1   43   2.897   0.423  10.521  2.4938 -0.9433  0.6287
    3TMC1    H2   44   3.262   0.623  10.457 -0.8464  1.8106 -1.5080
    3TMC1    C7   45   3.101   0.466  10.354 -0.4365 -0.3710  0.3794
    3TMC1    C8   46   3.214   0.814  10.629 -0.2387 -0.4082  1.0291
    3TMC1    O1   47   3.142   0.534  10.263 -0.1190 -0.4183  0.1847
    3TMC1    O2   48   3.304   0.846  10.555 -0.2832 -0.2600  0.4602
    3TMC1    O3   49   3.143   0.339  10.375  0.1598  0.3594 -0.1631
    3TMC1    H3   50   3.110   0.295  10.456 -0.4782 -1.4956 -1.4430
    3TMC1    O5   51   3.207   0.842  10.761  0.1751  0.9116  0.6668
    3TMC1    H5   52   3.164   0.773  10.815  0.5955  1.0941  1.2237
    4MPD2     C   53   2.378   0.899  10.801  0.3488  0.0595  0.1291
    4MPD2    C1   54   2.492   0.942  10.870 -0.5555  0.1424 -0.9857
    4MPD2    C2   55   2.609   0.875  10.851 -0.0776 -0.1773  0.7844
    4MPD2    C3   56   2.622   0.774  10.765  0.6703  0.0429 -0.1223
    4MPD2    C4   57   2.515   0.743  10.686 -1.0293 -0.5509 -0.0963
    4MPD2    C5   58   2.396   0.802  10.709  0.2610 -0.4791 -0.3175
    4MPD2     H   59   2.703   0.893  10.902 -0.0243 -3.6810  1.9077
    4MPD2    H1   60   2.522   0.661  10.615 -1.7910 -0.5350 -0.1896
    4MPD2    H2   61   2.282   0.950  10.798  0.6603  0.4989 -2.1552
    4MPD2    H3   62   2.317   0.773  10.642  0.2245  1.0890 -0.9458
    4MPD2     N   63   2.750   0.717  10.758  0.3946 -0.2659  0.3341
    4MPD2    H5   64   2.826   0.761  10.809  0.6827  2.3966 -2.4344
    4MPD2    N1   65   2.488   1.036  10.972  0.3968  0.5501  0.2998
    4MPD2    H7   66   2.576   1.048  11.021  1.3156  0.1179 -1.2676
    5TCq1    O1   67   3.454   2.292  11.839 -1.1117 -1.3423  0.3026
    5TCq1    C1   68   3.508   2.333  11.723 -0.0943 -0.9189  0.2695
    5TCq1    O2   69   3.619   2.309  11.678 -0.2723  0.2539  0.3700
    5TCq1    C2   70   3.392   2.382  11.636  0.1621  0.5066 -0.0877
    5TCq1    C3   71   3.272   2.410  11.684  0.3523 -0.2172 -0.1928
    5TCq1    C4   72   3.170   2.432  11.598  0.1846  0.2710 -0.1204
    5TCq1    C5   73   3.185   2.398  11.468 -0.4512  0.2484 -0.3202
    5TCq1    C6   74   3.298   2.346  11.421 -0.5444  0.4160  0.4211
    5TCq1    C7   75   3.402   2.334  11.505  0.5051  0.3511 -0.2423
    5TCq1    C8   76   3.307   2.282  11.288  0.2544  0.4375 -0.4132
    5TCq1    O4   77   3.414   2.230  11.257  0.3122  0.0459  0.3188
    5TCq1    C9   78   3.042   2.484  11.640  0.0076  0.0025  0.8543
    5TCq1    O5   79   3.031   2.496  11.767 -0.1718  0.5482 -0.1069
    5TCq1    O6   80   2.949   2.474  11.553 -0.1153  0.4803  0.1015
    5TCq1    H1   81   3.358   2.302  11.821 -0.6237  1.3002 -0.8159
    5TCq1    H2   82   3.264   2.429  11.791  1.0500  1.6972 -0.4799
    5TCq1    H3   83   3.110   2.424  11.395 -0.1182  0.6006 -0.5409
    5TCq1    H4   84   3.501   2.296  11.482  0.6051  1.9418 -2.4518
    6MPD2     C   85   3.041   2.266  11.032 -0.1189 -0.0156 -0.1782
    6MPD2    C1   86   3.155   2.241  11.092 -0.6491 -0.4204  0.9516
    6MPD2    C2   87   3.247   2.165  11.008 -0.7990 -0.1219 -0.7784
    6MPD2    C3   88   3.206   2.121  10.881  0.2956 -0.0651  0.0342
    6MPD2    C4   89   3.077   2.143  10.834 -0.1307  0.0732 -0.5497
    6MPD2    C5   90   3.005   2.226  10.908  0.8926 -0.0003 -0.8038
    6MPD2     H   91   3.345   2.134  11.044 -1.0399  1.3447  1.1700
    6MPD2    H1   92   3.040   2.108  10.738 -1.3025 -1.5711  0.4979
    6MPD2    H2   93   2.966   2.320  11.089  1.1734  0.5700  0.9589
    6MPD2    H3   94   2.904   2.232  10.869  1.3238  1.9123 -1.6186
    6MPD2     N   95   3.293   2.039  10.811  0.1666 -0.3914 -0.0779
    6MPD2    H5   96   3.378   2.014  10.860  1.8803  0.0561 -2.8296
    6MPD2    N1   97   3.186   2.284  11.227  0.3130 -0.7948 -0.4806
    6MPD2    H7   98   3.109   2.323  11.280  0.6153  0.8268 -1.2129
    7TCq1    O1   99   0.043   1.889  12.757 -0.6590 -0.2584 -0.1063
    7TCq1    C1  100   0.158   1.918  12.693 -0.3731 -0.0453  0.4240
    7TCq1    O2  101   0.175   1.915  12.570  0.5406  0.2940 -0.0761
    7TCq1    C2  102   0.235   1.999  12.790  0.0045 -0.2357 -0.2372
    7TCq1    C3  103   0.330   2.088  12.742 -0.5165  0.1258 -0.7739
    7TCq1    C4  104   0.410   2.145  12.835  0.0367 -0.4370  0.1509
    7TCq1    C5  105   0.419   2.106  12.965  0.8873  0.2249 -0.6242
    7TCq1    C6  106   0.334   2.008  13.006 -0.3153  0.2232 -0.5570
    7TCq1    C7  107   0.247   1.945  12.917 -0.1454  0.1552 -0.5105
    7TCq1    C8  108   0.395   1.921  13.109  0.5111 -0.1828 -0.3821
    7TCq1    O4  109   0.396   1.801  13.088 -0.2269 -0.1663  0.2497
    7TCq1    C9  110   0.518   2.236  12.794  0.4468 -0.8009 -0.3697
    7TCq1    O5  111   0.517   2.270  12.669 -0.4873 -0.7415 -0.7407
    7TCq1    O6  112   0.605   2.264  12.881  0.5161  0.6038 -0.0816
    7TCq1    H1  113   0.020   1.929  12.843  0.0930 -1.4891  0.6571
    7TCq1    H2  114   0.325   2.127  12.641 -2.3816  0.9348 -0.3592
    7TCq1    H3  115   0.496   2.138  13.034  0.6363 -0.9465  0.2002
    7TCq1    H4  116   0.179   1.866  12.947 -0.1877  0.0344 -0.9107
    8MPD2     C  117   0.614   1.827  13.566  0.4261 -0.4949  0.2533
    8MPD2    C1  118   0.552   1.739  13.477 -1.0121  0.2845  0.3202
    8MPD2    C2  119   0.506   1.799  13.359  0.5317  0.3719 -0.1695
    8MPD2    C3  120   0.498   1.934  13.335 -0.1316 -0.7663 -0.5109
    8MPD2    C4  121   0.554   2.020  13.433  0.0001  0.3696 -0.2964
    8MPD2    C5  122   0.619   1.964  13.537 -0.9205  0.3670 -0.8265
    8MPD2     H  123   0.466   1.734  13.282  0.1412  1.4663 -0.8818
    8MPD2    H1  124   0.569   2.125  13.411  1.2159  0.7417  2.2029
    8MPD2    H2  125   0.667   1.789  13.653  0.2650 -3.9020 -1.1385
    8MPD2    H3  126   0.671   2.027  13.608 -0.8182  0.2396 -0.7893
    8MPD2     N  127   0.442   1.988  13.216 -0.5375 -0.8160  0.3497
    8MPD2    H5  128   0.443   2.089  13.217 -0.3959 -0.8382  3.1166
    8MPD2    N1  129   0.564   1.603  13.508  0.2980 -0.7584 -0.2333
    8MPD2    H7  130   0.628   1.572  13.580 -1.7129 -1.0106  1.4381
    9TMC1    C1  131   3.448   0.320  11.054 -0.1717  0.1444  0.3163
    9TMC1    C2  132   3.374   0.217  11.107 -0.7374  0.3988 -0.1894
    9TMC1    C3  133   3.333   0.126  11.014  0.1375  0.1529  0.2818
    9TMC1    C4  134   3.480   0.333  10.924 -0.0643  0.7861  0.1258
    9TMC1    C5  135   3.415   0.249  10.834 -0.1067  0.3953  0.1376
    9TMC1    C6  136   3.348   0.142  10.879 -0.6914  0.2387  0.2017
    9TMC1     C  137   3.475   0.437  11.135 -0.5580 -0.1359 -0.3104
    9TMC1     O  138   3.578   0.496  11.110  0.0282 -0.0224 -0.2626
    9TMC1     H  139   3.340   0.215  11.210  0.3684  1.8816  0.2155
    9TMC1    H1  140   3.553   0.404  10.889  0.4002  0.7066  0.9488
    9TMC1    H2  141   3.325   0.054  10.818  0.1061 -0.1435  0.4541
    9TMC1    C7  142   3.428   0.266  10.693 -0.1365  0.3698  0.4518
    9TMC1    C8  143   3.235   0.030  11.051 -0.8036  0.4770  0.1540
    9TMC1    O1  144   3.417   0.167  10.620  0.1246 -0.0194  0.2896
    9TMC1    O2  145   3.170   4.706  10.970  0.3502  0.3734  0.3480
    9TMC1    O3  146   3.396   0.395  10.668 -0.2994  0.2439  0.0717
    9TMC1    H3  147   3.368   0.438  10.752 -1.8286  2.4627 -1.5683
    9TMC1    O5  148   3.250   4.727  11.176  0.2179 -0.2524  0.0776
    9TMC1    H5  149   3.317   0.043  11.223  2.2296 -1.3508 -1.5413
   10MPD2     C  150   3.467   0.650  11.332 -0.7044 -0.0343 -1.1580
   10MPD2    C1  151   3.376   0.547  11.322  0.0545 -0.8252  0.5737
   10MPD2    C2  152   3.263   0.540  11.409 -0.3666 -0.4753  0.2318
   10MPD2    C3  153   3.257   0.624  11.513 -0.4059  0.2210  0.6924
   10MPD2    C4  154   3.348   0.726  11.526  0.1511  0.2376  0.5003
   10MPD2    C5  155   3.441   0.747  11.429 -0.4818 -0.3325 -0.1438
   10MPD2     H  156   3.190   0.462  11.390  0.6807 -1.6892  1.1815
   10MPD2    H1  157   3.345   0.799  11.607 -0.1975  0.5301  0.2241
   10MPD2    H2  158   3.548   0.672  11.263 -1.5278  0.0591 -2.0894
   10MPD2    H3  159   3.499   0.838  11.441 -1.1959 -0.1863  2.1692
   10MPD2     N  160   3.168   0.601  11.623  0.8844 -0.9164 -0.5830
   10MPD2    H5  161   3.173   0.673  11.694 -1.2831  0.3686 -1.7114
   10MPD2    N1  162   3.376   0.456  11.223 -0.1626  0.1165 -0.6819
   10MPD2    H7  163   3.292   0.401  11.213  0.7084 -1.3058 -0.1121
   11TCq1    O1  164   3.417   0.022  14.669 -0.0019  0.2997 -0.2674
   11TCq1    C1  165   3.479   0.141  14.681  0.1229 -0.4342  0.6117
   11TCq1    O2  166   3.574   0.162  14.758  0.1414  0.1399 -0.0975
   11TCq1    C2  167   3.425   0.242  14.582 -0.7640 -0.9161  0.4439
   11TCq1    C3  168   3.446   0.374  14.612 -0.3099 -0.2839  0.0769
   11TCq1    C4  169   3.375   0.467  14.541 -0.1734 -0.0599  0.3392
   11TCq1    C5  170   3.287   0.426  14.450 -0.5507 -0.5983 -0.1201
   11TCq1    C6  171   3.278   0.294  14.409  0.4572  0.4484 -0.2345
   11TCq1    C7  172   3.346   0.199  14.476  0.1424 -0.3866 -0.1652
   11TCq1    C8  173   3.192   0.259  14.296  0.7428  0.2484 -0.3403
   11TCq1    O4  174   3.091   0.323  14.280 -0.2829 -0.2462  0.5108
   11TCq1    C9  175   3.395   0.604  14.568 -0.5836 -0.5424  0.4433
   11TCq1    O5  176   3.337   0.682  14.488  0.2279 -0.1991 -0.1662
   11TCq1    O6  177   3.438   0.634  14.683 -0.5307 -0.3537  0.5642
   11TCq1    H1  178   3.330   0.036  14.626 -0.4452  0.0900  0.5497
   11TCq1    H2  179   3.502   0.414  14.696 -0.5973 -0.0061  0.1399
   11TCq1    H3  180   3.218   0.495  14.404 -1.6043 -2.1060 -0.8037
   11TCq1    H4  181   3.339   0.093  14.455 -2.4893  0.0608 -1.6078
   12MPD2     C  182   3.081   0.151  14.039 -0.2777  0.3058 -0.3804
   12MPD2    C1  183   3.180   0.087  14.117  0.4231  0.9487  0.2139
   12MPD2    C2  184   3.227   4.710  14.074 -0.0635  0.5602 -0.2192
   12MPD2    C3  185   3.174   4.639  13.964 -1.0023  0.0301  0.2729
   12MPD2    C4  186   3.082   4.710  13.888  0.1596  0.0409 -0.1393
   12MPD2    C5  187   3.039   0.096  13.920 -0.7157  0.5434  0.0414
   12MPD2     H  188   3.307   4.665  14.132 -1.3804 -3.3954 -1.5292
   12MPD2    H1  189   3.053   4.663  13.794  1.3274  0.5667 -0.7559
   12MPD2    H2  190   3.050   0.250  14.071 -0.3991  0.5851 -1.3506
   12MPD2    H3  191   2.982   0.150  13.845  2.6525  1.9886 -1.4818
   12MPD2     N  192   3.217   4.512  13.925 -0.1836  0.3134 -0.0018
   12MPD2    H5  193   3.172   4.477  13.841  1.1892  0.6349 -0.8582
   12MPD2    N1  194   3.239   0.147  14.233  0.3169  0.3048 -0.1124
   12MPD2    H7  195   3.325   0.115  14.277  0.5887  1.3500  0.1157
   13TCq1    O1  196   2.993   0.030  10.766 -0.4322  0.1300 -0.4959
   13TCq1    C1  197   2.986   0.151  10.699 -0.6489  0.1385  0.6485
   13TCq1    O2  198   3.057   0.173  10.601 -0.6543 -0.9136 -0.1958
   13TCq1    C2  199   2.979   0.241  10.815  0.2194 -0.2045 -1.0048
   13TCq1    C3  200   3.076   0.328  10.830  0.7818  0.1395 -0.0642
   13TCq1    C4  201   3.055   0.446  10.898 -0.7138 -0.0709 -0.6524
   13TCq1    C5  202   2.932   0.473  10.952 -0.8014  0.0674 -0.0083
   13TCq1    C6  203   2.831   0.381  10.934 -1.1882  0.7542  0.8461
   13TCq1    C7  204   2.850   0.267  10.858 -0.4066 -0.1006 -0.3233
   13TCq1    C8  205   2.703   0.419  10.990 -0.0765  0.9217 -0.2502
   13TCq1    O4  206   2.707   0.512  11.072  0.3843  0.3142  0.2787
   13TCq1    C9  207   3.161   0.537  10.915  0.5368 -0.3694 -0.6519
   13TCq1    O5  208   3.124   0.655  10.929 -0.4133 -0.4513  0.4044
   13TCq1    O6  209   3.271   0.506  10.857 -0.2252  0.1970 -1.0077
   13TCq1    H1  210   2.975   0.030  10.863 -1.4715  0.8888 -0.6916
   13TCq1    H2  211   3.170   0.302  10.783  0.9751  2.1480 -0.7794
   13TCq1    H3  212   2.910   0.570  10.995 -0.8498 -0.5495  1.3435
   13TCq1    H4  213   2.771   0.193  10.844 -0.7845  0.3362 -0.4928
   14MPD2     C  214   2.387   0.240  11.009 -0.2323 -0.3455  0.2517
   14MPD2    C1  215   2.485   0.324  11.048  0.4012  0.0473  0.0674
   14MPD2    C2  216   2.465   0.392  11.169  0.1679 -0.4436 -0.1597
   14MPD2    C3  217   2.346   0.376  11.234 -0.2714  0.3583  0.5553
   14MPD2    C4  218   2.242   0.299  11.182  0.5273 -0.0664  0.1938
   14MPD2    C5  219   2.267   0.225  11.071 -0.2735  0.2802 -0.1524
   14MPD2     H  220   2.539   0.463  11.202  0.8334 -1.7894  1.2398
   14MPD2    H1  221   2.151   0.289  11.239  0.0674 -0.6022 -0.6463
   14MPD2    H2  222   2.403   0.194  10.912  1.7906  1.6520 -0.3657
   14MPD2    H3  223   2.184   0.159  11.051  1.1976 -1.1842 -1.4309
   14MPD2     N  224   2.329   0.447  11.358 -0.0764 -0.1178  0.0852
   14MPD2    H5  225   2.407   0.506  11.386  0.0837 -0.4132  0.2652
   14MPD2    N1  226   2.600   0.332  10.971 -0.3093  0.0558  0.4216
   14MPD2    H7  227   2.603   0.271  10.889  1.8049 -1.6353  1.7654
   15TCq1    O1  228   0.876   4.206   1.789 -0.2602 -0.1903 -0.3507
   15TCq1    C1  229   0.869   4.226   1.659 -0.2900  0.9643  0.4958
   15TCq1    O2  230   0.967   4.220   1.581  0.5885  0.2225  0.2894
   15TCq1    C2  231   0.739   4.204   1.618 -0.0048  0.3847  0.0999
   15TCq1    C3  232   0.643   4.289   1.665 -0.0176  0.2809  0.5500
   15TCq1    C4  233   0.510   4.270   1.641 -0.4667 -0.4135  0.2339
   15TCq1    C5  234   0.482   4.190   1.540  0.0277 -0.7633 -0.1956
   15TCq1    C6  235   0.577   4.098   1.493  0.0574 -0.5589 -0.2531
   15TCq1    C7  236   0.703   4.108   1.528 -0.1341 -0.3195 -0.1019
   15TCq1    C8  237   0.546   4.009   1.381  0.4332 -0.2428  1.2163
   15TCq1    O4  238   0.624   3.912   1.360 -0.2964  0.2907  0.2180
   15TCq1    C9  239   0.412   4.352   1.705 -0.2742  0.1244  0.0703
   15TCq1    O5  240   0.294   4.337   1.672  0.1045  0.3727 -0.1265
   15TCq1    O6  241   0.448   4.430   1.793  0.0848  0.3383  0.1546
   15TCq1    H1  242   0.785   4.183   1.817 -0.5399  1.5082  0.0952
   15TCq1    H2  243   0.664   4.372   1.731 -0.6878 -0.1102  1.2573
   15TCq1    H3  244   0.379   4.195   1.507 -0.2639  2.5629  1.2197
   15TCq1    H4  245   0.782   4.046   1.486 -0.9018  0.0464 -2.0700
   16MPD2     C  246   0.310   4.004   1.110  0.2721 -0.0628 -0.0982
   16MPD2    C1  247   0.393   3.956   1.204 -0.7563  0.4758 -0.2673
   16MPD2    C2  248   0.415   3.819   1.194  0.1592 -0.4178 -0.7493
   16MPD2    C3  249   0.368   3.736   1.083 -1.0033 -0.2287  0.1008
   16MPD2    C4  250   0.292   3.794   0.987  0.7977  0.0177  0.0753
   16MPD2    C5  251   0.260   3.928   1.002 -0.3519  0.1342 -0.1644
   16MPD2     H  252   0.482   3.759   1.254  0.2051 -0.1477 -0.5329
   16MPD2    H1  253   0.252   3.748   0.897  2.1064  1.9807 -1.4939
   16MPD2    H2  254   0.272   4.105   1.104  2.3448  0.6672 -0.7542
   16MPD2    H3  255   0.196   3.977   0.930  1.3679  1.1318 -0.9896
   16MPD2     N  256   0.395   3.595   1.085 -0.2067  0.0807  0.0222
   16MPD2    H5  257   0.452   3.555   1.159  0.4923 -1.0653 -1.1258
   16MPD2    N1  258   0.445   4.042   1.303 -0.1966  0.5489  0.1888
   16MPD2    H7  259   0.402   4.134   1.312 -0.1138  0.5649  0.4180
   17TMC1    C1  260   2.968   4.513  11.349  0.9222  0.4074 -0.3223
   17TMC1    C2  261   2.916   4.530  11.473  0.1633 -0.0162  0.1492
   17TMC1    C3  262   2.812   4.622  11.483 -0.3333  0.8817 -0.1729
   17TMC1    C4  263   2.944   4.594  11.243  0.4503  0.4053 -0.9908
   17TMC1    C5  264   2.846   4.685  11.262  0.5416 -0.3046 -0.5549
   17TMC1    C6  265   2.770   4.698  11.374  0.1264  0.0164  0.2615
   17TMC1     C  266   3.075   4.414  11.347  0.4995 -0.1602  0.1218
   17TMC1     O  267   3.056   4.310  11.401 -0.2828  0.2797  0.6680
   17TMC1     H  268   2.956   4.473  11.556  1.2179  0.7263  0.1483
   17TMC1    H1  269   2.999   4.579  11.151  2.8035 -0.1243  0.4921
   17TMC1    H2  270   2.679   0.018  11.382 -0.6196 -0.8524 -1.7849
   17TMC1    C7  271   2.829   0.033  11.145  0.5436  0.4864 -0.6513
   17TMC1    C8  272   2.759   4.653  11.611  0.2586 -0.4596  0.2943
   17TMC1    O1  273   2.880   0.017  11.031 -0.2097  0.2935  0.3505
   17TMC1    O2  274   2.775   4.580  11.711 -0.0906  0.1344 -0.3544
   17TMC1    O3  275   2.759   0.141  11.193  0.5815  0.6989  1.1199
   17TMC1    H3  276   2.733   0.143  11.288  0.8576 -1.0941  1.2287
   17TMC1    O5  277   2.684   0.028  11.604  0.0894  0.1172  0.2649
   17TMC1    H5  278   2.703   0.087  11.528  0.1411 -0.1840  0.0390
   18MPD2     C  279   3.296   4.242  11.247 -0.8424  0.7254  0.3972
   18MPD2    C1  280   3.281   4.371  11.212  1.1235 -0.1489  0.0187
   18MPD2    C2  281   3.379   4.429  11.129 -0.1683 -0.1588  0.3091
   18MPD2    C3  282   3.484   4.361  11.076  0.6840  0.2016  0.0163
   18MPD2    C4  283   3.492   4.226  11.109  0.7674 -0.4898  0.5839
   18MPD2    C5  284   3.404   4.169  11.191  0.1249 -0.8218 -0.1924
   18MPD2     H  285   3.364   4.534  11.105 -2.6175 -0.6939 -0.4778
   18MPD2    H1  286   3.574   4.160  11.081  1.3790  0.1651  0.8283
   18MPD2    H2  287   3.243   4.199  11.331 -0.4503 -1.6293 -0.5674
   18MPD2    H3  288   3.406   4.062  11.210  1.1731 -0.7652  0.0226
   18MPD2     N  289   3.582   4.416  10.991 -0.1746 -0.1873  0.1479
   18MPD2    H5  290   3.646   4.355  10.942  0.2208  0.0122  0.4130
   18MPD2    N1  291   3.174   4.456  11.260 -0.0645 -0.2661  0.1839
   18MPD2    H7  292   3.170   4.554  11.232 -0.3001 -0.1104  0.7722
   19TMC2    C1  293   4.421   0.291  13.732  0.8950 -0.1237  0.0585
   19TMC2    C2  294   4.344   0.393  13.772  0.0405  0.2878 -0.4253
   19TMC2    C3  295   4.237   0.353  13.852 -0.2435 -0.0550 -0.2024
   19TMC2    C4  296   4.405   0.161  13.766  0.2138 -0.1663 -0.1583
   19TMC2    C5  297   4.293   0.126  13.830 -0.1331 -0.4502  0.7338
   19TMC2    C6  298   4.212   0.224  13.879 -0.3128  0.1628  0.5068
   19TMC2     C  299   4.548   0.329  13.671  0.6892  0.5157 -0.3288
   19TMC2     O  300   4.559   0.433  13.610  0.0354 -0.8146 -0.3817
   19TMC2     H  301   4.363   0.490  13.726  0.2747  0.5904  0.3132
   19TMC2    H1  302   4.474   0.083  13.734  1.5432  0.7074  0.6022
   19TMC2    H2  303   4.122   0.202  13.937 -0.3253 -1.4476 -0.1301
   19TMC2    C7  304   4.249   4.725  13.838  0.4437  0.6841 -0.6498
   19TMC2    C8  305   4.129   0.438  13.884  0.1573 -0.0951  0.4600
   19TMC2    O1  306   4.332   4.638  13.818  0.1398  0.3851 -0.2669
   19TMC2    O2  307   4.013   0.402  13.882  0.3508  0.8083  0.0781
   19TMC2    O5  308   4.174   0.559  13.845  0.2368 -0.1285  0.2218
   19TMC2    H5  309   4.265   0.571  13.877  0.5436 -0.4375 -0.5255
   20MPD2     C  310   0.096   0.411  13.697  0.0673 -0.0877  0.3817
   20MPD2    C1  311   0.037   0.313  13.778 -0.0270 -0.1930 -0.1655
   20MPD2    C2  312   0.113   0.244  13.868  0.2741 -0.5588  0.1489
   20MPD2    C3  313   0.242   0.281  13.888  0.1326  0.2619 -0.0459
   20MPD2    C4  314   0.297   0.391  13.829 -0.7614 -0.0802 -0.5158
   20MPD2    C5  315   0.226   0.448  13.726 -0.4502  0.3785  0.3835
   20MPD2     H  316   0.073   0.173  13.939 -1.1715  2.6618  2.5779
   20MPD2    H1  317   0.394   0.424  13.864 -1.3527  0.6391  0.4514
   20MPD2    H2  318   0.051   0.463  13.613 -0.8625 -0.4018  0.6793
   20MPD2    H3  319   0.275   0.531  13.676  0.2098  0.2120  0.7554
   20MPD2     N  320   0.319   0.219  13.991 -0.3849  0.3604  0.4665
   20MPD2    H5  321   0.412   0.258  14.005 -0.7611  0.5170  2.5219
   20MPD2    N1  322   4.642   0.268  13.753 -0.6712 -0.1858 -0.5521
   20MPD2    H7  323   4.614   0.190  13.813 -0.0459  1.8567  2.4098
   21TMC2    C1  324   2.305   0.485  14.302  0.0542  0.3608 -0.0697
   21TMC2    C2  325   2.315   0.349  14.296  0.4030  0.8235 -0.2044
   21TMC2    C3  326   2.249   0.273  14.385  0.5215 -0.7112 -0.2259
   21TMC2    C4  327   2.230   0.542  14.400 -0.1486 -0.9157 -0.0697
   21TMC2    C5  328   2.181   0.461  14.499  0.3218 -0.5094 -0.1967
   21TMC2    C6  329   2.204   0.323  14.496  0.9115  0.0748  0.5297
   21TMC2     C  330   2.424   0.559  14.259 -0.3482 -0.7320  0.6416
   21TMC2     O  331   2.520   0.492  14.225 -0.1245 -0.2105 -0.0360
   21TMC2     H  332   2.376   0.298  14.222  1.4697  2.5562 -0.5200
   21TMC2    H1  333   2.227   0.648  14.422  1.2741 -1.1883  1.3740
   21TMC2    H2  334   2.154   0.260  14.569  1.0580 -2.0374 -1.2306
   21TMC2    C7  335   2.130   0.513  14.626 -0.0248  0.2274 -0.6267
   21TMC2    C8  336   2.310   0.140  14.392  0.1766  0.3894  1.2413
   21TMC2    O1  337   2.125   0.446  14.731  0.1277  0.1573 -0.5683
   21TMC2    O2  338   2.324   0.084  14.496  0.6396 -0.2408 -0.3849
   21TMC2    O5  339   2.307   0.083  14.271  0.1607 -0.2317  0.4389
   21TMC2    H5  340   2.275   0.142  14.200 -1.0609 -2.3146 -0.7375
   22MPD2     C  341   2.751   0.930  14.406  1.3098 -0.3149 -0.3920
   22MPD2    C1  342   2.743   0.794  14.420  0.4780  0.1567 -0.4377
   22MPD2    C2  343   2.634   0.720  14.378 -0.2416  0.0932 -1.0358
   22MPD2    C3  344   2.530   0.777  14.306 -0.6636  0.3632 -0.0218
   22MPD2    C4  345   2.531   0.915  14.296 -0.2015 -0.0712 -0.1276
   22MPD2    C5  346   2.637   0.985  14.350  0.3326 -0.7049  0.1195
   22MPD2     H  347   2.627   0.613  14.395 -1.2507  0.5544  1.3913
   22MPD2    H1  348   2.441   0.967  14.264  0.1051 -0.2028 -1.2137
   22MPD2    H2  349   2.820   0.998  14.454 -0.2523  0.5857  0.5968
   22MPD2    H3  350   2.629   1.092  14.336  1.1932 -0.5795  0.6379
   22MPD2     N  351   2.414   0.697  14.269 -0.0927  0.0388  0.0621
   22MPD2    H5  352   2.327   0.747  14.255 -0.0197  0.2220  0.2760
   22MPD2    N1  353   2.842   0.717  14.479  0.0166 -0.4862 -0.9691
   22MPD2    H7  354   2.815   0.621  14.499 -0.4317 -0.8280 -3.1555
   23TMC2    C1  355   3.476   1.501  14.418 -0.5222  0.1973  0.1976
   23TMC2    C2  356   3.447   1.553  14.298  0.3286 -0.0304 -0.2317
   23TMC2    C3  357   3.318   1.541  14.253  0.4524 -0.0867 -0.0170
   23TMC2    C4  358   3.382   1.431  14.490  0.0083  0.8810  0.3116
   23TMC2    C5  359   3.256   1.413  14.437  0.2941 -0.3633 -0.0570
   23TMC2    C6  360   3.218   1.478  14.326 -0.8774 -0.0237  0.1961
   23TMC2     C  361   3.598   1.511  14.500 -0.2447 -0.2716 -0.0743
   23TMC2     O  362   3.599   1.447  14.605 -0.3470  0.2244 -0.1825
   23TMC2     H  363   3.528   1.609  14.251  0.6353  0.2501  0.6406
   23TMC2    H1  364   3.399   1.365  14.575 -0.3414  0.3080 -0.0630
   23TMC2    H2  365   3.122   1.456  14.281 -1.2585  1.5695  0.2494
   23TMC2    C7  366   3.166   1.322  14.498 -0.0748 -0.0602  0.2124
   23TMC2    C8  367   3.281   1.599  14.126  0.1592 -0.1335  0.8945
   23TMC2    O1  368   3.219   1.262  14.592 -0.4894  0.1523 -0.7736
   23TMC2    O2  369   3.171   1.641  14.099  0.5046 -0.2357 -0.2338
   23TMC2    O5  370   3.381   1.563  14.033 -0.1502  0.6018  0.8489
   23TMC2    H5  371   3.444   1.501  14.076  1.2310  0.6959 -1.0643
   24MPD2     C  372   4.113   1.489  14.501 -0.0986  0.4783 -0.2774
   24MPD2    C1  373   4.020   1.444  14.595  0.0700 -0.8429  0.3132
   24MPD2    C2  374   3.886   1.489  14.585 -0.3316 -1.2222 -0.5363
   24MPD2    C3  375   3.845   1.565  14.477  0.5047  0.4447  0.1230
   24MPD2    C4  376   3.938   1.622  14.392 -0.5394 -0.6058 -1.5010
   24MPD2    C5  377   4.070   1.592  14.414 -0.7862 -0.3356 -0.6305
   24MPD2     H  378   3.815   1.453  14.660 -1.1653  0.6507 -0.4344
   24MPD2    H1  379   3.904   1.668  14.300 -0.8781  0.3075 -0.9239
   24MPD2    H2  380   4.218   1.462  14.492 -0.5227 -2.2373  3.1878
   24MPD2    H3  381   4.139   1.621  14.335 -1.3478  1.0644 -0.5883
   24MPD2     N  382   3.707   1.571  14.441 -0.2822 -0.0586 -0.3535
   24MPD2    H5  383   3.687   1.617  14.352 -0.1243 -0.8525 -0.7935
   24MPD2    N1  384   4.061   1.358  14.703 -0.3492  0.4483  0.1571
   24MPD2    H7  385   3.991   1.344  14.775 -0.1855 -2.3257 -0.2081
   25TMC2    C1  386   2.852   3.069  11.428  0.1270 -0.0916 -0.2739
   25TMC2    C2  387   2.968   3.141  11.434  0.7460 -0.2052  0.5795
   25TMC2    C3  388   2.981   3.244  11.522  0.8543  0.2793  1.0490
   25TMC2    C4  389   2.750   3.088  11.514  0.3180  1.1324  0.2453
   25TMC2    C5  390   2.769   3.185  11.605  0.4989 -1.0573  0.0808
   25TMC2    C6  391   2.881   3.269  11.611  0.0420 -0.5668  0.0273
   25TMC2     C  392   2.811   3.034  11.289 -0.1923  0.2204  0.1869
   25TMC2     O  393   2.906   3.018  11.219  0.4384  0.2598 -0.3382
   25TMC2     H  394   3.047   3.128  11.361 -1.1100  0.4818 -1.5224
   25TMC2    H1  395   2.660   3.027  11.503  2.2978 -2.0647  1.7008
   25TMC2    H2  396   2.888   3.348  11.684  0.8881 -0.2095 -0.4453
   25TMC2    C7  397   2.669   3.205  11.711  0.0405 -0.1324 -0.6407
   25TMC2    C8  398   3.090   3.335  11.500  0.0526 -0.0132 -0.4070
   25TMC2    O1  399   2.693   3.299  11.787 -0.2606 -0.3107  0.6837
   25TMC2    O2  400   3.159   3.322  11.404  0.4847 -0.5325 -0.3228
   25TMC2    O5  401   3.118   3.411  11.618 -0.2454  0.5577  0.0520
   25TMC2    H5  402   3.060   3.382  11.692 -1.0471  1.4075 -0.2464
   26MPD2     C  403   2.518   3.131  10.897  0.2376 -0.0567  0.3905
   26MPD2    C1  404   2.435   3.134  11.007  0.4309 -0.3372  0.2929
   26MPD2    C2  405   2.487   3.082  11.125 -0.2199 -0.6835  0.5796
   26MPD2    C3  406   2.619   3.054  11.140 -0.2843  0.2391 -0.0353
   26MPD2    C4  407   2.690   3.032  11.022  0.1148  0.3225  0.2600
   26MPD2    C5  408   2.638   3.079  10.910  0.1038 -0.1136 -0.1515
   26MPD2     H  409   2.431   3.075  11.218 -0.1220  0.4234  0.7250
   26MPD2    H1  410   2.793   3.000  11.019  0.0632  0.2610 -0.8028
   26MPD2    H2  411   2.485   3.180  10.806 -0.9363  0.3359  1.0194
   26MPD2    H3  412   2.704   3.063  10.826 -0.4648  1.5359 -0.9048
   26MPD2     N  413   2.676   3.035  11.271  0.5301  0.1359  0.2526
   26MPD2    H5  414   2.622   3.065  11.351 -0.7872  0.6249 -0.8258
   26MPD2    N1  415   2.308   3.188  10.997  0.9431  0.3548  0.1598
   26MPD2    H7  416   2.267   3.196  10.904  0.4732 -2.0792  0.1697
   27TMC2    C1  417   1.465   1.279  12.550  0.3757  0.1233  0.0851
   27TMC2    C2  418   1.475   1.309  12.415 -0.0776  0.0184  0.5937
   27TMC2    C3  419   1.514   1.431  12.376 -0.1154  0.0218 -0.0767
   27TMC2    C4  420   1.498   1.380  12.639 -0.5820 -1.5980  0.3961
   27TMC2    C5  421   1.534   1.499  12.598  0.2075 -0.0626 -0.4293
   27TMC2    C6  422   1.536   1.531  12.463  0.4740  0.0549 -0.4558
   27TMC2     C  423   1.355   1.203  12.584 -0.2170  0.4865 -0.5399
   27TMC2     O  424   1.314   1.121  12.506 -0.2362  0.2985 -0.3368
   27TMC2     H  425   1.449   1.240  12.336 -1.2160  2.4959 -1.1985
   27TMC2    H1  426   1.501   1.355  12.744 -3.7100 -0.9449  0.6583
   27TMC2    H2  427   1.572   1.630  12.434 -0.2669  0.5132  0.1860
   27TMC2    C7  428   1.595   1.592  12.697 -0.1123  0.4896  0.5897
   27TMC2    C8  429   1.496   1.458  12.235  0.4958 -0.5383 -0.7301
   27TMC2    O1  430   1.633   1.537  12.799 -0.1101 -0.2417  0.2000
   27TMC2    O2  431   1.514   1.372  12.151 -0.6136 -0.0550 -0.6159
   27TMC2    O5  432   1.416   1.570  12.225  0.0756 -0.8177  0.4532
   27TMC2    H5  433   1.409   1.625  12.307  0.6807 -0.8741  0.5413
   28MPD2     C  434   0.936   1.130  12.871  0.1647 -0.8739 -0.3969
   28MPD2    C1  435   0.981   1.258  12.895  0.1095  0.8283  0.8106
   28MPD2    C2  436   1.100   1.291  12.832 -0.8575  0.2454 -0.0466
   28MPD2    C3  437   1.170   1.204  12.750  0.7817  0.2085 -0.3802
   28MPD2    C4  438   1.117   1.081  12.716  0.1216 -0.5359 -0.0788
   28MPD2    C5  439   1.005   1.046  12.784  0.1473  0.0977 -0.0378
   28MPD2     H  440   1.143   1.390  12.841 -0.8410  0.2657 -0.3569
   28MPD2    H1  441   1.159   1.022  12.636 -0.0444  0.4150 -0.8688
   28MPD2    H2  442   0.849   1.099  12.927  1.6537 -1.4907  1.5813
   28MPD2    H3  443   0.962   0.950  12.757  2.0068 -0.5278 -0.7128
   28MPD2     N  444   1.290   1.254  12.694  0.5669  0.0700 -0.2926
   28MPD2    H5  445   1.307   1.349  12.726  2.2179 -0.3175 -0.0304
   28MPD2    N1  446   0.890   1.346  12.961  0.3082 -0.1039  0.3482
   28MPD2    H7  447   0.799   1.309  12.987  0.8115 -1.3294  0.3515
   29TMC2    C1  448   0.925   3.903  14.298 -0.4087  0.2610  0.2091
   29TMC2    C2  449   0.784   3.892  14.309  0.8854 -0.2077 -0.6398
   29TMC2    C3  450   0.713   4.009  14.304  0.0649  0.5811  0.6181
   29TMC2    C4  451   0.986   4.026  14.270 -0.2443  0.8580  0.4683
   29TMC2    C5  452   0.906   4.135  14.250  0.1411  0.3610 -1.1332
   29TMC2    C6  453   0.772   4.127  14.266 -0.0903 -0.3523  0.1059
   29TMC2     C  454   0.979   3.789  14.230  0.3604 -0.2742  0.5556
   29TMC2     O  455   1.098   3.754  14.251 -0.3490 -0.4092 -0.4089
   29TMC2     H  456   0.738   3.806  14.356  1.6314 -1.0900 -1.5179
   29TMC2    H1  457   1.085   4.032  14.227 -1.0091  0.9292 -1.2928
   29TMC2    H2  458   0.713   4.214  14.240  0.6039  0.2127  0.4198
   29TMC2    C7  459   0.965   4.256  14.187 -0.4969 -0.1638  0.3476
   29TMC2    C8  460   0.569   3.996  14.289  0.1911  0.0418 -0.3528
   29TMC2    O1  461   0.888   4.324  14.125  0.3622 -0.2285  0.1660
   29TMC2    O2  462   0.517   3.887  14.284  0.2428 -0.6642 -0.4519
   29TMC2    O5  463   0.533   4.096  14.376 -0.1500 -0.3646 -0.7775
   29TMC2    H5  464   0.608   4.150  14.408  0.2608  0.3982 -3.0393
   30MPD2     C  465   0.893   3.424  13.884 -0.2607 -0.3750 -0.2961
   30MPD2    C1  466   0.986   3.430  13.977 -0.5444  0.2641  0.3009
   30MPD2    C2  467   0.983   3.532  14.077 -0.6437 -0.2512  0.0969
   30MPD2    C3  468   0.884   3.628  14.073 -0.8331  0.6516 -0.2680
   30MPD2    C4  469   0.778   3.599  13.984 -0.7910  0.9689 -0.1907
   30MPD2    C5  470   0.782   3.504  13.889 -0.2582  0.2933 -0.2038
   30MPD2     H  471   1.052   3.537  14.160  1.7877 -0.6050 -1.9096
   30MPD2    H1  472   0.682   3.649  13.997 -1.3494 -0.0086 -0.5868
   30MPD2    H2  473   0.886   3.346  13.810 -0.1047 -0.6814  0.0120
   30MPD2    H3  474   0.695   3.476  13.830  0.3212 -1.5558 -0.1565
   30MPD2     N  475   0.867   3.734  14.159  0.0016 -0.2527  0.8205
   30MPD2    H5  476   0.786   3.795  14.151 -0.4337 -0.7626  1.3399
   30MPD2    N1  477   1.098   3.346  13.991 -0.3025 -0.1362 -0.3027
   30MPD2    H7  478   1.169   3.351  14.063  0.2086  0.0136 -0.8231
   31TMC2    C1  479   3.160   2.015  14.780  0.5642  0.0354 -0.4169
   31TMC2    C2  480   3.053   2.082  14.828  0.3342 -0.0890 -0.0117
   31TMC2    C3  481   2.962   2.020  14.918 -0.2925  0.1160  0.2442
   31TMC2    C4  482   3.190   1.890  14.831 -0.2970  0.7590  0.1397
   31TMC2    C5  483   3.115   1.841  14.930  0.5024 -0.5216 -0.3718
   31TMC2    C6  484   3.004   1.901  14.977 -0.0926 -0.3684 -0.7397
   31TMC2     C  485   3.229   2.074  14.674 -0.2140 -0.2568 -0.8614
   31TMC2     O  486   3.197   2.187  14.639  0.2325  0.0113 -1.0468
   31TMC2     H  487   3.034   2.183  14.793  0.2300  0.2929  1.1308
   31TMC2    H1  488   3.280   1.838  14.800 -1.1679 -0.8821  0.3803
   31TMC2    H2  489   2.944   1.860  15.057 -0.1701  2.7933  0.8295
   31TMC2    C7  490   3.207   1.779  15.027  0.0591  0.0966 -0.1696
   31TMC2    C8  491   2.868   2.099  14.984  0.7495  0.2505  0.4065
   31TMC2    O1  492   3.303   1.718  14.983  0.2374  0.1056 -0.6624
   31TMC2    O2  493   2.769   2.055  15.033  0.2345 -0.6256 -0.0233
   31TMC2    O5  494   2.905   2.229  14.989  0.0783  0.0591 -0.4335
   31TMC2    H5  495   2.982   2.262  14.938  0.8325 -1.2606 -0.1145
   32MPD2     C  496   3.669   2.077  14.418  0.1373 -0.1417  0.1272
   32MPD2    C1  497   3.567   2.174  14.418  0.0519  0.0804  0.9718
   32MPD2    C2  498   3.457   2.152  14.495  0.0624 -0.5553  0.1959
   32MPD2    C3  499   3.456   2.038  14.572  0.0768  0.6643  0.2618
   32MPD2    C4  500   3.560   1.944  14.574  0.1167  0.2452  0.5063
   32MPD2    C5  501   3.672   1.972  14.497 -0.3322  0.5676 -0.8400
   32MPD2     H  502   3.374   2.222  14.495 -0.2076 -0.8754  0.4029
   32MPD2    H1  503   3.560   1.853  14.633  4.1701  1.2126  2.0407
   32MPD2    H2  504   3.760   2.093  14.362 -1.0012  2.6406 -0.9576
   32MPD2    H3  505   3.762   1.911  14.500 -1.8598 -1.6434 -0.0906
   32MPD2     N  506   3.350   2.003  14.653 -0.2245  0.0226  0.3754
   32MPD2    H5  507   3.353   1.921  14.713 -0.9648  1.8828  2.9550
   32MPD2    N1  508   3.594   2.295  14.344 -0.2864  0.3391  0.0835
   32MPD2    H7  509   3.678   2.293  14.288 -0.6315 -0.2221 -0.4091
   33TMC2    C1  510   3.798   0.828  10.687 -0.0397 -0.5403  0.1473
   33TMC2    C2  511   3.684   0.868  10.756 -0.1581  0.3569 -0.2504
   33TMC2    C3  512   3.607   0.973  10.710  0.3282  0.3184  0.4729
   33TMC2    C4  513   3.815   0.874  10.559  0.1536 -0.7923 -0.4520
   33TMC2    C5  514   3.738   0.979  10.522 -0.6480  0.5117  0.4031
   33TMC2    C6  515   3.632   1.021  10.590 -0.2098 -0.5758 -0.0044
   33TMC2     C  516   3.856   0.699  10.721 -0.1667  0.2533  0.2394
   33TMC2     O  517   3.822   0.653  10.833  0.1396  0.1196 -0.0452
   33TMC2     H  518   3.671   0.840  10.860  0.7648 -0.4109 -0.3501
   33TMC2    H1  519   3.892   0.834  10.494  1.6481 -0.0953  0.8953
   33TMC2    H2  520   3.585   1.110  10.549 -1.5675 -0.8275  1.0142
   33TMC2    C7  521   3.760   1.026  10.389  0.8448 -0.4426 -0.5349
   33TMC2    C8  522   3.521   1.055  10.791  0.7660  0.0716 -0.8577
   33TMC2    O1  523   3.874   1.006  10.351  0.3700 -0.4341 -0.1308
   33TMC2    O2  524   3.516   1.175  10.772 -0.6653  0.3249  0.4348
   33TMC2    O5  525   3.439   0.982  10.873 -0.3804  0.5979  0.1042
   33TMC2    H5  526   3.437   0.888  10.848 -2.0772  0.5371  0.4395
   34MPD2     C  527   4.172   0.305  10.684  0.7357  0.0012 -0.1335
   34MPD2    C1  528   4.048   0.312  10.744 -0.0138 -0.5496  0.9754
   34MPD2    C2  529   3.981   0.432  10.736  0.2979 -0.3659  0.3472
   34MPD2    C3  530   4.028   0.539  10.659 -0.4486 -0.3254  0.5809
   34MPD2    C4  531   4.149   0.526  10.606  0.5434  0.1471 -0.2111
   34MPD2    C5  532   4.220   0.410  10.612 -0.5711 -0.1879 -0.6840
   34MPD2     H  533   3.887   0.448  10.787 -0.0463  2.7312 -1.2983
   34MPD2    H1  534   4.193   0.600  10.539  0.7443  0.0988 -0.1332
   34MPD2    H2  535   4.242   0.223  10.689 -0.8412 -1.3717 -0.7215
   34MPD2    H3  536   4.315   0.406  10.560  1.5250 -0.2988  3.1812
   34MPD2     N  537   3.960   0.663  10.645 -0.3223  0.0591  0.3155
   34MPD2    H5  538   3.997   0.723  10.571 -0.1224 -0.0317  0.3403
   34MPD2    N1  539   3.999   0.193  10.803  0.0298  0.6120  0.5604
   34MPD2    H7  540   4.062   0.113  10.802  0.5482  1.0012  1.5388
   35TMC2    C1  541   4.732   1.536  11.527  0.0779  0.1230  0.1633
   35TMC2    C2  542   4.729   1.512  11.393  0.6779 -0.7632  0.7773
   35TMC2    C3  543   4.624   1.435  11.348  0.9568 -0.3811 -0.2242
   35TMC2    C4  544   4.639   1.495  11.610 -0.4842  0.1959  0.0856
   35TMC2    C5  545   4.533   1.428  11.557  0.4320  0.5520  0.0952
   35TMC2    C6  546   4.519   1.394  11.425  0.3654 -0.0450 -0.1267
   35TMC2     C  547   0.072   1.646  11.577  0.1838 -0.4648 -0.2796
   35TMC2     O  548   0.121   1.718  11.490  0.0480 -0.4200  0.4287
   35TMC2     H  549   0.071   1.535  11.324 -0.3954  0.6946  0.0013
   35TMC2    H1  550   4.637   1.525  11.714 -0.4740  0.2307  0.0758
   35TMC2    H2  551   4.435   1.337  11.385 -0.0710  0.0702  0.6193
   35TMC2    C7  552   4.471   1.331  11.643 -0.3217  0.4058 -0.7284
   35TMC2    C8  553   4.621   1.400  11.210  0.3691 -0.1195  0.0533
   35TMC2    O1  554   4.536   1.296  11.741 -0.3789 -0.1333  0.0968
   35TMC2    O2  555   4.695   1.457  11.128  0.3534 -0.7132 -0.0157
   35TMC2    O5  556   4.617   1.270  11.210  0.6509 -0.1238 -0.5089
   35TMC2    H5  557   4.603   1.228  11.298 -0.6170 -0.0264 -0.6653
   36MPD2     C  558   0.314   1.894  11.964 -0.4703 -0.7005  0.0320
   36MPD2    C1  559   0.265   1.777  12.009  0.2130  0.2242 -0.2022
   36MPD2    C2  560   0.202   1.697  11.926 -0.4307  0.1488 -0.2101
   36MPD2    C3  561   0.181   1.731  11.790 -0.6040  0.1920  0.6808
   36MPD2    C4  562   0.218   1.852  11.742 -0.4610  0.5424 -0.3826
   36MPD2    C5  563   0.289   1.926  11.831  0.4110  0.0615 -0.1211
   36MPD2     H  564   0.165   1.600  11.955 -1.2156  0.7675  0.8639
   36MPD2    H1  565   0.189   1.890  11.644 -0.9358  0.2033 -0.3750
   36MPD2    H2  566   0.383   1.953  12.023  1.4721 -1.3445 -1.6186
   36MPD2    H3  567   0.320   2.025  11.799 -3.0503  1.9433  2.3315
   36MPD2     N  568   0.094   1.638  11.716 -0.3547  0.4225 -0.8108
   36MPD2    H5  569   0.070   1.548  11.755  0.2113  0.6205 -0.0090
   36MPD2    N1  570   0.293   1.756  12.145 -0.3769 -0.1954  0.1038
   36MPD2    H7  571   0.317   1.834  12.206  0.4078 -0.9262  0.7323
   37TMC2    C1  572   2.579   1.871  11.633 -0.4314  0.5918  0.6189
   37TMC2    C2  573   2.473   1.891  11.545  0.6136 -0.2857  0.1168
   37TMC2    C3  574   2.506   1.893  11.412 -0.9381  0.1369 -0.6464
   37TMC2    C4  575   2.704   1.843  11.587 -0.3776 -0.2492 -0.2808
   37TMC2    C5  576   2.728   1.839  11.454 -0.1737  0.1921  0.3299
   37TMC2    C6  577   2.632   1.876  11.364 -0.2724  0.0156  0.9755
   37TMC2     C  578   2.556   1.846  11.769  0.2884 -0.2826  0.0716
   37TMC2     O  579   2.464   1.914  11.822  0.0857  0.3820 -0.7244
   37TMC2     H  580   2.381   1.919  11.596 -0.1339 -0.6752 -1.0183
   37TMC2    H1  581   2.790   1.821  11.650 -2.1873 -2.2049  1.4844
   37TMC2    H2  582   2.659   1.864  11.260 -0.4778  1.5166  0.7461
   37TMC2    C7  583   2.865   1.799  11.406 -0.2609  0.4846 -0.0194
   37TMC2    C8  584   2.395   1.894  11.314  0.0607  0.7947 -0.1506
   37TMC2    O1  585   2.926   1.719  11.478  0.5884  0.2366  0.0382
   37TMC2    O2  586   2.421   1.917  11.198 -0.2990  0.0344 -0.9652
   37TMC2    O5  587   2.329   1.787  11.362  0.2797 -0.6460 -0.4508
   37TMC2    H5  588   2.354   1.766  11.455  3.9637  3.3504 -0.5351
   38MPD2     C  589   2.659   1.590  12.203  0.5421  0.1783  0.2508
   38MPD2    C1  590   2.701   1.511  12.094 -0.0692 -0.4474  0.3228
   38MPD2    C2  591   2.692   1.558  11.964  0.1302  0.0917  0.0706
   38MPD2    C3  592   2.640   1.680  11.934 -0.4575 -0.1628  0.0640
   38MPD2    C4  593   2.604   1.760  12.040 -0.1939 -0.3051 -0.0481
   38MPD2    C5  594   2.604   1.714  12.172 -0.2414 -0.2135  0.4669
   38MPD2     H  595   2.733   1.493  11.887 -1.4530 -1.7627  0.8108
   38MPD2    H1  596   2.573   1.864  12.039  1.5337  0.2432  1.4703
   38MPD2    H2  597   2.678   1.569  12.308  0.5520  1.3018  0.4778
   38MPD2    H3  598   2.579   1.778  12.256 -2.9065  0.7754 -1.0792
   38MPD2     N  599   2.621   1.729  11.808 -0.1070 -0.6795 -0.3272
   38MPD2    H5  600   2.662   1.669  11.737 -0.7162  1.0669 -2.1756
   38MPD2    N1  601   2.772   1.393  12.112 -0.5779  0.0756  0.1299
   38MPD2    H7  602   2.805   1.354  12.024 -1.5511 -1.5978  0.5045
   39TMC2    C1  603   1.177   2.821   1.315 -0.0995 -0.8419  0.6788
   39TMC2    C2  604   1.167   2.808   1.449 -0.0922  0.0930  0.0899
   39TMC2    C3  605   1.278   2.820   1.525  0.1552 -0.0535  0.0138
   39TMC2    C4  606   1.292   2.848   1.252  0.0940  0.7831 -0.0570
   39TMC2    C5  607   1.404   2.865   1.330 -0.0513  0.0595 -0.3392
   39TMC2    C6  608   1.400   2.852   1.467 -0.7853 -1.2840 -0.9888
   39TMC2     C  609   1.047   2.797   1.245  0.3611  0.0833 -0.4121
   39TMC2     O  610   0.948   2.771   1.307 -0.0819  0.5893  0.0290
   39TMC2     H  611   1.077   2.781   1.503  0.7414 -0.7999  1.0279
   39TMC2    H1  612   1.296   2.845   1.144  0.4255 -1.9353  0.0236
   39TMC2    H2  613   1.490   2.882   1.518 -3.2865  2.5763  1.1704
   39TMC2    C7  614   1.532   2.883   1.265  0.5048  0.0529 -0.0993
   39TMC2    C8  615   1.250   2.826   1.664 -0.7342 -0.5180  0.0850
   39TMC2    O1  616   1.545   2.842   1.153 -0.1611  0.3964 -0.3830
   39TMC2    O2  617   1.139   2.859   1.703  0.0008  0.4899 -0.2010
   39TMC2    O5  618   1.360   2.860   1.725 -0.4945 -0.2908  0.1398
   39TMC2    H5  619   1.436   2.809   1.689 -0.3970  0.1725 -0.3128
   40MPD2     C  620   0.992   2.770   0.886 -0.9236  0.1563  0.0009
   40MPD2    C1  621   0.955   2.786   1.017  0.4171 -0.2690 -0.3566
   40MPD2    C2  622   0.822   2.784   1.051  0.3153  0.0537  0.0625
   40MPD2    C3  623   0.720   2.754   0.958  0.4618  0.4309 -0.1857
   40MPD2    C4  624   0.769   2.723   0.827 -0.7341 -0.1417 -0.2551
   40MPD2    C5  625   0.904   2.735   0.794 -0.1219 -0.1548  0.3809
   40MPD2     H  626   0.785   2.826   1.144 -1.6512  0.6963 -1.0137
   40MPD2    H1  627   0.700   2.695   0.747  1.1580  0.1208 -1.9635
   40MPD2    H2  628   1.092   2.774   0.846 -0.9242  0.6274  0.0521
   40MPD2    H3  629   0.938   2.711   0.694  3.2971 -1.7201  1.9032
   40MPD2     N  630   0.580   2.759   0.984  0.7523 -0.1652 -0.5493
   40MPD2    H5  631   0.524   2.728   0.904 -0.6292  1.9145 -0.3919
   40MPD2    N1  632   1.057   2.804   1.108 -0.4892  0.7921  0.2891
   40MPD2    H7  633   1.141   2.840   1.063 -0.1421 -0.6074 -0.1686
   41TMC2    C1  634   4.518   1.568  14.606 -0.7547 -0.1799 -0.9715
   41TMC2    C2  635   4.526   1.671  14.513  0.4341  0.2973  0.5844
   41TMC2    C3  636   4.602   1.642  14.406  0.4793  0.0598 -0.2756
   41TMC2    C4  637   4.566   1.442  14.578  0.0254  0.7957  0.0051
   41TMC2    C5  638   4.633   1.416  14.458 -1.0110 -0.3011  1.0613
   41TMC2    C6  639   4.646   1.514  14.370 -0.4197 -0.2773  1.1772
   41TMC2     C  640   4.437   1.597  14.719  0.4125  0.2459  0.2180
   41TMC2     O  641   4.430   1.503  14.797  0.3291  0.8624 -0.1835
   41TMC2     H  642   4.518   1.773  14.547  0.3748  0.3317  0.4659
   41TMC2    H1  643   4.534   1.364  14.646  1.7750 -0.2708 -0.4076
   41TMC2    H2  644   4.704   1.500  14.280  0.1041  0.4421  1.4067
   41TMC2    C7  645   4.606   1.285  14.408 -0.9852 -0.6519 -0.0220
   41TMC2    C8  646   4.595   1.733  14.301 -0.3773  0.0029  0.3823
   41TMC2    O1  647   4.600   1.192  14.488 -0.6970 -0.5859  0.0310
   41TMC2    O2  648   4.569   1.699  14.188  0.1820  0.0424 -0.0666
   41TMC2    O5  649   4.625   1.855  14.337  0.0931 -0.3757  0.5131
   41TMC2    H5  650   4.676   1.865  14.420 -0.5102  0.3038  0.8062
   42MPD2     C  651   4.192   1.644  14.898  0.5007 -0.5847 -0.7931
   42MPD2    C1  652   4.223   1.713  14.780  0.3911 -0.1238  0.9372
   42MPD2    C2  653   4.132   1.814  14.741  0.3580 -0.4862  0.7235
   42MPD2    C3  654   4.028   1.855  14.826 -0.1171  0.3878  0.2821
   42MPD2    C4  655   4.010   1.786  14.944 -0.1698 -0.3306 -0.5763
   42MPD2    C5  656   4.085   1.677  14.981  0.3375 -0.3428 -0.0045
   42MPD2     H  657   4.151   1.871  14.651 -2.6645  0.1578  0.4779
   42MPD2    H1  658   3.938   1.818  15.018  2.7854  3.2300  0.7843
   42MPD2    H2  659   4.252   1.561  14.934  2.5911  0.7864 -1.1441
   42MPD2    H3  660   4.061   1.629  15.075 -1.3628  0.9936  0.2399
   42MPD2     N  661   3.934   1.955  14.806 -0.9038 -0.7533 -0.6790
   42MPD2    H5  662   3.861   1.962  14.876 -0.8567  1.4779 -0.8485
   42MPD2    N1  663   4.340   1.695  14.694  0.1674 -0.1109 -0.0138
   42MPD2    H7  664   4.348   1.743  14.605 -0.6205 -2.4189 -1.3262
   43TMC2    C1  665   1.172   4.577   0.776  0.0147  0.0611  0.1396
   43TMC2    C2  666   1.076   4.658   0.723 -0.8363 -0.4382 -1.1285
   43TMC2    C3  667   1.109   0.055   0.716  0.4245  0.1039  0.6438
   43TMC2    C4  668   1.291   4.616   0.821  0.2567 -0.9705 -0.0870
   43TMC2    C5  669   1.320   0.010   0.804  0.5362  0.2178  0.5452
   43TMC2    C6  670   1.229   0.098   0.758  1.0153  0.6902  0.5829
   43TMC2     C  671   1.156   4.437   0.753 -0.1548 -0.9735 -0.6719
   43TMC2     O  672   1.255   4.365   0.737 -0.1994  0.2304  0.1650
   43TMC2     H  673   0.986   4.621   0.676 -1.3360 -0.9279  0.2011
   43TMC2    H1  674   1.366   4.537   0.823  1.3313  0.0319 -1.0865
   43TMC2    H2  675   1.254   0.201   0.733  1.7625  0.3713  0.0276
   43TMC2    C7  676   1.459   0.050   0.841  0.0683 -0.1137  0.8156
   43TMC2    C8  677   1.033   0.153   0.637  0.4393  0.0549  0.2432
   43TMC2    O1  678   1.500   0.150   0.784 -0.3057 -0.2464  0.3498
   43TMC2    O2  679   1.058   0.275   0.656 -0.6475 -0.3851 -0.0294
   43TMC2    O5  680   0.907   0.108   0.634 -0.1768  0.0390 -0.1204
   43TMC2    H5  681   0.880   0.026   0.589  1.2167  0.2996 -1.4252
   44MPD2     C  682   0.864   4.058   0.579  0.0896  0.0972 -0.4468
   44MPD2    C1  683   0.984   4.105   0.527 -0.4963  0.4128  0.1512
   44MPD2    C2  684   1.041   4.208   0.599 -0.5152  0.8545  0.1737
   44MPD2    C3  685   0.975   4.269   0.701  0.4458  0.1513  0.7059
   44MPD2    C4  686   0.854   4.230   0.739  0.1882  0.1399  0.1665
   44MPD2    C5  687   0.797   4.121   0.679 -0.1983  0.8027  0.6767
   44MPD2     H  688   1.138   4.242   0.564 -1.3321  2.1259 -0.8326
   44MPD2    H1  689   0.801   4.280   0.819  0.7089 -1.5300  1.5549
   44MPD2    H2  690   0.810   3.981   0.524 -1.6628 -0.5661  2.1859
   44MPD2    H3  691   0.703   4.072   0.700 -0.9214  1.0031 -2.1096
   44MPD2     N  692   1.025   4.391   0.759 -0.3468  0.8639 -0.3807
   44MPD2    H5  693   0.957   4.448   0.809 -0.3587 -1.0480  1.8058
   44MPD2    N1  694   1.053   4.049   0.419 -0.0206 -0.2562  0.3024
   44MPD2    H7  695   1.148   4.082   0.401 -0.8002  1.6923 -0.2061
   45TMC2    C1  696   2.071   1.647   9.549 -0.0462  0.2715 -0.4564
   45TMC2    C2  697   2.206   1.622   9.558  0.2761  0.1452 -0.5694
   45TMC2    C3  698   2.288   1.709   9.629 -0.0271 -0.1690 -0.1102
   45TMC2    C4  699   2.017   1.750   9.616 -0.1699 -0.1675 -0.2082
   45TMC2    C5  700   2.101   1.846   9.679  0.1450  0.0340  0.2397
   45TMC2    C6  701   2.237   1.825   9.681 -0.6584  0.5260  0.0146
   45TMC2     C  702   1.988   1.556   9.475 -0.2250 -0.3480  0.4803
   45TMC2     O  703   2.041   1.445   9.463 -0.2912  0.0923 -0.3361
   45TMC2     H  704   2.237   1.526   9.519 -0.3295  0.7961 -2.7026
   45TMC2    H1  705   1.908   1.755   9.617 -0.3406 -2.7846 -3.6512
   45TMC2    H2  706   2.302   1.898   9.728  2.2912 -1.1302 -1.5074
   45TMC2    C7  707   2.053   1.968   9.727  0.0268  0.5526  0.4883
   45TMC2    C8  708   2.432   1.676   9.634 -1.0465  0.1965 -0.6982
   45TMC2    O1  709   2.135   2.041   9.779  0.4120 -0.3535  0.3632
   45TMC2    O2  710   2.469   1.564   9.603 -0.0433  0.3487 -0.0058
   45TMC2    O5  711   2.490   1.795   9.599  1.0128  0.1222  0.1414
   45TMC2    H5  712   2.423   1.863   9.577 -1.0527 -1.4995  1.4127
   46MPD2     C  713   1.762   1.369   9.392  0.2848  0.0671 -0.3312
   46MPD2    C1  714   1.753   1.505   9.404 -0.3024 -0.2011 -0.4924
   46MPD2    C2  715   1.631   1.551   9.376  0.1673  0.3200 -0.7482
   46MPD2    C3  716   1.522   1.467   9.352 -0.2790  0.2262 -0.0971
   46MPD2    C4  717   1.539   1.329   9.348  0.3481  0.0432 -0.3189
   46MPD2    C5  718   1.659   1.284   9.368  0.2395  0.5252  0.4712
   46MPD2     H  719   1.616   1.658   9.383 -0.4953  0.3154 -2.1436
   46MPD2    H1  720   1.462   1.255   9.330 -0.8864  1.3344 -0.2525
   46MPD2    H2  721   1.860   1.327   9.414 -0.0016  0.2238  1.2383
   46MPD2    H3  722   1.676   1.177   9.363 -1.7509  0.2611 -0.4627
   46MPD2     N  723   1.395   1.533   9.324 -0.9332  0.2325 -0.3597
   46MPD2    H5  724   1.404   1.634   9.322  0.3444  0.2192  3.6254
   46MPD2    N1  725   1.862   1.591   9.442  0.1338  0.0986  0.5299
   46MPD2    H7  726   1.843   1.690   9.458  0.8032  0.3476 -0.2147
   47TMC2    C1  727   3.575   2.451   9.762 -0.4536  0.4908  0.0570
   47TMC2    C2  728   3.660   2.440   9.878  0.0316 -0.0253  0.0777
   47TMC2    C3  729   3.588   2.429  10.000  0.1269  0.3586  0.1444
   47TMC2    C4  730   3.444   2.444   9.777 -0.2907 -0.4687  0.7101
   47TMC2    C5  731   3.381   2.440   9.898 -0.4545 -0.0358 -0.4642
   47TMC2    C6  732   3.454   2.419  10.018 -0.6442  1.0928 -0.2204
   47TMC2     C  733   3.632   2.510   9.643  0.3885 -0.4047 -0.2014
   47TMC2     O  734   3.559   2.587   9.584  0.8631 -0.3290  0.3957
   47TMC2     H  735   3.760   2.480   9.883  0.8722 -2.2604  0.9502
   47TMC2    H1  736   3.387   2.444   9.685 -1.0414  2.3689  1.1711
   47TMC2    H2  737   3.411   2.434  10.116 -1.2292  0.9785 -0.4589
   47TMC2    C7  738   3.239   2.428   9.902  0.2402  0.3129  0.2829
   47TMC2    C8  739   3.662   2.447  10.124  0.1520 -0.2801  0.0951
   47TMC2    O1  740   3.182   2.481   9.807 -0.5598 -0.3477  0.1390
   47TMC2    O2  741   3.607   2.478  10.227 -0.2918  0.0741 -0.2096
   47TMC2    O5  742   3.771   2.362  10.111  0.7057 -0.4184 -0.3453
   47TMC2    H5  743   3.813   2.354  10.023  1.9665  1.9167  0.0411
   48MPD2     C  744   3.823   2.647   9.463  0.2590 -0.2146  0.3138
   48MPD2    C1  745   3.852   2.536   9.542 -0.2291 -0.8825  0.5364
   48MPD2    C2  746   3.980   2.480   9.537 -0.2037  0.0230  0.1740
   48MPD2    C3  747   4.084   2.531   9.459 -0.7361 -0.0020  0.1883
   48MPD2    C4  748   4.053   2.641   9.379 -0.4046 -0.2672  0.1620
   48MPD2    C5  749   3.926   2.695   9.382 -0.1727  0.2184 -0.5371
   48MPD2     H  750   4.003   2.406   9.613 -1.9812  0.5046  1.1797
   48MPD2    H1  751   4.118   2.684   9.303 -0.5896 -0.7192 -0.2521
   48MPD2    H2  752   3.724   2.690   9.451  0.6182  0.7399  0.7761
   48MPD2    H3  753   3.898   2.777   9.317 -0.8408  0.0996 -0.4035
   48MPD2     N  754   4.211   2.472   9.468 -0.4704 -0.2919  0.0223
   48MPD2    H5  755   4.226   2.380   9.509 -1.4590 -0.0150  1.0007
   48MPD2    N1  756   3.765   2.476   9.631  0.0012 -0.6860  0.5171
   48MPD2    H7  757   3.780   2.390   9.682 -0.9525 -1.6332 -0.7872
   49TMC2    C1  758   2.219   4.430  10.674  0.4115  0.9304 -0.9762
   49TMC2    C2  759   2.212   4.341  10.574  0.0013  0.0422 -0.2465
   49TMC2    C3  760   2.198   4.207  10.604  0.3907  1.0610  0.0329
   49TMC2    C4  761   2.239   4.390  10.804 -0.4726 -0.3836  0.4672
   49TMC2    C5  762   2.238   4.258  10.829  0.4024  0.4888  0.6588
   49TMC2    C6  763   2.208   4.163  10.731  0.9264 -0.2895 -0.1519
   49TMC2     C  764   2.194   4.569  10.639  0.0594 -0.1345 -1.4000
   49TMC2     O  765   2.234   4.605  10.532 -0.2234  0.3575 -0.4228
   49TMC2     H  766   2.200   4.372  10.471  1.3838 -2.4784 -1.1732
   49TMC2    H1  767   2.232   4.456  10.890  0.0089 -0.1592  0.3377
   49TMC2    H2  768   2.221   4.058  10.753  0.6417 -0.1625  0.6142
   49TMC2    C7  769   2.286   4.220  10.966  0.7344  0.5161  0.3124
   49TMC2    C8  770   2.174   4.112  10.503 -0.5931 -0.4535  0.1066
   49TMC2    O1  771   2.318   4.315  11.030 -0.3745  0.2371  0.0218
   49TMC2    O2  772   2.195   4.127  10.384  0.2067  0.1171 -0.5896
   49TMC2    O5  773   2.089   4.020  10.555  0.1550 -0.2343  0.5914
   49TMC2    H5  774   2.066   4.021  10.650 -1.5004  2.2032  0.1381
   50MPD2     C  775   2.169   0.131  10.649 -0.1783  0.8274 -0.6478
   50MPD2    C1  776   2.113   0.044  10.741 -0.2367 -1.0751 -0.8388
   50MPD2    C2  777   2.030   0.092  10.842  0.0968  0.2584 -0.1630
   50MPD2    C3  778   1.998   0.228  10.855  0.8274 -0.1483 -0.5677
   50MPD2    C4  779   2.060   0.306  10.764  0.3191  0.6219 -0.0986
   50MPD2    C5  780   2.143   0.263  10.661 -0.5118  0.2283 -0.1385
   50MPD2     H  781   1.997   0.012  10.907  3.2012 -0.8118  0.0698
   50MPD2    H1  782   2.042   0.413  10.769  1.6141  0.9500 -2.2498
   50MPD2    H2  783   2.243   0.106  10.574  0.8371 -0.3001  0.7112
   50MPD2    H3  784   2.189   0.334  10.594  3.0719 -1.2289  0.7535
   50MPD2     N  785   1.944   0.281  10.969  0.4297  0.1574  0.4025
   50MPD2    H5  786   1.953   0.381  10.985 -0.5731  0.1001  1.2999
   50MPD2    N1  787   2.153   4.644  10.747  0.1150 -0.0400  0.0483
   50MPD2    H7  788   2.130   4.587  10.828 -1.1405  1.2643  0.6405
   51TMC2    C1  789   4.388   2.135   1.660 -0.4059  0.7402  0.3125
   51TMC2    C2  790   4.439   2.099   1.789  0.7663  0.0939  0.6353
   51TMC2    C3  791   4.410   2.189   1.889 -0.0031  1.0301 -0.1225
   51TMC2    C4  792   4.313   2.250   1.638 -0.2019  0.2725  0.6125
   51TMC2    C5  793   4.298   2.336   1.745 -0.1654 -0.2210 -0.2718
   51TMC2    C6  794   4.346   2.305   1.871  0.2285  0.5410  0.0644
   51TMC2     C  795   4.400   2.041   1.545  0.2253 -0.5021 -0.2773
   51TMC2     O  796   4.331   2.062   1.446  1.0938 -0.1392  0.2245
   51TMC2     H  797   4.489   2.004   1.803 -1.1589 -1.1752 -1.1934
   51TMC2    H1  798   4.270   2.284   1.544  0.2556 -1.2254 -0.1391
   51TMC2    H2  799   4.326   2.373   1.953  1.7082  0.8902  0.1257
   51TMC2    C7  800   4.201   2.442   1.745  0.0585 -0.2170  0.2308
   51TMC2    C8  801   4.456   2.139   2.017 -0.5243 -0.7752 -0.4539
   51TMC2    O1  802   4.206   2.516   1.840 -0.2648  0.2786  0.7394
   51TMC2    O2  803   4.498   2.031   2.032 -0.3019  0.2149 -0.2015
   51TMC2    O5  804   4.499   2.242   2.086 -0.5887  0.4011  0.4998
   51TMC2    H5  805   4.474   2.328   2.045 -0.7037 -0.4520 -1.2303
   52MPD2     C  806   4.650   1.672   1.285  0.1101  0.0842  0.1151
   52MPD2    C1  807   4.541   1.741   1.246 -0.1031 -0.4113  0.2567
   52MPD2    C2  808   4.497   1.841   1.334 -0.1473  0.9189  0.7507
   52MPD2    C3  809   4.551   1.857   1.459 -0.6092 -0.1492  0.7259
   52MPD2    C4  810   4.668   1.787   1.489  0.3751  0.1109 -0.4519
   52MPD2    C5  811   4.713   1.702   1.400  0.0562 -0.2279 -0.0604
   52MPD2     H  812   4.411   1.897   1.299 -2.4352 -2.7746  0.4038
   52MPD2    H1  813   4.725   1.814   1.578  1.1816 -1.1678 -0.5953
   52MPD2    H2  814   4.710   1.605   1.225  0.2007 -0.0798  0.3898
   52MPD2    H3  815   0.067   1.649   1.419  0.5535  0.2335 -1.1976
   52MPD2     N  816   4.502   1.949   1.561  0.4421  0.2033 -0.0922
   52MPD2    H5  817   4.558   1.954   1.646 -0.7006 -0.5144  0.7040
   52MPD2    N1  818   4.480   1.734   1.120  0.1205 -0.2804 -0.1181
   52MPD2    H7  819   4.402   1.795   1.101 -0.8690 -1.1105  1.2822
   53TMC2    C1  820   3.552   1.565  11.318 -0.4671 -0.1654  0.3921
   53TMC2    C2  821   3.643   1.467  11.296  0.5909  0.4184 -0.3545
   53TMC2    C3  822   3.713   1.417  11.398 -0.5433  0.7821 -0.1599
   53TMC2    C4  823   3.526   1.603  11.442 -0.7376  0.2745 -0.3567
   53TMC2    C5  824   3.597   1.549  11.548 -0.4166 -0.8378 -0.0915
   53TMC2    C6  825   3.687   1.449  11.527 -0.1331  1.1958 -0.2139
   53TMC2     C  826   3.455   1.578  11.217 -0.6682  0.2836  0.6886
   53TMC2     O  827   3.485   1.545  11.102 -0.1719  0.3639  0.1759
   53TMC2     H  828   3.655   1.428  11.195 -2.0769  0.7588 -0.7868
   53TMC2    H1  829   3.446   1.674  11.462 -0.6212 -0.0965  1.3996
   53TMC2    H2  830   3.744   1.404  11.608  0.3453  0.8507 -0.7461
   53TMC2    C7  831   3.525   1.555  11.678  0.3435  1.2504  0.1921
   53TMC2    C8  832   3.819   1.323  11.382 -0.2671  0.0577  0.4252
   53TMC2    O1  833   3.466   1.656  11.715 -0.2867 -0.6765  0.2412
   53TMC2    O2  834   3.851   1.234  11.460  0.5153 -0.1711  0.0079
   53TMC2    O5  835   3.911   1.393  11.316 -0.4896  0.4306  0.3564
   53TMC2    H5  836   3.866   1.449  11.249  2.0543  2.9986  0.7981
   54MPD2     C  837   3.238   1.755  11.056  1.2049  0.6005  0.5936
   54MPD2    C1  838   3.230   1.702  11.187  0.0026 -0.4996  0.1803
   54MPD2    C2  839   3.114   1.731  11.259  0.6392 -0.7029 -1.1234
   54MPD2    C3  840   3.015   1.807  11.210 -0.1122  0.0496 -0.2663
   54MPD2    C4  841   3.022   1.858  11.086  0.5805  0.0046  0.3119
   54MPD2    C5  842   3.126   1.827  11.009  0.7683 -0.1853  0.2447
   54MPD2     H  843   3.104   1.688  11.358 -0.8992 -0.4591 -1.1806
   54MPD2    H1  844   2.944   1.926  11.055 -0.1179  0.2526  2.6260
   54MPD2    H2  845   3.327   1.737  10.998  1.0845 -0.5143  0.7456
   54MPD2    H3  846   3.131   1.860  10.906  0.7175 -1.6016 -0.2206
   54MPD2     N  847   2.891   1.838  11.278 -0.2308  0.5160 -0.1553
   54MPD2    H5  848   2.830   1.907  11.237  0.1176  1.0832  0.2800
   54MPD2    N1  849   3.331   1.633  11.262  0.1295 -0.2344  0.1699
   54MPD2    H7  850   3.316   1.632  11.363  1.4243  0.1619  0.3710
   55TMC2    C1  851   4.069   4.540  17.697  0.3340  0.3470  0.5007
   55TMC2    C2  852   4.170   4.607  17.643  0.7603  0.2849 -0.5385
   55TMC2    C3  853   4.281   4.542  17.609 -0.4372 -0.6098  0.4600
   55TMC2    C4  854   4.076   4.403  17.711  0.0066 -0.2204  0.0233
   55TMC2    C5  855   4.182   4.336  17.660 -0.2281  0.0681  0.2270
   55TMC2    C6  856   4.290   4.405  17.606  0.0106 -0.1096  0.1684
   55TMC2     C  857   3.952   4.602   0.000  0.8414  0.0463  0.1975
   55TMC2     O  858   3.856   4.529   0.016  0.2057 -0.1300  0.1584
   55TMC2     H  859   4.160   4.715  17.642 -1.6038  0.0851  1.1063
   55TMC2    H1  860   3.995   4.345   0.005 -0.7164 -0.5309 -1.6820
   55TMC2    H2  861   4.382   4.350  17.588 -0.2071 -0.0121 -1.2273
   55TMC2    C7  862   4.182   4.191  17.645  0.3834 -0.1713 -1.0772
   55TMC2    C8  863   4.389   4.614  17.548 -0.0869  0.7038  0.3202
   55TMC2    O1  864   4.241   4.148  17.548  0.4322  0.5166  0.1614
   55TMC2    O2  865   4.396   4.732  17.560 -0.5723 -0.6480  0.0380
   55TMC2    O5  866   4.410   4.540  17.440  0.9027  0.3957  0.1056
   55TMC2    H5  867   4.343   4.467  17.444 -1.8484  2.8572 -1.0146
   56MPD2     C  868   3.942   0.206   0.119 -0.4214  0.5617  0.1219
   56MPD2    C1  869   3.885   0.082   0.092  0.2931 -0.9852  0.2812
   56MPD2    C2  870   3.773   0.050   0.163 -0.0016 -0.3326 -0.2236
   56MPD2    C3  871   3.701   0.141   0.241  0.5037 -0.4835  0.4462
   56MPD2    C4  872   3.754   0.267   0.259 -0.2903  0.2437  0.1293
   56MPD2    C5  873   3.875   0.299   0.196  0.5541  0.3034 -0.6754
   56MPD2     H  874   3.725   4.691   0.154 -0.8116 -0.1193  1.9167
   56MPD2    H1  875   3.709   0.338   0.327  3.0931  0.3003  2.3429
   56MPD2    H2  876   4.031   0.239   0.067 -1.0008 -1.0865 -1.9047
   56MPD2    H3  877   3.913   0.399   0.214  1.4434 -0.0872 -0.3549
   56MPD2     N  878   3.588   0.092   0.321  0.4054  0.9513 -0.3430
   56MPD2    H5  879   3.559   4.735   0.299  2.2763  0.3601 -0.2854
   56MPD2    N1  880   3.976   4.730   0.025  0.1825 -0.3566 -0.1837
   56MPD2    H7  881   4.063   0.040   0.003 -0.4577  0.0346 -1.8395
   57TMC2    C1  882   3.137   0.149  13.461  0.8881  0.1780  0.8977
   57TMC2    C2  883   3.108   0.017  13.493  1.0161  0.2798  0.3018
   57TMC2    C3  884   3.218   4.674  13.519  0.2643 -0.3549  0.2741
   57TMC2    C4  885   3.268   0.192  13.448 -0.2663 -0.5009 -0.4367
   57TMC2    C5  886   3.370   0.105  13.462  0.2435 -0.4377 -0.5380
   57TMC2    C6  887   3.347   4.712  13.495 -0.0930 -0.0878  0.3803
   57TMC2     C  888   3.039   0.261  13.496  0.5334  0.3174 -0.5707
   57TMC2     O  889   3.086   0.364  13.538 -0.3175 -0.4827  0.6085
   57TMC2     H  890   3.010   4.711  13.479  1.9736 -1.8906  0.3903
   57TMC2    H1  891   3.288   0.295  13.421 -4.2541 -0.0860 -1.7796
   57TMC2    H2  892   3.431   4.644  13.503 -0.5116 -0.5241  1.0569
   57TMC2    C7  893   3.496   0.151  13.413  0.3537  0.1522  0.2716
   57TMC2    C8  894   3.183   4.533  13.560  0.2890 -0.0025 -0.0391
   57TMC2    O1  895   3.536   0.266  13.421  0.1981  0.3860  0.5250
   57TMC2    O2  896   3.066   4.514  13.583  0.0248 -0.4479  0.6105
   57TMC2    O5  897   3.286   4.477  13.621  0.2009 -0.3748 -0.0514
   57TMC2    H5  898   3.371   4.494  13.575 -0.2835 -0.1436 -0.8532
   58MPD2     C  899   2.576   0.395  13.683 -0.7720  0.5054  0.1867
   58MPD2    C1  900   2.701   0.457  13.699  0.1974  0.6949  0.6157
   58MPD2    C2  901   2.811   0.403  13.629  0.3717 -0.4636  0.0879
   58MPD2    C3  902   2.801   0.283  13.563  0.5421  0.3827 -0.2238
   58MPD2    C4  903   2.682   0.220  13.560 -0.2257 -0.1717 -1.0822
   58MPD2    C5  904   2.568   0.281  13.610  0.4318  0.0861  1.0182
   58MPD2     H  905   2.903   0.459  13.632  0.8547 -1.1176 -2.0092
   58MPD2    H1  906   2.665   0.136  13.494 -0.2555  0.1944 -1.5456
   58MPD2    H2  907   2.487   0.437  13.729  0.9273  3.0174  1.1507
   58MPD2    H3  908   2.473   0.227  13.609 -0.2166  1.2577  0.4617
   58MPD2     N  909   2.910   0.214  13.511  1.6100 -0.1546  0.2090
   58MPD2    H5  910   2.900   0.114  13.494  0.3584  0.3749 -2.1966
   58MPD2    N1  911   2.714   0.572  13.780 -0.1811  0.0786  0.6788
   58MPD2    H7  912   2.808   0.610  13.784  0.3181 -0.9797 -0.9714
   59TMC2    C1  913   0.623   0.908  13.153  1.4289 -0.3729 -0.1362
   59TMC2    C2  914   0.686   0.788  13.186 -0.2311 -0.6453 -0.4794
   59TMC2    C3  915   0.654   0.678  13.112 -0.0991 -0.7152 -0.2982
   59TMC2    C4  916   0.525   0.913  13.062  0.0468  0.6990  0.2955
   59TMC2    C5  917   0.497   0.802  12.989  0.5588 -0.4327 -0.8543
   59TMC2    C6  918   0.551   0.679  13.023 -0.7474  0.6205  0.3161
   59TMC2     C  919   0.677   1.042  13.177  0.9981  0.0868  0.4864
   59TMC2     O  920   0.659   1.133  13.096  0.0724 -0.1547 -0.2764
   59TMC2     H  921   0.781   0.797  13.238  0.0895 -0.1308 -1.1603
   59TMC2    H1  922   0.477   1.010  13.058 -0.5017  0.4129  0.0235
   59TMC2    H2  923   0.541   0.585  12.971 -1.6147  0.6181  0.4866
   59TMC2    C7  924   0.372   0.800  12.900  0.5063 -0.1472 -0.2179
   59TMC2    C8  925   0.710   0.550  13.150 -0.5725 -0.5420  0.3423
   59TMC2    O1  926   0.336   0.695  12.847  0.1562 -0.4628 -0.0082
   59TMC2    O2  927   0.645   0.442  13.147 -0.3511  0.4617 -0.1365
   59TMC2    O5  928   0.847   0.558  13.171 -0.0572 -0.2610 -0.4209
   59TMC2    H5  929   0.870   0.648  13.138  0.8630  0.5440  2.4174
   60MPD2     C  930   0.817   1.275  13.306  0.0353  0.4434  0.0057
   60MPD2    C1  931   0.850   1.142  13.332 -0.1933 -0.0495  0.0125
   60MPD2    C2  932   0.965   1.117  13.405 -0.3971 -0.2219  0.0716
   60MPD2    C3  933   1.048   1.214  13.438  0.1932  0.2469 -0.5162
   60MPD2    C4  934   1.024   1.337  13.392 -0.3084 -0.5400 -0.6249
   60MPD2    C5  935   0.907   1.369  13.336 -0.2485  0.7671  0.4322
   60MPD2     H  936   0.988   1.011  13.410  0.7595 -0.0410 -1.6554
   60MPD2    H1  937   1.094   1.417  13.411  0.8926 -1.5193 -0.8951
   60MPD2    H2  938   0.722   1.306  13.265  0.0279  0.6296  0.1631
   60MPD2    H3  939   0.892   1.473  13.312 -2.5919  0.2634 -0.2343
   60MPD2     N  940   1.175   1.185  13.499  0.2642  0.0136  0.4949
   60MPD2    H5  941   1.241   1.261  13.513  1.7523 -1.0246 -0.8961
   60MPD2    N1  942   0.769   1.035  13.279 -0.3384  0.3885  0.1273
   60MPD2    H7  943   0.794   0.939  13.301 -0.3876  0.4993  0.6766
   61TMC2    C1  944   4.582   2.399  15.694  0.6622  0.3994  0.1277
   61TMC2    C2  945   4.634   2.278  15.737  0.9079  0.0588 -1.2833
   61TMC2    C3  946   0.025   2.286  15.770  0.2588  0.5095 -0.6031
   61TMC2    C4  947   4.649   2.518  15.687 -0.0195 -0.1042 -0.2593
   61TMC2    C5  948   0.042   2.518  15.723 -0.7457  0.5419 -0.1467
   61TMC2    C6  949   0.101   2.401  15.754 -0.8428 -0.0262 -0.8978
   61TMC2     C  950   4.455   2.392  15.614 -0.1437 -0.1141 -0.0945
   61TMC2     O  951   4.382   2.297  15.632  0.0648 -0.2016  0.3356
   61TMC2     H  952   4.571   2.190  15.745  0.2383  0.9098  2.9261
   61TMC2    H1  953   4.592   2.609  15.676 -0.9757 -0.5589  0.9447
   61TMC2    H2  954   0.201   2.389  15.794 -1.4017 -1.5796  0.0432
   61TMC2    C7  955   0.121   2.628  15.669 -0.0091  0.1790  0.4363
   61TMC2    C8  956   0.098   2.174  15.832 -0.7249 -0.6497 -0.1944
   61TMC2    O1  957   0.051   2.704  15.610 -0.0370  0.3960  0.5477
   61TMC2    O2  958   0.220   2.163  15.806 -0.0846  0.3392 -1.0870
   61TMC2    O5  959   0.014   2.073  15.874 -0.0981 -0.0301 -0.3960
   61TMC2    H5  960   4.657   2.094  15.881 -0.4751 -1.5687 -0.9239
   62MPD2     C  961   4.250   2.439  15.404  1.1446 -0.1381  0.6618
   62MPD2    C1  962   4.360   2.523  15.422  0.3011 -0.5529 -0.4648
   62MPD2    C2  963   4.380   2.620  15.327 -0.0134 -0.5182 -0.3346
   62MPD2    C3  964   4.308   2.625  15.206  0.2675  0.5643 -0.2581
   62MPD2    C4  965   4.196   2.544  15.193  0.7288  0.0086 -0.3823
   62MPD2    C5  966   4.168   2.452  15.293  0.0550  0.4679  0.4453
   62MPD2     H  967   4.465   2.682  15.352 -1.3404  1.4239 -0.5999
   62MPD2    H1  968   4.135   2.549  15.103  0.0001  2.2543  0.2525
   62MPD2    H2  969   4.218   2.353  15.463  2.3826 -1.7190 -0.9643
   62MPD2    H3  970   4.086   2.383  15.302  0.2978 -0.2468 -2.8571
   62MPD2     N  971   4.351   2.710  15.099 -0.6403  0.3083 -0.6868
   62MPD2    H5  972   4.307   2.690  15.010 -0.9280 -0.8998 -0.2739
   62MPD2    N1  973   4.453   2.504  15.526 -0.7198  0.3049  0.3571
   62MPD2    H7  974   4.538   2.559  15.519 -0.6340  0.1925  0.5251
   63TMC2    C1  975   4.092   2.071  10.133  0.2103  0.7868  0.2323
   63TMC2    C2  976   4.207   2.079  10.212 -0.1912  0.1828  0.4999
   63TMC2    C3  977   4.282   2.189  10.195 -0.0319  0.2213  0.2293
   63TMC2    C4  978   4.060   2.161  10.031 -0.2570 -0.1184  0.3384
   63TMC2    C5  979   4.143   2.263  10.018  0.4315  0.1336 -0.2872
   63TMC2    C6  980   4.253   2.279  10.099  0.0789 -0.4990 -0.5447
   63TMC2     C  981   3.994   1.955  10.144 -0.0260 -0.4247 -0.8181
   63TMC2     O  982   3.877   1.978  10.120  0.2164 -0.7011  0.1175
   63TMC2     H  983   4.224   2.008  10.293 -0.3567 -0.7860 -0.3040
   63TMC2    H1  984   3.966   2.152   9.978 -0.1116 -0.4272  0.1297
   63TMC2    H2  985   4.324   2.358  10.079 -2.2401  1.7993  0.2770
   63TMC2    C7  986   4.095   2.373   9.944  1.3859  0.2734 -0.2303
   63TMC2    C8  987   4.412   2.207  10.259 -0.0544  0.5224 -0.6162
   63TMC2    O1  988   3.971   2.373   9.932 -0.3876  0.2796  0.2697
   63TMC2    O2  989   4.506   2.261  10.205 -0.2406 -0.7658 -0.4121
   63TMC2    O5  990   4.426   2.116  10.359 -0.0309  0.6134  0.2585
   63TMC2    H5  991   4.346   2.097  10.413 -0.0148 -0.8705 -0.2468
   64MPD2     C  992   3.845   1.520  10.371  0.2188  0.1607 -0.2651
   64MPD2    C1  993   3.975   1.525  10.388 -0.6708  0.4195 -0.7111
   64MPD2    C2  994   4.049   1.621  10.323  0.4609 -0.4612 -0.2480
   64MPD2    C3  995   3.988   1.711  10.236  0.0732 -0.1136 -0.5919
   64MPD2    C4  996   3.853   1.705  10.223  0.2369 -0.1036 -0.1241
   64MPD2    C5  997   3.782   1.606  10.287  0.2584 -0.3384 -0.2865
   64MPD2     H  998   4.156   1.625  10.340  0.6261 -1.9658 -0.9586
   64MPD2    H1  999   3.795   1.777  10.166  0.5483  0.2854  0.0446
   64MPD2    H2 1000   3.788   1.435  10.409  0.3234  0.6782  1.0264
   64MPD2    H3 1001   3.676   1.602  10.262  0.4984  0.7638 -1.4610
   64MPD2     N 1002   4.058   1.831  10.189 -0.2993 -0.0340  0.9666
   64MPD2    H5 1003   4.158   1.822  10.174 -0.4401  0.1733 -0.0969
   64MPD2    N1 1004   4.034   1.437  10.476 -0.0530 -0.5318  0.0353
   64MPD2    H7 1005   4.123   1.474  10.507  0.7515 -1.6876 -0.9514
   65TMC2    C1 1006   1.011   1.770  15.515 -0.2482  0.5028 -0.0504
   65TMC2    C2 1007   1.020   1.725  15.384  0.2498 -0.0912 -0.6914
   65TMC2    C3 1008   1.024   1.828  15.286  0.7478 -0.0577 -0.4131
   65TMC2    C4 1009   1.014   1.907  15.543  0.0505 -0.3055  0.3765
   65TMC2    C5 1010   1.001   1.995  15.435  0.1154 -0.0907 -0.1041
   65TMC2    C6 1011   1.000   1.957  15.304  0.7612 -0.0237 -0.5542
   65TMC2     C 1012   0.915   1.690  15.594  0.3110 -0.0916 -0.5626
   65TMC2     O 1013   0.879   1.753  15.693  0.5802 -0.2022 -0.0290
   65TMC2     H 1014   1.040   1.624  15.350  0.4722 -0.0086 -0.8101
   65TMC2    H1 1015   1.010   1.939  15.646 -1.2261 -1.2017  0.6064
   65TMC2    H2 1016   1.011   2.035  15.229 -0.0226 -1.1014 -1.7891
   65TMC2    C7 1017   0.967   2.134  15.459 -0.2099 -0.1084 -0.0346
   65TMC2    C8 1018   1.036   1.773  15.152 -1.0685  0.3421 -0.6068
   65TMC2    O1 1019   0.952   2.193  15.355  0.1764  0.3336  0.8007
   65TMC2    O2 1020   1.104   1.675  15.138  0.2848  0.4998  0.2379
   65TMC2    O5 1021   0.993   1.862  15.058  0.2739  0.3793 -0.5317
   65TMC2    H5 1022   0.926   1.921  15.098  0.8714  0.0490  0.9362
   66MPD2     C 1023   0.734   1.508  15.722  0.0969 -0.1525 -0.3981
   66MPD2    C1 1024   0.789   1.482  15.600  0.8470 -0.2448 -0.4203
   66MPD2    C2 1025   0.760   1.361  15.531  0.3387 -0.4830 -0.3897
   66MPD2    C3 1026   0.655   1.281  15.574  0.4871  0.4767 -0.2187
   66MPD2    C4 1027   0.600   1.310  15.693  1.2523  0.0352  0.0667
   66MPD2    C5 1028   0.636   1.424  15.768 -0.1906 -0.4495 -0.5945
   66MPD2     H 1029   0.804   1.339  15.434 -0.1439  0.3491 -0.7992
   66MPD2    H1 1030   0.526   1.242  15.733  0.2773  0.7015 -0.5819
   66MPD2    H2 1031   0.764   1.590  15.787 -1.8594  0.7548 -0.6573
   66MPD2    H3 1032   0.584   1.436  15.863 -1.0390  0.6792 -1.2048
   66MPD2     N 1033   0.614   1.167  15.502  0.9051  0.2053 -0.2550
   66MPD2    H5 1034   0.529   1.121  15.532 -0.3989  1.8612 -1.3850
   66MPD2    N1 1035   0.873   1.573  15.531 -0.3592 -1.3484  0.3606
   66MPD2    H7 1036   0.920   1.541  15.447  0.0557  1.1532 -0.3645
   67TMC2    C1 1037   0.987   1.340  14.311 -0.2066 -0.5171  0.2428
   67TMC2    C2 1038   0.883   1.249  14.327  0.1569 -0.0305 -0.1259
   67TMC2    C3 1039   0.901   1.150  14.420  0.0932 -0.3471  0.6521
   67TMC2    C4 1040   1.093   1.329  14.399 -0.1640  0.5893  0.1057
   67TMC2    C5 1041   1.102   1.229  14.490  0.0677  0.1924  0.5179
   67TMC2    C6 1042   1.008   1.143  14.507 -0.1753  0.1297  0.4289
   67TMC2     C 1043   0.964   1.466  14.242  0.0746 -0.5525 -0.0709
   67TMC2     O 1044   1.024   1.560  14.287 -0.1908  0.6315  0.3677
   67TMC2     H 1045   0.789   1.262  14.275 -0.8373 -0.4392  1.5771
   67TMC2    H1 1046   1.186   1.381  14.379  1.4205 -2.2182  0.1210
   67TMC2    H2 1047   1.012   1.070  14.587 -0.0343 -1.9812 -1.5136
   67TMC2    C7 1048   1.232   1.183  14.543 -0.4844  0.2335  0.8448
   67TMC2    C8 1049   0.804   1.045  14.435  0.0493  1.4437  0.5589
   67TMC2    O1 1050   1.325   1.161  14.472 -0.0892  0.5223  0.4103
   67TMC2    O2 1051   0.686   1.067  14.419  0.7536  0.1515  0.4649
   67TMC2    O5 1052   0.868   0.934  14.413 -0.3785 -0.1210  0.6135
   67TMC2    H5 1053   0.963   0.951  14.393 -0.5432 -3.7755 -3.3775
   68MPD2     C 1054   0.807   1.714  14.181  0.6153 -0.2365 -0.5119
   68MPD2    C1 1055   0.786   1.589  14.117  0.1413  0.5985 -0.9639
   68MPD2    C2 1056   0.691   1.589  14.020  0.9842  0.7757 -0.4405
   68MPD2    C3 1057   0.613   1.702  13.984 -0.3384  0.8189  0.0818
   68MPD2    C4 1058   0.646   1.814  14.058 -0.8103 -0.0535 -0.3406
   68MPD2    C5 1059   0.732   1.820  14.157 -0.5634 -0.7962  0.5942
   68MPD2     H 1060   0.687   1.502  13.956 -0.3983 -0.1341  0.8800
   68MPD2    H1 1061   0.583   1.901  14.047  0.2782  1.0177  1.8560
   68MPD2    H2 1062   0.880   1.722  14.261  1.0919 -0.8987 -0.8716
   68MPD2    H3 1063   0.741   1.915  14.208 -1.8154 -0.3767  0.0390
   68MPD2     N 1064   0.507   1.707  13.887 -0.1359 -0.3487  0.2925
   68MPD2    H5 1065   0.466   1.799  13.880  1.8002  0.5356  0.4361
   68MPD2    N1 1066   0.857   1.471  14.162  0.3395  0.6438 -0.3264
   68MPD2    H7 1067   0.823   1.384  14.121  0.0346  0.3473  0.5598
   69TMC2    C1 1068   3.068   2.219  12.302 -0.4700 -0.1179  0.0955
   69TMC2    C2 1069   2.984   2.328  12.275  0.1110  0.5568 -0.4809
   69TMC2    C3 1070   2.977   2.362  12.140 -0.2589 -1.0735 -0.0822
   69TMC2    C4 1071   3.109   2.143  12.201 -0.0195 -0.0585  0.3103
   69TMC2    C5 1072   3.087   2.177  12.071 -0.1059 -0.9497 -0.4040
   69TMC2    C6 1073   3.021   2.290  12.035 -0.6263 -0.2649 -0.8520
   69TMC2     C 1074   3.069   2.158  12.432 -0.0443 -0.4632  0.5880
   69TMC2     O 1075   2.998   2.215  12.510 -0.3185  0.1182 -0.3098
   69TMC2     H 1076   2.946   2.390  12.356  1.1521  0.4357  0.1074
   69TMC2    H1 1077   3.169   2.055  12.222  1.0741  0.2940 -1.3219
   69TMC2    H2 1078   3.006   2.306  11.929  0.3023 -0.2468 -0.9865
   69TMC2    C7 1079   3.164   2.105  11.975  0.0954 -0.6102  0.4054
   69TMC2    C8 1080   2.872   2.465  12.120  0.3485  0.0475  0.1897
   69TMC2    O1 1081   3.266   2.050  12.024 -0.2939  0.5787  0.6884
   69TMC2    O2 1082   2.843   2.533  12.214 -0.0410 -0.1328 -0.0835
   69TMC2    O5 1083   2.880   2.509  11.991 -0.9933 -0.0889 -0.5501
   69TMC2    H5 1084   2.938   2.470  11.922 -0.0777  1.7093 -0.7989
   70MPD2     C 1085   3.276   1.880  12.562  0.2283 -0.1130  0.5025
   70MPD2    C1 1086   3.175   1.973  12.564 -0.3864 -0.3043 -0.4221
   70MPD2    C2 1087   3.078   1.969  12.662  0.1679 -0.4342 -0.0478
   70MPD2    C3 1088   3.081   1.872  12.763  0.1214  0.4264  0.3654
   70MPD2    C4 1089   3.174   1.781  12.758 -0.1299 -0.2215 -0.1775
   70MPD2    C5 1090   3.267   1.789  12.656  0.7311 -0.5364  0.0848
   70MPD2     H 1091   2.996   2.039  12.650  1.1290  0.5652 -0.6998
   70MPD2    H1 1092   3.186   1.704  12.834 -0.0566 -0.3690 -0.3382
   70MPD2    H2 1093   3.347   1.882  12.480  0.0207  0.8912  0.3454
   70MPD2    H3 1094   3.333   1.702  12.655  0.3325 -0.8399  0.0192
   70MPD2     N 1095   2.994   1.868  12.866  0.4929 -0.0681 -0.6994
   70MPD2    H5 1096   3.012   1.787  12.926  1.9109 -1.4885 -3.0568
   70MPD2    N1 1097   3.168   2.068  12.457 -0.4146  0.2263 -0.2507
   70MPD2    H7 1098   3.243   2.060  12.389  0.7668 -0.3763  1.1290
   71TMC2    C1 1099   1.124   1.999   0.985 -0.0277  0.6095 -0.3096
   71TMC2    C2 1100   1.252   1.960   1.014  0.4965  0.4801  0.2895
   71TMC2    C3 1101   1.275   1.864   1.108 -0.2451 -0.4725 -0.5848
   71TMC2    C4 1102   1.018   1.947   1.050  0.4455 -0.4207  0.0228
   71TMC2    C5 1103   1.045   1.845   1.136  0.0328  0.1753 -0.2550
   71TMC2    C6 1104   1.165   1.801   1.167  0.4434  0.3234  0.1940
   71TMC2     C 1105   1.085   2.080   0.870  0.6395  0.3365 -0.0002
   71TMC2     O 1106   0.972   2.061   0.820 -0.3238  0.8011 -0.4021
   71TMC2     H 1107   1.336   2.005   0.962  0.1689  0.2336 -0.4498
   71TMC2    H1 1108   0.916   1.967   1.019  1.3989  0.9055 -2.2887
   71TMC2    H2 1109   1.173   1.720   1.238 -1.4002  0.4177  0.5105
   71TMC2    C7 1110   0.949   1.744   1.157 -0.2781  0.3983  0.4421
   71TMC2    C8 1111   1.392   1.782   1.069  0.4829 -0.1165 -0.2005
   71TMC2    O1 1112   0.982   1.630   1.166 -0.0719  0.2595  0.1650
   71TMC2    O2 1113   1.425   1.765   0.955 -0.2205  0.3900 -0.5144
   71TMC2    O5 1114   1.480   1.804   1.173 -0.6622 -0.3282 -0.7351
   71TMC2    H5 1115   1.422   1.820   1.251  1.4657 -0.6695  0.9281
   72MPD2     C 1116   1.131   2.516   0.614  0.8159 -0.0942 -0.2734
   72MPD2    C1 1117   1.032   2.424   0.610 -0.1614 -0.1522 -0.4309
   72MPD2    C2 1118   1.055   2.300   0.670 -0.5670  0.7777 -0.1311
   72MPD2    C3 1119   1.172   2.277   0.741  0.7285  0.2795  0.1688
   72MPD2    C4 1120   1.272   2.373   0.740  0.7423  0.1099 -0.2284
   72MPD2    C5 1121   1.249   2.491   0.671  0.4487 -0.6061  0.7156
   72MPD2     H 1122   0.964   2.242   0.675 -0.0328  0.0394  1.1851
   72MPD2    H1 1123   1.362   2.357   0.799  1.1328 -1.4498 -1.2373
   72MPD2    H2 1124   1.130   2.610   0.561  0.9678 -0.5249 -1.0398
   72MPD2    H3 1125   1.324   2.568   0.668 -0.0027 -0.2584 -1.8555
   72MPD2     N 1126   1.182   2.168   0.831 -0.2181  0.4576  0.5634
   72MPD2    H5 1127   1.272   2.155   0.876 -0.4216  0.5325  0.9907
   72MPD2    N1 1128   0.911   2.456   0.539  0.1166 -1.0353  0.2102
   72MPD2    H7 1129   0.897   2.553   0.511  2.8280 -0.9285 -0.7964
   73TMC2    C1 1130   4.691   4.252  13.883 -0.4173 -0.1801 -0.1241
   73TMC2    C2 1131   4.598   4.251  13.986 -0.3641  0.2457  0.3664
   73TMC2    C3 1132   4.652   4.244  14.110  0.3689 -0.1406  0.0648
   73TMC2    C4 1133   0.084   4.209  13.908  0.0508 -0.5781 -0.1019
   73TMC2    C5 1134   0.134   4.192  14.036 -0.1945 -0.2446  0.0312
   73TMC2    C6 1135   0.041   4.210  14.138  0.2758  0.6213  0.0869
   73TMC2     C 1136   4.687   4.358  13.780 -0.3945  0.4278  0.0309
   73TMC2     O 1137   0.059   4.407  13.757  0.0167 -0.2320 -0.1762
   73TMC2     H 1138   4.501   4.295  13.969  0.9984  2.6369 -1.2878
   73TMC2    H1 1139   0.155   4.211  13.826 -0.2271  0.4046 -0.3118
   73TMC2    H2 1140   0.078   4.200  14.239 -0.1238  1.3930  0.3076
   73TMC2    C7 1141   0.258   4.260  14.060  0.6363 -0.6577  0.2127
   73TMC2    C8 1142   4.575   4.288  14.229  0.2206  0.3886  0.4850
   73TMC2    O1 1143   0.327   4.233  14.154  0.6140 -0.1472 -0.1226
   73TMC2    O2 1144   4.583   4.216  14.330 -0.4635 -0.5665 -0.2477
   73TMC2    O5 1145   4.476   4.374  14.197 -0.0397  0.2388  0.2498
   73TMC2    H5 1146   4.487   4.424  14.114  0.0820  0.2807  0.2907
   74MPD2     C 1147   4.469   4.676  13.451  0.7135  0.5588 -0.3317
   74MPD2    C1 1148   4.597   4.670  13.494 -0.3823  0.3122  0.4789
   74MPD2    C2 1149   4.631   4.564  13.578  0.0196 -0.3820 -0.1400
   74MPD2    C3 1150   4.542   4.476  13.626 -0.1499  0.7132  0.2464
   74MPD2    C4 1151   4.412   4.481  13.581  0.6269 -0.5993  0.0691
   74MPD2    C5 1152   4.379   4.583  13.491  0.1512  0.3225 -0.3375
   74MPD2     H 1153   4.733   4.557  13.615  0.5005 -0.8166 -1.5591
   74MPD2    H1 1154   4.342   4.401  13.602 -2.0248  1.5653 -0.5853
   74MPD2    H2 1155   4.434   4.737  13.368  2.8512  2.7709  0.3961
   74MPD2    H3 1156   4.281   4.591  13.445  0.6719 -0.7190 -1.6501
   74MPD2     N 1157   4.567   4.379  13.722  0.2223  0.1284 -0.0620
   74MPD2    H5 1158   4.495   4.316  13.754  0.4954 -0.2910 -0.2715
   74MPD2    N1 1159   4.697   0.028  13.454 -0.0878 -0.1805 -0.1723
   74MPD2    H7 1160   4.687   0.077  13.366  0.8703  1.9902  0.9395
   75TMC2    C1 1161   0.323   1.624  13.761  0.0800 -0.2751 -0.2000
   75TMC2    C2 1162   0.311   1.746  13.701  0.0548 -0.1355  0.1190
   75TMC2    C3 1163   0.223   1.753  13.599  0.2447 -0.3334 -0.4785
   75TMC2    C4 1164   0.259   1.512  13.711  0.1146  0.2251  0.2658
   75TMC2    C5 1165   0.163   1.526  13.613 -1.0892  0.7720 -0.4872
   75TMC2    C6 1166   0.146   1.652  13.555  0.6461 -0.0353  0.4532
   75TMC2     C 1167   0.441   1.597  13.836  0.4146 -0.2603  0.4074
   75TMC2     O 1168   0.476   1.482  13.845  0.2007 -0.1769  0.1871
   75TMC2     H 1169   0.373   1.832  13.725  2.8478 -1.3396 -2.8350
   75TMC2    H1 1170   0.288   1.417  13.753  2.8205 -0.5516 -3.2896
   75TMC2    H2 1171   0.060   1.668  13.492  1.3925  2.3471  0.0292
   75TMC2    C7 1172   0.079   1.409  13.570 -0.1174 -0.8460  0.8060
   75TMC2    C8 1173   0.211   1.888  13.529  0.3322 -0.3510  0.2627
   75TMC2    O1 1174   0.002   1.427  13.472  0.0311  0.7757  0.0819
   75TMC2    O2 1175   0.230   1.991  13.595  0.2206  0.1821 -0.0979
   75TMC2    O5 1176   0.147   1.875  13.409  0.9382 -0.0242 -0.0673
   75TMC2    H5 1177   0.162   1.784  13.376 -0.6836  0.4689 -2.1205
   76TMC2    C1 1178   4.164   1.606  12.447 -0.2214 -0.2660  0.3183
   76TMC2    C2 1179   4.080   1.503  12.464  0.1466  0.4956 -0.0222
   76TMC2    C3 1180   4.082   1.439  12.587  1.0498 -0.5164 -0.5844
   76TMC2    C4 1181   4.244   1.643  12.551  0.1960  0.4945 -0.2435
   76TMC2    C5 1182   4.239   1.580  12.670  0.5898  0.3044  0.2000
   76TMC2    C6 1183   4.155   1.474  12.692 -0.0273  0.4107  0.2047
   76TMC2     C 1184   4.157   1.682  12.323 -0.1199  0.0144  0.2459
   76TMC2     O 1185   4.058   1.665  12.257  0.1418 -0.0577 -0.5052
   76TMC2     H 1186   3.999   1.476  12.397 -0.1562  1.7145 -0.1386
   76TMC2    H1 1187   4.317   1.722  12.546  0.7164  0.0394  0.1610
   76TMC2    H2 1188   4.121   1.451  12.792  1.0238 -0.2325  0.4173
   76TMC2    C7 1189   4.331   1.614  12.771 -0.9945  0.4834 -1.0806
   76TMC2    C8 1190   3.980   1.344  12.608 -0.2505 -0.0701  0.3743
   76TMC2    O1 1191   4.393   1.724  12.758 -0.2305  0.5812 -0.3492
   76TMC2    O2 1192   3.862   1.366  12.592 -0.6156  0.5155 -0.2009
   76TMC2    O5 1193   4.027   1.243  12.690  0.0304  0.5412 -0.0198
   76TMC2    H5 1194   4.122   1.226  12.667 -0.1532 -0.4954 -0.0358
   77MPD2     C 1195   4.299   2.021  11.972 -0.4313 -0.0960  0.4256
   77MPD2    C1 1196   4.182   1.946  11.991 -0.0397 -0.3196  0.4121
   77MPD2    C2 1197   4.169   1.871  12.105  0.3309  0.0953  0.1337
   77MPD2    C3 1198   4.267   1.862  12.202 -0.6862  0.2916  0.3568
   77MPD2    C4 1199   4.387   1.920  12.175 -0.1051 -0.9354 -0.4658
   77MPD2    C5 1200   4.401   1.994  12.058 -0.2852 -0.1423 -0.2637
   77MPD2     H 1201   4.075   1.819  12.122 -0.9175  2.1730 -0.4057
   77MPD2    H1 1202   4.469   1.916  12.246  0.2464  0.5178 -0.8037
   77MPD2    H2 1203   4.316   2.085  11.886  0.2933  0.0669  0.6859
   77MPD2    H3 1204   4.494   2.045  12.039 -0.2284 -0.3033 -0.4185
   77MPD2     N 1205   4.263   1.768  12.310  0.2495 -0.3630  0.2754
   77MPD2    H5 1206   4.339   1.758  12.377  0.6937  2.4742  0.1906
   77MPD2    N1 1207   4.079   1.939  11.890 -0.1444 -0.4090  0.2021
   77MPD2    H7 1208   3.998   1.883  11.914 -1.5142  1.3756 -0.2867
   78TMC2    C1 1209   0.854   1.996   1.434  0.0795  0.4693  0.4409
   78TMC2    C2 1210   0.732   1.943   1.446  1.1013 -0.3236  0.1791
   78TMC2    C3 1211   0.716   1.826   1.509 -0.2781 -0.5146  0.4094
   78TMC2    C4 1212   0.957   1.944   1.508 -0.1646 -0.2983 -0.9378
   78TMC2    C5 1213   0.940   1.831   1.575 -0.0451  0.2124  0.4615
   78TMC2    C6 1214   0.823   1.763   1.572 -0.2586 -0.4413  0.9097
   78TMC2     C 1215   0.874   2.091   1.324  0.3749 -0.0428  0.5592
   78TMC2     O 1216   0.806   2.073   1.222  0.0155  0.1957  0.8683
   78TMC2     H 1217   0.649   1.984   1.388  0.9058 -1.0761 -0.0801
   78TMC2    H1 1218   1.054   1.993   1.500 -1.6060  2.7073  0.1042
   78TMC2    H2 1219   0.803   1.673   1.628  0.7320 -1.6628 -0.6936
   78TMC2    C7 1220   1.051   1.749   1.551 -0.4343 -0.9968  0.0065
   78TMC2    C8 1221   0.579   1.767   1.514  0.0066 -0.2180 -0.6622
   78TMC2    O1 1222   1.116   1.795   1.454  0.8322  0.4570  0.0389
   78TMC2    O2 1223   0.567   1.645   1.537 -0.3880 -0.2489 -0.2911
   78TMC2    O5 1224   0.503   1.859   1.579  0.1720 -0.3400  0.1085
   78TMC2    H5 1225   0.536   1.952   1.580  0.4942 -0.4195 -2.4316
   79MPD1     C 1226   1.099   2.466   1.094  0.4764  0.2130 -0.4023
   79MPD1    C1 1227   0.980   2.402   1.061  0.9403 -0.3009  0.1169
   79MPD1    C2 1228   0.938   2.303   1.152 -0.1429  0.3914 -0.3460
   79MPD1    C3 1229   1.012   2.273   1.267 -0.5304  0.1828  0.6563
   79MPD1    C4 1230   1.130   2.339   1.293  0.1774  0.1852 -0.6327
   79MPD1    C5 1231   1.171   2.438   1.206  0.7619 -0.4940 -0.6185
   79MPD1     H 1232   0.838   2.271   1.125  0.5804 -0.1689 -2.3850
   79MPD1    H1 1233   1.198   2.322   1.375 -0.4136 -1.2204 -0.4421
   79MPD1    H2 1234   1.139   2.552   1.041  1.2024 -0.1099 -0.3772
   79MPD1    H3 1235   1.261   2.494   1.228  0.5662  0.1584 -1.4822
   79MPD1     N 1236   0.978   2.169   1.352 -0.2682  0.6464 -0.4749
   79MPD1    H5 1237   1.019   2.163   1.444 -0.6339 -4.0272 -0.6014
   79MPD1    N1 1238   0.893   2.453   0.964  0.6640 -0.0942  0.1793
   79MPD1    H6 1239   0.823   2.384   0.936 -1.5173  2.4516 -0.7046
   79MPD1    H7 1240   0.950   2.489   0.888  1.3131 -2.2058 -0.3295
   80TMC2    C1 1241   2.531   0.314  11.848 -0.0221  0.7377  0.6632
   80TMC2    C2 1242   2.461   0.204  11.802 -0.1310  0.3748  0.3961
   80TMC2    C3 1243   2.402   0.115  11.889 -0.2579 -0.0085  0.9278
   80TMC2    C4 1244   2.543   0.327  11.984  0.3181 -0.6795 -0.0319
   80TMC2    C5 1245   2.477   0.239  12.068  0.2539  0.4333  0.1499
   80TMC2    C6 1246   2.406   0.130  12.023 -0.0968  0.0750  0.0249
   80TMC2     C 1247   2.567   0.424  11.759  0.7187  0.5528 -0.0763
   80TMC2     O 1248   2.571   0.389  11.640 -0.2549 -0.3470 -0.0247
   80TMC2     H 1249   2.470   0.187  11.695  1.0666  2.4886  0.1704
   80TMC2    H1 1250   2.593   0.410  12.032 -0.1273  0.4607 -1.5304
   80TMC2    H2 1251   2.341   0.067  12.083 -1.6416  1.0500 -0.6180
   80TMC2    C7 1252   2.463   0.270  12.213  0.2782 -0.2093 -0.7004
   80TMC2    C8 1253   2.359   4.730  11.840 -0.0094 -0.6474 -0.2763
   80TMC2    O1 1254   2.524   0.364  12.256  0.1775  0.1637 -0.4100
   80TMC2    O2 1255   2.238   4.709  11.823  0.1358  0.2576 -0.3076
   80TMC2    O5 1256   2.439   4.639  11.895  0.3517 -0.3219 -0.4787
   80TMC2    H5 1257   2.528   4.677  11.909 -0.2468  0.8728  0.1245
   81MPD2     C 1258   2.731   0.637  11.637 -0.6370  0.1285  0.1574
   81MPD2    C1 1259   2.686   0.634  11.770 -0.1371  0.6494  0.0362
   81MPD2    C2 1260   2.739   0.725  11.858  1.2001 -0.3187  0.4318
   81MPD2    C3 1261   2.833   0.816  11.823  0.3792  0.0930  0.2103
   81MPD2    C4 1262   2.883   0.821  11.693  0.3223  0.2250 -0.8681
   81MPD2    C5 1263   2.832   0.733  11.600  0.1336 -0.5329 -0.0928
   81MPD2     H 1264   2.695   0.717  11.957  0.2718 -2.4022 -0.1548
   81MPD2    H1 1265   2.945   0.907  11.666  1.8007 -0.7471 -0.5755
   81MPD2    H2 1266   2.700   0.560  11.567  2.2543 -0.4794 -0.4571
   81MPD2    H3 1267   2.864   0.737  11.496  1.1617  1.6622  0.3161
   81MPD2     N 1268   2.877   0.912  11.917  0.6338 -0.0130  0.4666
   81MPD2    H5 1269   2.934   0.991  11.888 -1.3665  1.3197  0.0999
   81MPD2    N1 1270   2.606   0.537  11.825 -0.1063  0.0112 -0.1841
   81MPD2    H7 1271   2.587   0.544  11.925 -0.0514 -1.1831 -0.0862
   82TMC2    C1 1272   1.485   0.712  11.443  0.9092  0.2758 -0.4602
   82TMC2    C2 1273   1.574   0.797  11.512 -0.1067 -0.6349 -0.0623
   82TMC2    C3 1274   1.541   0.820  11.643  0.2963 -0.2075  0.2274
   82TMC2    C4 1275   1.366   0.673  11.496 -0.0481  0.2901  0.3008
   82TMC2    C5 1276   1.343   0.700  11.633  0.6005 -0.0281  0.6062
   82TMC2    C6 1277   1.426   0.780  11.705  0.0716  0.2367  0.1094
   82TMC2     C 1278   1.478   0.716  11.294  0.1361  0.1063  0.3864
   82TMC2     O 1279   1.399   0.636  11.241  0.4444 -0.2059  0.4566
   82TMC2     H 1280   1.677   0.812  11.481  0.2082 -0.6500  0.9803
   82TMC2    H1 1281   1.299   0.617  11.432 -0.4213 -0.9634  1.7758
   82TMC2    H2 1282   1.409   0.808  11.808 -3.4624  0.3823 -0.4874
   82TMC2    C7 1283   1.211   0.667  11.686 -1.3317 -0.4414 -0.3885
   82TMC2    C8 1284   1.635   0.885  11.730 -0.0574 -0.0375 -0.5059
   82TMC2    O1 1285   1.209   0.629  11.801 -0.0710  0.2137  0.0197
   82TMC2    O2 1286   1.651   0.846  11.846  0.2955 -0.5784 -0.3251
   82TMC2    O5 1287   1.741   0.930  11.657  0.1135 -0.3572  0.2564
   82TMC2    H5 1288   1.721   0.947  11.563  0.6352 -1.5387 -0.0619
   83MPD2     C 1289   1.613   0.854  10.825  0.0530 -0.1101  0.4154
   83MPD2    C1 1290   1.498   0.786  10.872 -0.1858  0.3518  0.2335
   83MPD2    C2 1291   1.483   0.781  11.011  0.0404 -0.3169  0.0011
   83MPD2    C3 1292   1.579   0.816  11.095 -0.2181 -0.1233 -0.5680
   83MPD2    C4 1293   1.684   0.888  11.048  0.0127 -0.5318  0.0224
   83MPD2    C5 1294   1.703   0.902  10.913 -0.9832  0.3236 -0.0146
   83MPD2     H 1295   1.388   0.738  11.041 -0.9108  0.9652 -1.1992
   83MPD2    H1 1296   1.758   0.918  11.122  1.1830 -1.6659 -0.6983
   83MPD2    H2 1297   1.637   0.864  10.720  0.9089 -0.3630  0.5846
   83MPD2    H3 1298   1.798   0.942  10.880  0.1719 -0.1087  2.7641
   83MPD2     N 1299   1.568   0.800  11.233 -0.6177 -0.4973  1.0178
   83MPD2    H5 1300   1.629   0.853  11.295 -0.6168  0.3597  0.2880
   83MPD2    N1 1301   1.398   0.755  10.776 -0.2014  0.5144 -0.3942
   83MPD2    H7 1302   1.422   0.765  10.678  1.3026  2.5970  0.1838
   84TMC2    C1 1303   1.820   0.427  11.338  0.6705 -0.4287  0.5579
   84TMC2    C2 1304   1.695   0.385  11.383 -0.0377 -0.1792 -0.0254
   84TMC2    C3 1305   1.619   0.297  11.302  0.3170 -0.7501 -0.3472
   84TMC2    C4 1306   1.876   0.366  11.229 -0.3003 -0.2454  0.2687
   84TMC2    C5 1307   1.803   0.270  11.170 -0.2849  0.4579 -0.3667
   84TMC2    C6 1308   1.676   0.234  11.202  0.3340 -0.4959  0.2965
   84TMC2     C 1309   1.867   0.550  11.387 -0.4421  0.2099 -0.1213
   84TMC2     O 1310   1.799   0.605  11.469 -0.6429 -0.2383 -0.6463
   84TMC2     H 1311   1.642   0.443  11.458  0.8107 -0.9568  1.1684
   84TMC2    H1 1312   1.976   0.398  11.202 -0.8849 -0.0876 -1.6635
   84TMC2    H2 1313   1.633   0.156  11.141 -2.0249  1.4658 -0.5251
   84TMC2    C7 1314   1.864   0.207  11.054  0.0648 -0.6942 -0.3045
   84TMC2    C8 1315   1.483   0.277  11.340 -0.4575  0.2705  0.1163
   84TMC2    O1 1316   1.822   0.092  11.043 -0.3379 -0.9404  0.1725
   84TMC2    O2 1317   1.434   0.307  11.449 -0.3012  0.3350 -0.4547
   84TMC2    O5 1318   1.413   0.210  11.242  0.2006  0.3301 -0.1482
   84TMC2    H5 1319   1.455   0.209  11.153 -1.9507 -1.9870 -1.1270
   85TMC2    C1 1320   2.594   2.411  15.365 -0.4152 -0.4598  0.5249
   85TMC2    C2 1321   2.546   2.418  15.236  0.5114  0.3631 -0.2791
   85TMC2    C3 1322   2.640   2.442  15.140 -0.3099 -0.6912 -0.1059
   85TMC2    C4 1323   2.724   2.421  15.400  0.4015 -0.2413 -0.1133
   85TMC2    C5 1324   2.809   2.444  15.297 -0.8204 -0.0123  0.3837
   85TMC2    C6 1325   2.771   2.460  15.165 -0.3303 -0.3297  0.0561
   85TMC2     C 1326   2.507   2.389  15.475  0.2182  0.4626  0.4531
   85TMC2     O 1327   2.385   2.417  15.467 -0.0035 -0.1786 -0.6821
   85TMC2     H 1328   2.439   2.418  15.221  0.7168  2.5618 -1.6739
   85TMC2    H1 1329   2.759   2.419  15.502  0.3844 -0.9468 -0.1216
   85TMC2    H2 1330   2.843   2.472  15.086 -1.9440 -0.8093 -1.4804
   85TMC2    C7 1331   2.943   2.468  15.340 -0.5528 -0.3950 -0.1182
   85TMC2    C8 1332   2.581   2.475  15.009  0.2222  0.5135 -0.2041
   85TMC2    O1 1333   2.957   2.527  15.448  0.2966  0.0129 -0.1890
   85TMC2    O2 1334   2.646   2.522  14.919  0.2158  0.3488 -0.6430
   85TMC2    O5 1335   2.496   2.374  14.994 -0.0911 -0.4066  0.4527
   85TMC2    H5 1336   2.506   2.311  15.068 -2.5526 -0.7853  0.4576
   86MPD2     C 1337   2.433   2.225  15.973  0.0730  0.1545 -0.2395
   86MPD2    C1 1338   2.564   2.208  15.934  0.3842  0.1167 -0.0270
   86MPD2    C2 1339   2.597   2.227  15.802 -0.4989 -0.6157  0.2399
   86MPD2    C3 1340   2.513   2.289  15.707 -0.0693 -0.7708  0.5129
   86MPD2    C4 1341   2.386   2.326  15.751  0.2955 -0.1428  0.7402
   86MPD2    C5 1342   2.349   2.285  15.878  0.3219 -0.0365 -0.8918
   86MPD2     H 1343   2.695   2.188  15.780  0.1617  0.6473  0.9259
   86MPD2    H1 1344   2.309   2.376  15.693 -1.2570 -3.1307  0.2407
   86MPD2    H2 1345   2.390   2.187  16.064 -0.6675  2.5871  0.4367
   86MPD2    H3 1346   2.246   2.299  15.910  0.4817  2.0116 -1.2859
   86MPD2     N 1347   2.574   2.321  15.580  0.2798 -0.3378 -0.1997
   86MPD2    H5 1348   2.662   2.274  15.562 -0.0716 -0.1826 -2.2826
   86MPD2    N1 1349   2.665   2.144  16.005 -0.1670  0.2388  0.3025
   86MPD2    H7 1350   2.758   2.134  15.964 -1.7109 -4.1365 -2.1360
   87TMC2    C1 1351   1.290   0.652   0.718  0.3687 -0.6585  0.2166
   87TMC2    C2 1352   1.305   0.542   0.796  0.6136 -0.2681  0.3520
   87TMC2    C3 1353   1.311   0.560   0.926  0.6358 -1.2858  0.6557
   87TMC2    C4 1354   1.280   0.777   0.769 -0.1867 -0.3523 -0.8532
   87TMC2    C5 1355   1.295   0.788   0.905  0.5363  0.1253 -0.8575
   87TMC2    C6 1356   1.315   0.680   0.989  0.3714  0.3320 -0.2359
   87TMC2     C 1357   1.231   0.644   0.587 -0.0979 -0.4846  0.4255
   87TMC2     O 1358   1.171   0.735   0.536 -0.0428 -0.0327 -0.0406
   87TMC2     H 1359   1.296   0.443   0.751 -0.6788 -0.0733  0.1704
   87TMC2    H1 1360   1.265   0.857   0.697 -1.6782 -0.4793 -0.6786
   87TMC2    H2 1361   1.352   0.691   1.090 -0.2936  0.0745  0.0370
   87TMC2    C7 1362   1.255   0.921   0.959  0.6415  0.3078  0.3188
   87TMC2    C8 1363   1.327   0.447   1.013 -0.4343 -0.3993  0.3528
   87TMC2    O1 1364   1.251   1.002   0.871 -0.6668 -0.4140  0.3919
   87TMC2    O2 1365   1.339   0.334   0.969  0.4699 -0.3990 -0.4661
   87TMC2    O5 1366   1.287   0.480   1.136 -0.0537 -0.1755  0.0726
   87TMC2    H5 1367   1.245   0.568   1.146 -2.4160 -1.1084 -1.6976
   88MPD2     C 1368   1.179   1.044   1.306 -0.3151  0.3697  0.5899
   88MPD2    C1 1369   1.190   1.045   1.166  0.7919  0.5758  0.0212
   88MPD2    C2 1370   1.156   1.156   1.096  0.7946  0.4365 -0.1964
   88MPD2    C3 1371   1.119   1.270   1.159 -0.9548  0.3347  0.3668
   88MPD2    C4 1372   1.100   1.267   1.298 -0.0800  0.2012  0.3134
   88MPD2    C5 1373   1.130   1.157   1.372 -0.1776  0.4534  0.2641
   88MPD2     H 1374   1.155   1.153   0.987  0.2801 -1.4783 -0.1309
   88MPD2    H1 1375   1.078   1.362   1.345  1.1102  1.5130 -1.7640
   88MPD2    H2 1376   1.194   0.947   1.351  0.9813  0.7383  0.9614
   88MPD2    H3 1377   1.101   1.143   1.476  0.1625  0.6928  0.3921
   88MPD2     N 1378   1.097   1.389   1.089  0.3517  0.1897 -0.3639
   88MPD2    H5 1379   1.055   1.468   1.137 -0.4673 -0.0573 -0.6729
   88MPD2    N1 1380   1.235   0.927   1.096 -0.0577 -0.0536  0.1247
   88MPD2    H7 1381   1.236   0.841   1.149  3.3807  0.1665  0.3958
   89TMC2    C1 1382   1.945   3.608   1.356 -0.0940  0.2017  0.4333
   89TMC2    C2 1383   2.050   3.677   1.404 -0.1141  0.1957 -1.0223
   89TMC2    C3 1384   2.040   3.812   1.411  0.6871  0.1203 -0.4948
   89TMC2    C4 1385   1.829   3.663   1.298 -0.0043  0.1050 -0.4944
   89TMC2    C5 1386   1.832   3.802   1.291  0.2170 -0.6543  0.2448
   89TMC2    C6 1387   1.932   3.876   1.355  0.0800  0.7632  0.3231
   89TMC2     C 1388   1.972   3.464   1.332 -0.0245  0.5603 -0.2203
   89TMC2     O 1389   2.089   3.437   1.321  0.4339 -0.5777  0.2389
   89TMC2     H 1390   2.133   3.630   1.455 -0.6230 -0.6342 -0.9685
   89TMC2    H1 1391   1.782   3.592   1.231 -0.8556 -0.2804  0.5205
   89TMC2    H2 1392   1.925   3.981   1.381 -1.5554  1.0667 -1.3578
   89TMC2    C7 1393   1.724   3.873   1.218 -1.2004  0.3247 -0.5726
   89TMC2    C8 1394   2.119   3.870   1.517 -0.1054  0.5581 -0.4356
   89TMC2    O1 1395   1.614   3.834   1.212 -0.2694  0.6392 -0.4768
   89TMC2    O2 1396   2.120   3.804   1.620 -0.1859 -0.1421  0.0412
   89TMC2    O5 1397   2.120   4.007   1.501  0.2884  0.0390 -0.5265
   89TMC2    H5 1398   2.103   4.027   1.406  0.0127  1.9292 -0.0811
   90MPD2     C 1399   1.804   3.002   1.193 -0.1256  0.2258 -0.1365
   90MPD2    C1 1400   1.710   3.056   1.280 -0.1819  0.0177  0.2826
   90MPD2    C2 1401   1.737   3.177   1.343 -0.2623 -0.6653 -0.1300
   90MPD2    C3 1402   1.849   3.246   1.303 -0.0029 -0.1088 -0.0740
   90MPD2    C4 1403   1.945   3.192   1.213 -0.8229 -0.1589 -0.9645
   90MPD2    C5 1404   1.917   3.071   1.162 -0.1371  0.6222  0.1834
   90MPD2     H 1405   1.668   3.229   1.408  0.0940  0.2100 -0.4419
   90MPD2    H1 1406   2.017   3.256   1.163  0.0493  0.0010  0.5048
   90MPD2    H2 1407   1.781   2.909   1.143 -3.7170 -0.1794  2.2567
   90MPD2    H3 1408   1.986   3.021   1.095  2.0588  1.5997  1.7357
   90MPD2     N 1409   1.861   3.379   1.342  0.0146  0.0610 -0.4533
   90MPD2    H5 1410   1.782   3.425   1.387  2.4730  0.0717  3.7428
   90MPD2    N1 1411   1.591   2.993   1.314  0.3137  1.1394  0.2888
   90MPD2    H7 1412   1.535   3.048   1.380 -0.4491  0.5381  0.1389
   91TMC2    C1 1413   3.247   3.156  16.328  0.0810 -0.1761 -0.0336
   91TMC2    C2 1414   3.304   3.160  16.204  0.1730  0.2023 -1.0850
   91TMC2    C3 1415   3.219   3.122  16.095 -0.1693  0.5503  0.0375
   91TMC2    C4 1416   3.115   3.115  16.341 -0.6772  0.3577 -0.6381
   91TMC2    C5 1417   3.032   3.086  16.232 -0.2973 -0.3840  0.9138
   91TMC2    C6 1418   3.088   3.089  16.111 -0.5316 -0.2512 -0.3245
   91TMC2     C 1419   3.330   3.157  16.452 -0.6791  1.1037  0.0295
   91TMC2     O 1420   3.276   3.118  16.555 -0.1040 -0.1395  0.1281
   91TMC2     H 1421   3.410   3.172  16.189 -0.0206  1.5405 -1.3998
   91TMC2    H1 1422   3.072   3.107  16.440  2.6586 -0.8788  0.7142
   91TMC2    H2 1423   3.037   3.057  16.020 -1.0924  1.9750 -0.7820
   91TMC2    C7 1424   2.892   3.056  16.252  0.2299 -0.4344  0.4730
   91TMC2    C8 1425   3.257   3.133  15.960 -0.1856 -0.0207  0.6943
   91TMC2    O1 1426   2.858   3.031  16.372 -0.2244  0.7935  0.6518
   91TMC2    O2 1427   3.176   3.147  15.868 -0.2209  0.1153 -0.2455
   91TMC2    O5 1428   3.378   3.076  15.939 -0.0074 -0.4137 -0.1200
   91TMC2    H5 1429   3.420   3.036  16.018 -2.6024 -1.2832  0.8092
   92MPD2     C 1430   3.534   3.193  16.665 -0.0427  0.2782 -0.0868
   92MPD2    C1 1431   3.550   3.229  16.533  0.2044 -0.4862  0.4987
   92MPD2    C2 1432   3.661   3.291  16.493 -0.7892  0.8521 -0.9771
   92MPD2    C3 1433   3.773   3.306  16.574 -0.1761  0.7045  0.4986
   92MPD2    C4 1434   3.757   3.273  16.711  0.1572  0.3546  0.1631
   92MPD2    C5 1435   3.643   3.216  16.750  1.0179  0.0565  0.2164
   92MPD2     H 1436   3.668   3.323  16.390  1.9257  1.9258 -0.4664
   92MPD2    H1 1437   3.836   3.267  16.784  2.8071  1.5033 -2.6192
   92MPD2    H2 1438   3.443   3.146  16.700  1.2126  0.2398  3.1987
   92MPD2    H3 1439   3.636   3.191  16.855 -2.4138 -2.0579 -0.5306
   92MPD2     N 1440   3.893   3.358  16.519 -0.2488 -0.0165 -0.0326
   92MPD2    H5 1441   3.891   3.378  16.420  0.4261  0.5112  0.0579
   92MPD2    N1 1442   3.453   3.211  16.429 -0.0431 -0.2420 -0.0706
   92MPD2    H7 1443   3.470   3.238  16.333  2.9463 -0.7628  0.3058
   93TMC2    C1 1444   0.080   3.442  13.837  0.4445 -0.3500 -0.4362
   93TMC2    C2 1445   4.711   3.532  13.853  0.0628  0.0618  0.7855
   93TMC2    C3 1446   4.730   3.661  13.847 -0.0074  0.0677 -0.4521
   93TMC2    C4 1447   0.209   3.484  13.831 -0.3397  0.5541  0.0598
   93TMC2    C5 1448   0.229   3.618  13.847  0.0843  0.5311 -0.0307
   93TMC2    C6 1449   0.126   3.707  13.861 -0.2028 -0.0591 -0.3953
   93TMC2     C 1450   0.055   3.302  13.856 -0.3590 -0.0191  0.4374
   93TMC2     O 1451   0.142   3.228  13.893 -0.3019 -0.2580 -0.5889
   93TMC2     H 1452   4.607   3.508  13.872  0.4347 -2.3628 -0.2135
   93TMC2    H1 1453   0.297   3.424  13.815 -1.7814 -1.4409 -0.3379
   93TMC2    H2 1454   0.142   3.812  13.882 -0.2693 -0.1929  0.3046
   93TMC2    C7 1455   0.365   3.662  13.844  0.1838  1.0947  0.0084
   93TMC2    C8 1456   4.637   3.732  13.929 -0.1360 -0.1279  0.4718
   93TMC2    O1 1457   0.443   3.586  13.792  0.0932  0.2687  0.0949
   93TMC2    O2 1458   4.574   3.682  14.021  0.6974 -0.1149 -0.5119
   93TMC2    O5 1459   4.618   3.858  13.887 -0.2178 -0.0582 -0.4903
   93TMC2    H5 1460   4.659   3.870  13.799 -0.5779  0.8507 -0.5355
   94MPD2     C 1461   4.661   3.047  13.920  0.6115  0.1228  0.6254
   94MPD2    C1 1462   4.596   3.149  13.859  0.2406 -0.1523  0.5966
   94MPD2    C2 1463   4.456   3.146  13.839  0.4601  0.4552 -1.0810
   94MPD2    C3 1464   4.385   3.035  13.883 -0.0866  0.1994 -0.7647
   94MPD2    C4 1465   4.447   2.935  13.953  0.7468  0.1312 -0.0916
   94MPD2    C5 1466   4.588   2.937  13.958 -0.4824 -0.6107  0.0912
   94MPD2     H 1467   4.408   3.237  13.805  0.9286  1.5312  1.1355
   94MPD2    H1 1468   4.394   2.847  13.989  1.1187  1.3301  3.3420
   94MPD2    H2 1469   0.029   3.042  13.939  0.9195 -0.1849 -1.2034
   94MPD2    H3 1470   4.638   2.861  14.017  2.1900  1.5550  0.6629
   94MPD2     N 1471   4.248   3.016  13.856  0.0282 -0.3183 -0.3128
   94MPD2    H5 1472   4.214   2.924  13.881  1.7351 -0.6997  0.6195
   94MPD2    N1 1473   4.662   3.271  13.829  0.4990  0.2492 -0.2327
   94MPD2    H7 1474   4.603   3.343  13.788  1.1444  0.2217 -1.2059
   95TMC2    C1 1475   4.657   1.635  15.091 -0.1323 -0.1519 -0.1479
   95TMC2    C2 1476   4.518   1.654  15.111 -0.9203 -0.5015 -0.1122
   95TMC2    C3 1477   4.480   1.772  15.170 -0.7897  1.0428 -0.3545
   95TMC2    C4 1478   0.013   1.725  15.125  0.5779  0.0780 -0.7538
   95TMC2    C5 1479   4.704   1.839  15.189 -0.6903  0.7628  0.4094
   95TMC2    C6 1480   4.574   1.863  15.207  0.3112  0.5237  0.5203
   95TMC2     C 1481   4.706   1.497  15.098 -0.3487 -0.3785 -0.0570
   95TMC2     O 1482   0.081   1.479  15.135 -0.4502  0.7239 -0.2718
   95TMC2     H 1483   4.443   1.587  15.070 -1.6025 -1.4317  2.6860
   95TMC2    H1 1484   0.119   1.706  15.124  0.4073 -0.7932 -2.9492
   95TMC2    H2 1485   4.546   1.960  15.247  0.2001  0.9229 -0.5210
   95TMC2    C7 1486   0.061   1.917  15.267  0.6413  0.1089 -0.2463
   95TMC2    C8 1487   4.349   1.822  15.147 -0.0701  0.4750  0.4888
   95TMC2    O1 1488   0.154   1.855  15.311 -0.3229 -0.2017  0.4565
   95TMC2    O2 1489   4.260   1.805  15.226 -0.0502  0.5212  0.2126
   95TMC2    O5 1490   4.381   1.937  15.082 -0.0868  0.4186  0.4425
   95TMC2    H5 1491   4.457   1.930  15.020 -2.4550 -0.7879 -2.3349
   96MPD2     C 1492   4.710   1.002  14.974 -0.2169 -0.0698  0.3722
   96MPD2    C1 1493   0.048   1.072  15.058 -0.1354  0.4816  1.2953
   96MPD2    C2 1494   0.022   1.204  15.081 -0.8094  0.5247  0.3925
   96MPD2    C3 1495   4.654   1.265  15.022  0.6495 -0.5280  0.2037
   96MPD2    C4 1496   4.571   1.193  14.943  0.7922  0.6844 -0.1498
   96MPD2    C5 1497   4.596   1.055  14.917  0.0200  0.2019 -0.2305
   96MPD2     H 1498   0.085   1.268  15.142  1.6228 -1.0084 -0.5074
   96MPD2    H1 1499   4.489   1.248  14.898 -0.7489 -2.0619 -0.7033
   96MPD2    H2 1500   4.735   0.903  14.940  2.4073  1.3963 -1.8649
   96MPD2    H3 1501   4.536   1.003  14.843  1.0350  0.4524 -1.2250
   96MPD2     N 1502   4.620   1.403  15.042 -0.1039 -0.0155  0.1893
   96MPD2    H5 1503   4.530   1.436  15.009 -0.2480 -2.2522 -1.6957
   96MPD2    N1 1504   0.165   1.008  15.108 -0.0723  0.6910 -0.2431
   96MPD2    H7 1505   0.178   0.910  15.087 -1.4304  0.7218 -1.2864
   97TMC2    C1 1506   2.429   3.076  17.243  0.1763 -0.3022 -0.3484
   97TMC2    C2 1507   2.355   3.041  17.131  0.6043 -0.2297  0.5265
   97TMC2    C3 1508   2.349   3.143  17.031 -0.6823 -0.8264 -1.1357
   97TMC2    C4 1509   2.480   3.204  17.273 -1.2202  0.0911 -0.1484
   97TMC2    C5 1510   2.469   3.298  17.169  0.3884 -0.0489  0.1621
   97TMC2    C6 1511   2.414   3.266  17.046  0.0090  0.1836  0.1416
   97TMC2     C 1512   2.443   2.987  17.360 -1.0424 -0.3510 -1.4832
   97TMC2     O 1513   2.454   3.033  17.470  0.3386  0.1582  0.5324
   97TMC2     H 1514   2.304   2.948  17.112 -1.9129  0.8108  2.1707
   97TMC2    H1 1515   2.543   3.221  17.361 -2.0133 -1.7619  0.7684
   97TMC2    H2 1516   2.386   3.339  16.971 -0.7907 -0.2213  0.0400
   97TMC2    C7 1517   2.511   3.435  17.193  0.4574 -0.0393 -0.5830
   97TMC2    C8 1518   2.289   3.099  16.908  0.4135  0.4165  0.5380
   97TMC2    O1 1519   2.592   3.456  17.284  0.3456 -0.1049  0.5591
   97TMC2    O2 1520   2.177   3.047  16.904 -0.5741  0.5356 -0.9942
   97TMC2    O5 1521   2.347   3.169  16.808  0.5479 -0.3743  0.1431
   97TMC2    H5 1522   2.438   3.192  16.836  0.0662  1.7405 -0.0167
   98MPD2     C 1523   2.418   2.518  17.575 -0.1692 -0.2039  0.7787
   98MPD2    C1 1524   2.402   2.643  17.629  0.6995  0.0593 -0.3613
   98MPD2    C2 1525   2.396   2.762  17.547 -0.8667  0.3005  0.0888
   98MPD2    C3 1526   2.431   2.747  17.410 -0.1243  0.1723 -0.7419
   98MPD2    C4 1527   2.451   2.621  17.362  0.0581  0.8979  0.4266
   98MPD2    C5 1528   2.440   2.505  17.443  0.1531  0.0121  0.0966
   98MPD2     H 1529   2.378   2.856  17.597  1.5123 -0.3487  2.1463
   98MPD2    H1 1530   2.469   2.607  17.256 -0.1980 -1.6036  0.7101
   98MPD2    H2 1531   2.424   2.429  17.636  0.0812  0.4099  1.6468
   98MPD2    H3 1532   2.460   2.413  17.389  0.9470 -1.0727  2.2541
   98MPD2     N 1533   2.428   2.862  17.319 -0.1979 -0.4542  0.2963
   98MPD2    H5 1534   2.451   2.858  17.221 -2.0159 -1.9613 -0.0635
   98MPD2    N1 1535   2.380   2.641   0.017 -0.2264  0.2901  0.1052
   98MPD2    H7 1536   2.358   2.552   0.059 -2.1714  0.5161 -0.4099
   99TMC2    C1 1537   1.911   4.357   1.377  0.0629  0.0781 -0.0778
   99TMC2    C2 1538   2.007   4.355   1.475 -0.5625 -0.2717 -0.0688
   99TMC2    C3 1539   1.984   4.275   1.579  0.2765 -0.0714  0.2339
   99TMC2    C4 1540   1.794   4.288   1.383 -0.4069  0.3581  0.6286
   99TMC2    C5 1541   1.770   4.211   1.491 -0.1860  0.2695  1.2341
   99TMC2    C6 1542   1.867   4.198   1.588 -0.6907 -0.4820 -0.5461
   99TMC2     C 1543   1.928   4.464   1.283 -0.4157 -0.3694  0.8224
   99TMC2     O 1544   2.045   4.508   1.264 -0.2653  0.3743  0.6698
   99TMC2     H 1545   2.074   4.441   1.477  0.6324 -1.2092  0.7177
   99TMC2    H1 1546   1.738   4.289   1.290 -0.0078  0.7281  0.3919
   99TMC2    H2 1547   1.858   4.134   1.675  1.6751 -0.6566 -0.4528
   99TMC2    C7 1548   1.671   4.106   1.484  0.5008  0.1826 -0.2110
   99TMC2    C8 1549   2.053   4.289   1.705 -0.8249 -0.0092 -0.0788
   99TMC2    O1 1550   1.699   4.005   1.550 -0.2946  0.4554 -0.4282
   99TMC2    O2 1551   1.998   4.239   1.800  0.4697  0.3051  0.7479
   99TMC2    O5 1552   2.178   4.256   1.675  0.2743  0.4503 -0.1298
   99TMC2    H5 1553   2.211   4.273   1.584  0.3020  0.2071 -0.1648
  100MPD2     C 1554   1.902   4.679   1.085 -0.3747 -0.3521 -1.0599
  100MPD2    C1 1555   1.795   4.608   1.141 -0.2493 -0.1766  0.1894
  100MPD2    C2 1556   1.670   4.630   1.082 -0.0258  0.1899 -0.1582
  100MPD2    C3 1557   1.640   4.723   0.988  0.0958 -0.2232 -0.1126
  100MPD2    C4 1558   1.739   0.067   0.952 -0.5823 -0.0002  0.0805
  100MPD2    C5 1559   1.867   0.042   1.000  0.2336 -0.2787  0.1746
  100MPD2     H 1560   1.585   4.576   1.121 -0.8885  2.7464  1.4421
  100MPD2    H1 1561   1.723   0.146   0.879 -1.6465  1.3704  1.8073
  100MPD2    H2 1562   2.005   4.664   1.115 -1.9545 -1.1804  4.0073
  100MPD2    H3 1563   1.953   0.100   0.967 -1.1952  2.1560  0.7563
  100MPD2     N 1564   1.518   4.717   0.938  0.0079  0.5257 -0.3641
  100MPD2    H5 1565   1.459   4.642   0.972 -0.9733  1.5700  0.2350
  100MPD2    N1 1566   1.805   4.508   1.244 -1.0499 -0.1829  0.2613
  100MPD2    H7 1567   1.720   4.458   1.264  0.0232 -1.9372  0.4589
  101TMC2    C1 1568   2.045   1.419  12.860 -0.0200  0.6270 -0.0367
  101TMC2    C2 1569   1.970   1.521  12.812 -0.1539 -0.0686  0.2895
  101TMC2    C3 1570   2.038   1.614  12.732  0.4204 -0.0246 -0.1685
  101TMC2    C4 1571   2.181   1.415  12.843  0.0796 -0.4748 -0.0277
  101TMC2    C5 1572   2.251   1.520  12.789 -0.3060  0.1374  0.4522
  101TMC2    C6 1573   2.174   1.611  12.724 -0.2230 -0.2729  0.2384
  101TMC2     C 1574   1.971   1.310  12.925 -0.1133  0.2961 -0.0340
  101TMC2     O 1575   1.854   1.332  12.929  0.3879 -0.1250  0.6773
  101TMC2     H 1576   1.862   1.518  12.807 -0.1421  0.3980 -0.2407
  101TMC2    H1 1577   2.236   1.331  12.885  2.1472  1.0078  0.2182
  101TMC2    H2 1578   2.215   1.697  12.673 -0.3072  0.9208  2.1517
  101TMC2    C7 1579   2.390   1.532  12.785  0.0647  0.1740  0.3005
  101TMC2    C8 1580   1.958   1.711  12.663  0.8541  0.3950  0.0634
  101TMC2    O1 1581   2.428   1.603  12.695  0.0811  0.3445  0.3491
  101TMC2    O2 1582   2.023   1.798  12.607  0.6783  0.0409  0.5189
  101TMC2    O5 1583   1.879   1.633  12.589  0.0869 -0.0299 -0.2146
  101TMC2    H5 1584   1.891   1.536  12.603 -1.6120 -0.3312 -0.7951
  102MPD2     C 1585   2.076   0.990  13.058  0.2138 -0.0771 -0.5461
  102MPD2    C1 1586   1.994   1.099  13.044  0.2295 -0.9605 -0.1571
  102MPD2    C2 1587   1.883   1.118  13.126  0.2328 -0.2193  0.9979
  102MPD2    C3 1588   1.857   1.035  13.228 -0.1610 -0.4751 -0.3345
  102MPD2    C4 1589   1.933   0.921  13.244 -0.0265 -0.0268 -0.9999
  102MPD2    C5 1590   2.031   0.893  13.148  0.5003  0.6499 -0.3112
  102MPD2     H 1591   1.828   1.212  13.123 -1.7603 -1.4159  0.1651
  102MPD2    H1 1592   1.928   0.865  13.337  0.1432  2.7522  0.6999
  102MPD2    H2 1593   2.163   0.970  12.995 -1.0484 -1.7524 -1.7794
  102MPD2    H3 1594   2.082   0.797  13.150 -2.5195 -0.9484  0.8480
  102MPD2     N 1595   1.750   1.067  13.310  1.0080  0.0284 -0.1120
  102MPD2    H5 1596   1.711   1.159  13.288 -0.2996 -0.2550  1.0253
  102MPD2    N1 1597   2.040   1.202  12.962 -0.1097 -0.1383  0.6128
  102MPD2    H7 1598   2.130   1.189  12.917 -0.1570  2.8019 -0.3387
  103TMC2    C1 1599   4.427   1.140  13.419 -0.3190 -0.4604 -0.2477
  103TMC2    C2 1600   4.398   1.008  13.397  0.3891 -0.2434  0.4010
  103TMC2    C3 1601   4.373   0.928  13.511  0.3426 -0.2063  0.9125
  103TMC2    C4 1602   4.430   1.196  13.544 -0.0930 -0.2281 -0.3984
  103TMC2    C5 1603   4.422   1.108  13.652  0.1171  0.2524 -0.1013
  103TMC2    C6 1604   4.391   0.976  13.640 -0.5887 -0.2807 -0.4967
  103TMC2     C 1605   4.407   1.224  13.303  0.1830 -0.3342 -0.4283
  103TMC2     O 1606   4.349   1.174  13.206  0.3100 -0.1977  0.1355
  103TMC2     H 1607   4.397   0.963  13.299  1.4872 -0.3330  0.4380
  103TMC2    H1 1608   4.425   1.304  13.558 -0.1663 -0.0498 -1.8156
  103TMC2    H2 1609   4.372   0.915  13.728  3.5485 -1.3442 -0.3072
  103TMC2    C7 1610   4.455   1.154  13.783  0.4052 -0.4791 -0.0499
  103TMC2    C8 1611   4.365   0.784  13.504  0.3301  0.1334  0.0559
  103TMC2    O1 1612   4.438   1.276  13.801 -0.5950 -0.1238 -0.3305
  103TMC2    O2 1613   4.352   0.715  13.602  0.4236 -0.1525  0.2348
  103TMC2    O5 1614   4.299   0.773  13.390 -0.6615 -0.2768  0.1654
  103TMC2    H5 1615   4.282   0.850  13.331  1.5978  1.8994  2.3170
  104MPD2     C 1616   4.546   1.562  13.236  0.5737 -0.6797 -0.2114
  104MPD2    C1 1617   4.471   1.455  13.217 -0.4012 -0.0011 -0.5918
  104MPD2    C2 1618   4.402   1.442  13.097 -0.7045  0.1093  0.2717
  104MPD2    C3 1619   4.402   1.544  13.000  0.0520 -0.6698  0.3330
  104MPD2    C4 1620   4.477   1.662  13.028 -0.4243  0.2247 -0.0718
  104MPD2    C5 1621   4.554   1.662  13.134 -0.5956  0.1461  0.3951
  104MPD2     H 1622   4.362   1.347  13.063  0.7581 -0.6889  0.7675
  104MPD2    H1 1623   4.466   1.747  12.961  2.5390 -0.2254 -1.1544
  104MPD2    H2 1624   4.607   1.574  13.325  1.1094  0.3272 -0.7245
  104MPD2    H3 1625   4.621   1.745  13.150 -0.5842 -0.3432  2.8783
  104MPD2     N 1626   4.338   1.527  12.877  0.6494  0.0154  0.7537
  104MPD2    H5 1627   4.299   1.434  12.865  2.1360 -0.7388  1.7980
  104MPD2    N1 1628   4.476   1.348  13.314 -0.2721 -0.2747  0.5432
  104MPD2    H7 1629   4.542   1.357  13.390  0.4248  2.0989 -0.3302
  105TMC2    C1 1630   0.982   0.767  17.438 -0.5681  0.2435 -0.0764
  105TMC2    C2 1631   0.991   0.897  17.486 -0.2746 -0.7334 -0.6765
  105TMC2    C3 1632   0.957   0.916  17.617  0.4300  0.5525  0.2304
  105TMC2    C4 1633   0.956   0.671  17.529  0.0286 -0.2666  0.2319
  105TMC2    C5 1634   0.930   0.694  17.663  0.2043 -0.3036  0.1337
  105TMC2    C6 1635   0.926   0.822  17.708 -1.2329  0.6523 -0.0004
  105TMC2     C 1636   1.069   0.710  17.335 -0.4502 -0.3029  0.3654
  105TMC2     O 1637   1.086   0.590  17.325  0.2184 -0.2380  0.3966
  105TMC2     H 1638   1.002   0.975  17.411 -2.1370  1.7492  1.6279
  105TMC2    H1 1639   0.948   0.568  17.495  1.3719 -0.0756 -0.6502
  105TMC2    H2 1640   0.886   0.844   0.056 -1.8373  0.0857 -0.1174
  105TMC2    C7 1641   0.957   0.575  17.741 -0.0242  0.5997  0.0998
  105TMC2    C8 1642   0.897   1.044  17.642  0.4498  1.1668  0.4399
  105TMC2    O1 1643   0.951   0.466  17.685  0.1247  0.3154 -0.0999
  105TMC2    O2 1644   0.879   1.127  17.555  0.0565 -0.0073 -0.0914
  105TMC2    O5 1645   0.940   1.082   0.013  0.0726  0.2543 -0.3450
  105TMC2    H5 1646   0.974   1.015   0.076  1.5962 -1.1499 -2.7030
  106MPD2     C 1647   1.538   0.790  17.150 -0.2486 -0.1898 -1.1003
  106MPD2    C1 1648   1.471   0.911  17.155 -0.0574  0.1668  0.0435
  106MPD2    C2 1649   1.344   0.913  17.208 -0.7961  0.8200 -0.4422
  106MPD2    C3 1650   1.275   0.798  17.239 -0.2694 -0.3642 -0.6738
  106MPD2    C4 1651   1.338   0.677  17.225 -0.2136  0.2793 -0.2715
  106MPD2    C5 1652   1.477   0.678  17.202  0.0003  0.3983 -0.7263
  106MPD2     H 1653   1.282   1.002  17.207 -1.4289  0.3825 -0.3938
  106MPD2    H1 1654   1.287   0.583  17.244 -0.1387  0.3081  0.0667
  106MPD2    H2 1655   1.640   0.781  17.114  0.5353 -0.4734  1.1746
  106MPD2    H3 1656   1.520   0.581  17.182 -0.1044 -0.1640  1.8333
  106MPD2     N 1657   1.140   0.810  17.280  0.3295 -0.7811  0.1514
  106MPD2    H5 1658   1.108   0.906  17.283  0.1207 -0.8104 -1.3453
  106MPD2    N1 1659   1.524   1.037  17.103 -0.1149 -0.5019 -0.6469
  106MPD2    H7 1660   1.463   1.117  17.113  1.9582  0.8249  1.5635
  107TMC2    C1 1661   2.017   1.075  12.011 -0.1982 -0.0914 -0.5917
  107TMC2    C2 1662   2.116   1.152  12.072  0.4402  0.3592 -0.9239
  107TMC2    C3 1663   2.196   1.228  11.991  0.2617 -0.6406  0.2241
  107TMC2    C4 1664   2.008   1.063  11.874 -0.5374  0.2798 -0.2652
  107TMC2    C5 1665   2.089   1.142  11.797  0.3256 -0.0054 -0.1791
  107TMC2    C6 1666   2.179   1.225  11.856 -0.0325 -0.2215 -0.0339
  107TMC2     C 1667   1.907   1.038  12.095 -0.2860 -0.5345  0.8623
  107TMC2     O 1668   1.933   1.002  12.210  0.3634  0.3260 -0.3476
  107TMC2     H 1669   2.122   1.154  12.180  0.7370 -2.4770 -0.8861
  107TMC2    H1 1670   1.930   1.014  11.819 -1.0551  0.6180  0.1686
  107TMC2    H2 1671   2.254   1.279  11.800  1.4952 -0.7377  1.4883
  107TMC2    C7 1672   2.119   1.108  11.653 -0.6406  0.2779 -0.0328
  107TMC2    C8 1673   2.272   1.335  12.046  0.5645 -0.4305  0.2399
  107TMC2    O1 1674   2.195   1.180  11.586 -0.4031  0.2306  0.1264
  107TMC2    O2 1675   2.300   1.437  11.987 -0.2657 -0.1981 -0.2910
  107TMC2    O5 1676   2.311   1.284  12.165  0.4276 -0.2375 -0.4818
  107TMC2    H5 1677   2.282   1.193  12.189  0.6844 -1.0194 -3.2348
  108MPD2     C 1678   1.547   1.085  12.022  0.4026 -0.9537  0.0300
  108MPD2    C1 1679   1.655   1.036  12.096 -0.5768 -0.4011  0.4710
  108MPD2    C2 1680   1.629   0.980  12.223  0.0259  0.3264 -0.2827
  108MPD2    C3 1681   1.499   0.956  12.265  0.7367  0.3948  0.1105
  108MPD2    C4 1682   1.396   1.003  12.191 -0.1190  0.5305 -0.1664
  108MPD2    C5 1683   1.416   1.066  12.068  0.1349  0.0525 -0.2949
  108MPD2     H 1684   1.716   0.961  12.284 -0.8596 -3.5158 -0.2228
  108MPD2    H1 1685   1.293   1.006  12.224  0.5769 -0.0723  2.0747
  108MPD2    H2 1686   1.569   1.132  11.926  1.2413  0.1987  0.7920
  108MPD2    H3 1687   1.339   1.119  12.013 -1.2096 -1.9393 -0.2973
  108MPD2     N 1688   1.464   0.873  12.374  0.0491 -0.0769 -0.9228
  108MPD2    H5 1689   1.367   0.881  12.405  0.1990 -0.8231 -0.2719
  108MPD2    N1 1690   1.784   1.057  12.038  0.6479 -0.0209  0.0206
  108MPD2    H7 1691   1.797   1.118  11.959  1.9539  0.0721  0.3069
  109TMC2    C1 1692   1.658   1.813   0.186 -0.7982  0.5053  0.2416
  109TMC2    C2 1693   1.663   1.823   0.050  0.7470 -0.4589 -0.0837
  109TMC2    C3 1694   1.740   1.924  17.745  0.3762 -0.4600 -0.7307
  109TMC2    C4 1695   1.699   1.914   0.269  0.3011 -0.6950  0.4004
  109TMC2    C5 1696   1.772   2.023   0.220  0.6295  0.5803 -0.2960
  109TMC2    C6 1697   1.792   2.020   0.086  0.3778  0.5293 -0.6130
  109TMC2     C 1698   1.556   1.727   0.234  0.2531 -0.1205 -0.6976
  109TMC2     O 1699   1.455   1.698   0.174  0.1364 -0.0783  0.2130
  109TMC2     H 1700   1.616   1.754  17.731 -1.4250 -0.4727  1.4085
  109TMC2    H1 1701   1.659   1.907   0.370  0.4716  2.6923  0.6966
  109TMC2    H2 1702   1.851   2.096   0.034 -0.7425  1.3308 -0.7179
  109TMC2    C7 1703   1.855   2.116   0.300  0.4800 -0.0900 -0.0768
  109TMC2    C8 1704   1.723   1.961  17.603 -0.3068 -0.7452  0.2056
  109TMC2    O1 1705   1.885   2.223   0.250 -0.1223  0.4546  0.1221
  109TMC2    O2 1706   1.817   2.010  17.541  0.8512  0.0534 -0.3259
  109TMC2    O5 1707   1.592   1.967  17.574 -0.1667  0.0061 -0.2162
  109TMC2    H5 1708   1.528   1.946  17.645  1.0366  0.0962  0.9000
  110MPD2     C 1709   1.357   1.413   0.592 -0.1876  0.0405  0.6646
  110MPD2    C1 1710   1.471   1.474   0.646  0.3385  0.0920 -0.5018
  110MPD2    C2 1711   1.545   1.554   0.555  0.9835 -0.4575  0.2105
  110MPD2    C3 1712   1.493   1.593   0.433 -0.0041 -0.2842 -0.7725
  110MPD2    C4 1713   1.379   1.531   0.385 -0.3631 -0.0355  0.7995
  110MPD2    C5 1714   1.316   1.442   0.466  0.1462  0.4612  0.4772
  110MPD2     H 1715   1.622   1.615   0.601 -0.2318  2.4795 -1.6102
  110MPD2    H1 1716   1.331   1.551   0.290  0.4402  0.2513  0.4568
  110MPD2    H2 1717   1.295   1.355   0.659 -0.4267  0.1795  0.5643
  110MPD2    H3 1718   1.221   1.405   0.429  0.4787 -0.4889  0.5743
  110MPD2     N 1719   1.581   1.680   0.363  0.4861  0.2974 -0.9845
  110MPD2    H5 1720   1.662   1.713   0.415 -0.4622 -0.2682  0.8500
  110MPD2    N1 1721   1.505   1.454   0.784 -0.0821  0.3449 -0.5266
  110MPD2    H7 1722   1.439   1.406   0.844  0.3995  2.0010  1.3152
  111TMC2    C1 1723   2.491   2.258  11.509  1.1985 -0.3310  0.3687
  111TMC2    C2 1724   2.565   2.307  11.407 -0.3305  0.0486  0.7597
  111TMC2    C3 1725   2.699   2.295  11.422  0.1267 -0.3590 -0.0370
  111TMC2    C4 1726   2.541   2.225  11.632  0.5903 -0.2507 -0.3883
  111TMC2    C5 1727   2.675   2.221  11.645  0.1937  0.1083 -0.3157
  111TMC2    C6 1728   2.755   2.241  11.541  0.7672 -0.1608  0.4887
  111TMC2     C 1729   2.358   2.213  11.475 -0.1169 -0.5835  0.6926
  111TMC2     O 1730   2.342   2.201  11.354  0.2078  0.0230  0.3699
  111TMC2     H 1731   2.531   2.326  11.306  3.0767  0.6054 -0.2552
  111TMC2    H1 1732   2.471   2.191  11.708  0.1180 -1.4622 -1.3708
  111TMC2    H2 1733   2.863   2.236  11.556  1.0144 -1.0542 -1.6293
  111TMC2    C7 1734   2.733   2.190  11.775 -0.1153 -0.6189 -0.7720
  111TMC2    C8 1735   2.782   2.300  11.306 -0.6228 -0.0690 -0.4714
  111TMC2    O1 1736   2.839   2.128  11.777  0.5728  0.4843 -0.2754
  111TMC2    O2 1737   2.745   2.237  11.212  0.5359 -0.0770 -0.1815
  111TMC2    O5 1738   2.906   2.306  11.356 -0.3154 -0.6845 -0.0263
  111TMC2    H5 1739   2.913   2.360  11.438 -0.5377  1.1884 -1.2399
  112MPD2     C 1740   1.869   2.077  11.576 -0.2837 -0.0227 -1.0711
  112MPD2    C1 1741   1.936   2.085  11.457  0.0178  0.1255 -0.3577
  112MPD2    C2 1742   2.068   2.131  11.456 -0.0020  0.2922 -0.2405
  112MPD2    C3 1743   2.139   2.150  11.572 -0.2587  0.2040  0.0882
  112MPD2    C4 1744   2.069   2.133  11.684  0.0297 -0.3417 -0.1909
  112MPD2    C5 1745   1.940   2.092  11.693  0.5031  0.7954 -0.2561
  112MPD2     H 1746   2.108   2.139  11.356  0.4821 -1.4157 -0.1979
  112MPD2    H1 1747   2.121   2.148  11.778 -2.4980  0.9209  0.9809
  112MPD2    H2 1748   1.766   2.047  11.587 -0.6777  1.3125 -1.0551
  112MPD2    H3 1749   1.892   2.074  11.788 -0.6855  2.2273 -0.5804
  112MPD2     N 1750   2.274   2.185  11.579 -0.8537 -0.2421 -1.0914
  112MPD2    H5 1751   2.309   2.212  11.670  0.5286  2.0227 -2.2865
  112MPD2    N1 1752   1.881   2.064  11.334  0.1650  0.1280  0.0184
  112MPD2    H7 1753   1.931   2.098  11.252 -1.5775  1.5450 -0.4781
  113TMC2    C1 1754   0.098   0.107   0.698  0.4768  0.4902 -0.8466
  113TMC2    C2 1755   0.069   0.233   0.644  1.0452 -0.0318 -0.0484
  113TMC2    C3 1756   4.681   0.248   0.598 -0.5416 -0.4605  0.2928
  113TMC2    C4 1757   4.736   0.011   0.722 -0.7082  0.4599  0.2439
  113TMC2    C5 1758   4.609   0.033   0.686  0.7395 -0.1660  0.3607
  113TMC2    C6 1759   4.581   0.156   0.627  0.2574 -1.2925 -0.4370
  113TMC2     C 1760   0.227   0.080   0.751  0.5771  0.0869  0.4223
  113TMC2     O 1761   0.293   0.179   0.788  0.7988  0.3384  0.2919
  113TMC2     H 1762   0.146   0.306   0.622  2.8109 -1.4272  1.5846
  113TMC2    H1 1763   0.031   4.650   0.748 -0.3310  0.0224 -1.9222
  113TMC2    H2 1764   4.479   0.184   0.603  0.5670  1.0712  0.9917
  113TMC2    C7 1765   4.517   4.668   0.647  0.6485  0.5675 -0.1889
  113TMC2    C8 1766   4.633   0.385   0.618 -0.1950 -0.7492 -0.0726
  113TMC2    O1 1767   4.470   4.673   0.535  0.7040  0.0283 -0.3130
  113TMC2    O2 1768   4.548   0.415   0.701  0.1599 -0.0040 -0.0325
  113TMC2    O5 1769   4.727   0.469   0.579  0.8192 -0.2345  0.3959
  113TMC2    H5 1770   0.046   0.430   0.510  1.4313  2.6696 -0.7279
  114MPD2     C 1771   0.633   4.519   0.849  0.1698  0.2283 -0.0251
  114MPD2    C1 1772   0.605   4.659   0.864 -0.3184 -0.0080  0.0136
  114MPD2    C2 1773   0.485   4.715   0.839 -0.9193  0.5049  0.0334
  114MPD2    C3 1774   0.395   4.637   0.763 -0.3626  0.4831  0.8503
  114MPD2    C4 1775   0.427   4.503   0.738 -0.1360  0.1858  0.8762
  114MPD2    C5 1776   0.537   4.442   0.791 -0.3867  0.2016  0.4441
  114MPD2     H 1777   0.471   0.081   0.867 -0.1131  0.8454 -0.8124
  114MPD2    H1 1778   0.357   4.441   0.684 -0.4652  0.3609  1.1073
  114MPD2    H2 1779   0.725   4.468   0.874  0.0106  0.6700  1.4405
  114MPD2    H3 1780   0.542   4.334   0.790 -1.0669  0.1705  0.7300
  114MPD2     N 1781   0.267   4.692   0.725  0.7191 -0.6572  0.3244
  114MPD2    H5 1782   0.204   4.636   0.668 -0.3165 -0.7294  1.5405
  114MPD2    N1 1783   0.704   0.010   0.916  0.5537  0.1910 -0.2879
  114MPD2    H7 1784   0.682   0.108   0.930 -0.6235 -0.3360  1.5488
  115TMC2    C1 1785   1.021   2.413  17.566 -0.2798 -0.2287 -0.3003
  115TMC2    C2 1786   1.154   2.399  17.590 -0.7453 -0.5626  0.3973
  115TMC2    C3 1787   1.228   2.517  17.589  0.0765 -0.5765 -0.0310
  115TMC2    C4 1788   0.954   2.538  17.550 -0.4620 -0.3788 -0.2949
  115TMC2    C5 1789   1.034   2.649  17.547  0.1637  0.3582 -0.5389
  115TMC2    C6 1790   1.170   2.644  17.584 -0.6523  0.3745 -0.6430
  115TMC2     C 1791   0.951   2.288  17.552  0.0692 -0.0240  1.0869
  115TMC2     O 1792   1.007   2.202  17.488  0.1696  0.1397 -0.8917
  115TMC2     H 1793   1.202   2.305  17.615 -2.1376 -2.2143 -3.1689
  115TMC2    H1 1794   0.851   2.542  17.515 -0.7730 -1.8906  0.4678
  115TMC2    H2 1795   1.233   2.732  17.591 -0.1516 -0.0834  0.7773
  115TMC2    C7 1796   0.959   2.780  17.530  0.3610  0.0877 -0.4639
  115TMC2    C8 1797   1.344   2.518  17.670  0.3367 -0.3544  0.5475
  115TMC2    O1 1798   0.835   2.780  17.539 -0.3967 -0.1117  0.3710
  115TMC2    O2 1799   1.363   2.611   0.002 -0.1389 -0.2611 -0.7377
  115TMC2    O5 1800   1.409   2.401  17.673 -0.0665  0.2284 -0.6006
  115TMC2    H5 1801   1.399   2.346  17.592 -1.4526 -0.7270  0.2220
  116MPD2     C 1802   0.533   2.008  17.598 -0.3209 -0.4043 -0.4465
  116MPD2    C1 1803   0.657   1.984  17.536  0.4824  0.0363 -0.2148
  116MPD2    C2 1804   0.761   2.074  17.569  0.0807  0.4086  0.2315
  116MPD2    C3 1805   0.737   2.197  17.629 -0.7570 -0.7474  0.4315
  116MPD2    C4 1806   0.611   2.218  17.693 -0.6981  0.1174 -0.7156
  116MPD2    C5 1807   0.517   2.121  17.677  0.9002  0.1283 -0.5036
  116MPD2     H 1808   0.858   2.052  17.526  0.4624  0.5719  1.0166
  116MPD2    H1 1809   0.599   2.311  17.746 -0.2104 -0.2656  0.0802
  116MPD2    H2 1810   0.439   1.956  17.581 -0.0039 -1.9459  2.6247
  116MPD2    H3 1811   0.429   2.128  17.741  1.6317  0.2595  0.4936
  116MPD2     N 1812   0.836   2.291  17.628  0.4398  0.3878 -0.4749
  116MPD2    H5 1813   0.824   2.376  17.682 -0.3383 -0.8912  1.3700
  116MPD2    N1 1814   0.664   1.881  17.442 -0.6752 -0.0158 -0.1347
  116MPD2    H7 1815   0.576   1.838  17.415 -1.3664  1.1189  0.2831
  117TMC2    C1 1816   4.187   3.805  13.876 -0.1728 -0.1611 -0.0466
  117TMC2    C2 1817   4.258   3.777  13.768 -0.1124  0.8244 -0.9783
  117TMC2    C3 1818   4.334   3.877  13.706 -1.1815 -0.2028 -0.1839
  117TMC2    C4 1819   4.187   3.936  13.932 -0.0416 -0.2852 -0.4168
  117TMC2    C5 1820   4.266   4.036  13.875 -0.2803  0.0675  0.2790
  117TMC2    C6 1821   4.343   4.006  13.761 -0.3213  0.2140  0.2928
  117TMC2     C 1822   4.080   3.712  13.900 -0.5564 -0.1619 -0.1620
  117TMC2     O 1823   4.103   3.599  13.861 -0.0168  0.1406 -0.0849
  117TMC2     H 1824   4.268   3.677  13.728  1.3987  0.4175  0.4088
  117TMC2    H1 1825   4.136   3.950  14.026 -1.5150 -3.4599 -0.7246
  117TMC2    H2 1826   4.404   4.079  13.709 -2.4175  0.3854 -1.9293
  117TMC2    C7 1827   4.232   4.180  13.880  0.1066  0.2333  0.6463
  117TMC2    C8 1828   4.431   3.827  13.606 -0.3841  0.8490  0.3662
  117TMC2    O1 1829   4.290   4.245  13.798  0.3215  0.3371  0.0538
  117TMC2    O2 1830   4.443   3.711  13.572  0.5341 -0.3082  0.0826
  117TMC2    O5 1831   4.444   3.924  13.516  0.1635  0.0079  0.1820
  117TMC2    H5 1832   4.375   3.994  13.522 -2.3006 -2.2688 -1.6712
  118MPD2     C 1833   3.916   4.351  13.955 -0.1440 -0.5514  0.6855
  118MPD2    C1 1834   4.057   4.343  13.935  0.5180  0.6251  0.6815
  118MPD2    C2 1835   4.123   4.456  13.903 -0.1902  0.5915  0.0231
  118MPD2    C3 1836   4.056   4.579  13.901  0.0171 -0.2136 -0.7111
  118MPD2    C4 1837   3.921   4.581  13.926 -0.2538  0.0147 -0.6151
  118MPD2    C5 1838   3.846   4.472  13.955 -0.5955 -1.2543  1.3384
  118MPD2     H 1839   4.230   4.458  13.887 -0.3353 -1.8179 -1.2264
  118MPD2    H1 1840   3.865   4.672  13.946 -0.3219 -0.1696  0.0414
  118MPD2    H2 1841   3.861   4.262  13.986  1.8341 -1.1991  2.3159
  118MPD2    H3 1842   3.737   4.473  13.963 -0.7588  0.8938 -1.1594
  118MPD2     N 1843   4.120   4.702  13.880  0.0791 -0.3012 -0.1169
  118MPD2    H5 1844   4.060   0.045  13.878 -2.1111 -1.9531 -1.9460
  118MPD2    N1 1845   4.115   4.212  13.948  0.2445 -0.0185 -0.1600
  118MPD2    H7 1846   4.062   4.131  13.978  0.1830  0.2925  0.5499
  119TMC2    C1 1847   2.651   0.896  13.082 -0.2739 -0.1626 -0.1591
  119TMC2    C2 1848   2.650   0.986  12.982 -1.0095 -0.4157  0.0657
  119TMC2    C3 1849   2.576   0.951  12.870 -0.1638  0.4845 -0.1380
  119TMC2    C4 1850   2.576   0.782  13.089  0.0592  0.1039 -0.5737
  119TMC2    C5 1851   2.496   0.755  12.980 -0.3927 -0.2914 -0.0166
  119TMC2    C6 1852   2.494   0.836  12.876 -0.2856 -0.2326 -0.1616
  119TMC2     C 1853   2.685   0.954  13.211 -0.8238 -0.4822 -0.1341
  119TMC2     O 1854   2.751   0.877  13.280 -0.2976 -0.2599  0.3128
  119TMC2     H 1855   2.715   1.073  12.987 -0.4802 -0.7869 -0.3538
  119TMC2    H1 1856   2.571   0.736  13.188 -4.0478  1.1305 -0.3173
  119TMC2    H2 1857   2.438   0.820  12.785 -1.6493 -0.0549  0.6494
  119TMC2    C7 1858   2.387   0.658  12.989 -0.8171 -0.0766 -0.5104
  119TMC2    C8 1859   2.517   1.067  12.821 -0.5908 -0.0189 -0.0985
  119TMC2    O1 1860   2.344   0.607  12.886  0.6803 -0.1424  0.5550
  119TMC2    O2 1861   2.461   1.142  12.903 -0.3827 -0.2395  0.5922
  119TMC2    O5 1862   2.513   1.068  12.685  0.0583 -0.0147  0.4991
  119TMC2    H5 1863   2.550   0.982  12.655 -0.0745 -0.0340  0.3897
  120MPD2     C 1864   2.640   1.311  13.575 -0.1422  0.6734 -0.4230
  120MPD2    C1 1865   2.689   1.182  13.577 -0.2718  0.0917 -0.0768
  120MPD2    C2 1866   2.694   1.109  13.462 -0.1963 -0.6560 -0.1831
  120MPD2    C3 1867   2.649   1.157  13.345 -0.2093  0.5990 -0.0470
  120MPD2    C4 1868   2.603   1.289  13.339  0.4388  0.3015  0.0330
  120MPD2    C5 1869   2.603   1.364  13.457 -0.4758  0.4056  0.2618
  120MPD2     H 1870   2.741   1.012  13.475 -0.5780 -0.7394  0.5960
  120MPD2    H1 1871   2.577   1.336  13.245  0.0640 -1.7289 -0.8872
  120MPD2    H2 1872   2.640   1.367  13.668  1.4045  0.5524 -0.3527
  120MPD2    H3 1873   2.569   1.468  13.457  2.1339  1.2534  1.3311
  120MPD2     N 1874   2.637   1.081  13.233 -0.2174  0.1208  0.1266
  120MPD2    H5 1875   2.560   1.108  13.172  0.2492 -0.7086 -0.8478
  120MPD2    N1 1876   2.729   1.136  13.707  0.5846 -0.2399  0.5853
  120MPD2    H7 1877   2.710   1.198  13.786  1.1456  0.7093 -0.0241
  121TMC2    C1 1878   3.538   2.101  13.553 -0.8301 -0.2238  0.1150
  121TMC2    C2 1879   3.629   2.077  13.650  0.1721  0.5345 -0.2017
  121TMC2    C3 1880   3.581   2.015  13.764  0.5794  0.7822  0.2210
  121TMC2    C4 1881   3.407   2.068  13.574 -0.3103 -0.1204 -0.4328
  121TMC2    C5 1882   3.360   1.994  13.680  0.2269  0.1273  0.4834
  121TMC2    C6 1883   3.450   1.968  13.782 -0.2810 -0.1100  0.5165
  121TMC2     C 1884   3.556   2.208  13.452 -0.1192 -0.1436  0.0189
  121TMC2     O 1885   3.453   2.262  13.415  0.3921  0.2252  0.1416
  121TMC2     H 1886   3.733   2.104  13.643  0.0760  0.5353 -1.5682
  121TMC2    H1 1887   3.333   2.096  13.499 -0.8867 -2.2884 -0.6599
  121TMC2    H2 1888   3.416   1.905  13.864  0.6980 -0.9325  0.2855
  121TMC2    C7 1889   3.219   2.010  13.725 -0.0848  0.1390  0.1283
  121TMC2    C8 1890   3.680   1.999  13.872 -0.6099  0.7328 -0.1301
  121TMC2    O1 1891   3.185   1.944  13.823  0.6692 -0.5021 -0.7068
  121TMC2    O2 1892   3.798   2.025  13.853 -0.2161  0.2765  0.0751
  121TMC2    O5 1893   3.625   1.985  13.995 -0.1955  0.5206  0.0349
  121TMC2    H5 1894   3.527   1.999  13.998 -0.7864 -3.9848  1.0055
  122MPD2     C 1895   3.636   2.476  13.376 -0.0690  0.3480 -0.2539
  122MPD2    C1 1896   3.728   2.371  13.380  0.1053  0.1417 -0.1965
  122MPD2    C2 1897   3.856   2.391  13.334  0.2429 -0.0875 -0.3189
  122MPD2    C3 1898   3.897   2.518  13.290  0.3627  0.5855 -0.0076
  122MPD2    C4 1899   3.809   2.623  13.291 -0.3559 -0.4652  0.5452
  122MPD2    C5 1900   3.685   2.603  13.336  0.4703 -0.0920 -0.1482
  122MPD2     H 1901   3.922   2.305  13.337  0.6327  0.1552 -1.7459
  122MPD2    H1 1902   3.835   2.727  13.274 -0.8639 -0.2974  0.7935
  122MPD2    H2 1903   3.536   2.463  13.417  0.4852  0.0583  1.0050
  122MPD2    H3 1904   3.620   2.689  13.342  0.4699 -0.0299 -1.1246
  122MPD2     N 1905   4.031   2.544  13.254 -0.2066  0.2127 -0.2214
  122MPD2    H5 1906   4.042   2.641  13.229  0.9837  0.7571  2.4877
  122MPD2    N1 1907   3.691   2.240  13.428 -0.1714 -0.6673 -0.0460
  122MPD2    H7 1908   3.760   2.165  13.432 -0.2059 -0.7208 -0.4222
  123TMC2    C1 1909   3.229   0.838  10.121 -0.0578 -0.5617  0.9776
  123TMC2    C2 1910   3.237   0.962  10.070  0.4640  0.0632  0.8199
  123TMC2    C3 1911   3.227   0.977   9.931  0.4001 -0.2074 -0.0176
  123TMC2    C4 1912   3.218   0.724  10.041 -0.8775 -0.3653 -0.0161
  123TMC2    C5 1913   3.220   0.745   9.908 -0.1959  0.2560 -0.4149
  123TMC2    C6 1914   3.228   0.870   9.849  0.1453 -0.4078  0.2943
  123TMC2     C 1915   3.118   0.833  10.216 -0.6300 -1.0200  0.2154
  123TMC2     O 1916   3.115   0.938  10.283 -0.3475 -0.0299  0.2251
  123TMC2     H 1917   3.256   1.054  10.126 -3.4589  1.4621 -0.1615
  123TMC2    H1 1918   3.207   0.624  10.080 -0.9136 -0.2573  0.2496
  123TMC2    H2 1919   3.231   0.878   9.741 -0.5919  1.6207  0.4415
  123TMC2    C7 1920   3.139   0.649   9.833 -0.3827  0.2167 -0.2310
  123TMC2    C8 1921   3.271   1.104   9.870 -0.3998 -0.2941 -0.3576
  123TMC2    O1 1922   3.065   0.578   9.901  0.0256  0.8113 -0.5195
  123TMC2    O2 1923   3.334   1.188   9.935  0.4003 -0.2313 -0.5517
  123TMC2    O5 1924   3.205   1.130   9.753 -0.7404  0.2992 -0.0598
  123TMC2    H5 1925   3.136   1.073   9.712  0.5306 -1.0409 -0.3374
  124MPD2     C 1926   2.632   0.732  10.329 -0.1873  0.6871  0.1851
  124MPD2    C1 1927   2.659   0.672  10.201  0.3864 -0.0140  0.3580
  124MPD2    C2 1928   2.786   0.685  10.154  0.5462 -0.1432  0.4933
  124MPD2    C3 1929   2.880   0.756  10.220  0.0131  0.0208 -0.5834
  124MPD2    C4 1930   2.852   0.809  10.342  0.1391 -0.2343  0.3291
  124MPD2    C5 1931   2.726   0.796  10.395  0.3799 -0.2955  0.4078
  124MPD2     H 1932   2.818   0.637  10.063  1.4634  1.5732 -0.0935
  124MPD2    H1 1933   2.921   0.880  10.385 -0.2688 -0.1868  0.9027
  124MPD2    H2 1934   2.531   0.728  10.369  0.0313 -0.8568  0.5658
  124MPD2    H3 1935   2.706   0.855  10.483  0.7165  0.4221  0.0025
  124MPD2     N 1936   3.008   0.764  10.164 -0.3242 -0.0646 -0.1639
  124MPD2    H5 1937   3.020   0.687  10.098  2.0640 -0.8073  1.1736
  124MPD2    N1 1938   2.548   0.600  10.142 -0.1891 -0.5274 -0.2105
  124MPD2    H7 1939   2.468   0.608  10.203 -0.6883 -2.5275 -0.6099
  125TMC2    C1 1940   2.497   2.884   9.949 -0.4813 -0.0039 -0.1984
  125TMC2    C2 1941   2.490   2.870   9.813 -0.2591 -1.0012 -0.3580
  125TMC2    C3 1942   2.520   2.748   9.752  0.2521 -0.6766 -0.0723
  125TMC2    C4 1943   2.526   2.769  10.027  0.3046  0.2165  0.5892
  125TMC2    C5 1944   2.538   2.646   9.962  0.5059  0.3060  0.3747
  125TMC2    C6 1945   2.547   2.638   9.828 -0.5463 -0.3246  0.7259
  125TMC2     C 1946   2.467   3.018  10.007 -0.1483 -0.2259 -0.1909
  125TMC2     O 1947   2.404   3.108   9.947 -0.1951 -0.0503 -0.4348
  125TMC2     H 1948   2.464   2.958   9.755  1.6663 -0.1760  0.0072
  125TMC2    H1 1949   2.503   2.769  10.133 -0.7851 -1.4040  0.3595
  125TMC2    H2 1950   2.558   2.539   9.783  1.3868  0.1885  0.0462
  125TMC2    C7 1951   2.616   2.544  10.034 -0.5799 -0.2757  0.0857
  125TMC2    C8 1952   2.496   2.732   9.602  0.0686  0.2117  0.3242
  125TMC2    O1 1953   2.587   2.545  10.156 -0.8065  0.0964 -0.0537
  125TMC2    O2 1954   2.479   2.628   9.547 -0.6494 -0.0622 -0.3627
  125TMC2    O5 1955   2.571   2.828   9.543  0.0512 -0.1090  0.0118
  125TMC2    H5 1956   2.595   2.904   9.600  1.9532 -1.2711  0.7424
  126MPD1     C 1957   2.499   3.347  10.412 -0.4465  0.0225 -0.3662
  126MPD1    C1 1958   2.547   3.221  10.445  0.0939 -0.1831 -0.4532
  126MPD1    C2 1959   2.542   3.116  10.356  0.6762  0.1822 -0.0278
  126MPD1    C3 1960   2.505   3.136  10.227 -0.1799  0.1070 -0.5628
  126MPD1    C4 1961   2.461   3.264  10.190  0.6959  0.4810  0.5036
  126MPD1    C5 1962   2.457   3.369  10.283 -0.2764  0.2890  0.1219
  126MPD1     H 1963   2.592   3.024  10.384  2.0118  1.6870  2.5719
  126MPD1    H1 1964   2.415   3.293  10.096  0.1558  1.8387  1.1752
  126MPD1    H2 1965   2.511   3.443  10.462  1.4720  0.6912 -2.1393
  126MPD1    H3 1966   2.428   3.468  10.250  2.3291  0.4223 -1.7302
  126MPD1     N 1967   2.515   3.026  10.134  0.3930  0.5945 -0.1344
  126MPD1    H5 1968   2.563   2.947  10.176 -0.5962  0.8347  1.4637
  126MPD1    N1 1969   2.620   3.208  10.570  0.0575  0.4357  0.2212
  126MPD1    H6 1970   2.629   3.110  10.594  1.4704  0.8185  1.2483
  126MPD1    H7 1971   2.574   3.255  10.648 -1.1864  1.2798 -1.0266
  127TMC2    C1 1972   4.326   1.536   9.891 -0.0795 -0.6167  0.2538
  127TMC2    C2 1973   4.386   1.522  10.016 -0.5435  0.2267 -0.3590
  127TMC2    C3 1974   4.323   1.458  10.121  0.4804  0.0757 -0.1982
  127TMC2    C4 1975   4.194   1.498   9.884 -0.5410  0.1238  0.7466
  127TMC2    C5 1976   4.133   1.438   9.990 -0.3123  0.1698  0.4754
  127TMC2    C6 1977   4.200   1.407  10.108 -0.0621  0.3259  1.5285
  127TMC2     C 1978   4.386   1.628   9.790 -0.1338  0.3620 -0.4992
  127TMC2     O 1979   4.479   1.694   9.825  0.1139  0.6937 -0.2252
  127TMC2     H 1980   4.476   1.581  10.032 -0.1301 -0.3977 -0.3579
  127TMC2    H1 1981   4.132   1.517   9.797  0.4393  0.0348  0.0299
  127TMC2    H2 1982   4.148   1.373  10.198  2.7530 -0.1054  2.9811
  127TMC2    C7 1983   3.989   1.438   9.981 -0.1860  0.1401  0.2016
  127TMC2    C8 1984   4.387   1.437  10.246 -0.3493 -0.1391  0.2497
  127TMC2    O1 1985   3.924   1.515   9.911 -0.3448  0.2377  0.2358
  127TMC2    O2 1986   4.326   1.381  10.337  0.0685  0.8077 -0.0603
  127TMC2    O5 1987   4.507   1.490  10.250  0.1108  0.1493 -0.0441
  127TMC2    H5 1988   4.547   1.496  10.161 -1.0913  2.2750 -0.4299
  128MPD2     C 1989   4.313   1.608   9.438 -0.2749  0.2965  0.0335
  128MPD2    C1 1990   4.371   1.663   9.552  0.9167  0.3605 -0.9518
  128MPD2    C2 1991   4.441   1.778   9.541  0.1691  0.3268  0.4702
  128MPD2    C3 1992   4.440   1.851   9.425 -0.3952  0.2338  0.2096
  128MPD2    C4 1993   4.387   1.792   9.310  0.2115 -0.8539  0.3875
  128MPD2    C5 1994   4.320   1.676   9.322  0.0628 -0.0238 -0.3005
  128MPD2     H 1995   4.497   1.814   9.627  1.6218 -0.9258  0.0466
  128MPD2    H1 1996   4.374   1.837   9.212  1.1807 -1.3930  0.0060
  128MPD2    H2 1997   4.249   1.521   9.448 -0.9879  0.8813  0.5961
  128MPD2    H3 1998   4.278   1.650   9.226  2.6846  1.1313 -1.7686
  128MPD2     N 1999   4.475   1.983   9.437 -0.1375  0.1699  0.1956
  128MPD2    H5 2000   4.508   2.012   9.528 -1.3017 -0.6480  0.8593
  128MPD2    N1 2001   4.338   1.600   9.667  0.7182 -0.1773  0.0858
  128MPD2    H7 2002   4.286   1.514   9.657 -0.7560  0.8708 -1.3582
  129TMC2    C1 2003   4.051   0.701   0.849  0.1860 -0.0695  0.9203
  129TMC2    C2 2004   4.164   0.668   0.915  0.1157 -0.6509 -0.3698
  129TMC2    C3 2005   4.151   0.565   1.002  0.0370  0.3259 -0.0946
  129TMC2    C4 2006   3.928   0.652   0.876 -0.2012  0.1792 -0.4403
  129TMC2    C5 2007   3.921   0.553   0.969 -0.3528  0.8125 -0.6768
  129TMC2    C6 2008   4.033   0.502   1.021  0.2257 -0.0545  0.1747
  129TMC2     C 2009   4.057   0.794   0.738  0.4651  0.7362 -0.4967
  129TMC2     O 2010   3.962   0.782   0.655  0.0912  0.1557 -0.2975
  129TMC2     H 2011   4.265   0.697   0.890  0.1210 -0.3278  0.0338
  129TMC2    H1 2012   3.840   0.693   0.828  0.2867  2.3532  0.5149
  129TMC2    H2 2013   4.032   0.432   1.104  2.1875  0.1965  0.3995
  129TMC2    C7 2014   3.783   0.519   1.012 -0.0757 -0.1180  0.5776
  129TMC2    C8 2015   4.272   0.509   1.059 -0.0172 -1.1090 -0.5608
  129TMC2    O1 2016   3.688   0.597   0.987  1.0703  0.1671 -0.1191
  129TMC2    O2 2017   4.384   0.544   1.033  0.3640 -0.1657  0.1451
  129TMC2    O5 2018   4.251   0.446   1.181 -0.0331  0.5574  0.1308
  129TMC2    H5 2019   4.166   0.459   1.229  1.2815 -1.7726  3.0751
  130MPD2     C 2020   4.112   1.010   0.535  0.1209  0.7201 -0.8915
  130MPD2    C1 2021   4.172   0.998   0.661  0.6087 -0.0367  0.6896
  130MPD2    C2 2022   4.238   1.109   0.705 -0.1194  0.1586  0.5282
  130MPD2    C3 2023   4.259   1.223   0.629 -0.6244 -0.5634 -0.7850
  130MPD2    C4 2024   4.197   1.223   0.504 -0.1213  0.1276  1.0108
  130MPD2    C5 2025   4.123   1.125   0.457  0.1974 -0.2526 -0.1275
  130MPD2     H 2026   4.280   1.099   0.805  0.7076  0.0282  0.1662
  130MPD2    H1 2027   4.207   1.309   0.439  0.6544 -1.7329 -1.3121
  130MPD2    H2 2028   4.039   0.941   0.494  1.4547  0.5337 -2.9344
  130MPD2    H3 2029   4.074   1.135   0.361  1.4286 -0.1859 -0.7473
  130MPD2     N 2030   4.329   1.339   0.685  0.6347  0.2964 -0.3432
  130MPD2    H5 2031   4.354   1.327   0.782  0.4801 -0.0466 -0.3446
  130MPD2    N1 2032   4.144   0.893   0.757 -0.2486 -0.2841  0.0094
  130MPD2    H7 2033   4.191   0.904   0.846  0.9561 -0.8566 -0.5470
  131TMC2    C1 2034   1.988   1.180  10.045  0.6139  0.1506  0.5126
  131TMC2    C2 2035   1.854   1.208  10.017 -0.4363  0.4549 -0.2252
  131TMC2    C3 2036   1.778   1.280  10.111 -0.2936 -0.1314  0.5136
  131TMC2    C4 2037   2.038   1.215  10.170  0.1944 -0.2888  0.2008
  131TMC2    C5 2038   1.961   1.268  10.260 -0.6096  0.2367 -0.2786
  131TMC2    C6 2039   1.825   1.301  10.238 -0.3233  0.2747 -0.0507
  131TMC2     C 2040   2.062   1.081   9.962  0.4562 -0.3095  0.3867
  131TMC2     O 2041   2.170   1.051  10.004 -0.2986 -0.1693  0.1519
  131TMC2     H 2042   1.804   1.184   9.924 -2.2610  1.9007  0.3654
  131TMC2    H1 2043   2.138   1.188  10.203  1.4815  1.2967 -2.3998
  131TMC2    H2 2044   1.770   1.359  10.310 -0.9404 -0.5059  0.0988
  131TMC2    C7 2045   2.022   1.343  10.368  0.3163 -0.9343  0.9856
  131TMC2    C8 2046   1.649   1.329  10.074  0.2449 -0.6546 -0.2359
  131TMC2    O1 2047   1.955   1.360  10.470  0.8001  0.7669  0.2976
  131TMC2    O2 2048   1.589   1.265   9.988 -0.4100 -0.6424 -0.6236
  131TMC2    O5 2049   1.617   1.452  10.127 -0.4414  0.3157 -0.1557
  131TMC2    H5 2050   1.678   1.494  10.191 -0.2820 -2.0273  1.2129
  132MPD2     C 2051   1.922   0.920   9.661 -0.2307 -0.1774  0.4577
  132MPD2    C1 2052   2.005   0.936   9.766  0.4014 -0.5946 -0.0602
  132MPD2    C2 2053   2.086   0.827   9.809 -0.3569 -0.2310 -0.2970
  132MPD2    C3 2054   2.092   0.707   9.738 -0.3938 -0.4726  0.2781
  132MPD2    C4 2055   2.002   0.701   9.629 -0.6281  0.1338  0.3266
  132MPD2    C5 2056   1.923   0.808   9.590  0.5975 -0.4067  0.0212
  132MPD2     H 2057   2.153   0.834   9.895  1.4610 -1.5915 -1.6034
  132MPD2    H1 2058   1.998   0.618   9.560  1.8566  0.3986 -0.1271
  132MPD2    H2 2059   1.852   0.996   9.627  0.7124 -0.2977 -1.7748
  132MPD2    H3 2060   1.858   0.803   9.504  2.5620  3.5707 -1.6900
  132MPD2     N 2061   2.183   0.610   9.788  0.2546 -0.6108  0.5703
  132MPD2    H5 2062   2.245   0.641   9.862 -0.8607 -0.4401  1.4245
  132MPD2    N1 2063   1.994   1.051   9.850 -0.2314  0.6735 -0.2187
  132MPD2    H7 2064   1.938   1.129   9.818 -1.0920 -0.8692 -2.4565
  133TMC2    C1 2065   1.402   2.472   9.493 -0.1944 -0.0216 -0.3177
  133TMC2    C2 2066   1.330   2.544   9.588 -0.7781  0.1087  0.2085
  133TMC2    C3 2067   1.404   2.639   9.654  0.1702  0.0524 -0.3916
  133TMC2    C4 2068   1.532   2.486   9.470 -0.3690  0.0343 -0.4669
  133TMC2    C5 2069   1.595   2.579   9.547  0.7250 -0.3378  0.1740
  133TMC2    C6 2070   1.538   2.666   9.638  0.1057  0.6153  0.7292
  133TMC2     C 2071   1.340   2.381   9.406  0.0835 -0.0292 -0.2771
  133TMC2     O 2072   1.399   2.282   9.374 -0.0511  0.1481 -0.3727
  133TMC2     H 2073   1.224   2.532   9.610 -0.4513 -2.2142  0.4620
  133TMC2    H1 2074   1.591   2.436   9.394  0.1282  1.4463 -1.0204
  133TMC2    H2 2075   1.578   2.742   9.704 -1.6350 -0.6491  3.2709
  133TMC2    C7 2076   1.739   2.600   9.527 -0.6150 -0.5096  0.3680
  133TMC2    C8 2077   1.334   2.733   9.742 -0.0758 -0.7151 -0.1102
  133TMC2    O1 2078   1.802   2.510   9.474 -0.1940  0.1861  0.1219
  133TMC2    O2 2079   1.342   2.856   9.728  0.6933  0.4389  0.2494
  133TMC2    O5 2080   1.246   2.666   9.824 -0.1556 -0.0913  0.2245
  133TMC2    H5 2081   1.250   2.568   9.829  3.1754 -0.0330 -1.1309
  134MPD2     C 2082   0.986   2.409   9.300 -0.6319 -0.3787  0.2421
  134MPD2    C1 2083   1.109   2.342   9.318 -0.6920  0.1867 -0.4402
  134MPD2    C2 2084   1.120   2.204   9.302 -0.1428  0.7988  0.0319
  134MPD2    C3 2085   1.009   2.137   9.262  0.7718  0.5135  0.2442
  134MPD2    C4 2086   0.886   2.203   9.246 -1.0174 -0.5929 -0.1290
  134MPD2    C5 2087   0.877   2.341   9.261  1.0248  0.1495 -0.7127
  134MPD2     H 2088   1.214   2.160   9.332 -1.0329  0.0207  1.6387
  134MPD2    H1 2089   0.797   2.144   9.226 -2.3825  1.0774  1.0942
  134MPD2    H2 2090   0.980   2.516   9.316  2.8177 -0.0636 -0.6119
  134MPD2    H3 2091   0.786   2.400   9.251  1.1917 -0.0110 -3.1123
  134MPD2     N 2092   1.003   1.996   9.242  0.1507  0.6562  0.1714
  134MPD2    H5 2093   0.914   1.958   9.212  0.1824 -0.1594  1.1237
  134MPD2    N1 2094   1.209   2.420   9.378 -0.1411 -0.2482  0.0950
  134MPD2    H7 2095   1.183   2.518   9.389  1.2675  0.2292 -0.9552
  135TMC2    C1 2096   2.267   3.718   9.787 -0.0844  0.3944  0.1647
  135TMC2    C2 2097   2.220   3.837   9.736 -0.2590 -0.1757 -0.2006
  135TMC2    C3 2098   2.103   3.887   9.783 -0.2351  0.1927 -0.3891
  135TMC2    C4 2099   2.207   3.648   9.889  0.1726  0.3412  0.5635
  135TMC2    C5 2100   2.094   3.705   9.940 -0.0331 -0.1117 -0.3058
  135TMC2    C6 2101   2.037   3.818   9.884 -0.1008  0.5305 -0.2598
  135TMC2     C 2102   2.385   3.662   9.736  0.5139  0.2030  0.6030
  135TMC2     O 2103   2.386   3.540   9.740 -0.3262  0.8768 -0.1207
  135TMC2     H 2104   2.274   3.893   9.661 -0.0502  1.5810  1.2741
  135TMC2    H1 2105   2.263   3.574   9.944  1.7314  1.1989  0.1438
  135TMC2    H2 2106   1.952   3.871   9.925 -1.3397 -1.2236 -0.5578
  135TMC2    C7 2107   2.067   3.693  10.078 -0.4574  0.0214  0.3496
  135TMC2    C8 2108   2.069   4.024   9.754  0.2827 -0.2762  0.3747
  135TMC2    O1 2109   1.997   3.781  10.127 -0.0039  0.1553 -0.0999
  135TMC2    O2 2110   2.146   4.118   9.753 -0.4836  0.1584  0.2153
  135TMC2    O5 2111   1.931   4.031   9.760  0.6528  0.6983  0.2486
  135TMC2    H5 2112   1.888   3.944   9.775  2.5161  0.0417  1.7163
  136MPD2     C 2113   2.616   3.608   9.561  0.7093 -0.3427  0.3070
  136MPD2    C1 2114   2.610   3.722   9.641 -0.2264 -0.2750  0.4704
  136MPD2    C2 2115   2.713   3.817   9.635  0.0572 -0.6103  0.2204
  136MPD2    C3 2116   2.819   3.789   9.552  0.6695 -0.4009 -0.8110
  136MPD2    C4 2117   2.830   3.676   9.479  0.4432 -0.0535  0.5100
  136MPD2    C5 2118   2.716   3.593   9.470  0.1639 -0.5369 -0.4087
  136MPD2     H 2119   2.696   3.910   9.690  0.0920 -1.0975  1.0515
  136MPD2    H1 2120   2.917   3.646   9.421  1.9396  2.0774  1.6571
  136MPD2    H2 2121   2.535   3.536   9.558  0.8427 -0.4453 -1.1533
  136MPD2    H3 2122   2.711   3.512   9.398  2.7664 -0.9469 -0.1247
  136MPD2     N 2123   2.937   3.867   9.551  0.0961  0.7060  0.2239
  136MPD2    H5 2124   3.007   3.844   9.481 -0.4039 -3.1696  1.0143
  136MPD2    N1 2125   2.489   3.753   9.714  0.1554 -0.3118 -0.5007
  136MPD2    H7 2126   2.476   3.847   9.750 -0.7450  0.1442 -2.0332
  137TMC2    C1 2127   3.458   2.058   9.996 -0.0367 -0.8138  0.9777
  137TMC2    C2 2128   3.586   2.054   9.946 -0.3610 -0.7340  0.0912
  137TMC2    C3 2129   3.598   2.074   9.813 -0.4015 -0.2879  0.2612
  137TMC2    C4 2130   3.348   2.085   9.915  0.4454  0.0594  0.2083
  137TMC2    C5 2131   3.367   2.105   9.782 -0.2212 -0.4067 -0.0153
  137TMC2    C6 2132   3.493   2.111   9.730  0.2541 -0.0105  0.2392
  137TMC2     C 2133   3.445   2.101  10.132 -0.3311  0.6470 -0.3748
  137TMC2     O 2134   3.343   2.168  10.160 -0.6697 -0.2595  0.9323
  137TMC2     H 2135   3.673   2.025  10.005  0.9979 -0.5872 -1.8305
  137TMC2    H1 2136   3.250   2.105   9.958  0.1522 -0.9852  0.0214
  137TMC2    H2 2137   3.515   2.128   9.625  0.0952 -3.8720 -0.4173
  137TMC2    C7 2138   3.269   2.149   9.689 -0.3927 -0.0525 -0.2686
  137TMC2    C8 2139   3.731   2.103   9.763 -0.1249  0.2858 -0.0456
  137TMC2    O1 2140   3.306   2.195   9.587  0.0839 -0.2026 -0.5771
  137TMC2    O2 2141   3.759   2.208   9.717  0.4243 -0.1292 -0.2180
  137TMC2    O5 2142   3.815   2.027   9.826  0.5439 -0.2034  0.0139
  137TMC2    H5 2143   3.771   1.947   9.861 -1.0489 -0.7363 -3.1828
  138MPD2     C 2144   3.712   2.113  10.395  0.6413  0.7840 -0.0991
  138MPD2    C1 2145   3.587   2.127  10.342  0.4386  0.5083  0.0904
  138MPD2    C2 2146   3.495   2.209  10.411 -0.0257 -0.3865  0.1370
  138MPD2    C3 2147   3.526   2.264  10.536  0.0384 -0.0497  0.3659
  138MPD2    C4 2148   3.642   2.224  10.593 -0.5344 -0.2214 -0.1542
  138MPD2    C5 2149   3.737   2.155  10.525 -0.7200 -0.3199 -0.0703
  138MPD2     H 2150   3.395   2.237  10.380  0.4783  1.6796  0.3682
  138MPD2    H1 2151   3.675   2.252  10.693 -0.8868 -1.5785  0.3421
  138MPD2    H2 2152   3.780   2.039  10.353  0.1670  0.1133  0.3047
  138MPD2    H3 2153   3.829   2.120  10.571  0.4754  0.3529 -1.9773
  138MPD2     N 2154   3.426   2.340  10.594  0.0450  0.3351  0.2328
  138MPD2    H5 2155   3.349   2.356  10.530  0.5931 -1.9782 -1.0287
  138MPD2    N1 2156   3.561   2.074  10.214  0.6237  0.0292  0.1085
  138MPD2    H7 2157   3.638   2.019  10.177 -1.0818 -1.5599 -1.1012
  139TMC2    C1 2158   3.963   0.264  13.542  0.0083 -0.7204 -0.6851
  139TMC2    C2 2159   4.085   0.271  13.483  0.0297 -0.1330  0.1180
  139TMC2    C3 2160   4.142   0.392  13.467 -1.1541  0.9921  0.2760
  139TMC2    C4 2161   3.911   0.381  13.594 -0.0068  0.4285  0.1626
  139TMC2    C5 2162   3.960   0.500  13.557 -0.1434  0.5336  0.0861
  139TMC2    C6 2163   4.078   0.510  13.495 -0.0430  0.8267  0.5570
  139TMC2     C 2164   3.925   0.132  13.593  0.2481  0.4345 -0.0751
  139TMC2     O 2165   3.997   0.042  13.566  0.2100  0.0992  0.2947
  139TMC2     H 2166   4.135   0.181  13.450 -0.6947 -0.1956 -0.8122
  139TMC2    H1 2167   3.813   0.379  13.642  0.0013  2.6922  0.2494
  139TMC2    H2 2168   4.138   0.600  13.505  1.8928 -0.5405  1.3561
  139TMC2    C7 2169   3.901   0.612  13.618  0.0769  0.5111 -0.6874
  139TMC2    C8 2170   4.270   0.394  13.401  0.2727 -0.9768  0.5504
  139TMC2    O1 2171   3.908   0.710  13.549 -0.3314  0.0269  0.3693
  139TMC2    O2 2172   4.343   0.296  13.397 -0.4406 -1.0179  0.2895
  139TMC2    O5 2173   4.257   0.483  13.293  0.8036  0.1861  0.0619
  139TMC2    H5 2174   4.197   0.557  13.317  0.9526  0.1417  0.5629
  140MPD2     C 2175   3.618   0.028  13.760 -0.2484  0.3075  0.0631
  140MPD2    C1 2176   3.729   0.012  13.684  0.0535  0.1024  0.3987
  140MPD2    C2 2177   3.755   4.623  13.633  0.4076  0.9726  1.0764
  140MPD2    C3 2178   3.673   4.522  13.663  0.4596 -0.9895  0.0855
  140MPD2    C4 2179   3.565   4.536  13.742 -0.5011 -0.2829  0.3630
  140MPD2    C5 2180   3.535   4.659  13.782  0.4520  0.3374  0.4752
  140MPD2     H 2181   3.849   4.603  13.584 -0.2668 -1.0877  0.6241
  140MPD2    H1 2182   3.503   4.455  13.779 -2.0311  1.3737  1.4512
  140MPD2    H2 2183   3.593   0.125  13.802 -1.6494 -0.0201 -0.0077
  140MPD2    H3 2184   3.452   4.676  13.850  1.6580  0.6318  1.8891
  140MPD2     N 2185   3.710   4.389  13.634  0.4785 -0.4218  0.1606
  140MPD2    H5 2186   3.804   4.373  13.601 -0.0744  0.3523 -1.7882
  140MPD2    N1 2187   3.806   0.131  13.662  0.3512  0.7206 -0.1238
  140MPD2    H7 2188   3.753   0.211  13.693 -2.4342 -0.9835 -0.4812
  141TMC2    C1 2189   3.825   2.152  14.725  0.2333  0.3527  0.8601
  141TMC2    C2 2190   3.713   2.128  14.801  0.1542  0.4316 -0.1559
  141TMC2    C3 2191   3.614   2.232  14.812 -0.4890  0.6311  0.0578
  141TMC2    C4 2192   3.838   2.271  14.651 -0.0261  0.3343  0.7704
  141TMC2    C5 2193   3.742   2.375  14.669 -0.0681 -0.1836 -0.4277
  141TMC2    C6 2194   3.629   2.355  14.745  0.3137  0.8591  0.4977
  141TMC2     C 2195   3.929   2.050  14.710 -0.5190  0.6287  0.2126
  141TMC2     O 2196   4.015   2.072  14.625 -0.3795 -0.7918  0.3064
  141TMC2     H 2197   3.710   2.031  14.850 -0.1833  2.0813  3.0441
  141TMC2    H1 2198   3.916   2.281  14.577  0.3824 -2.1569  0.8642
  141TMC2    H2 2199   3.558   2.437  14.745 -0.2388  0.3762 -0.1521
  141TMC2    C7 2200   3.763   2.494  14.596  0.6142  0.4099 -0.2431
  141TMC2    C8 2201   3.480   2.209  14.873 -0.4628  1.2634 -0.7217
  141TMC2    O1 2202   3.674   2.561  14.556 -0.6242 -0.0991  0.0393
  141TMC2    O2 2203   3.404   2.301  14.884 -0.1451  0.8969 -0.4920
  141TMC2    O5 2204   3.514   2.127  14.968  0.1216 -0.5394  0.1138
  141TMC2    H5 2205   3.569   2.057  14.926 -0.1369 -0.2450 -0.7201
  142TMC2    C1 2206   2.464   0.114   9.668 -0.0855  0.0036  0.2517
  142TMC2    C2 2207   2.415   0.101   9.545  0.1151  0.1517 -0.7812
  142TMC2    C3 2208   2.486   0.143   9.438  0.3306  0.1153  0.0777
  142TMC2    C4 2209   2.562   0.208   9.690  0.1650  0.3446  0.0047
  142TMC2    C5 2210   2.625   0.260   9.581  0.0911  0.2537 -0.4539
  142TMC2    C6 2211   2.599   0.215   9.457  0.3680  0.0735  0.1263
  142TMC2     C 2212   2.398   0.058   9.778  0.3869  0.6966 -0.6301
  142TMC2     O 2213   2.301   4.724   9.757 -0.1437 -0.5043  0.1775
  142TMC2     H 2214   2.340   0.023   9.541 -0.1077  0.2912  0.5169
  142TMC2    H1 2215   2.584   0.252   9.786  0.1033  2.7930 -1.0894
  142TMC2    H2 2216   2.645   0.267   9.374  0.5186 -0.3321 -0.0423
  142TMC2    C7 2217   2.746   0.334   9.609 -0.2682  0.3315 -0.1900
  142TMC2    C8 2218   2.421   0.104   9.316  0.2619 -0.2264 -0.4192
  142TMC2    O1 2219   2.761   0.365   9.728 -0.8530  0.9401 -0.0893
  142TMC2    O2 2220   2.348   0.004   9.311  0.4177 -0.0648 -0.2314
  142TMC2    O5 2221   2.491   0.155   9.211 -0.1292  0.6086  0.2835
  142TMC2    H5 2222   2.535   0.237   9.242  0.3663 -0.3203  2.0715
  143MPD2     C 2223   2.356   0.019  10.279 -0.4422  0.4750 -0.5182
  143MPD2    C1 2224   2.272   4.708  10.179  0.0734 -0.1172  0.1712
  143MPD2    C2 2225   2.304   4.733  10.048  0.1805  0.0842 -0.2896
  143MPD2    C3 2226   2.428   0.050  10.025 -0.7679 -0.7231  0.6661
  143MPD2    C4 2227   2.510   0.093  10.126  0.2757  0.4944 -0.0508
  143MPD2    C5 2228   2.474   0.070  10.255 -0.4538 -0.0028 -0.0279
  143MPD2     H 2229   2.236   4.713   9.967  0.8162 -1.4348 -0.4477
  143MPD2    H1 2230   2.607   0.139  10.116  1.0009 -0.5519  2.2196
  143MPD2    H2 2231   2.320   0.019  10.382 -1.3086 -1.6716 -0.8124
  143MPD2    H3 2232   2.536   0.098  10.339 -0.2922 -0.8664  0.1399
  143MPD2     N 2233   2.470   0.075   9.897  0.3169  0.5530  0.0952
  143MPD2    H5 2234   2.567   0.102   9.884  0.0805  0.1530 -2.6411
  143MPD2    N1 2235   2.157   4.641  10.225 -0.2869 -0.4011  0.6555
  143MPD2    H7 2236   2.145   4.631  10.326 -1.8061  0.5773  0.5765
  144TMC2    C1 2237   0.297   3.398   0.495  0.0638  0.0041  0.0374
  144TMC2    C2 2238   0.320   3.329   0.385 -0.1165 -0.4213 -0.3601
  144TMC2    C3 2239   0.448   3.283   0.366  0.1198 -0.2262 -0.7206
  144TMC2    C4 2240   0.402   3.451   0.578 -0.2447  0.0583  0.3824
  144TMC2    C5 2241   0.526   3.407   0.545 -1.5646  0.1711 -0.6968
  144TMC2    C6 2242   0.549   3.318   0.446  0.5625  0.0594 -0.0778
  144TMC2     C 2243   0.166   3.462   0.505  0.0542  0.3650 -0.5244
  144TMC2     O 2244   0.098   3.442   0.407  0.1030  0.0626 -0.0193
  144TMC2     H 2245   0.242   3.297   0.317 -0.3733 -0.5412 -0.0088
  144TMC2    H1 2246   0.394   3.521   0.661  4.5607  1.6581 -0.5163
  144TMC2    H2 2247   0.652   3.296   0.422  0.9612  0.8570  0.8915
  144TMC2    C7 2248   0.628   3.432   0.645  0.0473 -0.0549  0.6068
  144TMC2    C8 2249   0.474   3.212   0.240 -0.3975 -0.2903  0.5272
  144TMC2    O1 2250   0.701   3.333   0.661 -0.2632 -0.2028 -0.8678
  144TMC2    O2 2251   0.396   3.203   0.142  0.2253  0.5060 -0.2677
  144TMC2    O5 2252   0.561   3.114   0.268  0.0536 -0.7750 -0.0393
  144TMC2    H5 2253   0.586   3.112   0.362 -2.3879 -1.0882  0.6009
  145MPD2     C 2254   4.552   3.766   0.707 -0.1212 -0.8585  0.0275
  145MPD2    C1 2255   4.561   3.707   0.583  0.4032  0.3871  0.3523
  145MPD2    C2 2256   4.670   3.630   0.544  0.4108 -0.1081 -0.1211
  145MPD2    C3 2257   0.023   3.604   0.643 -0.0305 -0.0022  0.1899
  145MPD2    C4 2258   4.734   3.637   0.775  0.2746  0.1195  0.1195
  145MPD2    C5 2259   4.634   3.721   0.809 -0.1388  0.7580  0.6104
  145MPD2     H 2260   4.676   3.596   0.441  1.0505  0.6649 -0.3326
  145MPD2    H1 2261   0.069   3.612   0.850  1.6295  0.8367 -0.9561
  145MPD2    H2 2262   4.474   3.834   0.737 -0.7524 -2.1537  1.3625
  145MPD2    H3 2263   4.615   3.749   0.912  1.4136 -2.4002  1.7586
  145MPD2     N 2264   0.134   3.523   0.621  0.1646 -0.2424 -0.2249
  145MPD2    H5 2265   0.186   3.504   0.706 -0.8183 -0.7964  0.2541
  145MPD2    N1 2266   4.463   3.738   0.488 -0.3558  0.2167  0.3091
  145MPD2    H7 2267   4.470   3.704   0.393 -1.0730 -0.3558  0.4708
  146TMC2    C1 2268   1.040   3.248  12.606  0.0700  0.7667 -0.5618
  146TMC2    C2 2269   0.954   3.333  12.538 -0.6786 -0.1427  0.6428
  146TMC2    C3 2270   0.908   3.296  12.417 -0.5532  0.1901 -0.2386
  146TMC2    C4 2271   1.098   3.146  12.538 -0.0932 -0.5192  0.3898
  146TMC2    C5 2272   1.042   3.109  12.417 -1.0583  0.1665 -0.7987
  146TMC2    C6 2273   0.953   3.184  12.348 -0.5523  0.2992  0.1254
  146TMC2     C 2274   1.090   3.304  12.732 -0.6373 -0.0843  0.1665
  146TMC2     O 2275   1.055   3.410  12.773 -0.1492 -0.1932 -0.2578
  146TMC2     H 2276   0.918   3.422  12.589 -0.8248  0.0802  0.1492
  146TMC2    H1 2277   1.175   3.078  12.574  0.4726 -0.5335 -0.8387
  146TMC2    H2 2278   0.925   3.155  12.247 -2.8844  0.2085  0.8064
  146TMC2    C7 2279   1.098   2.999  12.344  0.0123 -0.5393  0.1708
  146TMC2    C8 2280   0.851   3.392  12.325 -0.6883  0.0449 -0.1370
  146TMC2    O1 2281   1.102   3.007  12.221 -0.0699  0.0906  0.2673
  146TMC2    O2 2282   0.770   3.354  12.241 -0.1254  0.1738  0.2555
  146TMC2    O5 2283   0.935   3.502  12.317  0.2263  0.5383 -0.2053
  146TMC2    H5 2284   0.996   3.517  12.392 -0.3344  0.5765  0.2391
  147MPD2     C 2285   1.301   2.526  12.288 -0.0246  0.0530 -0.9081
  147MPD2    C1 2286   1.339   2.574  12.411  0.8113  0.7305  0.3511
  147MPD2    C2 2287   1.284   2.694  12.451 -0.4623  0.2861 -0.2326
  147MPD2    C3 2288   1.210   2.778  12.370  0.0013  0.3045  0.3895
  147MPD2    C4 2289   1.177   2.726  12.249  0.6801  0.5100 -0.1401
  147MPD2    C5 2290   1.226   2.605  12.208 -0.1809  0.2612 -0.5679
  147MPD2     H 2291   1.301   2.735  12.549 -1.3154  2.7879 -1.1541
  147MPD2    H1 2292   1.108   2.780  12.185  0.0987 -0.4433 -0.3210
  147MPD2    H2 2293   1.343   2.433  12.251  1.9384  1.1019 -1.3553
  147MPD2    H3 2294   1.203   2.571  12.108  0.8929 -3.8507  0.5447
  147MPD2     N 2295   1.152   2.898  12.426  0.3085 -0.6877 -0.3598
  147MPD2    H5 2296   1.145   2.915  12.525 -1.0131  0.0403 -0.5727
  147MPD2    N1 2297   1.431   2.499  12.486  0.2503 -0.5668  0.0534
  147MPD2    H7 2298   1.474   2.424  12.432 -0.6131 -1.5168  0.6895
  148TMC2    C1 2299   1.821   1.441  10.816 -0.3320 -0.3537  0.5906
  148TMC2    C2 2300   1.890   1.535  10.892 -0.6055 -0.0537 -0.5414
  148TMC2    C3 2301   2.015   1.496  10.935  0.2416 -1.5508 -0.6007
  148TMC2    C4 2302   1.860   1.309  10.797 -1.0453 -0.0194 -0.9487
  148TMC2    C5 2303   1.991   1.287  10.826 -0.2700 -0.4129  1.3144
  148TMC2    C6 2304   2.070   1.374  10.900 -0.3353  0.1902 -0.0005
  148TMC2     C 2305   1.693   1.485  10.754  0.1013  0.3749 -0.0290
  148TMC2     O 2306   1.646   1.585  10.791  0.3144 -0.0390 -0.4777
  148TMC2     H 2307   1.848   1.634  10.902  0.3042  0.4950 -2.2444
  148TMC2    H1 2308   1.801   1.236  10.744 -0.2844 -1.9748  0.8956
  148TMC2    H2 2309   2.162   1.329  10.935  0.7307 -0.2406 -3.3480
  148TMC2    C7 2310   2.049   1.171  10.747 -0.1034  0.1224  0.1903
  148TMC2    C8 2311   2.087   1.591  11.026  0.2881 -0.4132 -0.1313
  148TMC2    O1 2312   1.965   1.099  10.702  0.4050 -0.7136 -0.6427
  148TMC2    O2 2313   2.211   1.581  11.034  0.1947  0.1205  0.0840
  148TMC2    O5 2314   2.006   1.695  11.074 -0.2982 -0.0880 -0.3540
  148TMC2    H5 2315   1.912   1.666  11.082 -0.5103  1.1482  1.4712
  149MPD2     C 2316   1.477   1.543  10.554  0.6096  0.4983 -0.1095
  149MPD2    C1 2317   1.559   1.431  10.549  0.1864 -0.5051 -0.6275
  149MPD2    C2 2318   1.532   1.341  10.452 -0.0589  0.7455 -0.0054
  149MPD2    C3 2319   1.424   1.355  10.365  0.0182  1.0034 -0.3020
  149MPD2    C4 2320   1.351   1.475  10.365 -0.1154  0.3682  1.0913
  149MPD2    C5 2321   1.376   1.565  10.469  0.7755  0.7566 -0.5721
  149MPD2     H 2322   1.590   1.249  10.449 -1.3312 -0.0443 -0.4790
  149MPD2    H1 2323   1.271   1.500  10.297 -0.5343 -0.2059  1.3779
  149MPD2    H2 2324   1.491   1.620  10.630  0.1146 -1.6708  2.1689
  149MPD2    H3 2325   1.325   1.661  10.465 -0.0435  0.3694  0.8427
  149MPD2     N 2326   1.382   1.252  10.274  0.0447  0.2675  0.1785
  149MPD2    H5 2327   1.300   1.278  10.220  0.1979 -2.1008 -1.2089
  149MPD2    N1 2328   1.667   1.410  10.642  1.1461  0.0752  0.7349
  149MPD2    H7 2329   1.731   1.334  10.619  0.2827 -0.2461 -0.6460
  150TMC2    C1 2330   3.658   0.933  12.430  0.1481 -0.5864 -0.1552
  150TMC2    C2 2331   3.639   1.004  12.315  0.1026  0.0844  0.0018
  150TMC2    C3 2332   3.735   1.085  12.264  1.2073  0.3658 -0.1468
  150TMC2    C4 2333   3.773   0.955  12.507  0.2087  0.3382  0.1336
  150TMC2    C5 2334   3.876   1.016  12.443  0.1591 -0.0836  0.4859
  150TMC2    C6 2335   3.863   1.088  12.323 -0.1695 -0.0793  0.0266
  150TMC2     C 2336   3.545   0.886  12.499 -0.5181  0.3351  0.7231
  150TMC2     O 2337   3.556   0.852  12.618 -0.1512  0.3924  0.6555
  150TMC2     H 2338   3.545   1.002  12.262 -0.1362 -3.3236  0.5943
  150TMC2    H1 2339   3.793   0.890  12.591  3.7264  2.1116  0.7017
  150TMC2    H2 2340   3.941   1.142  12.271  1.5826 -0.6100  2.0850
  150TMC2    C7 2341   4.011   0.988  12.480  0.2263 -0.2301 -0.0420
  150TMC2    C8 2342   3.717   1.128  12.128  1.3406  0.3809 -0.7525
  150TMC2    O1 2343   4.090   1.065  12.426 -0.1048  0.4658 -0.4724
  150TMC2    O2 2344   3.659   1.065  12.036 -0.2979 -0.3880  0.1111
  150TMC2    O5 2345   3.770   1.249  12.117 -0.6319 -0.5264 -1.0706
  150TMC2    H5 2346   3.788   1.280  12.208  2.2303  0.5995 -2.0251
  151MPD2     C 2347   3.096   0.634  12.468 -0.3593 -0.4567 -0.2061
  151MPD2    C1 2348   3.147   0.644  12.341  0.1401 -0.0824  0.1676
  151MPD2    C2 2349   3.270   0.714  12.324 -0.2743 -0.3385  0.3580
  151MPD2    C3 2350   3.334   0.763  12.433  0.8706 -0.2489 -0.1718
  151MPD2    C4 2351   3.279   0.750  12.558 -0.3952  0.2612  0.3609
  151MPD2    C5 2352   3.164   0.680  12.581 -0.4192 -0.0118 -0.3460
  151MPD2     H 2353   3.311   0.719  12.224 -0.8460  1.0694  0.1952
  151MPD2    H1 2354   3.334   0.786  12.643  0.8358 -0.2968 -0.2041
  151MPD2    H2 2355   3.002   0.582  12.474 -0.3255 -0.4091  0.6984
  151MPD2    H3 2356   3.117   0.676  12.678  0.2213 -0.4482 -0.0536
  151MPD2     N 2357   3.457   0.840  12.406  0.4523 -0.2276 -0.5376
  151MPD2    H5 2358   3.489   0.845  12.309  1.4304  0.2214 -0.1887
  151MPD2    N1 2359   3.072   0.588  12.232 -0.1384  0.0109  0.5024
  151MPD2    H7 2360   2.991   0.530  12.253 -1.4631  1.0349 -1.7511
  152TMC2    C1 2361   3.590   0.204  12.945 -0.6962  0.1073 -0.1145
  152TMC2    C2 2362   3.632   0.121  12.850  0.1896  0.9732  0.7870
  152TMC2    C3 2363   3.725   0.170  12.763 -0.1526 -0.1031  0.3109
  152TMC2    C4 2364   3.641   0.328  12.958  0.2435 -0.7889  0.0151
  152TMC2    C5 2365   3.740   0.365  12.876  0.4100 -0.1794  0.2454
  152TMC2    C6 2366   3.783   0.291  12.771 -0.0391 -0.9027  0.3307
  152TMC2     C 2367   3.453   0.188  12.988 -0.4376 -0.0877 -0.2347
  152TMC2     O 2368   3.397   0.304  12.992 -0.0082 -0.1640  0.3947
  152TMC2     H 2369   3.584   0.026  12.829 -0.0198  2.0017 -3.3797
  152TMC2    H1 2370   3.611   0.393  13.039 -0.9885 -1.0190 -0.2598
  152TMC2    H2 2371   3.863   0.329  12.707 -1.6362 -0.6187 -1.5121
  152TMC2    C7 2372   3.746   0.510  12.865 -0.6821 -0.2116  0.0964
  152TMC2    C8 2373   3.769   0.096  12.646  0.1023 -1.1908  0.2583
  152TMC2    O1 2374   3.646   0.574  12.901  0.0680  0.2999  0.3102
  152TMC2    O2 2375   3.846   0.145  12.564  0.1960  0.6508 -0.2313
  152TMC2    O5 2376   3.696   4.723  12.632 -0.5076  0.3172 -0.2774
  152TMC2    H5 2377   3.601   4.736  12.652 -0.2972 -0.3733  1.1597
  153MPD2     C 2378   3.293   4.618  13.119  0.7398  0.0976  0.4007
  153MPD2    C1 2379   3.304   0.017  13.074 -0.4006 -0.6531 -0.0280
  153MPD2    C2 2380   3.190   0.095  13.058 -0.1938 -0.8832 -0.1675
  153MPD2    C3 2381   3.065   0.051  13.101  0.3364 -0.4018 -0.1141
  153MPD2    C4 2382   3.060   4.662  13.158 -0.3611 -0.0705  0.3366
  153MPD2    C5 2383   3.170   4.577  13.155 -0.1952  0.1099  0.5327
  153MPD2     H 2384   3.190   0.189  13.004 -1.3628 -0.1124  1.1583
  153MPD2    H1 2385   2.967   4.612  13.183 -0.0871 -0.0215  1.4581
  153MPD2    H2 2386   3.372   4.545  13.129 -0.4808 -1.2076  0.5672
  153MPD2    H3 2387   3.152   4.475  13.185 -1.6237 -0.1899 -1.3333
  153MPD2     N 2388   2.957   0.135  13.087 -0.5550 -0.5576  0.2401
  153MPD2    H5 2389   2.981   0.215  13.030  0.4260 -0.2391  1.0805
  153MPD2    N1 2390   3.432   0.062  13.035 -0.7655  0.0990 -0.3367
  153MPD2    H7 2391   3.512   4.737  13.035 -0.2902  0.7005  0.2153
  154TMC2    C1 2392   0.654   0.254   0.105  0.1108  0.0797 -0.1653
  154TMC2    C2 2393   0.780   0.236   0.163 -0.3063 -0.7921  0.0960
  154TMC2    C3 2394   0.828   0.109   0.155 -0.1833 -0.0943 -0.2568
  154TMC2    C4 2395   0.577   0.146   0.054 -0.3958  0.2082  0.0728
  154TMC2    C5 2396   0.630   0.022   0.059  0.1459 -0.2979  0.1816
  154TMC2    C6 2397   0.752   0.002   0.113 -0.1912  0.0116 -0.3670
  154TMC2     C 2398   0.598   0.384   0.118  0.2333 -0.6584 -0.3268
  154TMC2     O 2399   0.649   0.453   0.206  0.2273  0.5926  1.0281
  154TMC2     H 2400   0.836   0.318   0.208 -2.4628  1.1757 -0.8056
  154TMC2    H1 2401   0.469   0.154   0.055 -0.5127 -1.2285 -0.6103
  154TMC2    H2 2402   0.791   4.639   0.111 -1.6941 -0.5983  0.5492
  154TMC2    C7 2403   0.561   4.644   0.025  0.6308 -0.1207 -0.6268
  154TMC2    C8 2404   0.954   0.084   0.228  0.9560 -0.8496  0.2741
  154TMC2    O1 2405   0.619   4.533   0.041  0.2543 -0.2304  0.1359
  154TMC2    O2 2406   0.984   0.137   0.336  0.0223  0.6637 -0.1086
  154TMC2    O5 2407   1.023   4.729   0.154  0.5713 -0.3321  0.4336
  154TMC2    H5 2408   0.989   4.710   0.064  0.1559 -1.0657  0.7510
  155MPD2     C 2409   0.269   0.489  17.741  0.1910 -0.1145 -0.1694
  155MPD2    C1 2410   0.372   0.481   0.081 -0.3007 -0.4508 -0.5446
  155MPD2    C2 2411   0.363   0.552   0.199  0.9073 -0.6073 -0.3665
  155MPD2    C3 2412   0.254   0.629   0.230 -1.1630 -0.9452 -0.6588
  155MPD2    C4 2413   0.151   0.629   0.144  0.1689  0.2779  0.0476
  155MPD2    C5 2414   0.160   0.567   0.019  0.1632  0.5216  0.3822
  155MPD2     H 2415   0.443   0.545   0.272 -0.5809  0.1669  1.3690
  155MPD2    H1 2416   0.069   0.698   0.158  0.0681 -0.0587  1.1564
  155MPD2    H2 2417   0.263   0.425  17.654  2.7820  0.3636 -0.7049
  155MPD2    H3 2418   0.078   0.566  17.698  1.6967 -2.2882 -1.3733
  155MPD2     N 2419   0.246   0.692   0.357 -0.0689  0.1529 -0.3176
  155MPD2    H5 2420   0.325   0.674   0.418 -0.4086  0.0688  0.1003
  155MPD2    N1 2421   0.477   0.390   0.048  0.0876  0.0923  0.3416
  155MPD2    H7 2422   0.467   0.323  17.723  0.5378 -0.9379  1.2089
  156TMC2    C1 2423   3.993   2.589  11.677 -0.1204  0.3475 -0.1464
  156TMC2    C2 2424   3.930   2.482  11.632  0.3244  1.1901 -0.0938
  156TMC2    C3 2425   3.883   2.474  11.504  0.0152  0.0740 -0.1565
  156TMC2    C4 2426   4.028   2.685  11.586 -0.8399 -0.4669 -0.5224
  156TMC2    C5 2427   4.001   2.672  11.456  0.3245  0.9998 -0.3025
  156TMC2    C6 2428   3.915   2.577  11.411  0.4012  0.4895 -0.5688
  156TMC2     C 2429   3.931   2.666  11.779  0.2687 -0.1660 -0.0819
  156TMC2     O 2430   3.899   2.780  11.741  0.2012  0.3599  0.5728
  156TMC2     H 2431   3.898   2.417  11.713  0.3883  1.2792  0.0034
  156TMC2    H1 2432   4.096   2.761  11.622 -1.3677  0.4876 -1.5431
  156TMC2    H2 2433   3.889   2.556  11.307  0.3719  1.5069 -0.7620
  156TMC2    C7 2434   3.990   2.814  11.406 -0.6370  0.2179  0.1275
  156TMC2    C8 2435   3.844   2.349  11.445  0.1259 -0.1765  0.4702
  156TMC2    O1 2436   4.066   2.907  11.446 -0.4529  0.6066  1.0731
  156TMC2    O2 2437   3.854   2.325  11.324  0.5607  0.1455  0.4773
  156TMC2    O5 2438   3.829   2.249  11.543  0.2673 -0.4616 -0.4212
  156TMC2    H5 2439   3.776   2.275  11.622  0.9943  0.7473 -0.3276
  157MPD2     C 2440   3.828   2.559  12.119 -0.4640 -0.5158  0.1563
  157MPD2    C1 2441   3.848   2.651  12.011 -0.3653 -0.4689 -0.3351
  157MPD2    C2 2442   3.799   2.780  12.014  0.6441  0.9069  0.0736
  157MPD2    C3 2443   3.739   2.824  12.126  0.8015 -0.1000  0.1174
  157MPD2    C4 2444   3.729   2.739  12.230 -0.4769 -0.4365  0.4099
  157MPD2    C5 2445   3.764   2.609  12.229 -0.2242 -0.1160 -0.2594
  157MPD2     H 2446   3.800   2.851  11.932 -1.5339  0.5918 -0.2469
  157MPD2    H1 2447   3.677   2.770  12.320 -2.0630 -2.6465  0.2476
  157MPD2    H2 2448   3.858   2.455  12.123  0.7338 -0.1479  0.8327
  157MPD2    H3 2449   3.766   2.545  12.317 -2.2416 -0.9912 -0.8529
  157MPD2     N 2450   3.682   2.951  12.135 -0.5750 -0.1495  0.3099
  157MPD2    H5 2451   3.701   3.014  12.059 -1.2074 -1.0942 -0.6327
  157MPD2    N1 2452   3.917   2.602  11.896 -0.0590  0.1891  0.6275
  157MPD2    H7 2453   3.962   2.513  11.914 -0.0820  0.1349  0.4181
  158TMC2    C1 2454   4.222   1.928  13.759  0.2361  0.3177 -0.0445
  158TMC2    C2 2455   4.274   2.053  13.758  0.2746 -0.7612 -0.2185
  158TMC2    C3 2456   4.208   2.147  13.684 -0.6277 -0.4407  0.1634
  158TMC2    C4 2457   4.114   1.884  13.691  0.3833 -0.0166 -0.3567
  158TMC2    C5 2458   4.057   1.984  13.607  0.7389  0.3441  0.0999
  158TMC2    C6 2459   4.101   2.114  13.612  0.8639 -0.1819  0.6704
  158TMC2     C 2460   4.279   1.846  13.864 -0.3814 -0.0169 -0.0137
  158TMC2     O 2461   4.388   1.879  13.904  0.1425 -0.2377  0.9004
  158TMC2     H 2462   4.373   2.067  13.801 -0.1028 -1.0337  0.7386
  158TMC2    H1 2463   4.103   1.777  13.678  0.0751  0.1811 -1.6797
  158TMC2    H2 2464   4.062   2.178  13.534 -1.7731 -0.9240  1.3809
  158TMC2    C7 2465   3.943   1.948  13.529 -0.4480 -0.6289  0.4651
  158TMC2    C8 2466   4.276   2.270  13.652  0.2733 -0.4201 -0.2347
  158TMC2    O1 2467   3.908   2.040  13.456  0.3806  0.1996  0.0422
  158TMC2    O2 2468   4.244   2.348  13.561  0.3742 -0.3399 -0.2102
  158TMC2    O5 2469   4.394   2.292  13.721  0.3444 -0.2763  0.2390
  158TMC2    H5 2470   4.395   2.255  13.812 -1.6826 -2.5792 -0.6528
  159MPD2     C 2471   4.272   1.423  14.156 -0.4873 -0.3193  0.4147
  159MPD2    C1 2472   4.146   1.456  14.123 -0.3228 -0.3572 -0.0579
  159MPD2    C2 2473   4.116   1.561  14.042  0.1751  0.4104  0.2553
  159MPD2    C3 2474   4.220   1.644  13.995 -0.0544 -0.1301  0.1821
  159MPD2    C4 2475   4.345   1.614  14.028 -0.0577 -0.4305 -0.7210
  159MPD2    C5 2476   4.366   1.507  14.110 -0.2791  0.2647  0.4118
  159MPD2     H 2477   4.018   1.588  14.003  1.6614  2.4316 -2.0414
  159MPD2    H1 2478   4.431   1.662  13.984  2.4758 -1.3708  3.1968
  159MPD2    H2 2479   4.295   1.344  14.227 -0.0899 -0.9646 -0.4301
  159MPD2    H3 2480   4.469   1.476  14.122  0.0823  1.0078 -0.7252
  159MPD2     N 2481   4.184   1.755  13.909  0.0080 -0.5316 -0.6058
  159MPD2    H5 2482   4.086   1.765  13.883  0.6885 -0.8802 -3.2610
  159MPD2    N1 2483   4.049   1.362  14.155 -0.2576  0.2186 -0.3246
  159MPD2    H7 2484   4.084   1.284  14.211  0.2751 -0.2724 -1.3370
  160TMC2    C1 2485   4.059   4.168   1.068  0.4069 -0.1383 -0.1337
  160TMC2    C2 2486   4.134   4.150   1.186  0.5326  0.1990 -0.4267
  160TMC2    C3 2487   4.223   4.246   1.213 -0.1134 -0.2547  0.2315
  160TMC2    C4 2488   4.049   4.288   1.007  0.8682  0.4901 -0.7196
  160TMC2    C5 2489   4.134   4.385   1.048  0.0875 -0.5776  0.0154
  160TMC2    C6 2490   4.221   4.368   1.152  0.1476 -0.5040  0.1330
  160TMC2     C 2491   3.930   4.108   1.082  0.0074 -0.0536 -0.0709
  160TMC2     O 2492   3.931   3.991   1.117 -0.2926 -0.0044  0.4299
  160TMC2     H 2493   4.133   4.051   1.231 -0.9847  0.1453 -0.5649
  160TMC2    H1 2494   3.999   4.305   0.912 -1.6343 -0.2716  0.4775
  160TMC2    H2 2495   4.284   4.444   1.197  1.5957 -0.9515 -1.1129
  160TMC2    C7 2496   4.113   4.518   0.986  0.2449  0.1527 -0.7313
  160TMC2    C8 2497   4.301   4.221   1.330 -0.1027  0.2387 -0.6369
  160TMC2    O1 2498   4.020   4.543   0.912 -0.2265 -0.1860  0.1505
  160TMC2    O2 2499   4.266   4.132   1.411 -0.1037 -0.4110  0.0822
  160TMC2    O5 2500   4.431   4.239   1.297 -0.2457  0.3538 -0.5527
  160TMC2    H5 2501   4.451   4.298   1.221  1.4869  0.8575  0.3198
  161MPD2     C 2502   3.644   4.032   1.030  0.1258  0.0366 -0.4308
  161MPD2    C1 2503   3.690   4.158   1.012  0.1048  0.1920 -0.4557
  161MPD2    C2 2504   3.601   4.258   0.972  0.3259 -0.0252  0.6235
  161MPD2    C3 2505   3.468   4.238   0.954 -0.8578 -0.0648  0.3440
  161MPD2    C4 2506   3.421   4.109   0.970  0.4005 -0.2633 -0.0269
  161MPD2    C5 2507   3.513   4.011   1.012 -0.2569 -0.9031 -0.6429
  161MPD2     H 2508   3.640   4.359   0.965 -1.2692  0.4987 -0.5259
  161MPD2    H1 2509   3.317   4.079   0.960  0.8975 -2.3127  0.9025
  161MPD2    H2 2510   3.705   3.947   1.061 -0.0952  0.0319 -0.0012
  161MPD2    H3 2511   3.467   3.914   1.027 -0.6413 -0.7747 -1.0118
  161MPD2     N 2512   3.371   4.343   0.942 -0.6227  0.3413 -0.3309
  161MPD2    H5 2513   3.273   4.314   0.937 -0.5620 -0.0109  0.6564
  161MPD2    N1 2514   3.826   4.194   1.040 -0.9165  0.4422  0.0324
  161MPD2    H7 2515   3.848   4.290   1.015 -0.9552  0.6533  0.8377
  162TMC2    C1 2516   2.432   1.343   1.167 -0.2780 -0.2380 -0.2085
  162TMC2    C2 2517   2.423   1.416   1.285  0.4914  0.6967 -0.3638
  162TMC2    C3 2518   2.538   1.450   1.358  0.2590 -0.1501 -0.2616
  162TMC2    C4 2519   2.551   1.284   1.129 -0.0210 -0.1890  0.1840
  162TMC2    C5 2520   2.657   1.321   1.208  0.1067 -0.0569 -1.1920
  162TMC2    C6 2521   2.660   1.411   1.310 -0.1412  0.2283 -0.6573
  162TMC2     C 2522   2.310   1.316   1.091  0.0496 -0.2345  0.2861
  162TMC2     O 2523   2.318   1.273   0.978 -0.0233  0.5138  0.5150
  162TMC2     H 2524   2.328   1.445   1.327 -0.1730 -0.8164 -0.8312
  162TMC2    H1 2525   2.551   1.223   1.039 -0.8709  0.8845 -0.5388
  162TMC2    H2 2526   2.749   1.428   1.370 -0.4748  1.1956 -0.4360
  162TMC2    C7 2527   2.784   1.279   1.161  0.1746 -0.0567  0.1843
  162TMC2    C8 2528   2.529   1.524   1.485  0.2450 -0.0183 -0.0133
  162TMC2    O1 2529   2.879   1.353   1.190  0.0439  0.0941  0.0757
  162TMC2    O2 2530   2.496   1.476   1.590  0.0223  0.4478 -0.1790
  162TMC2    O5 2531   2.627   1.617   1.477  0.3223  0.0110 -0.4053
  162TMC2    H5 2532   2.634   1.647   1.384  1.9951 -2.2416 -1.0003
  163MPD2     C 2533   1.840   1.152   1.027 -0.5291  0.8555  0.9837
  163MPD2    C1 2534   1.917   1.221   0.941 -0.7402 -0.0919 -0.0015
  163MPD2    C2 2535   2.041   1.282   0.985  0.8270 -0.3271 -0.7300
  163MPD2    C3 2536   2.071   1.266   1.118 -0.7496 -0.5323 -0.7206
  163MPD2    C4 2537   1.992   1.196   1.201 -0.1294 -0.1122  0.1891
  163MPD2    C5 2538   1.881   1.137   1.157 -0.3192  0.9786  0.2656
  163MPD2     H 2539   2.103   1.333   0.912  0.3053 -1.1811 -1.7861
  163MPD2    H1 2540   2.029   1.162   1.297  3.0720 -0.9795 -1.3607
  163MPD2    H2 2541   1.755   1.094   0.992 -0.3923  1.8356 -0.9998
  163MPD2    H3 2542   1.825   1.085   1.233  1.9656 -0.7171  0.7917
  163MPD2     N 2543   2.197   1.308   1.167 -0.0223  0.0918 -0.3808
  163MPD2    H5 2544   2.198   1.312   1.269 -1.8033  0.5162 -0.3659
  163MPD2    N1 2545   1.868   1.221   0.810  0.2965  0.1171 -0.1129
  163MPD2    H7 2546   1.787   1.162   0.794  1.1440 -0.4823 -2.2183
  164TMC2    C1 2547   2.386   1.186  11.129  0.1677 -0.6472 -0.8060
  164TMC2    C2 2548   2.490   1.276  11.133 -0.2680 -0.1878  0.3537
  164TMC2    C3 2549   2.479   1.391  11.209 -0.0029 -0.0256 -0.2365
  164TMC2    C4 2550   2.273   1.219  11.200  0.1227 -0.3964 -0.0604
  164TMC2    C5 2551   2.266   1.334  11.277 -0.6482  0.7287  0.4034
  164TMC2    C6 2552   2.370   1.411  11.294  0.4390 -0.1053  0.1344
  164TMC2     C 2553   2.370   1.097  11.019  0.2498 -0.4738 -0.6571
  164TMC2     O 2554   2.253   1.072  10.992  0.2457 -0.0291  0.2723
  164TMC2     H 2555   2.576   1.257  11.071 -0.0823  1.4399  0.1163
  164TMC2    H1 2556   2.189   1.151  11.203  0.3997 -0.7421 -0.1756
  164TMC2    H2 2557   2.364   1.511  11.337  1.2116 -0.4058  0.9455
  164TMC2    C7 2558   2.143   1.391  11.314  0.1672 -0.0252  0.6366
  164TMC2    C8 2559   2.592   1.474  11.238 -0.1391  0.0609  0.4068
  164TMC2    O1 2560   2.041   1.345  11.267 -0.0526 -0.0814 -0.2837
  164TMC2    O2 2561   2.658   1.531  11.161  0.0963  0.2580 -0.1524
  164TMC2    O5 2562   2.599   1.485  11.375  0.1208  0.0580  0.3381
  164TMC2    H5 2563   2.552   1.412  11.420  2.1861 -1.1039  0.6169
  165TMC2    C1 2564   4.053   3.086   1.829 -0.1273  0.0219 -0.2681
  165TMC2    C2 2565   4.081   3.133   1.959 -0.1950  0.1699 -0.0295
  165TMC2    C3 2566   4.090   3.269   1.979 -0.4728 -0.0826 -0.5918
  165TMC2    C4 2567   4.030   3.177   1.725 -0.7396  0.5687 -0.5933
  165TMC2    C5 2568   4.037   3.310   1.749 -0.3787  0.0646  0.3678
  165TMC2    C6 2569   4.064   3.357   1.879  0.5436 -0.3761 -0.6405
  165TMC2     C 2570   4.040   2.946   1.803  0.7746 -0.8593 -0.0494
  165TMC2     O 2571   4.100   2.880   1.882  0.8632  0.1966 -0.5669
  165TMC2     H 2572   4.079   3.056   2.035 -1.5678  1.3668  1.1359
  165TMC2    H1 2573   4.053   3.144   1.625  2.7420  1.5122 -0.1002
  165TMC2    H2 2574   4.058   3.465   1.885 -1.4197 -0.4485 -1.2208
  165TMC2    C7 2575   4.060   3.410   1.639  0.0651  0.0283  0.2957
  165TMC2    C8 2576   4.114   3.317   2.111  0.2990  0.7941  0.0463
  165TMC2    O1 2577   4.138   3.501   1.675 -0.6390  0.3932 -0.3579
  165TMC2    O2 2578   4.177   3.254   2.193  0.3263 -0.2765 -0.1110
  165TMC2    O5 2579   4.054   3.436   2.124 -0.0324 -0.4287  0.2584
  165TMC2    H5 2580   3.993   3.454   2.050  2.9248 -1.6395 -2.4555
  166MPD2     C 2581   3.940   2.547   1.505  0.6820  0.4900 -0.5512
  166MPD2    C1 2582   4.030   2.560   1.606 -0.3108 -0.1868 -0.2154
  166MPD2    C2 2583   4.019   2.672   1.685 -0.2184 -0.3328 -0.5701
  166MPD2    C3 2584   3.934   2.775   1.651  0.1398  0.1274 -0.5768
  166MPD2    C4 2585   3.848   2.762   1.538  0.1690  0.6226  0.6135
  166MPD2    C5 2586   3.850   2.644   1.476  0.1451 -0.5315 -0.4455
  166MPD2     H 2587   4.088   2.684   1.768 -1.4645  0.8198  0.2873
  166MPD2    H1 2588   3.770   2.834   1.517  0.1633  0.6412  0.6989
  166MPD2    H2 2589   3.941   2.461   1.438 -0.2961  0.7137 -0.8526
  166MPD2    H3 2590   3.780   2.639   1.393 -2.8263  0.3289  1.9644
  166MPD2     N 2591   3.954   2.907   1.700 -0.0044  0.1577  0.3095
  166MPD2    H5 2592   3.902   2.977   1.649  0.4900 -0.6503 -1.2782
  166MPD2    N1 2593   4.111   2.454   1.637 -0.2679  0.5111 -0.1890
  166MPD2    H7 2594   4.100   2.371   1.579 -1.8717  1.4589 -1.2273
  167TMC2    C1 2595   1.548   1.862  13.328 -0.4053 -0.0722 -0.1312
  167TMC2    C2 2596   1.531   1.904  13.457  0.6426 -0.1764 -0.2169
  167TMC2    C3 2597   1.499   1.813  13.548  0.5365 -0.1465 -0.3951
  167TMC2    C4 2598   1.504   1.739  13.299  0.3493  0.0155  0.2944
  167TMC2    C5 2599   1.459   1.654  13.398 -0.2646 -0.5143 -0.5503
  167TMC2    C6 2600   1.449   1.688  13.531 -0.0156 -0.1719 -0.1145
  167TMC2     C 2601   1.565   1.957  13.220  0.0342 -0.5600  0.0097
  167TMC2     O 2602   1.503   2.058  13.240  0.3993  0.5763  0.4645
  167TMC2     H 2603   1.573   2.000  13.484  1.8307 -0.3114 -1.6144
  167TMC2    H1 2604   1.499   1.708  13.195 -0.2766 -1.1561  0.6798
  167TMC2    H2 2605   1.418   1.625  13.613 -2.6444 -0.4536 -1.3080
  167TMC2    C7 2606   1.434   1.510  13.366  0.3377 -0.6042  0.7772
  167TMC2    C8 2607   1.476   1.871  13.676 -0.6660  0.7448  0.0749
  167TMC2    O1 2608   1.377   1.440  13.453 -0.6070  0.1644  0.4140
  167TMC2    O2 2609   1.371   1.868  13.739  0.3796  0.1940 -0.0383
  167TMC2    O5 2610   1.595   1.914  13.727  0.4938 -0.1196  0.5244
  167TMC2    H5 2611   1.673   1.886  13.675 -0.7872 -0.3928 -1.2737
  168MPD2     C 2612   1.504   2.037  12.941 -0.2758 -0.4411  0.4919
  168MPD2    C1 2613   1.568   1.920  12.979  0.3065 -0.0450 -0.3274
  168MPD2    C2 2614   1.596   1.817  12.894  0.4466 -0.4282 -0.2247
  168MPD2    C3 2615   1.548   1.831  12.762 -0.1253  0.2972  0.0505
  168MPD2    C4 2616   1.479   1.941  12.723  0.3290  0.4526  0.1199
  168MPD2    C5 2617   1.459   2.046  12.812 -0.2321  0.2681 -0.0651
  168MPD2     H 2618   1.655   1.733  12.928  0.6280 -0.1231  0.2242
  168MPD2    H1 2619   1.447   1.960  12.621  0.4008 -0.0285  0.0093
  168MPD2    H2 2620   1.500   2.120  13.010  1.0654 -0.9705  1.1971
  168MPD2    H3 2621   1.407   2.135  12.780  0.6674  0.2687 -1.5099
  168MPD2     N 2622   1.554   1.721  12.673 -0.2123 -0.0760  0.3124
  168MPD2    H5 2623   1.509   1.747  12.585  2.0535 -1.2090 -1.1687
  168MPD2    N1 2624   1.617   1.897  13.111 -0.0547 -0.1598  0.1612
  168MPD2    H7 2625   1.658   1.806  13.131  0.8270  0.5362  1.4592
  169MPD1     C 2626   3.323   1.305   9.310 -0.9241  0.2507 -0.3667
  169MPD1    C1 2627   3.418   1.398   9.354  0.7651  0.3231  0.8136
  169MPD1    C2 2628   3.520   1.351   9.437 -0.5517 -0.4686 -0.0572
  169MPD1    C3 2629   3.513   1.228   9.502  0.1927  0.4867 -0.0158
  169MPD1    C4 2630   3.406   1.144   9.477 -0.4147 -0.2884 -0.3061
  169MPD1    C5 2631   3.320   1.186   9.380  0.0955  0.3792 -0.2154
  169MPD1     H 2632   3.593   1.425   9.468 -1.6656  0.8667 -0.6046
  169MPD1    H1 2633   3.385   1.049   9.525  0.1708  0.4768  1.4775
  169MPD1    H2 2634   3.241   1.320   9.240 -1.3863  1.8983  0.5302
  169MPD1    H3 2635   3.257   1.112   9.332 -1.1400  1.0999  0.2996
  169MPD1     N 2636   3.611   1.207   9.605  0.1889 -0.2814 -0.4530
  169MPD1    H5 2637   3.677   1.280   9.630 -3.4923  2.8972 -0.0462
  169MPD1    N1 2638   3.431   1.517   9.290  0.1645  0.2065 -1.0039
  169MPD1    H6 2639   3.467   1.591   9.349  0.4523 -1.2661  0.6559
  169MPD1    H7 2640   3.338   1.550   9.262 -0.1375  0.2076  0.0016
  170MPD1     C 2641   2.972   3.668  13.201 -0.1348  0.0970 -0.8688
  170MPD1    C1 2642   2.868   3.624  13.111  0.4676 -0.7610  0.3601
  170MPD1    C2 2643   2.741   3.612  13.161 -0.5630 -0.1907  0.1549
  170MPD1    C3 2644   2.711   3.618  13.296 -0.7431  0.2420 -0.1382
  170MPD1    C4 2645   2.817   3.658  13.383  1.3370  0.1419  0.2417
  170MPD1    C5 2646   2.939   3.678  13.334 -0.4086  0.3067  0.3259
  170MPD1     H 2647   2.656   3.609  13.094  0.9795 -1.7852 -1.7259
  170MPD1    H1 2648   2.786   3.670  13.486 -0.4203  1.6208 -0.4600
  170MPD1    H2 2649   3.071   3.696  13.168  1.2118 -1.3050  2.0048
  170MPD1    H3 2650   3.011   3.724  13.401  0.9869  1.6032 -2.0399
  170MPD1     N 2651   2.578   3.590  13.341 -0.4776 -0.5682 -0.8018
  170MPD1    H5 2652   2.511   3.569  13.268 -2.0994  0.2325  0.4590
  170MPD1    N1 2653   2.902   3.603  12.974  0.2027  0.3783  0.5645
  170MPD1    H6 2654   2.834   3.543  12.928 -0.4185 -0.6470  2.8432
  170MPD1    H7 2655   3.000   3.583  12.955  0.3337  1.1464  0.4208
  171MPD1     C 2656   0.869   0.111  15.269  0.8154  0.2707 -0.5943
  171MPD1    C1 2657   0.810   4.728  15.284 -0.3216  0.2302 -0.1625
  171MPD1    C2 2658   0.844   4.644  15.391 -0.5954  0.0102  0.2344
  171MPD1    C3 2659   0.951   4.679  15.474  0.2666 -0.0225 -0.7163
  171MPD1    C4 2660   1.018   0.061  15.445 -1.1293 -0.2488  0.0628
  171MPD1    C5 2661   0.973   0.147  15.348 -0.1447  0.0027 -0.6185
  171MPD1     H 2662   0.783   4.557  15.413 -0.6813 -0.1364 -0.5944
  171MPD1    H1 2663   1.098   0.091  15.512 -0.6804  0.4766 -0.8066
  171MPD1    H2 2664   0.857   0.165  15.176  0.3721  0.5981 -0.3471
  171MPD1    H3 2665   1.030   0.239  15.346  0.1868 -0.2137 -1.1170
  171MPD1     N 2666   0.998   4.602  15.579 -0.2874  0.2368  0.7563
  171MPD1    H5 2667   1.081   4.641  15.623 -0.5332  1.2493  0.3248
  171MPD1    N1 2668   0.697   4.695  15.209  0.5076 -0.0543 -0.9727
  171MPD1    H6 2669   0.679   0.024  15.135 -0.7135  0.9484  0.2111
  171MPD1    H7 2670   0.713   4.610  15.157  0.4524 -0.4269 -0.3813
  172MPD1     C 2671   0.265   3.801   0.103 -0.2841 -0.3299 -0.2172
  172MPD1    C1 2672   0.261   3.840   0.237 -0.1804  0.3033 -0.6774
  172MPD1    C2 2673   0.336   3.947   0.277 -0.6130  0.8272  0.7083
  172MPD1    C3 2674   0.439   3.991   0.200 -0.5308  0.2770  0.1237
  172MPD1    C4 2675   0.449   3.942   0.074  0.5965 -0.6584  0.4982
  172MPD1    C5 2676   0.361   3.856   0.025  0.0866 -0.5276 -0.2350
  172MPD1     H 2677   0.315   3.979   0.379 -1.7607 -0.1408  0.7734
  172MPD1    H1 2678   0.525   3.979   0.007  0.9203 -0.3261  1.0473
  172MPD1    H2 2679   0.193   3.725   0.074  0.8948 -1.5255 -0.0204
  172MPD1    H3 2680   0.375   3.824  17.673  1.3683 -2.6939  0.6132
  172MPD1     N 2681   0.534   4.086   0.238  0.2337 -0.3903  0.1493
  172MPD1    H5 2682   0.605   4.102   0.166 -0.0088  0.1903  0.0385
  172MPD1    N1 2683   0.163   3.792   0.325 -0.1249  0.0035 -0.4517
  172MPD1    H6 2684   0.186   3.792   0.424 -1.1091  0.2516 -0.2174
  172MPD1    H7 2685   0.126   3.701   0.297  0.4645 -0.3464 -0.0930
  173MPD1     C 2686   1.442   4.247  13.882  0.0027 -0.0480 -0.2041
  173MPD1    C1 2687   1.550   4.178  13.827  0.2583  0.1008 -0.3603
  173MPD1    C2 2688   1.597   4.079  13.908  0.5794 -0.1245  0.6099
  173MPD1    C3 2689   1.538   4.038  14.029  0.7882 -0.4453 -0.5219
  173MPD1    C4 2690   1.411   4.093  14.063 -0.4172  0.2985  0.1094
  173MPD1    C5 2691   1.369   4.195  13.982 -0.7033  0.5067 -0.2815
  173MPD1     H 2692   1.677   4.014  13.875  1.8744  0.4318  2.6651
  173MPD1    H1 2693   1.346   4.059  14.143 -0.6496  0.4452 -0.0197
  173MPD1    H2 2694   1.381   4.308  13.817  0.0693 -2.1640 -2.2593
  173MPD1    H3 2695   1.276   4.241  14.012 -0.4866 -0.4688  1.9126
  173MPD1     N 2696   1.598   3.933  14.098  1.0322  0.7257  0.0950
  173MPD1    H5 2697   1.677   3.888  14.052  0.9688 -0.7655  1.4507
  173MPD1    N1 2698   1.630   4.221  13.722  0.0953  0.1303  0.1685
  173MPD1    H6 2699   1.672   4.141  13.675 -2.3823 -1.1070  0.0937
  173MPD1    H7 2700   1.569   4.267  13.656 -1.5992 -0.5150  1.2883
  174MPD1     C 2701   2.403   3.944  14.666 -0.3482 -0.5112 -0.3798
  174MPD1    C1 2702   2.391   3.919  14.533  0.7269  0.3461  0.2925
  174MPD1    C2 2703   2.269   3.876  14.479  0.3695  0.1625  0.4261
  174MPD1    C3 2704   2.153   3.878  14.560 -0.3292  0.0609 -0.5950
  174MPD1    C4 2705   2.176   3.904  14.696  0.4433 -0.2871  0.3530
  174MPD1    C5 2706   2.298   3.934  14.748  0.5106  0.1031 -0.1509
  174MPD1     H 2707   2.264   3.846  14.375 -1.5043  0.4348  0.4448
  174MPD1    H1 2708   2.093   3.908  14.767 -0.4153 -0.7021 -0.6299
  174MPD1    H2 2709   2.497   3.972  14.712 -0.6258 -0.5231  0.1961
  174MPD1    H3 2710   2.307   3.959  14.853 -1.9954 -1.7868  0.5019
  174MPD1     N 2711   2.018   3.862  14.521  0.2662 -1.1278 -0.2841
  174MPD1    H5 2712   1.947   3.859  14.593 -0.5388 -1.6317 -1.1032
  174MPD1    N1 2713   2.511   3.914  14.455  1.0748  0.1512  0.5224
  174MPD1    H6 2714   2.579   3.983  14.486  1.4029 -0.7108  1.6941
  174MPD1    H7 2715   2.501   3.928  14.354  2.6719  0.7324  0.4419
  175MPD1     C 2716   4.507   4.402  15.284 -0.9566  0.2580 -0.6400
  175MPD1    C1 2717   4.614   4.334  15.327  0.6365 -1.0823 -0.1426
  175MPD1    C2 2718   4.649   4.337  15.458 -0.1233 -0.2113 -0.0491
  175MPD1    C3 2719   4.565   4.403  15.555  0.0807 -0.7543 -0.4715
  175MPD1    C4 2720   4.458   4.472  15.508 -0.1659  0.0404  0.3515
  175MPD1    C5 2721   4.436   4.479  15.373 -0.2765  0.0188 -0.1803
  175MPD1     H 2722   0.001   4.287  15.493  0.3449  1.7032  1.4492
  175MPD1    H1 2723   4.403   4.531  15.580 -3.9029  1.5263 -3.7040
  175MPD1    H2 2724   4.481   4.422  15.181 -0.4046  0.6817 -0.7002
  175MPD1    H3 2725   4.346   4.520  15.328 -0.7302 -0.8399 -0.0366
  175MPD1     N 2726   4.587   4.395  15.691  0.4774  0.0421  0.1356
  175MPD1    H5 2727   4.511   4.429  15.750  0.8781  2.0624 -0.4919
  175MPD1    N1 2728   4.713   4.292  15.235  0.3266 -0.2047 -0.1172
  175MPD1    H6 2729   0.037   4.224  15.278  0.0178 -0.0180  0.6105
  175MPD1    H7 2730   4.681   4.236  15.156 -0.9356  0.0502  0.2110
  176MPD1     C 2731   1.990   1.345  16.887  0.8022 -0.4124 -0.3309
  176MPD1    C1 2732   2.030   1.449  16.805  0.3619 -0.0825 -0.3136
  176MPD1    C2 2733   1.997   1.579  16.841  0.3142  0.2871 -1.3396
  176MPD1    C3 2734   1.930   1.605  16.961  0.4839 -0.4388 -0.4418
  176MPD1    C4 2735   1.887   1.496  17.041 -0.3330 -0.0706 -0.9648
  176MPD1    C5 2736   1.909   1.367  16.997 -0.0256  0.1598  0.0796
  176MPD1     H 2737   2.033   1.664  16.783 -0.1294  1.5589  0.2443
  176MPD1    H1 2738   1.838   1.514  17.136 -0.2147 -0.3628 -0.8479
  176MPD1    H2 2739   2.034   1.246  16.883  0.9388 -0.3715  0.2666
  176MPD1    H3 2740   1.890   1.283  17.064 -1.1010 -0.0608 -0.5072
  176MPD1     N 2741   1.911   1.740  16.995 -0.5049  0.2548 -0.5050
  176MPD1    H5 2742   1.956   1.806  16.933 -1.5758  1.7163  0.2681
  176MPD1    N1 2743   2.118   1.419  16.698  0.0655  0.0887 -0.4741
  176MPD1    H6 2744   2.101   1.327  16.656 -3.5533  0.1320  0.9828
  176MPD1    H7 2745   2.135   1.494  16.632  0.8258 -0.1171 -0.5161
  177MPD1     C 2746   0.300   2.161   9.958 -0.7024  0.5581 -0.4320
  177MPD1    C1 2747   0.300   2.078   9.851 -0.2407  0.4618  0.0280
  177MPD1    C2 2748   0.236   2.125   9.737 -0.2826  0.2786 -0.0540
  177MPD1    C3 2749   0.162   2.238   9.736 -0.9566 -0.6523  0.5602
  177MPD1    C4 2750   0.160   2.317   9.853  0.0143  0.2568 -0.0814
  177MPD1    C5 2751   0.230   2.279   9.955  0.4300  0.4330 -0.2966
  177MPD1     H 2752   0.225   2.061   9.650  0.7029 -1.1302  0.8531
  177MPD1    H1 2753   0.099   2.404   9.870 -0.7717 -0.6175  1.5559
  177MPD1    H2 2754   0.350   2.144  10.053  0.2725  0.7172 -0.9131
  177MPD1    H3 2755   0.217   2.357  10.030  1.4905 -1.9340  2.3417
  177MPD1     N 2756   0.081   2.270   9.629 -0.0952  0.8897  0.2025
  177MPD1    H5 2757   0.082   2.203   9.554  0.8157  0.2105  0.8223
  177MPD1    N1 2758   0.372   1.959   9.849  0.2122 -0.4148  0.1577
  177MPD1    H6 2759   0.335   1.889   9.785 -2.8367 -0.4497  1.9676
  177MPD1    H7 2760   0.386   1.916   9.940 -1.3708  0.2027  0.6888
  178MPD1     C 2761   2.619   2.402   0.321 -0.2152  0.1060  0.1720
  178MPD1    C1 2762   2.697   2.508   0.265  0.1158 -0.0161  0.3625
  178MPD1    C2 2763   2.763   2.485   0.142  0.4816  0.3951 -0.3635
  178MPD1    C3 2764   2.719   2.379   0.062  0.1044  0.0906 -1.2348
  178MPD1    C4 2765   2.633   2.290   0.113 -0.2646  0.0729  0.9519
  178MPD1    C5 2766   2.586   2.298   0.239  0.1302 -0.0277 -0.1410
  178MPD1     H 2767   2.838   2.558   0.111  0.9181  1.2723  2.7834
  178MPD1    H1 2768   2.611   2.200   0.056  2.1920 -0.5831  1.0482
  178MPD1    H2 2769   2.578   2.403   0.421 -1.0068 -1.4867 -0.1301
  178MPD1    H3 2770   2.520   2.225   0.283 -0.6074  0.8623  0.2173
  178MPD1     N 2771   2.765   2.350  17.679 -0.6766  0.3582  0.6065
  178MPD1    H5 2772   2.718   2.267  17.645 -0.8487  1.2436 -1.3396
  178MPD1    N1 2773   2.740   2.615   0.353 -0.2167  0.6258  0.2417
  178MPD1    H6 2774   2.664   2.635   0.417 -0.4664  3.3003 -0.9111
  178MPD1    H7 2775   2.758   2.697   0.296 -1.9850 -0.3641 -1.7320
  179MPD1     C 2776   2.068   1.317  15.385  0.3001  0.0570 -0.1469
  179MPD1    C1 2777   1.988   1.254  15.294 -0.4220  0.5293 -0.6001
  179MPD1    C2 2778   1.986   1.112  15.312 -0.1442 -0.2801  0.3587
  179MPD1    C3 2779   2.038   1.053  15.426  0.3165 -0.7512  0.4103
  179MPD1    C4 2780   2.099   1.128  15.527  0.2859 -0.0953  0.3127
  179MPD1    C5 2781   2.119   1.261  15.498  0.0864 -0.5279 -0.1440
  179MPD1     H 2782   1.936   1.056  15.234 -3.1803  0.0245  2.0722
  179MPD1    H1 2783   2.139   1.086  15.619  0.6580 -0.5250 -0.0483
  179MPD1    H2 2784   2.089   1.423  15.375  2.6749 -0.5032 -1.0636
  179MPD1    H3 2785   2.174   1.322  15.569  1.2513  0.5923 -2.0306
  179MPD1     N 2786   2.024   0.914  15.456  0.2026  0.2761 -0.0928
  179MPD1    H5 2787   2.057   0.885  15.548 -0.7331  0.8616  0.4303
  179MPD1    N1 2788   1.954   1.307  15.173  0.7252  0.4536  0.3268
  179MPD1    H6 2789   1.932   1.405  15.192 -0.4685  0.7002 -2.2022
  179MPD1    H7 2790   1.872   1.265  15.128  1.0841  0.4483 -0.3295
  180MPD1     C 2791   2.490   2.771  15.330 -0.1241  0.0874  0.7482
  180MPD1    C1 2792   2.556   2.814  15.223 -1.4920 -0.0050  0.2025
  180MPD1    C2 2793   2.500   2.775  15.096  0.2861  0.5565  0.3183
  180MPD1    C3 2794   2.386   2.700  15.079 -0.8336 -0.2488 -0.3429
  180MPD1    C4 2795   2.310   2.677  15.195 -0.4398  0.3859 -0.5816
  180MPD1    C5 2796   2.373   2.701  15.314 -0.0136  0.0711  0.3611
  180MPD1     H 2797   2.558   2.805  15.010  1.1814 -0.3988  0.5892
  180MPD1    H1 2798   2.210   2.636  15.205 -0.7656  1.1973 -0.5915
  180MPD1    H2 2799   2.514   2.801  15.432  0.3747  0.5659  0.4945
  180MPD1    H3 2800   2.321   2.670  15.404 -0.8455 -1.2142 -0.5715
  180MPD1     N 2801   2.334   2.673  14.950  0.3348  0.2204 -0.3881
  180MPD1    H5 2802   2.372   2.716  14.867  0.4420  3.4589  1.3281
  180MPD1    N1 2803   2.675   2.881  15.247 -0.1303  0.8299 -0.3547
  180MPD1    H6 2804   2.727   2.919  15.167  0.7150  3.5682  1.5200
  180MPD1    H7 2805   2.667   2.961  15.308 -1.2271 -0.0234  0.6060
  181MPD1     C 2806   3.922   0.922   9.314  0.6244  0.0355 -0.2873
  181MPD1    C1 2807   3.824   0.896   9.404  0.4362  0.1759  0.6497
  181MPD1    C2 2808   3.858   0.826   9.517 -0.2843  0.1954 -0.2136
  181MPD1    C3 2809   3.989   0.782   9.543 -0.3980 -0.0792 -0.4785
  181MPD1    C4 2810   4.084   0.818   9.450 -0.6775  0.9505 -0.2631
  181MPD1    C5 2811   4.051   0.879   9.333  0.0264 -0.6627 -0.8306
  181MPD1     H 2812   3.773   0.791   9.575 -0.8774 -1.5502 -2.1458
  181MPD1    H1 2813   4.187   0.797   9.475 -1.3289 -2.1435 -0.2657
  181MPD1    H2 2814   3.902   0.956   9.213  0.7657 -1.1473 -0.7108
  181MPD1    H3 2815   4.133   0.905   9.267  1.1017  0.1143  0.7970
  181MPD1     N 2816   4.028   0.724   9.665  0.2038  0.0370  0.0468
  181MPD1    H5 2817   4.127   0.703   9.676 -0.3177 -1.0285  2.8472
  181MPD1    N1 2818   3.688   0.919   9.383 -0.2382 -0.1745  0.5494
  181MPD1    H6 2819   3.649   0.950   9.471  1.1225 -0.2757  1.1915
  181MPD1    H7 2820   3.679   0.992   9.313 -0.1893  2.0609  2.8855
  182MPD1     C 2821   0.300   2.354   1.212 -0.3126 -0.2383  0.2574
  182MPD1    C1 2822   0.298   2.328   1.076  0.8202  0.6245 -0.9801
  182MPD1    C2 2823   0.183   2.354   1.010 -0.3043 -0.0441  0.5389
  182MPD1    C3 2824   0.076   2.421   1.056  0.2032  0.1063  0.3543
  182MPD1    C4 2825   0.088   2.460   1.188  0.3424 -0.3851 -0.1650
  182MPD1    C5 2826   0.195   2.429   1.265  0.3573 -0.1056  0.7063
  182MPD1     H 2827   0.176   2.320   0.907 -2.3983 -0.1936  0.7393
  182MPD1    H1 2828   0.004   2.516   1.226  1.6570  1.2788  0.3272
  182MPD1    H2 2829   0.379   2.313   1.274 -1.7883 -0.1184  2.2051
  182MPD1    H3 2830   0.206   2.470   1.365  1.4974 -0.1230  0.5922
  182MPD1     N 2831   4.692   2.444   0.990  0.0099  0.2957 -0.0203
  182MPD1    H5 2832   4.624   2.488   1.051 -0.5873 -1.9114  0.9108
  182MPD1    N1 2833   0.389   2.242   1.018  0.3781  1.0058 -0.3216
  182MPD1    H6 2834   0.483   2.238   1.058  0.3361  1.2568 -0.1981
  182MPD1    H7 2835   0.390   2.247   0.916  3.2924 -2.2606 -0.4503
  183MPD1     C 2836   4.440   3.166   9.719  0.3577  0.4470 -0.2858
  183MPD1    C1 2837   4.561   3.179   9.787 -0.7063  0.0421  0.0389
  183MPD1    C2 2838   4.610   3.305   9.811 -0.6215 -0.0733  0.5056
  183MPD1    C3 2839   4.555   3.417   9.745 -0.8456 -0.6767  0.0094
  183MPD1    C4 2840   4.445   3.400   9.665  0.3837 -0.0574  1.1714
  183MPD1    C5 2841   4.385   3.276   9.662  0.7660  0.6953  0.2849
  183MPD1     H 2842   4.694   3.306   9.880 -1.5053 -1.5938  1.5882
  183MPD1    H1 2843   4.389   3.482   9.623  0.5772 -0.2748  0.4952
  183MPD1    H2 2844   4.395   3.068   9.707  0.0265  0.7055 -1.1636
  183MPD1    H3 2845   4.293   3.270   9.604  0.2195  0.5218  1.1644
  183MPD1     N 2846   4.616   3.538   9.758  0.6422  0.5936  0.7561
  183MPD1    H5 2847   4.699   3.526   9.815  0.6054 -0.0214  0.6788
  183MPD1    N1 2848   4.624   3.063   9.841 -0.0174  0.1671 -0.0684
  183MPD1    H6 2849   4.654   3.068   9.938 -0.1325  0.5676 -0.0537
  183MPD1    H7 2850   4.602   2.970   9.806  0.9247 -0.3312  0.6899
  184MPD1     C 2851   3.897   1.268   9.245 -0.2027  0.1073  0.0497
  184MPD1    C1 2852   3.941   1.287   9.375 -0.3215 -0.1242  0.3616
  184MPD1    C2 2853   3.939   1.417   9.429 -0.0939 -0.3349  0.4846
  184MPD1    C3 2854   3.865   1.519   9.364  0.1144  0.0666 -0.3197
  184MPD1    C4 2855   3.816   1.494   9.239  0.3726  0.4508 -0.5929
  184MPD1    C5 2856   3.837   1.373   9.182  0.5143 -0.1183  0.1243
  184MPD1     H 2857   3.982   1.438   9.526  0.5612  2.1521 -0.3459
  184MPD1    H1 2858   3.766   1.575   9.187  0.4187  0.0710 -1.2320
  184MPD1    H2 2859   3.905   1.175   9.190 -2.2729  0.2993 -0.5714
  184MPD1    H3 2860   3.800   1.351   9.083  0.8941  0.9961 -0.2596
  184MPD1     N 2861   3.854   1.651   9.405  0.9551 -0.0994  0.1005
  184MPD1    H5 2862   3.835   1.723   9.337  2.7710  2.2653  2.1143
  184MPD1    N1 2863   4.030   1.190   9.427 -0.8701 -0.3779 -0.2524
  184MPD1    H6 2864   4.014   1.092   9.405  1.6620 -0.8581  0.0309
  184MPD1    H7 2865   4.035   1.200   9.529 -1.8004 -0.1092 -0.2301
  185MPD1     C 2866   3.464   2.515   9.269 -0.2410 -0.2983 -0.6339
  185MPD1    C1 2867   3.433   2.407   9.343 -0.0397 -0.0669  0.3547
  185MPD1    C2 2868   3.534   2.313   9.358 -0.0902 -0.2589 -0.4312
  185MPD1    C3 2869   3.666   2.337   9.319  1.5785 -0.2256  0.5301
  185MPD1    C4 2870   3.701   2.448   9.234 -0.0098 -0.2124  0.6431
  185MPD1    C5 2871   3.587   2.526   9.211  0.1219  0.4343  0.9177
  185MPD1     H 2872   3.502   2.228   9.418  1.3256 -2.1730 -2.3534
  185MPD1    H1 2873   3.802   2.470   9.201 -0.6274 -0.2880 -1.3113
  185MPD1    H2 2874   3.395   2.598   9.253  0.1086 -0.1199 -1.2369
  185MPD1    H3 2875   3.611   2.607   9.143  2.5770 -0.7541  0.3276
  185MPD1     N 2876   3.765   2.239   9.359 -0.1598 -0.0970  0.3936
  185MPD1    H5 2877   3.864   2.256   9.346 -0.9830  1.4739 -3.7802
  185MPD1    N1 2878   3.300   2.376   9.382  0.3760 -0.6615  0.1478
  185MPD1    H6 2879   3.288   2.306   9.455  1.6776 -0.8990  0.1294
  185MPD1    H7 2880   3.248   2.462   9.397  2.1275  1.3416 -5.2565
  186MPD1     C 2881   2.601   0.584  15.855 -0.6191  0.2246  0.3617
  186MPD1    C1 2882   2.724   0.628  15.889  0.1198  0.2483  0.6551
  186MPD1    C2 2883   2.736   0.742  15.965 -0.4492 -0.1019 -0.3460
  186MPD1    C3 2884   2.629   0.822  16.000  0.6336 -0.3701  0.5520
  186MPD1    C4 2885   2.506   0.782  15.949  0.5217 -0.1212  0.4459
  186MPD1    C5 2886   2.494   0.662  15.883 -0.1413  0.1857  0.1194
  186MPD1     H 2887   2.834   0.773  15.999 -0.5480 -1.9793  1.6522
  186MPD1    H1 2888   2.422   0.845  15.978  0.2644  0.1458 -0.8817
  186MPD1    H2 2889   2.584   0.482  15.821 -1.5758  0.2214  0.8410
  186MPD1    H3 2890   2.398   0.627  15.847  0.7219 -1.6731 -0.4326
  186MPD1     N 2891   2.640   0.937  16.080 -0.9987  0.4799  0.3114
  186MPD1    H5 2892   2.554   0.984  16.104 -1.0640  0.9079 -0.7898
  186MPD1    N1 2893   2.832   0.534  15.879 -0.2605  0.1790 -0.3311
  186MPD1    H6 2894   2.915   0.591  15.871 -0.4544  0.5376  0.1991
  186MPD1    H7 2895   2.821   0.475  15.797  0.3891 -1.0730  0.4736
  187MPD1     C 2896   1.998   2.548   0.152 -0.1023 -0.5269  0.0207
  187MPD1    C1 2897   2.038   2.473   0.044  0.5812  0.1510  0.6183
  187MPD1    C2 2898   2.059   2.536  17.675 -0.0034 -0.3757 -0.4843
  187MPD1    C3 2899   2.052   2.673  17.671 -0.5229 -0.0469  0.1603
  187MPD1    C4 2900   2.014   2.751   0.025 -0.4558  0.1374 -0.3148
  187MPD1    C5 2901   1.985   2.687   0.143  0.3614  0.2287  0.5986
  187MPD1     H 2902   2.106   2.483  17.593 -2.8240  1.6051 -3.3671
  187MPD1    H1 2903   1.983   2.855   0.018 -1.3738 -0.1159  0.0256
  187MPD1    H2 2904   1.980   2.492   0.243 -0.8957 -0.5470 -0.1530
  187MPD1    H3 2905   1.937   2.748   0.219  0.9941  0.0342  1.1589
  187MPD1     N 2906   2.063   2.748  17.553 -0.3405 -0.5590  0.4920
  187MPD1    H5 2907   2.052   2.848  17.565 -0.8134 -0.4442 -0.9823
  187MPD1    N1 2908   2.051   2.332   0.059  0.4150 -0.2542 -0.2268
  187MPD1    H6 2909   2.007   2.296   0.143  0.1241 -0.5114 -0.4876
  187MPD1    H7 2910   2.036   2.282  17.722 -2.0547  2.3652 -1.3306
  188MPD1     C 2911   1.344   2.991  10.509 -0.1296 -0.0741  0.2689
  188MPD1    C1 2912   1.372   2.872  10.570  0.3694 -0.3294  0.1549
  188MPD1    C2 2913   1.448   2.781  10.496  0.6590 -0.0938 -0.4493
  188MPD1    C3 2914   1.462   2.795  10.358 -0.8259  0.0047  0.3671
  188MPD1    C4 2915   1.409   2.907  10.296  0.3100 -0.4410 -0.3402
  188MPD1    C5 2916   1.355   3.007  10.375  0.1940  0.4221  0.0869
  188MPD1     H 2917   1.492   2.696  10.547 -0.4281  0.3344  1.2061
  188MPD1    H1 2918   1.393   2.920  10.190 -0.1562  0.8603 -0.1135
  188MPD1    H2 2919   1.293   3.067  10.567 -1.7141 -0.9522  0.0379
  188MPD1    H3 2920   1.312   3.098  10.335 -0.3674 -0.5444 -1.4771
  188MPD1     N 2921   1.505   2.695  10.273  0.1368  0.2621 -0.0005
  188MPD1    H5 2922   1.499   2.720  10.175 -0.1365 -1.2103 -0.3715
  188MPD1    N1 2923   1.378   2.860  10.707  0.1322 -0.2686  0.7608
  188MPD1    H6 2924   1.376   2.765  10.745 -2.4949 -0.0076  1.2320
  188MPD1    H7 2925   1.317   2.927  10.753 -0.3727  1.1966 -2.0430
  189MPD1     C 2926   2.775   3.367   0.076 -0.5039  0.3523  0.1090
  189MPD1    C1 2927   2.760   3.386  17.689  0.9824 -0.0571  0.1987
  189MPD1    C2 2928   2.802   3.498  17.628  0.1884  0.3783  0.2142
  189MPD1    C3 2929   2.880   3.586  17.697  0.4964 -0.2932  0.0928
  189MPD1    C4 2930   2.919   3.565   0.075 -0.0727 -0.4043  0.6336
  189MPD1    C5 2931   2.864   3.455   0.140 -0.2080 -0.1404  0.4393
  189MPD1     H 2932   2.795   3.526  17.523  1.4772  1.5601  0.4406
  189MPD1    H1 2933   2.985   3.624   0.138  0.2150  0.2085 -0.2519
  189MPD1    H2 2934   2.732   3.286   0.134 -0.3128  1.3003  1.5854
  189MPD1    H3 2935   2.887   3.442   0.246 -2.6444 -1.6303  0.7838
  189MPD1     N 2936   2.930   3.695  17.621  0.0717  0.8107  0.0973
  189MPD1    H5 2937   2.897   3.711  17.526 -1.0247  3.1929  0.8960
  189MPD1    N1 2938   2.663   3.311  17.620  0.5738  0.2639 -0.0541
  189MPD1    H6 2939   2.680   3.316  17.520 -0.0449 -1.3039 -0.2266
  189MPD1    H7 2940   2.640   3.218  17.654 -1.9722  0.7424 -0.4339
  190MPD1     C 2941   1.815   2.049  15.336  0.3219 -0.0750  0.1336
  190MPD1    C1 2942   1.823   1.976  15.454  0.1109 -0.9709 -0.0459
  190MPD1    C2 2943   1.945   1.945  15.512  0.0436  0.0366  0.3368
  190MPD1    C3 2944   2.063   1.989  15.448 -0.4324 -0.0265 -0.6095
  190MPD1    C4 2945   2.048   2.082  15.342 -0.3110  0.1682  0.0625
  190MPD1    C5 2946   1.927   2.110  15.283 -0.5277  0.2225 -0.1732
  190MPD1     H 2947   1.947   1.892  15.606  1.1826 -2.5871 -1.1494
  190MPD1    H1 2948   2.142   2.118  15.301 -0.5785  0.3227 -0.4074
  190MPD1    H2 2949   1.719   2.063  15.287 -0.3671 -1.9717  0.9506
  190MPD1    H3 2950   1.929   2.170  15.193  1.0619 -0.3727 -0.5283
  190MPD1     N 2951   2.188   1.945  15.501  0.3034  0.3759 -0.1785
  190MPD1    H5 2952   2.187   1.896  15.590  1.4682 -2.0150 -1.4850
  190MPD1    N1 2953   1.715   1.904  15.504 -0.6698 -0.4010  0.5554
  190MPD1    H6 2954   1.624   1.937  15.472 -0.2895  1.4253  1.3872
  190MPD1    H7 2955   1.716   1.876  15.602  1.0690  0.7128  0.8510
  191MPD1     C 2956   0.538   3.557  12.626  0.6628 -0.1495  0.2174
  191MPD1    C1 2957   0.515   3.535  12.493 -0.3146 -0.3518  0.7445
  191MPD1    C2 2958   0.594   3.598  12.399  0.3538 -0.1507  0.7553
  191MPD1    C3 2959   0.698   3.679  12.439  0.1722  0.6820 -0.7498
  191MPD1    C4 2960   0.715   3.703  12.571  0.0308  0.0755  0.4537
  191MPD1    C5 2961   0.637   3.642  12.663 -0.2259 -0.4845  0.1507
  191MPD1     H 2962   0.575   3.586  12.293  0.8812  1.1843  0.5112
  191MPD1    H1 2963   0.798   3.770  12.589  0.6819 -0.5034 -0.4239
  191MPD1    H2 2964   0.484   3.502  12.702  0.8820 -0.8688 -0.1481
  191MPD1    H3 2965   0.652   3.661  12.768  1.9653  1.4345 -0.5023
  191MPD1     N 2966   0.773   3.732  12.329 -0.0155  0.1046 -0.2188
  191MPD1    H5 2967   0.753   3.678  12.245  0.6226  0.3381 -0.5209
  191MPD1    N1 2968   0.399   3.466  12.457 -0.0135  0.0756 -0.1908
  191MPD1    H6 2969   0.394   3.414  12.369 -1.1794  1.0482 -0.6975
  191MPD1    H7 2970   0.375   3.397  12.528 -0.3265  2.2066  1.7402
  192MPD1     C 2971   0.675   3.518  11.507  0.4143 -0.3824  0.7385
  192MPD1    C1 2972   0.774   3.607  11.498  0.1561  1.1527 -0.0490
  192MPD1    C2 2973   0.821   3.673  11.608 -0.2445 -0.3217  0.2644
  192MPD1    C3 2974   0.776   3.652  11.738  0.0965 -0.3785 -0.7272
  192MPD1    C4 2975   0.664   3.566  11.744  0.5919 -0.0290  0.1744
  192MPD1    C5 2976   0.617   3.502  11.632 -0.1223 -0.0805  0.7639
  192MPD1     H 2977   0.903   3.741  11.587  0.5556 -1.1959  0.5380
  192MPD1    H1 2978   0.603   3.537  11.829 -0.6433 -1.2090 -1.1090
  192MPD1    H2 2979   0.639   3.457  11.424  3.0021  0.1263 -0.7714
  192MPD1    H3 2980   0.542   3.424  11.641  0.3702 -0.5723  0.6414
  192MPD1     N 2981   0.824   3.715  11.853  0.3435  0.4659  0.0718
  192MPD1    H5 2982   0.774   3.690  11.937  0.8129  3.2905  1.1699
  192MPD1    N1 2983   0.856   3.622  11.379  0.0210  0.6000 -0.4049
  192MPD1    H6 2984   0.887   3.717  11.358  2.8396 -0.2694 -0.2998
  192MPD1    H7 2985   0.813   3.582  11.296 -1.0674  2.4565 -0.7236
  193MPD1     C 2986   0.947   4.216  16.150 -0.1710 -0.3622 -0.1638
  193MPD1    C1 2987   0.861   4.327  16.172  0.2891 -0.3256  0.4287
  193MPD1    C2 2988   0.923   4.440  16.227 -0.2906 -0.0931  0.2636
  193MPD1    C3 2989   1.059   4.440  16.275  0.5415  0.2478 -0.0268
  193MPD1    C4 2990   1.133   4.316  16.265 -0.3370 -0.3745 -0.2814
  193MPD1    C5 2991   1.077   4.207  16.197 -0.1840  0.1844 -0.1624
  193MPD1     H 2992   0.864   4.531  16.237 -1.6904 -1.0353  0.4664
  193MPD1    H1 2993   1.238   4.305  16.289  0.1952  2.2146 -1.3616
  193MPD1    H2 2994   0.914   4.137  16.084 -1.0574  0.7460 -1.0630
  193MPD1    H3 2995   1.132   4.119  16.168 -0.9176  1.0041 -4.1239
  193MPD1     N 2996   1.127   4.547  16.328  0.0640 -0.4426 -0.0028
  193MPD1    H5 2997   1.226   4.535  16.342  0.3148  1.9168  0.2944
  193MPD1    N1 2998   0.737   4.339  16.098 -0.4725 -0.0899 -0.5738
  193MPD1    H6 2999   0.687   4.253  16.080 -0.9311  0.2509 -0.9184
  193MPD1    H7 3000   0.672   4.398  16.150  0.2064  1.3585 -1.3490
  194MPD1     C 3001   4.114   1.220  16.118 -0.7547 -0.5653 -0.2489
  194MPD1    C1 3002   4.145   1.323  16.203  0.3796  0.2016  0.5757
  194MPD1    C2 3003   4.165   1.297  16.333  0.0147 -0.4203 -0.1140
  194MPD1    C3 3004   4.168   1.172  16.384  0.1393  0.0751 -0.1570
  194MPD1    C4 3005   4.140   1.065  16.295 -0.3027  0.0939  0.4631
  194MPD1    C5 3006   4.124   1.095  16.161  0.2423 -0.3371 -1.5055
  194MPD1     H 3007   4.181   1.378  16.403 -1.8934  0.8148 -1.0997
  194MPD1    H1 3008   4.138   0.961  16.326  0.2928  0.4070  1.5450
  194MPD1    H2 3009   4.081   1.236  16.016 -0.1910 -0.4191 -0.4083
  194MPD1    H3 3010   4.088   1.013  16.099  1.9500 -0.1503 -2.7418
  194MPD1     N 3011   4.178   1.142  16.519  0.5390 -0.7080 -0.2330
  194MPD1    H5 3012   4.158   1.046  16.544 -1.1395 -0.5053 -0.8113
  194MPD1    N1 3013   4.128   1.453  16.157 -0.6236  0.8439  0.1135
  194MPD1    H6 3014   4.162   1.457  16.061 -1.3871 -2.0845 -0.2852
  194MPD1    H7 3015   4.177   1.524  16.212  0.5816  0.4737 -0.4780
  195MPD1     C 3016   2.255   3.177   0.114  0.4121  0.1588  0.1033
  195MPD1    C1 3017   2.221   3.179  17.727  0.2074  0.9178  0.2877
  195MPD1    C2 3018   2.081   3.170  17.708  0.2302  0.6553 -0.3435
  195MPD1    C3 3019   1.996   3.130   0.058 -0.2296 -0.1237  0.1451
  195MPD1    C4 3020   2.036   3.127   0.190 -0.4536  0.0275  0.5538
  195MPD1    C5 3021   2.166   3.154   0.213 -0.4532  0.4554  0.1139
  195MPD1     H 3022   2.042   3.204  17.612 -1.7893 -0.8442 -0.0455
  195MPD1    H1 3023   1.971   3.110   0.275 -0.2971  1.2002  0.9179
  195MPD1    H2 3024   2.350   3.228   0.128  0.3633  0.7304 -1.5273
  195MPD1    H3 3025   2.200   3.152   0.316  1.6275 -1.2709 -0.6100
  195MPD1     N 3026   1.855   3.105   0.032 -0.2775  0.1929  0.4739
  195MPD1    H5 3027   1.789   3.080   0.105 -1.3430 -2.3324 -1.3350
  195MPD1    N1 3028   2.309   3.234  17.631 -0.6061 -0.6581  0.3766
  195MPD1    H6 3029   2.282   3.203  17.538 -2.8498 -0.6928  1.0418
  195MPD1    H7 3030   2.396   3.183  17.642 -1.0202 -1.8450 -1.7924
  196MPD1     C 3031   0.260   1.801   0.234  0.2977 -0.0475  0.6008
  196MPD1    C1 3032   0.231   1.905   0.144  0.0034  0.9280 -0.4503
  196MPD1    C2 3033   0.275   2.036   0.179 -0.5435 -1.0291  0.4690
  196MPD1    C3 3034   0.354   2.043   0.287  0.9248  0.1544 -0.2798
  196MPD1    C4 3035   0.375   1.939   0.376  0.0567  0.5179 -0.3444
  196MPD1    C5 3036   0.329   1.817   0.348 -0.2447 -0.2502 -0.1118
  196MPD1     H 3037   0.252   2.128   0.126  1.8974  0.5155  2.0903
  196MPD1    H1 3038   0.432   1.956   0.467 -1.7510 -2.3742  1.3273
  196MPD1    H2 3039   0.231   1.699   0.211 -2.7100  0.7350  0.9070
  196MPD1    H3 3040   0.331   1.736   0.419 -2.7824 -0.1967  0.0091
  196MPD1     N 3041   0.415   2.167   0.322  0.4836  0.3393 -0.1514
  196MPD1    H5 3042   0.454   2.173   0.416  2.6858 -2.4678 -0.8788
  196MPD1    N1 3043   0.148   1.873   0.037 -0.5246 -0.1861 -0.3506
  196MPD1    H6 3044   0.068   1.816   0.065 -1.4486  0.4133 -1.7874
  196MPD1    H7 3045   0.125   1.963  17.746 -3.7405 -1.4163 -1.2100
  197MPD1     C 3046   4.479   4.132  17.312 -0.1308  0.2865  0.3494
  197MPD1    C1 3047   4.569   4.226  17.359 -0.0099 -0.5922 -0.0399
  197MPD1    C2 3048   4.620   4.318  17.278 -0.6565  0.5744 -0.8309
  197MPD1    C3 3049   4.572   4.328  17.147 -0.1052  0.0541 -0.1552
  197MPD1    C4 3050   4.480   4.243  17.101  0.7117  0.3220 -0.4535
  197MPD1    C5 3051   4.433   4.141  17.183 -0.5029  0.0370  0.0480
  197MPD1     H 3052   4.698   4.382  17.316 -0.0048 -1.5000  1.3293
  197MPD1    H1 3053   4.458   4.227  16.996  1.4407  1.4139 -0.7679
  197MPD1    H2 3054   4.433   4.057  17.376  0.4299 -0.8868 -0.6292
  197MPD1    H3 3055   4.352   4.078  17.148 -0.4253  0.3002 -0.6088
  197MPD1     N 3056   4.625   4.427  17.061 -0.2962 -0.3259  0.0399
  197MPD1    H5 3057   4.590   4.426  16.966  0.3185 -0.4692 -0.1828
  197MPD1    N1 3058   4.596   4.226  17.495  0.6352  0.3963 -0.0528
  197MPD1    H6 3059   4.694   4.216  17.518  0.7016  0.6295 -0.2310
  197MPD1    H7 3060   4.554   4.152  17.552  1.2828 -0.4813 -0.7226
  198MPD1     C 3061   1.751   3.123  15.094 -0.1354  0.3996  0.4166
  198MPD1    C1 3062   1.851   3.208  15.058  0.2145  0.0312  0.5768
  198MPD1    C2 3063   1.939   3.252  15.156  0.1579 -0.0705 -1.3298
  198MPD1    C3 3064   1.920   3.225  15.290  0.0392 -0.1917 -0.8461
  198MPD1    C4 3065   1.813   3.148  15.322  0.0677  0.0006  0.4592
  198MPD1    C5 3066   1.731   3.096  15.229 -0.2833 -0.0076  0.1612
  198MPD1     H 3067   2.024   3.308  15.118  1.2704 -0.2469  0.8951
  198MPD1    H1 3068   1.786   3.133  15.426  0.9936  0.8335  0.8254
  198MPD1    H2 3069   1.679   3.091  15.020 -0.0896  0.8623  0.1702
  198MPD1    H3 3070   1.641   3.042  15.253 -0.5833  0.5661  0.3164
  198MPD1     N 3071   2.013   3.280  15.384 -0.8368  0.3608  0.0081
  198MPD1    H5 3072   2.086   3.343  15.352 -0.8679  1.2213  1.6239
  198MPD1    N1 3073   1.887   3.210  14.916  0.3069 -0.1555  0.9746
  198MPD1    H6 3074   1.795   3.220  14.874  1.1448 -2.4087 -1.4003
  198MPD1    H7 3075   1.946   3.291  14.896  0.9396 -0.9376 -0.3215
  199MPD1     C 3076   3.498   4.109   9.869 -1.4590 -0.1640 -0.4526
  199MPD1    C1 3077   3.547   4.207   9.795 -0.3489  0.4521  0.0749
  199MPD1    C2 3078   3.491   4.333   9.822 -0.3500 -0.6325 -0.0536
  199MPD1    C3 3079   3.389   4.354   9.913  0.0933 -0.4263 -0.1732
  199MPD1    C4 3080   3.341   4.244   9.977  0.1576 -0.6091 -0.1530
  199MPD1    C5 3081   3.395   4.122   9.958 -0.7553  0.8300 -0.7963
  199MPD1     H 3082   3.541   4.421   9.783 -1.4537 -1.2506 -2.8498
  199MPD1    H1 3083   3.265   4.248  10.055  2.6445 -1.2082  2.3199
  199MPD1    H2 3084   3.539   4.009   9.867 -0.1522  0.3452  0.7172
  199MPD1    H3 3085   3.360   4.033  10.009  1.5831 -0.4681 -1.4367
  199MPD1     N 3086   3.335   4.476   9.948  0.0037  1.0467 -0.2527
  199MPD1    H5 3087   3.261   4.469  10.017 -1.3971 -5.5235 -2.4570
  199MPD1    N1 3088   3.664   4.197   9.723 -0.6562  0.0166 -0.0779
  199MPD1    H6 3089   3.664   4.113   9.665  3.7081  0.1199 -0.2387
  199MPD1    H7 3090   3.679   4.269   9.652  0.5302 -1.1831 -1.0552
  200MPD1     C 3091   3.730   0.218  16.311  0.4156 -0.0903  0.1298
  200MPD1    C1 3092   3.632   0.312  16.287  0.4623 -0.4496  0.2349
  200MPD1    C2 3093   3.592   0.332  16.160 -0.4127  0.2427  0.1782
  200MPD1    C3 3094   3.633   0.248  16.061 -0.0629 -0.7965  0.6406
  200MPD1    C4 3095   3.728   0.147  16.076  0.1055 -0.2174  0.0996
  200MPD1    C5 3096   3.776   0.137  16.205  0.1806 -0.4664 -0.2277
  200MPD1     H 3097   3.521   0.411  16.139 -2.8687 -2.3544 -1.1953
  200MPD1    H1 3098   3.770   0.086  15.997 -1.8924  1.3864 -2.2007
  200MPD1    H2 3099   3.776   0.210  16.409  2.1610  3.2251 -0.4307
  200MPD1    H3 3100   3.848   0.058  16.220  1.1674  0.2143 -1.3394
  200MPD1     N 3101   3.572   0.263  15.931 -0.0474  0.3300  0.6082
  200MPD1    H5 3102   3.496   0.328  15.915 -2.4622 -2.6058  0.2376
  200MPD1    N1 3103   3.589   0.400  16.389 -0.3512 -0.3343  0.4400
  200MPD1    H6 3104   3.491   0.424  16.381  0.4396  2.6067 -0.1608
  200MPD1    H7 3105   3.597   0.361  16.483  0.9623  0.4707  0.6629
  201MPD1     C 3106   0.261   3.969  12.878  0.6555  0.3076 -0.5837
  201MPD1    C1 3107   0.235   3.853  12.805  0.7359 -0.7823  0.5524
  201MPD1    C2 3108   0.288   3.739  12.843  0.5615  0.1677 -0.5070
  201MPD1    C3 3109   0.369   3.721  12.955  0.6923 -0.0985  0.8563
  201MPD1    C4 3110   0.384   3.833  13.037  0.6840 -0.2944 -0.4528
  201MPD1    C5 3111   0.334   3.955  12.994 -0.0758  0.1074 -0.1515
  201MPD1     H 3112   0.262   3.652  12.786 -0.2459 -0.1047  0.2778
  201MPD1    H1 3113   0.446   3.845  13.125 -2.3633  0.3924  1.6132
  201MPD1    H2 3114   0.235   4.069  12.847 -1.4167 -0.1153 -0.2174
  201MPD1    H3 3115   0.364   4.046  13.045 -0.0004 -0.6208  1.1015
  201MPD1     N 3116   0.421   3.597  12.977 -0.3618 -0.5443  0.1252
  201MPD1    H5 3117   0.420   3.532  12.899  0.2411 -0.1672 -0.1920
  201MPD1    N1 3118   0.167   3.861  12.684 -0.1140  0.0979  0.0182
  201MPD1    H6 3119   0.225   3.926  12.630 -3.1195 -0.4342 -3.8767
  201MPD1    H7 3120   0.173   3.769  12.641  2.4103 -0.0911  0.8048
  202MPD1     C 3121   0.083   2.662   9.406  0.0336 -0.3170  0.2833
  202MPD1    C1 3122   0.062   2.783   9.463  0.1912  0.6229 -0.4348
  202MPD1    C2 3123   0.141   2.804   9.573 -0.6760 -0.2589 -0.3979
  202MPD1    C3 3124   0.261   2.734   9.584 -0.1092  0.1265 -0.2891
  202MPD1    C4 3125   0.295   2.636   9.495  0.6625  0.3380  0.0388
  202MPD1    C5 3126   0.196   2.593   9.413 -0.0696 -0.2589 -0.4195
  202MPD1     H 3127   0.118   2.888   9.637 -2.2681 -0.2419 -1.0094
  202MPD1    H1 3128   0.391   2.585   9.503 -0.4575 -1.2871  2.8585
  202MPD1    H2 3129   0.003   2.613   9.353  1.8290 -1.3468 -1.4754
  202MPD1    H3 3130   0.209   2.499   9.360  0.5375 -0.0718 -0.6071
  202MPD1     N 3131   0.361   2.769   9.676  0.1828  0.3067  0.2220
  202MPD1    H5 3132   0.454   2.730   9.667 -0.6461 -2.3874  3.2488
  202MPD1    N1 3133   4.677   2.849   9.461  0.2066  0.5480 -0.0252
  202MPD1    H6 3134   4.661   2.856   9.361  0.7639 -1.9239 -0.2754
  202MPD1    H7 3135   4.682   2.942   9.503  0.0958  0.1408  0.8857
  203MPD1     C 3136   3.931   3.922  12.310 -0.7257 -0.2006 -0.2781
  203MPD1    C1 3137   4.035   3.891  12.227 -0.0315 -0.4260  0.3513
  203MPD1    C2 3138   4.129   3.798  12.267  0.2550 -0.3936 -0.2096
  203MPD1    C3 3139   4.129   3.741  12.397  0.1391 -0.4225  0.1201
  203MPD1    C4 3140   4.031   3.790  12.483 -0.2113 -0.9118 -0.8141
  203MPD1    C5 3141   3.932   3.873  12.438  0.1351 -0.3128 -0.6570
  203MPD1     H 3142   4.200   3.771  12.190  1.2322  0.0475  0.5307
  203MPD1    H1 3143   4.018   3.749  12.583 -0.5641  0.7864 -0.1513
  203MPD1    H2 3144   3.843   3.978  12.282 -0.1557  0.7643 -0.1356
  203MPD1    H3 3145   3.837   3.882  12.491  0.0528  0.8896 -1.0125
  203MPD1     N 3146   4.227   3.642  12.442 -0.2365 -0.7024  0.2440
  203MPD1    H5 3147   4.283   3.604  12.366  0.2268 -4.8492  2.6997
  203MPD1    N1 3148   4.026   3.923  12.088 -0.2424 -0.1486  0.1697
  203MPD1    H6 3149   4.114   3.944  12.042 -1.3937  1.6064 -1.2521
  203MPD1    H7 3150   3.982   4.015  12.078 -0.6133 -0.4006 -0.4893
  204MPD1     C 3151   4.134   0.414  17.582  0.7190 -0.4396  0.8220
  204MPD1    C1 3152   4.188   0.326  17.496 -0.4337 -0.1246 -0.1662
  204MPD1    C2 3153   4.107   0.232  17.433 -0.5601  0.1399  0.1913
  204MPD1    C3 3154   3.976   0.217  17.468  0.0454  0.0156  0.3714
  204MPD1    C4 3155   3.920   0.311  17.554  0.5643  0.4999  0.1872
  204MPD1    C5 3156   4.002   0.412  17.605  0.3750  0.3587  0.3165
  204MPD1     H 3157   4.158   0.160  17.369 -0.7662  0.5078 -0.3833
  204MPD1    H1 3158   3.815   0.303  17.581 -0.1331  2.2035 -1.9509
  204MPD1    H2 3159   4.184   0.498  17.627 -0.5399  0.7165  0.0442
  204MPD1    H3 3160   3.958   0.482  17.675 -0.8669 -2.8068  2.7140
  204MPD1     N 3161   3.913   0.108  17.411  0.1493  0.6358  0.3082
  204MPD1    H5 3162   3.958   0.058  17.335  0.8857 -1.2070  1.9456
  204MPD1    N1 3163   4.322   0.338  17.462 -0.1928 -0.6143  0.3940
  204MPD1    H6 3164   4.365   0.250  17.436 -0.8157  0.2285 -3.3797
  204MPD1    H7 3165   4.366   0.377  17.546 -1.4445  0.5416  0.5181
  205MPD1     C 3166   4.501   3.593  17.164 -0.7016 -0.1144 -0.0421
  205MPD1    C1 3167   4.453   3.477  17.217  0.7594 -0.1540  0.1350
  205MPD1    C2 3168   4.332   3.478  17.286 -0.0243  0.3505 -0.2464
  205MPD1    C3 3169   4.254   3.595  17.294  0.0703 -0.6133 -0.1102
  205MPD1    C4 3170   4.305   3.709  17.237 -0.0911  0.8933  0.4432
  205MPD1    C5 3171   4.427   3.708  17.171  0.3836  0.2657  0.2780
  205MPD1     H 3172   4.293   3.384  17.323 -0.3018 -0.4790 -2.6517
  205MPD1    H1 3173   4.258   3.805  17.254 -1.6345  0.2465 -0.1558
  205MPD1    H2 3174   4.599   3.583  17.119 -1.1414 -0.1230 -0.9977
  205MPD1    H3 3175   4.453   3.803  17.125  0.7014  0.5098  0.9665
  205MPD1     N 3176   4.135   3.600  17.367 -0.2333  0.1764 -0.1777
  205MPD1    H5 3177   4.095   3.693  17.374 -2.1195 -0.4932 -2.2222
  205MPD1    N1 3178   4.542   3.362  17.228  0.1389  0.2207 -0.1601
  205MPD1    H6 3179   4.485   3.281  17.250  1.9949 -1.5076 -1.6955
  205MPD1    H7 3180   4.592   3.348  17.140  3.2095  1.4705  1.3942
  206MPD1     C 3181   4.601   1.995  15.557  0.1056 -0.5266 -0.4636
  206MPD1    C1 3182   4.571   1.889  15.640 -0.0422  0.0784  0.2433
  206MPD1    C2 3183   4.452   1.817  15.625  0.6231  0.1638 -0.9619
  206MPD1    C3 3184   4.352   1.866  15.543  0.8961 -0.1628 -0.1446
  206MPD1    C4 3185   4.378   1.983  15.471 -0.1596 -0.2135 -0.3555
  206MPD1    C5 3186   4.500   2.045  15.478  0.0605  0.1484 -0.7745
  206MPD1     H 3187   4.436   1.722  15.674 -3.8509  1.8913  0.9219
  206MPD1    H1 3188   4.298   2.024  15.411  0.2301  0.2640 -0.5541
  206MPD1    H2 3189   4.696   2.047  15.560 -0.9305  1.3673 -0.1145
  206MPD1    H3 3190   4.507   2.139  15.426  0.3374 -0.1738 -1.3282
  206MPD1     N 3191   4.229   1.806  15.518  0.0617 -0.0704  0.1032
  206MPD1    H5 3192   4.167   1.849  15.450  0.6815 -0.8413 -0.9328
  206MPD1    N1 3193   4.676   1.834  15.715  0.3406 -0.0624 -0.1420
  206MPD1    H6 3194   0.019   1.886  15.747 -1.7223  1.9437  1.7491
  206MPD1    H7 3195   4.638   1.785  15.795  0.1050  1.5518  0.7255
  207MPD1     C 3196   1.336   3.927  10.014 -0.0438  0.2855  0.5581
  207MPD1    C1 3197   1.374   4.042   9.946 -0.8284  0.1914  0.1679
  207MPD1    C2 3198   1.471   4.128   9.990 -0.2126 -0.0939  0.0158
  207MPD1    C3 3199   1.524   4.101  10.117  0.4526  0.8660  0.5927
  207MPD1    C4 3200   1.478   3.993  10.187 -0.3702 -0.0854  0.1111
  207MPD1    C5 3201   1.388   3.904  10.134 -0.1842  0.3081  0.1402
  207MPD1     H 3202   1.505   4.201   9.917  1.1261  0.0012  0.7347
  207MPD1    H1 3203   1.530   3.960  10.276 -0.5800 -0.0044  0.2637
  207MPD1    H2 3204   1.275   3.849   9.968 -0.4140  0.0512  1.4566
  207MPD1    H3 3205   1.353   3.816  10.187 -1.1137 -0.0752 -1.1018
  207MPD1     N 3206   1.628   4.181  10.170 -0.0393  0.3759 -0.7042
  207MPD1    H5 3207   1.661   4.157  10.263  0.1192 -1.0798 -1.1298
  207MPD1    N1 3208   1.334   4.067   9.810 -0.1538 -0.2556  0.3831
  207MPD1    H6 3209   1.319   4.168   9.801 -1.1690 -0.3822  0.7677
  207MPD1    H7 3210   1.240   4.034   9.791  0.0144  0.0074 -0.9444
  208MPD1     C 3211   3.497   2.049  17.074 -0.3459 -0.1417 -0.5111
  208MPD1    C1 3212   3.416   2.142  17.126  1.1010  0.2024 -0.8195
  208MPD1    C2 3213   3.455   2.205  17.247 -0.0253  0.3171  0.2090
  208MPD1    C3 3214   3.579   2.170  17.306  0.4057 -0.0413  0.6491
  208MPD1    C4 3215   3.671   2.090  17.246  0.0572 -0.1066 -0.1470
  208MPD1    C5 3216   3.617   2.020  17.137 -0.1807  0.2534  0.2738
  208MPD1     H 3217   3.401   2.288  17.291 -0.5601  0.1003 -0.0473
  208MPD1    H1 3218   3.764   2.054  17.287  0.3940 -0.3172 -1.1022
  208MPD1    H2 3219   3.491   2.001  16.977  1.2362 -0.0804 -0.6377
  208MPD1    H3 3220   3.681   1.947  17.089  0.4136  1.5784 -0.9327
  208MPD1     N 3221   3.616   2.241  17.423  0.0164  0.3130  0.4106
  208MPD1    H5 3222   3.550   2.308  17.460 -0.8456  0.9344 -2.2390
  208MPD1    N1 3223   3.319   2.194  17.041  0.6030  0.4856 -0.0537
  208MPD1    H6 3224   3.287   2.115  16.986  0.5629  1.0215 -0.7879
  208MPD1    H7 3225   3.239   2.246  17.077  0.5146  0.6000 -0.4198
  209MPD1     C 3226   2.288   3.865  11.712  0.2460 -0.3614 -0.0120
  209MPD1    C1 3227   2.344   3.991  11.732 -0.2040  0.1702 -0.5412
  209MPD1    C2 3228   2.299   4.097  11.654 -0.2112 -0.0734 -0.7972
  209MPD1    C3 3229   2.207   4.075  11.555  0.3223  0.0559  0.6864
  209MPD1    C4 3230   2.165   3.941  11.528  0.5817 -0.2011  0.4330
  209MPD1    C5 3231   2.199   3.837  11.613  0.3474  0.5924  0.3843
  209MPD1     H 3232   2.329   4.198  11.682  2.4819 -0.7358 -1.2192
  209MPD1    H1 3233   2.098   3.921  11.445 -0.2832  1.5327  0.7007
  209MPD1    H2 3234   2.322   3.784  11.776  3.2313 -0.6998 -2.0767
  209MPD1    H3 3235   2.159   3.738  11.592 -0.9027  1.5841 -1.9662
  209MPD1     N 3236   2.153   4.176  11.475 -0.5199  0.1856  0.0899
  209MPD1    H5 3237   2.087   4.141  11.406 -0.2401 -0.3405  0.0973
  209MPD1    N1 3238   2.423   4.001  11.847  0.0732 -0.9714 -0.3237
  209MPD1    H6 3239   2.485   3.924  11.866  2.2600  0.7990 -0.3181
  209MPD1    H7 3240   2.491   4.074  11.830  0.9215 -1.5745  0.5112
  210MPD1     C 3241   1.746   0.256  11.816  0.3000 -0.0270 -0.4043
  210MPD1    C1 3242   1.684   0.222  11.699 -0.2495  0.2215  0.1421
  210MPD1    C2 3243   1.759   0.144  11.610  0.1102 -0.3714 -0.6282
  210MPD1    C3 3244   1.897   0.116  11.616 -0.3793 -0.1985 -0.2217
  210MPD1    C4 3245   1.954   0.153  11.735  0.1890  0.0741 -1.0472
  210MPD1    C5 3246   1.881   0.218  11.831  0.6511  0.3327 -0.2124
  210MPD1     H 3247   1.696   0.115  11.527 -0.9031 -3.3872  1.1994
  210MPD1    H1 3248   2.061   0.146  11.747 -0.0720 -1.3489  0.5011
  210MPD1    H2 3249   1.701   0.325  11.885  3.3115  0.2758  1.2722
  210MPD1    H3 3250   1.938   0.256  11.915  0.9845  0.8839 -0.6861
  210MPD1     N 3251   1.981   0.045  11.526  0.2270  0.8138 -0.4411
  210MPD1    H5 3252   2.074   0.031  11.563 -0.1520 -0.7679 -0.0747
  210MPD1    N1 3253   1.544   0.237  11.696 -0.6399  0.1545 -0.4585
  210MPD1    H6 3254   1.497   0.225  11.606  0.5961 -1.9696 -0.8054
  210MPD1    H7 3255   1.515   0.321  11.747 -0.8289 -0.3479  0.2484
  211MPD1     C 3256   0.048   3.345  16.936  0.5947 -0.2546  0.5774
  211MPD1    C1 3257   4.688   3.252  16.926  0.7079  0.0105  0.5369
  211MPD1    C2 3258   4.590   3.273  16.832 -0.3609 -0.4534  0.0737
  211MPD1    C3 3259   4.598   3.369  16.735 -0.8063  0.2427  0.3403
  211MPD1    C4 3260   4.703   3.451  16.738  0.0660 -0.1491  1.2556
  211MPD1    C5 3261   0.064   3.435  16.835 -0.4455 -0.0116  0.1774
  211MPD1     H 3262   4.505   3.205  16.842  2.0638 -3.4891  0.0026
  211MPD1    H1 3263   4.713   3.537  16.672  0.2649  1.3518  3.2472
  211MPD1    H2 3264   0.121   3.347  17.016  1.7592  0.8252 -0.5066
  211MPD1    H3 3265   0.140   3.512  16.839 -1.1435  0.5129  2.9942
  211MPD1     N 3266   4.489   3.382  16.646 -0.6129  0.6385  0.1147
  211MPD1    H5 3267   4.408   3.330  16.676 -0.0022 -0.5069 -0.2311
  211MPD1    N1 3268   4.676   3.164  17.035 -0.2638 -0.2112  0.5505
  211MPD1    H6 3269   4.613   3.085  17.020  0.0876 -0.0552 -1.8023
  211MPD1    H7 3270   0.025   3.139  17.081 -0.3749 -1.7292 -0.0481
  212MPD1     C 3271   3.718   1.683  16.559  0.1038  0.6055 -0.1374
  212MPD1    C1 3272   3.711   1.727  16.694  0.6977 -0.2307  0.7336
  212MPD1    C2 3273   3.637   1.647  16.780 -0.1599  0.7876  0.1068
  212MPD1    C3 3274   3.574   1.532  16.737 -0.0009 -0.0796 -0.5344
  212MPD1    C4 3275   3.592   1.484  16.606 -0.1052  0.2817 -0.6182
  212MPD1    C5 3276   3.658   1.566  16.515 -0.6003  0.2802 -0.4727
  212MPD1     H 3277   3.621   1.670  16.885 -1.0047  0.0562  0.1381
  212MPD1    H1 3278   3.547   1.391  16.575 -1.2493 -0.0212  1.9269
  212MPD1    H2 3279   3.781   1.736  16.488  0.3528 -1.8847 -1.7513
  212MPD1    H3 3280   3.676   1.526  16.416  0.8409 -0.8364  0.2530
  212MPD1     N 3281   3.498   1.447  16.819  0.0664 -0.1663  0.7935
  212MPD1    H5 3282   3.464   1.361  16.778  0.4987  0.9071 -1.8516
  212MPD1    N1 3283   3.756   1.858  16.727 -0.3798  0.5256  0.2128
  212MPD1    H6 3284   3.779   1.864  16.826  0.3316  2.9532 -0.0844
  212MPD1    H7 3285   3.846   1.876  16.684 -1.5553 -0.7319 -2.7662
  213MPD1     C 3286   1.759   2.404  15.531  0.2200 -0.6671  0.0875
  213MPD1    C1 3287   1.669   2.322  15.470 -0.2453 -0.1290 -1.1532
  213MPD1    C2 3288   1.569   2.397  15.410 -0.5344 -0.0181  0.4153
  213MPD1    C3 3289   1.577   2.527  15.372 -0.4666  0.3163  0.1628
  213MPD1    C4 3290   1.689   2.598  15.415  0.1381  0.3272  0.8604
  213MPD1    C5 3291   1.774   2.535  15.503  0.7421 -0.0847  0.7203
  213MPD1     H 3292   1.477   2.348  15.381 -2.6063  2.6606  2.4094
  213MPD1    H1 3293   1.703   2.702  15.388  0.1619  0.1370  0.1426
  213MPD1    H2 3294   1.838   2.355  15.586 -0.7039 -1.4786  0.6857
  213MPD1    H3 3295   1.853   2.598  15.544  0.0747  1.2596 -0.0421
  213MPD1     N 3296   1.473   2.579  15.292  0.6924  0.2312  0.0886
  213MPD1    H5 3297   1.390   2.522  15.279  0.6705  0.1135  0.7778
  213MPD1    N1 3298   1.636   2.198  15.534  0.1589  0.1863  0.1626
  213MPD1    H6 3299   1.715   2.134  15.541 -1.0344 -1.2242  0.7086
  213MPD1    H7 3300   1.562   2.150  15.483 -0.6661  0.8853  0.7191
  214MPD1     C 3301   0.929   2.159  14.725  0.3274  0.0109  0.0568
  214MPD1    C1 3302   0.981   2.264  14.653 -0.4396 -0.6319 -0.0403
  214MPD1    C2 3303   1.055   2.356  14.723 -0.1338  0.0116 -0.0041
  214MPD1    C3 3304   1.064   2.349  14.861 -0.3713  0.4342 -1.0982
  214MPD1    C4 3305   1.009   2.243  14.930  0.0977  0.0208 -0.6616
  214MPD1    C5 3306   0.947   2.147  14.862  0.7715  0.6390 -0.0514
  214MPD1     H 3307   1.114   2.429  14.670 -1.1807  1.2608  0.5465
  214MPD1    H1 3308   1.018   2.238  15.038 -0.9397  0.0412 -0.5818
  214MPD1    H2 3309   0.882   2.077  14.672  0.7361 -0.1259 -0.0969
  214MPD1    H3 3310   0.909   2.055  14.906  0.9486  1.4500  1.8134
  214MPD1     N 3311   1.123   2.448  14.938  0.0321 -0.6147 -0.2237
  214MPD1    H5 3312   1.120   2.440  15.039  2.1457 -0.4841 -0.1541
  214MPD1    N1 3313   0.991   2.248  14.513 -1.2379  0.3749  0.2614
  214MPD1    H6 3314   0.912   2.192  14.481 -0.8204 -1.4500  2.4494
  214MPD1    H7 3315   1.002   2.329  14.451  1.2161  0.4599  0.8085
  215MPD1     C 3316   1.501   3.229  10.743 -0.0978 -0.0738 -0.2332
  215MPD1    C1 3317   1.513   3.223  10.881  0.5453  0.0519  0.3511
  215MPD1    C2 3318   1.480   3.334  10.957 -1.0134 -0.0406  0.1217
  215MPD1    C3 3319   1.478   3.457  10.894 -0.0910 -0.1274 -0.0240
  215MPD1    C4 3320   1.486   3.462  10.755  0.3446  0.0995 -0.2396
  215MPD1    C5 3321   1.481   3.348  10.684  0.1578  0.2151 -0.6677
  215MPD1     H 3322   1.469   3.318  11.063  0.6557  2.0172  0.6044
  215MPD1    H1 3323   1.484   3.545  10.686  2.3295  0.1287 -0.2741
  215MPD1    H2 3324   1.523   3.142  10.681 -1.3373  0.4950 -1.4820
  215MPD1    H3 3325   1.476   3.360  10.576 -0.3074 -1.5761 -0.8499
  215MPD1     N 3326   1.474   3.578  10.974 -0.0099 -0.0073  0.3272
  215MPD1    H5 3327   1.466   3.572  11.075  0.8417 -1.7841  0.2819
  215MPD1    N1 3328   1.526   3.095  10.941 -0.0278  0.0208 -0.2233
  215MPD1    H6 3329   1.567   3.092  11.034 -0.4944 -2.0766 -0.0855
  215MPD1    H7 3330   1.568   3.025  10.880 -0.9320 -0.0604 -0.7533
  216MPD1     C 3331   3.856   1.252  16.521  0.2334  0.8884  0.1097
  216MPD1    C1 3332   3.828   1.120  16.491  0.4699 -0.1518 -0.1509
  216MPD1    C2 3333   3.770   1.049  16.597  0.1073 -0.4326 -0.1464
  216MPD1    C3 3334   3.774   1.090  16.732 -0.1830  0.5798  0.2542
  216MPD1    C4 3335   3.816   1.220  16.755 -0.1390 -0.0204 -0.1713
  216MPD1    C5 3336   3.841   1.297  16.651 -0.3591 -0.0149 -0.3712
  216MPD1     H 3337   3.744   0.950  16.562 -1.1122 -0.2891  0.3602
  216MPD1    H1 3338   3.834   1.252  16.857  1.2299  2.4442 -1.2023
  216MPD1    H2 3339   3.869   1.322  16.439 -0.1057  1.0656  0.2099
  216MPD1    H3 3340   3.863   1.398  16.683  3.6131 -1.0961  0.2917
  216MPD1     N 3341   3.737   1.004  16.836 -0.5444 -0.1973 -0.8582
  216MPD1    H5 3342   3.738   0.908  16.803  1.8245 -1.1813  2.1205
  216MPD1    N1 3343   3.811   1.088  16.358 -0.0940  0.3006 -0.0105
  216MPD1    H6 3344   3.803   0.989  16.334 -1.0504  0.5396 -0.6458
  216MPD1    H7 3345   3.888   1.121  16.300  0.2872 -0.1946  0.2065
  217MPD1     C 3346   3.135   0.142   9.642  0.0573  0.1912  0.7770
  217MPD1    C1 3347   3.234   0.086   9.557 -0.3669  0.5904 -0.5499
  217MPD1    C2 3348   3.228   4.688   9.545 -0.1333 -0.0368  0.1487
  217MPD1    C3 3349   3.155   4.604   9.628  0.3354 -0.2011 -0.0074
  217MPD1    C4 3350   3.065   4.660   9.707 -0.3236  0.0520  0.0858
  217MPD1    C5 3351   3.052   0.056   9.711  0.1155 -0.2762  0.1907
  217MPD1     H 3352   3.301   4.638   9.483  0.5936 -0.4616  1.3471
  217MPD1    H1 3353   2.997   4.611   9.776  0.1703 -0.2987  0.3304
  217MPD1    H2 3354   3.120   0.249   9.659 -0.0474  0.4405 -0.9334
  217MPD1    H3 3355   2.977   0.102   9.775 -0.8537  1.3540 -2.0774
  217MPD1     N 3356   3.150   4.462   9.616 -0.4020  0.2664  0.2570
  217MPD1    H5 3357   3.094   4.408   9.682  0.8641 -1.0758  0.2281
  217MPD1    N1 3358   3.322   0.158   9.479 -0.6494 -0.2700 -0.1828
  217MPD1    H6 3359   3.339   0.250   9.519  2.5328 -1.0162  0.1388
  217MPD1    H7 3360   3.414   0.116   9.471 -1.7473 -2.3342 -1.9111
  218MPD1     C 3361   0.694   4.205  12.121  0.4616  0.3759  0.3843
  218MPD1    C1 3362   0.814   4.261  12.080  0.8146 -0.0625 -0.4171
  218MPD1    C2 3363   0.899   4.309  12.178 -0.2864 -0.1802 -0.1564
  218MPD1    C3 3364   0.879   4.293  12.317  1.2781 -0.4059 -0.1236
  218MPD1    C4 3365   0.750   4.240  12.356 -0.7483  0.5660 -0.6608
  218MPD1    C5 3366   0.669   4.206  12.254 -0.5596 -0.0563  0.8123
  218MPD1     H 3367   0.994   4.356  12.158  0.5756 -1.5263  0.8193
  218MPD1    H1 3368   0.724   4.247  12.461  0.4725 -1.4311 -0.2189
  218MPD1    H2 3369   0.619   4.163  12.055 -1.1011  0.9182  1.8307
  218MPD1    H3 3370   0.573   4.165  12.283 -0.0063 -2.4094 -0.6745
  218MPD1     N 3371   0.984   4.333  12.405 -0.4535 -0.2022  0.2891
  218MPD1    H5 3372   1.070   4.368  12.363 -0.3013  0.2996  1.0140
  218MPD1    N1 3373   0.861   4.270  11.944  0.1349  0.0637  0.1758
  218MPD1    H6 3374   0.832   4.190  11.887 -4.2981  1.1271  0.9332
  218MPD1    H7 3375   0.962   4.281  11.938 -0.0972  2.8381  1.6658
  219MPD1     C 3376   1.888   4.668  12.326  0.4037 -0.3593 -0.0890
  219MPD1    C1 3377   1.766   4.662  12.253 -0.9407  1.2896 -0.8731
  219MPD1    C2 3378   1.655   4.626  12.329 -0.6380 -0.1460  0.6061
  219MPD1    C3 3379   1.664   4.565  12.457  0.6279  0.1686  0.1732
  219MPD1    C4 3380   1.793   4.552  12.513  0.5196  0.4646  0.0467
  219MPD1    C5 3381   1.906   4.608  12.453  0.3831 -0.1589 -0.5753
  219MPD1     H 3382   1.562   4.629  12.272  0.7504  0.5882 -1.6070
  219MPD1    H1 3383   1.803   4.489  12.601  1.9005  1.2101  0.4207
  219MPD1    H2 3384   1.980   4.703  12.283 -0.2803  1.1628 -0.3270
  219MPD1    H3 3385   2.007   4.607  12.495 -0.2992 -2.8436  1.0341
  219MPD1     N 3386   1.557   4.492  12.518  0.3545 -0.6118  0.0805
  219MPD1    H5 3387   1.572   4.440  12.604  1.2351 -0.2934  0.1182
  219MPD1    N1 3388   1.741   4.721  12.128  0.1707 -0.6220 -0.6585
  219MPD1    H6 3389   1.824   4.728  12.069  1.1549 -0.2378  0.7599
  219MPD1    H7 3390   1.657   4.686  12.083  0.2664 -0.7541 -0.7364
  220MPD1     C 3391   1.312   0.285   9.723  0.0921  0.2369 -0.0560
  220MPD1    C1 3392   1.432   0.223   9.758 -0.1458  0.1099  0.3034
  220MPD1    C2 3393   1.429   0.090   9.810  0.9571 -0.2135 -0.0623
  220MPD1    C3 3394   1.303   0.026   9.818  0.1837 -0.3476 -0.2508
  220MPD1    C4 3395   1.183   0.087   9.787 -0.3416  0.0085  0.1599
  220MPD1    C5 3396   1.194   0.213   9.734  0.4429 -0.1161 -0.1100
  220MPD1     H 3397   1.516   0.040   9.853 -0.7085 -1.5214  1.7908
  220MPD1    H1 3398   1.084   0.045   9.800 -0.2602 -0.6871 -1.5157
  220MPD1    H2 3399   1.305   0.388   9.690 -1.5599 -0.0445 -0.5946
  220MPD1    H3 3400   1.101   0.262   9.707  2.3180  2.1566 -2.4450
  220MPD1     N 3401   1.302   4.641   9.883 -0.3601 -0.2386 -0.2286
  220MPD1    H5 3402   1.391   4.605   9.919  0.0434  1.7504  0.7496
  220MPD1    N1 3403   1.556   0.302   9.762  0.1632 -0.4159  0.1870
  220MPD1    H6 3404   1.559   0.369   9.685  0.4232 -0.2681  0.3271
  220MPD1    H7 3405   1.638   0.244   9.752  0.2568 -0.0936 -0.9641
  221MPD1     C 3406   0.196   2.157  16.820  0.5984  0.3258  0.7503
  221MPD1    C1 3407   0.067   2.122  16.843 -0.0035  0.4724  0.3996
  221MPD1    C2 3408   4.711   2.194  16.769  0.4189  0.1913  0.8583
  221MPD1    C3 3409   0.011   2.278  16.665 -0.1429  0.2455  0.7834
  221MPD1    C4 3410   0.141   2.304  16.640  0.6471 -0.1127 -0.1176
  221MPD1    C5 3411   0.236   2.243  16.718  0.2658 -0.4452 -0.9376
  221MPD1     H 3412   4.607   2.179  16.796 -0.0884  0.6742 -0.8932
  221MPD1    H1 3413   0.174   2.367  16.558 -1.3874 -1.8509 -2.2571
  221MPD1    H2 3414   0.275   2.119  16.885 -1.2932  0.2098  2.9713
  221MPD1    H3 3415   0.339   2.267  16.695  0.2831  0.9540  0.5452
  221MPD1     N 3416   4.656   2.347  16.589  0.6956  0.3353 -0.0345
  221MPD1    H5 3417   4.690   2.410  16.517  0.3711 -0.0867 -0.5579
  221MPD1    N1 3418   0.034   2.044  16.947 -0.5986  0.1328  0.2689
  221MPD1    H6 3419   0.102   1.968  16.951  0.1272  0.7503 -0.5130
  221MPD1    H7 3420   4.680   2.000  16.944  0.5997 -2.4080  0.5749
  222MPD1     C 3421   2.841   2.074  16.780  0.2413  0.3027 -0.8963
  222MPD1    C1 3422   2.836   2.148  16.893 -0.1548 -0.7197 -0.3294
  222MPD1    C2 3423   2.930   2.127  17.000  0.1371 -0.0324  0.2335
  222MPD1    C3 3424   3.020   2.017  16.988 -0.2488 -0.2303 -0.3484
  222MPD1    C4 3425   3.004   1.940  16.880  1.0387  0.1928 -1.0863
  222MPD1    C5 3426   2.922   1.969  16.773 -0.2700  0.3895 -0.6375
  222MPD1     H 3427   2.932   2.194  17.085  1.8382  2.5362 -1.8439
  222MPD1    H1 3428   3.071   1.857  16.865  1.7160  0.9058 -1.9805
  222MPD1    H2 3429   2.776   2.094  16.695 -0.2474 -2.0180 -1.0546
  222MPD1    H3 3430   2.928   1.905  16.685 -2.2074 -2.0961  1.0743
  222MPD1     N 3431   3.099   1.961  17.090  0.2885  0.0029  0.0958
  222MPD1    H5 3432   3.160   1.886  17.061  1.3420  1.1675 -0.7201
  222MPD1    N1 3433   2.765   2.268  16.887  0.2377 -0.0203  0.6841
  222MPD1    H6 3434   2.673   2.259  16.845  0.3304 -0.8046  0.6562
  222MPD1    H7 3435   2.738   2.313  16.974 -0.0824  1.1552 -0.0228
  223MPD1     C 3436   3.486   1.106  17.387  0.1417  0.8436  0.5863
  223MPD1    C1 3437   3.592   1.191  17.391 -0.0648  0.2189 -0.3713
  223MPD1    C2 3438   3.567   1.327  17.394  0.4370  0.3677  0.3352
  223MPD1    C3 3439   3.438   1.378  17.381  0.2673 -0.1981  0.5695
  223MPD1    C4 3440   3.330   1.290  17.382  0.1030 -0.6339  0.8618
  223MPD1    C5 3441   3.356   1.156  17.385  0.3143 -0.3832  0.2438
  223MPD1     H 3442   3.653   1.393  17.401 -0.1629  1.3715 -1.8860
  223MPD1    H1 3443   3.227   1.318  17.361  0.5511 -0.7005 -1.5067
  223MPD1    H2 3444   3.489   0.998  17.393 -2.1467  0.7112 -0.6201
  223MPD1    H3 3445   3.274   1.085  17.379  1.6437 -1.8933  0.0687
  223MPD1     N 3446   3.418   1.514  17.380 -0.6509  0.2453  0.3993
  223MPD1    H5 3447   3.501   1.571  17.394 -0.5892  0.1315  0.5002
  223MPD1    N1 3448   3.722   1.146  17.422 -0.5218  0.0223  0.0070
  223MPD1    H6 3449   3.742   1.051  17.391 -1.3190 -0.0114 -0.4089
  223MPD1    H7 3450   3.792   1.210  17.383  0.7000  0.5119  2.9995
  224MPD1     C 3451   3.298   3.932  10.806  0.0204  0.0231  0.2070
  224MPD1    C1 3452   3.315   4.062  10.838  0.4286  0.0471 -0.2397
  224MPD1    C2 3453   3.392   4.144  10.759 -0.2659 -0.8785 -0.8233
  224MPD1    C3 3454   3.465   4.086  10.652  0.3172  0.4408  0.1321
  224MPD1    C4 3455   3.453   3.950  10.631  0.2811 -0.1324  0.2737
  224MPD1    C5 3456   3.369   3.874  10.707  0.0881  0.0425 -0.3927
  224MPD1     H 3457   3.386   4.251  10.775 -1.1244 -1.1506  0.6844
  224MPD1    H1 3458   3.505   3.900  10.550 -1.4005  0.1705 -0.9929
  224MPD1    H2 3459   3.242   3.863  10.867  0.4399 -0.1050  0.4503
  224MPD1    H3 3460   3.361   3.766  10.701 -0.2939  0.2299 -3.5153
  224MPD1     N 3461   3.554   4.154  10.563  0.0029 -0.2885 -0.1099
  224MPD1    H5 3462   3.604   4.094  10.498  0.3387  0.7449 -0.8129
  224MPD1    N1 3463   3.221   4.121  10.932 -0.4708 -0.2570 -0.1893
  224MPD1    H6 3464   3.210   4.065  11.017  0.6145 -0.1064  0.0485
  224MPD1    H7 3465   3.264   4.205  10.969  1.7940 -1.8263  0.7730
  225MPD1     C 3466   1.302   0.277  12.584 -0.4371  0.1636 -0.4091
  225MPD1    C1 3467   1.243   0.170  12.515  0.4346  0.3158  0.0387
  225MPD1    C2 3468   1.125   0.123  12.561  0.1305 -0.4105 -0.0704
  225MPD1    C3 3469   1.070   0.183  12.683  0.0957  0.4010  0.3531
  225MPD1    C4 3470   1.136   0.281  12.750  0.0509  0.4829  0.0134
  225MPD1    C5 3471   1.253   0.336  12.701 -0.7621 -0.6502  0.6584
  225MPD1     H 3472   1.071   0.058  12.494  1.0969  0.0063 -1.2697
  225MPD1    H1 3473   1.104   0.321  12.846 -0.7942  1.7719 -0.7963
  225MPD1    H2 3474   1.396   0.320  12.550 -0.6891  2.2289  1.4783
  225MPD1    H3 3475   1.305   0.420  12.747 -0.8892  1.1791 -2.5623
  225MPD1     N 3476   0.943   0.139  12.730 -0.1429  0.1431 -0.9263
  225MPD1    H5 3477   0.898   0.188  12.807  1.9583  0.7793 -0.0828
  225MPD1    N1 3478   1.307   0.120  12.397  0.4619  0.2684  0.3825
  225MPD1    H6 3479   1.406   0.140  12.402  0.6486 -0.6473  0.3114
  225MPD1    H7 3480   1.296   0.019  12.401 -0.2976  0.3329  0.0410
  226MPD1     C 3481   3.461   4.641  10.288  0.6199  0.1632  0.0049
  226MPD1    C1 3482   3.505   0.031  10.276  1.4213 -0.3812  0.8286
  226MPD1    C2 3483   3.611   0.052  10.189 -0.0972  0.4876 -0.2173
  226MPD1    C3 3484   3.677   4.690  10.122  0.5584  0.3419 -0.2409
  226MPD1    C4 3485   3.621   4.571  10.126 -0.1613 -0.5212 -0.2615
  226MPD1    C5 3486   3.516   4.553  10.203 -0.5550 -0.1275 -0.2689
  226MPD1     H 3487   3.658   0.150  10.181  0.0332  0.5333  1.0774
  226MPD1    H1 3488   3.656   4.488  10.066 -5.9557 -2.7226 -0.5430
  226MPD1    H2 3489   3.392   4.608  10.364 -0.4727  1.1730 -0.5576
  226MPD1    H3 3490   3.470   4.456  10.216 -1.0090 -0.0851 -1.6155
  226MPD1     N 3491   3.800   4.721  10.060  0.4301 -0.5072  0.1442
  226MPD1    H5 3492   3.835   0.078  10.061 -0.2922 -0.2350 -0.2642
  226MPD1    N1 3493   3.441   0.136  10.340 -0.0627 -0.2227 -0.0006
  226MPD1    H6 3494   3.497   0.222  10.336  0.8036 -0.8781 -1.7393
  226MPD1    H7 3495   3.426   0.110  10.438  1.7369 -0.7043  0.1576
  227MPD1     C 3496   3.884   0.486   9.378 -0.4177 -0.4147  0.0437
  227MPD1    C1 3497   3.781   0.414   9.437 -0.2511 -0.1425 -0.0758
  227MPD1    C2 3498   3.821   0.324   9.536 -0.6316  0.1173  0.8190
  227MPD1    C3 3499   3.956   0.322   9.574  0.1061  0.1834  0.5647
  227MPD1    C4 3500   4.050   0.409   9.521  0.2345  0.8178 -0.5419
  227MPD1    C5 3501   4.012   0.489   9.418 -0.3144  0.2417  0.7285
  227MPD1     H 3502   3.747   0.260   9.583 -0.4485  0.1948  1.2119
  227MPD1    H1 3503   4.150   0.420   9.560  0.2183  1.5860 -0.7268
  227MPD1    H2 3504   3.861   0.557   9.299 -0.9059 -1.4578 -0.7453
  227MPD1    H3 3505   4.079   0.562   9.374  1.0283 -1.2242  0.3852
  227MPD1     N 3506   3.996   0.233   9.674  0.2899 -0.2405  0.0303
  227MPD1    H5 3507   3.923   0.177   9.717  2.5608 -2.0810  1.5047
  227MPD1    N1 3508   3.651   0.403   9.384 -0.0429  0.5735  0.2221
  227MPD1    H6 3509   3.585   0.371   9.455  0.5811 -1.2592 -0.0203
  227MPD1    H7 3510   3.626   0.493   9.345  0.1709  1.3117  1.7836
  228MPD1     C 3511   1.655   1.761  12.210 -0.5156  0.4826  0.4755
  228MPD1    C1 3512   1.567   1.861  12.182  0.0411  0.2064  0.5702
  228MPD1    C2 3513   1.576   1.981  12.252  0.4519 -0.1153 -0.1323
  228MPD1    C3 3514   1.666   1.987  12.362  0.8661 -0.0852 -0.2036
  228MPD1    C4 3515   1.749   1.879  12.388  0.3038  0.2876 -0.2636
  228MPD1    C5 3516   1.744   1.773  12.309 -0.7333  0.3957  0.3617
  228MPD1     H 3517   1.508   2.060  12.225  3.0972  2.3520  0.4619
  228MPD1    H1 3518   1.820   1.881  12.470 -0.4931 -1.1572  0.4604
  228MPD1    H2 3519   1.655   1.661  12.169 -0.8520 -0.3530  2.4986
  228MPD1    H3 3520   1.801   1.684  12.336  2.4140  2.3057  0.0205
  228MPD1     N 3521   1.668   2.100  12.445  0.0370  0.1434  0.8880
  228MPD1    H5 3522   1.582   2.154  12.443 -0.3238 -0.5217 -1.4819
  228MPD1    N1 3523   1.480   1.848  12.069  0.1320  0.3539  0.3101
  228MPD1    H6 3524   1.395   1.904  12.078  0.8664  1.3432  1.0479
  228MPD1    H7 3525   1.461   1.752  12.042 -0.1409  0.2361  0.9468
  229MPD1     C 3526   1.995   1.339  14.292 -0.1852 -0.0121 -0.2534
  229MPD1    C1 3527   2.050   1.215  14.259 -0.0317  0.0797  0.2377
  229MPD1    C2 3528   2.112   1.139  14.356 -0.3708  0.0014 -0.7002
  229MPD1    C3 3529   2.130   1.180  14.488 -0.2118  0.1152 -0.1436
  229MPD1    C4 3530   2.073   1.299  14.519 -0.2039 -0.3214  0.9112
  229MPD1    C5 3531   2.014   1.382  14.422  0.6412  0.1092  0.6169
  229MPD1     H 3532   2.158   1.045  14.328  0.1011 -0.8039  2.7214
  229MPD1    H1 3533   2.077   1.322  14.625 -1.3480  1.7887  0.5114
  229MPD1    H2 3534   1.952   1.405  14.218 -3.0452  0.7659  2.1149
  229MPD1    H3 3535   1.985   1.481  14.455 -0.2947  0.2769 -0.6945
  229MPD1     N 3536   2.208   1.115  14.585  0.0759 -0.0974  0.0395
  229MPD1    H5 3537   2.241   1.169  14.664  1.6375  1.4546 -1.6736
  229MPD1    N1 3538   2.051   1.171  14.131 -0.5191 -0.2981  0.2282
  229MPD1    H6 3539   2.034   1.071  14.126 -1.5481  0.0675 -3.0109
  229MPD1    H7 3540   1.978   1.222  14.082 -1.1280  0.1838  1.6120
  230MPD1     C 3541   2.409   0.865  15.534 -0.4974 -0.1189  0.0507
  230MPD1    C1 3542   2.422   0.746  15.471 -0.3520 -0.2532  0.1923
  230MPD1    C2 3543   2.415   0.745  15.338 -0.4037 -0.1781 -0.0538
  230MPD1    C3 3544   2.382   0.855  15.268  0.2915 -0.1932  0.3654
  230MPD1    C4 3545   2.376   0.975  15.331 -0.0141  0.6166 -1.3853
  230MPD1    C5 3546   2.383   0.981  15.467  0.6065 -0.1865  0.7807
  230MPD1     H 3547   2.455   0.659  15.285 -1.5191 -0.7964  0.1046
  230MPD1    H1 3548   2.359   1.070  15.281  1.5213  0.7160 -1.7422
  230MPD1    H2 3549   2.430   0.885  15.639 -0.5090  0.2253 -0.0109
  230MPD1    H3 3550   2.384   1.074  15.521 -2.6056  0.1680  0.2592
  230MPD1     N 3551   2.379   0.840  15.127  0.9147  0.0149  0.2291
  230MPD1    H5 3552   2.397   0.747  15.089  1.5954 -0.0884  0.8033
  230MPD1    N1 3553   2.459   0.628  15.540 -0.2297 -0.2547  0.2467
  230MPD1    H6 3554   2.425   0.624  15.636 -1.2939  0.2379 -0.1199
  230MPD1    H7 3555   2.429   0.549  15.484  0.2652 -0.3797  0.1513
  231MPD1     C 3556   0.661   2.457  15.287  0.1107 -0.6786  0.2306
  231MPD1    C1 3557   0.716   2.431  15.160 -0.6170 -0.2078 -0.1721
  231MPD1    C2 3558   0.757   2.542  15.083  0.3233 -0.6957 -0.6317
  231MPD1    C3 3559   0.762   2.672  15.127  0.5458  0.2750  0.4229
  231MPD1    C4 3560   0.714   2.693  15.256 -0.2020 -0.2316 -1.3010
  231MPD1    C5 3561   0.667   2.590  15.335 -0.4987 -0.5449 -0.3691
  231MPD1     H 3562   0.793   2.520  14.983  1.1568 -3.3224  0.2507
  231MPD1    H1 3563   0.730   2.784  15.312  1.6825  0.1747 -2.4919
  231MPD1    H2 3564   0.610   2.386  15.351  3.6627 -1.7113  1.9171
  231MPD1    H3 3565   0.631   2.607  15.435  0.6961 -1.2794  0.1839
  231MPD1     N 3566   0.801   2.779  15.039  0.5013 -0.3054 -0.5844
  231MPD1    H5 3567   0.828   2.756  14.944  0.5680  1.6248 -1.0312
  231MPD1    N1 3568   0.720   2.304  15.102  0.2395 -0.3784 -0.6499
  231MPD1    H6 3569   0.787   2.289  15.026 -1.9073 -2.8762 -2.0925
  231MPD1    H7 3570   0.750   2.246  15.180 -0.1503  0.9460  0.4708
  232MPD1     C 3571   2.422   0.885   0.466 -0.4033  0.6245  1.0175
  232MPD1    C1 3572   2.298   0.923   0.410 -0.0945 -0.5903  0.2591
  232MPD1    C2 3573   2.255   0.872   0.287  0.3137 -0.5862 -0.5495
  232MPD1    C3 3574   2.317   0.771   0.221  0.2507 -0.1762 -0.0894
  232MPD1    C4 3575   2.440   0.730   0.282  0.0600 -0.2966 -0.3909
  232MPD1    C5 3576   2.488   0.792   0.398  0.5321  0.1829  0.5383
  232MPD1     H 3577   2.159   0.907   0.250  0.4291  1.6227  1.2427
  232MPD1    H1 3578   2.496   0.648   0.238  0.9886 -0.0991  0.4214
  232MPD1    H2 3579   2.456   0.924   0.561 -0.8261 -0.1706  1.4946
  232MPD1    H3 3580   2.585   0.763   0.437  0.4366 -0.0678  0.5894
  232MPD1     N 3581   2.254   0.702   0.119 -0.0159 -0.1456 -0.0382
  232MPD1    H5 3582   2.179   0.755   0.076 -1.5543 -2.2422  0.1109
  232MPD1    N1 3583   2.226   1.033   0.460 -0.0919 -0.2150 -0.6167
  232MPD1    H6 3584   2.129   1.003   0.452 -0.8982  2.5999 -1.3420
  232MPD1    H7 3585   2.249   1.048   0.558 -0.0510 -1.5555 -0.4303
  233MPD1     C 3586   3.643   2.501   0.837  0.4143 -0.2148 -0.4786
  233MPD1    C1 3587   3.752   2.439   0.882  0.2002  0.2082 -0.8057
  233MPD1    C2 3588   3.833   2.510   0.967 -0.2690 -0.2215 -0.5236
  233MPD1    C3 3589   3.810   2.641   0.999  0.3484  0.1536  1.0518
  233MPD1    C4 3590   3.704   2.704   0.939  0.0103 -0.0462 -0.3754
  233MPD1    C5 3591   3.615   2.627   0.864  0.2518 -0.1403 -0.3306
  233MPD1     H 3592   3.919   2.461   1.011 -0.4805 -0.4030 -0.3173
  233MPD1    H1 3593   3.686   2.810   0.948  1.7748  0.0758  1.6673
  233MPD1    H2 3594   3.583   2.454   0.759 -0.7916 -0.8050  0.8085
  233MPD1    H3 3595   3.540   2.667   0.798 -1.3134  1.2429  2.2820
  233MPD1     N 3596   3.888   2.718   1.084 -0.4733  0.1643  0.2202
  233MPD1    H5 3597   3.857   2.812   1.108 -2.7828 -0.4629 -0.3011
  233MPD1    N1 3598   3.767   2.305   0.876  0.1432 -0.4693  0.2270
  233MPD1    H6 3599   3.721   2.255   0.799 -1.1638  1.2160 -0.0897
  233MPD1    H7 3600   3.862   2.270   0.887  0.6783  1.0528  0.4328
  234MPD1     C 3601   4.273   2.940  10.232  0.4249  0.5699 -0.2122
  234MPD1    C1 3602   4.327   3.063  10.267  0.5943 -0.9094 -0.2225
  234MPD1    C2 3603   4.322   3.176  10.188 -0.3487  0.1605  0.4249
  234MPD1    C3 3604   4.245   3.177  10.069  0.7337 -0.4070  0.3748
  234MPD1    C4 3605   4.192   3.048  10.029  0.2376 -0.1185  0.3784
  234MPD1    C5 3606   4.211   2.936  10.110  0.4792 -0.3524  0.4604
  234MPD1     H 3607   4.359   3.275  10.211  0.8403 -0.4821  1.3071
  234MPD1    H1 3608   4.150   3.030   9.931 -0.7123  1.5776  0.4774
  234MPD1    H2 3609   4.289   2.845  10.281  1.7508  0.2907 -1.1629
  234MPD1    H3 3610   4.184   2.839  10.068 -1.7409 -0.2314  1.5736
  234MPD1     N 3611   4.207   3.299  10.005 -0.7662  0.3106  0.7488
  234MPD1    H5 3612   4.242   3.379  10.056  1.1134  0.6449 -1.0702
  234MPD1    N1 3613   4.390   3.082  10.392 -0.1988 -0.3585 -0.2056
  234MPD1    H6 3614   4.386   3.005  10.458 -0.1814  1.5377  2.0112
  234MPD1    H7 3615   4.345   3.152  10.451  1.3924  0.5625 -0.0693
  235MPD1     C 3616   1.780   0.042  10.380 -0.4547 -0.3325 -0.0155
  235MPD1    C1 3617   1.763   0.042  10.243 -0.9020  0.4802 -0.2852
  235MPD1    C2 3618   1.851   0.118  10.167  0.3196  0.0720 -0.3534
  235MPD1    C3 3619   1.966   0.170  10.219  0.0806  0.7146  0.1961
  235MPD1    C4 3620   1.986   0.165  10.360  0.2523  1.4989 -0.1771
  235MPD1    C5 3621   1.887   0.108  10.442  0.0849  0.1329  0.3255
  235MPD1     H 3622   1.840   0.111  10.059  0.2549  1.5428 -0.4387
  235MPD1    H1 3623   2.080   0.192  10.405  1.1757 -2.1537  0.0781
  235MPD1    H2 3624   1.713   4.725  10.445  1.4102 -0.8663  1.4711
  235MPD1    H3 3625   1.894   0.102  10.550  0.9051 -1.7807  0.1714
  235MPD1     N 3626   2.069   0.216  10.138  0.4803  0.4080  0.4274
  235MPD1    H5 3627   2.062   0.192  10.040 -0.9584  0.7798  0.4413
  235MPD1    N1 3628   1.644   4.719  10.188 -0.6045 -0.2412  0.5839
  235MPD1    H6 3629   1.655   4.686  10.093 -0.5448 -0.7574  0.7715
  235MPD1    H7 3630   1.602   4.640  10.237  2.6378 -3.0768 -1.2418
  236MPD1     C 3631   0.631   1.225   9.717  0.0187 -0.0093  0.4487
  236MPD1    C1 3632   0.713   1.300   9.799  0.2806 -0.6692  0.7546
  236MPD1    C2 3633   0.833   1.244   9.840 -0.4718  0.0063 -0.9963
  236MPD1    C3 3634   0.886   1.130   9.792  0.0375 -0.3366 -0.2534
  236MPD1    C4 3635   0.806   1.061   9.707 -0.0713  0.5285  0.7944
  236MPD1    C5 3636   0.684   1.107   9.673  0.3473  0.3098  0.3244
  236MPD1     H 3637   0.888   1.309   9.907 -0.6343  0.7843 -1.6235
  236MPD1    H1 3638   0.844   0.968   9.665  0.3584  0.0069  2.3586
  236MPD1    H2 3639   0.527   1.236   9.686  0.3926 -1.8012 -1.4317
  236MPD1    H3 3640   0.620   1.039   9.617  0.4526 -1.7338  2.6309
  236MPD1     N 3641   1.013   1.079   9.838  0.1590 -0.6527 -0.4533
  236MPD1    H5 3642   1.036   0.985   9.809  0.5551 -0.5697 -0.4193
  236MPD1    N1 3643   0.674   1.413   9.871 -0.2339  0.3727  0.6545
  236MPD1    H6 3644   0.756   1.473   9.870 -2.3708  3.2689  1.4532
  236MPD1    H7 3645   0.598   1.464   9.826 -1.8413 -1.3781  1.3692
  237MPD1     C 3646   1.240   4.520  14.733 -0.0174 -0.4627 -0.6769
  237MPD1    C1 3647   1.276   4.404  14.796  0.4441 -0.7483  0.1905
  237MPD1    C2 3648   1.170   4.331  14.843  0.3607 -0.4420 -0.1531
  237MPD1    C3 3649   1.034   4.363  14.818 -0.2136 -0.1672 -0.1760
  237MPD1    C4 3650   1.006   4.471  14.745 -0.2640  0.2374 -0.6087
  237MPD1    C5 3651   1.111   4.555  14.703  0.4110 -0.4531 -0.8018
  237MPD1     H 3652   1.185   4.234  14.888  0.6634 -0.8215 -1.0782
  237MPD1    H1 3653   0.906   4.497  14.715 -0.5682  0.8264  0.9133
  237MPD1    H2 3654   1.306   4.591  14.684  0.0779  0.2044  0.4337
  237MPD1    H3 3655   1.086   4.651  14.661 -1.5735 -0.9002 -0.6623
  237MPD1     N 3656   0.922   4.285  14.857 -0.2743 -0.3093 -0.2903
  237MPD1    H5 3657   0.832   4.325  14.836  0.1986  0.4511 -0.8654
  237MPD1    N1 3658   1.401   4.374  14.839  0.2181  0.2258  0.9122
  237MPD1    H6 3659   1.411   4.275  14.861 -1.1706 -0.5259 -1.8372
  237MPD1    H7 3660   1.471   4.418  14.780  0.8444  1.0916  2.2923
  238MPD1     C 3661   2.599   3.032  15.678 -0.1213  0.3786  0.4145
  238MPD1    C1 3662   2.620   3.111  15.564 -0.0204 -0.0524 -0.0692
  238MPD1    C2 3663   2.521   3.114  15.463  0.2788  0.8873  0.1563
  238MPD1    C3 3664   2.399   3.054  15.487 -0.0588 -0.2748  0.0532
  238MPD1    C4 3665   2.373   2.981  15.601  0.3325  0.6403 -0.5603
  238MPD1    C5 3666   2.478   2.967  15.692 -0.0750  0.4000  0.0849
  238MPD1     H 3667   2.532   3.187  15.384 -0.0572 -0.3801 -1.0620
  238MPD1    H1 3668   2.273   2.943  15.619 -0.2840  2.7060  0.4445
  238MPD1    H2 3669   2.678   3.020  15.751  0.7829  0.2524 -0.5892
  238MPD1    H3 3670   2.470   2.902  15.778 -0.7404  0.3308 -0.0348
  238MPD1     N 3671   2.299   3.048  15.393  0.7711 -0.0163 -0.0251
  238MPD1    H5 3672   2.224   2.980  15.405  0.7483 -0.1285 -0.8258
  238MPD1    N1 3673   2.744   3.167  15.536 -0.1327  0.8633 -0.8057
  238MPD1    H6 3674   2.786   3.207  15.619 -0.7684 -1.3344  0.5650
  238MPD1    H7 3675   2.738   3.246  15.472 -0.5999 -0.8554 -2.8860
  239MPD1     C 3676   2.731   4.598  14.410 -0.2711 -0.5674  0.3934
  239MPD1    C1 3677   2.746   4.486  14.332 -0.6750  0.8528 -0.0477
  239MPD1    C2 3678   2.640   4.420  14.280  0.8990  0.0263 -1.0743
  239MPD1    C3 3679   2.511   4.457  14.306 -0.4522 -0.2021  0.5743
  239MPD1    C4 3680   2.498   4.567  14.388 -0.1575  0.4011  0.4800
  239MPD1    C5 3681   2.602   4.638  14.432 -0.0741 -0.2959 -0.4481
  239MPD1     H 3682   2.649   4.327  14.225  1.5303 -0.9288  0.6226
  239MPD1    H1 3683   2.403   4.603  14.425 -0.6338  1.1155 -1.3936
  239MPD1    H2 3684   2.804   4.662  14.460 -1.1723  1.9386 -1.4885
  239MPD1    H3 3685   2.578   4.732  14.479 -0.5143 -0.7614  0.2455
  239MPD1     N 3686   2.390   4.393  14.275  0.4267  0.1693 -0.6812
  239MPD1    H5 3687   2.301   4.428  14.307  0.4214  0.0990 -0.6175
  239MPD1    N1 3688   2.870   4.423  14.314  1.0117  0.8020  1.2187
  239MPD1    H6 3689   2.948   4.484  14.338  1.3052 -0.1637  2.6616
  239MPD1    H7 3690   2.880   4.381  14.222 -0.1412  1.0025  0.9993
  240MPD1     C 3691   2.582   3.674  13.918 -0.1368  0.0418 -0.4320
  240MPD1    C1 3692   2.634   3.679  14.046 -0.3283 -0.1665  0.2228
  240MPD1    C2 3693   2.550   3.637  14.150  0.3443  0.2265  0.7251
  240MPD1    C3 3694   2.413   3.610  14.140 -0.0973  0.3328  0.0919
  240MPD1    C4 3695   2.371   3.609  14.014  0.2488  0.5497  0.6523
  240MPD1    C5 3696   2.454   3.631  13.906 -0.5514 -0.3831  0.7303
  240MPD1     H 3697   2.588   3.627  14.251 -2.8616  0.6179  1.9780
  240MPD1    H1 3698   2.267   3.596  13.984  1.1722 -1.0414 -1.8429
  240MPD1    H2 3699   2.635   3.692  13.825  1.3404  0.9248  0.5815
  240MPD1    H3 3700   2.405   3.619  13.810  0.2746 -3.9091  0.7524
  240MPD1     N 3701   2.338   3.579  14.255  0.0533  0.1312 -0.4463
  240MPD1    H5 3702   2.386   3.581  14.344  1.6103  0.0165 -1.2896
  240MPD1    N1 3703   2.765   3.708  14.083  0.1771 -0.3680  0.4963
  240MPD1    H6 3704   2.777   3.735  14.181  1.2948  0.0844  0.2313
  240MPD1    H7 3705   2.797   3.778  14.017  0.0729 -1.9760 -1.2460
  241MPD1     C 3706   2.712   3.521  14.989 -0.4149 -0.1704  0.3273
  241MPD1    C1 3707   2.596   3.454  15.028  0.0266 -0.1754 -0.4117
  241MPD1    C2 3708   2.487   3.467  14.941  0.2685 -0.2819  0.0898
  241MPD1    C3 3709   2.488   3.531  14.817  0.0479 -0.4246 -0.1193
  241MPD1    C4 3710   2.601   3.599  14.795 -0.4391 -0.3644 -0.2096
  241MPD1    C5 3711   2.712   3.592  14.876 -0.3096 -0.0205 -0.1030
  241MPD1     H 3712   2.398   3.417  14.976  0.4953 -0.0580  0.9887
  241MPD1    H1 3713   2.603   3.668  14.712 -3.2959 -0.4298 -0.3279
  241MPD1    H2 3714   2.806   3.526  15.043 -0.8498 -0.0348  1.0769
  241MPD1    H3 3715   2.796   3.654  14.848  0.8337 -1.6653 -0.2580
  241MPD1     N 3716   2.390   3.535  14.720 -0.0738 -0.8106 -0.1529
  241MPD1    H5 3717   2.427   3.585  14.640  1.2866 -1.7179 -0.0941
  241MPD1    N1 3718   2.595   3.354  15.125  0.3078 -0.0429  0.2039
  241MPD1    H6 3719   2.507   3.336  15.172  0.4504  1.8835  1.1929
  241MPD1    H7 3720   2.661   3.385  15.196  0.1388 -0.1592  0.4118
  242MPD1     C 3721   1.275   0.992  15.899  0.7414 -0.1423  0.4764
  242MPD1    C1 3722   1.291   1.113  15.960  0.4859  0.4970  0.4478
  242MPD1    C2 3723   1.369   1.209  15.907  1.0384 -0.8354 -0.7177
  242MPD1    C3 3724   1.438   1.180  15.793 -0.0960 -0.4271  0.8973
  242MPD1    C4 3725   1.414   1.063  15.723 -0.0027 -0.3402  0.5659
  242MPD1    C5 3726   1.329   0.973  15.780  0.2973  0.0143 -0.5619
  242MPD1     H 3727   1.362   1.302  15.961  1.2103 -0.4023 -1.4328
  242MPD1    H1 3728   1.461   1.044  15.627  0.7769  0.5983  0.7623
  242MPD1    H2 3729   1.211   0.910  15.931 -0.3524  0.7888  0.6933
  242MPD1    H3 3730   1.312   0.875  15.737  2.2069 -1.8467  2.9974
  242MPD1     N 3731   1.528   1.274  15.738 -0.1262 -0.6387  0.1101
  242MPD1    H5 3732   1.572   1.250  15.650  0.6303 -1.5464  0.7430
  242MPD1    N1 3733   1.202   1.147  16.061  0.6567  0.0905 -0.3920
  242MPD1    H6 3734   1.236   1.218  16.127  1.2483 -0.8394  0.3002
  242MPD1    H7 3735   1.186   1.071  16.126 -0.9853 -1.2253 -2.3544
  243MPD1     C 3736   2.804   0.593   0.216 -0.1409 -0.3718 -0.0957
  243MPD1    C1 3737   2.788   0.464   0.189  0.5800 -0.4605  0.7026
  243MPD1    C2 3738   2.905   0.383   0.178 -0.6926  0.2974  0.0177
  243MPD1    C3 3739   3.030   0.444   0.178  0.1671 -1.0315  0.4686
  243MPD1    C4 3740   3.037   0.582   0.203 -0.1299 -0.4129 -0.2580
  243MPD1    C5 3741   2.925   0.656   0.219  0.3867 -0.0819  0.4587
  243MPD1     H 3742   2.899   0.275   0.180  0.8372  0.2309  1.0302
  243MPD1    H1 3743   3.130   0.635   0.184 -0.1766 -0.3277 -0.2438
  243MPD1    H2 3744   2.709   0.640   0.239  1.1332  1.1147  2.1695
  243MPD1    H3 3745   2.926   0.764   0.222  1.9101 -0.0968  0.7074
  243MPD1     N 3746   3.141   0.368   0.139  0.9819  0.2581 -0.0130
  243MPD1    H5 3747   3.112   0.272   0.122 -2.5707  0.4768  4.7717
  243MPD1    N1 3748   2.657   0.416   0.188  0.3785 -0.0464 -0.7035
  243MPD1    H6 3749   2.650   0.326   0.141 -2.8955  0.8158 -1.8259
  243MPD1    H7 3750   2.584   0.473   0.148  1.2989  1.6754  0.0491
  244MPD1     C 3751   3.327   4.191  17.702 -1.0616 -0.0685  0.4664
  244MPD1    C1 3752   3.387   4.265   0.058  0.1141 -0.1290  0.3747
  244MPD1    C2 3753   3.407   4.403   0.036 -0.1199  0.5845 -0.2501
  244MPD1    C3 3754   3.366   4.466  17.670 -0.2385 -0.2034 -0.1366
  244MPD1    C4 3755   3.319   4.390  17.566  0.2164 -0.2595  0.4427
  244MPD1    C5 3756   3.295   4.256  17.583  0.2442  1.1577 -0.4661
  244MPD1     H 3757   3.463   4.451   0.115  0.5896  0.1121 -0.4634
  244MPD1    H1 3758   3.276   4.423  17.472  1.9553  0.0190 -0.2454
  244MPD1    H2 3759   3.319   4.084  17.711 -0.1614 -0.2480 -0.8889
  244MPD1    H3 3760   3.243   4.196  17.511 -1.3103  0.6101  1.1035
  244MPD1     N 3761   3.366   4.606  17.661 -0.2452 -0.3436  0.1400
  244MPD1    H5 3762   3.344   4.652  17.573  0.3782 -0.8018 -0.2590
  244MPD1    N1 3763   3.419   4.219   0.185 -0.0180  0.0088 -0.2726
  244MPD1    H6 3764   3.513   4.250   0.209 -0.4288  2.3270 -1.6804
  244MPD1    H7 3765   3.427   4.117   0.185  0.6235  0.0542 -2.5491
  245MPD1     C 3766   0.388   0.523  13.387 -0.4937 -0.1934  0.3705
  245MPD1    C1 3767   0.502   0.543  13.457 -0.7671  0.2594  0.1553
  245MPD1    C2 3768   0.528   0.671  13.504  0.3715  0.9068 -0.7902
  245MPD1    C3 3769   0.453   0.778  13.468  0.8029 -0.6742  0.1719
  245MPD1    C4 3770   0.335   0.756  13.395 -0.4741  0.1047 -0.2020
  245MPD1    C5 3771   0.306   0.627  13.357 -0.5924 -0.5188 -0.3492
  245MPD1     H 3772   0.619   0.680  13.563  0.8794 -1.2700 -1.2541
  245MPD1    H1 3773   0.264   0.834  13.368  1.4238  2.1123  0.6080
  245MPD1    H2 3774   0.357   0.424  13.355  0.6779 -0.4801  0.1330
  245MPD1    H3 3775   0.218   0.588  13.307 -0.1113 -0.7406 -1.0211
  245MPD1     N 3776   0.488   0.905  13.514 -0.3387  0.2747 -0.4334
  245MPD1    H5 3777   0.563   0.915  13.581 -0.5051  0.1644 -0.2301
  245MPD1    N1 3778   0.574   0.437  13.510 -0.0409  0.4739  0.1016
  245MPD1    H6 3779   0.672   0.460  13.523 -0.1185 -1.0396  3.4738
  245MPD1    H7 3780   0.568   0.352  13.454  1.5385  0.9364 -0.7657
  246MPD1     C 3781   2.150   2.911   9.514 -0.2101 -0.2638  0.0165
  246MPD1    C1 3782   2.045   2.975   9.581 -0.8929 -0.2118  0.2600
  246MPD1    C2 3783   1.919   2.921   9.580 -0.2626 -0.1487  0.7202
  246MPD1    C3 3784   1.902   2.790   9.544 -0.4427  0.1235  0.1141
  246MPD1    C4 3785   2.008   2.725   9.476 -0.0992 -0.5203  1.2889
  246MPD1    C5 3786   2.132   2.777   9.475  0.9727 -0.5049 -0.4030
  246MPD1     H 3787   1.844   2.987   9.622 -1.2770 -1.3496  0.7835
  246MPD1    H1 3788   2.005   2.620   9.448 -1.1711  0.7741 -3.5908
  246MPD1    H2 3789   2.249   2.949   9.492 -0.7550  0.9117 -0.4168
  246MPD1    H3 3790   2.208   2.715   9.429  1.7265  0.1818 -0.0678
  246MPD1     N 3791   1.779   2.727   9.573 -0.1090  0.1676  0.0979
  246MPD1    H5 3792   1.704   2.786   9.606 -1.6752 -1.4366 -0.6083
  246MPD1    N1 3793   2.063   3.103   9.624  0.3158 -0.0121 -0.2617
  246MPD1    H6 3794   1.992   3.129   9.692  1.4189  1.5977  0.2773
  246MPD1    H7 3795   2.153   3.111   9.671  0.2665  0.6361 -0.2745
  247MPD1     C 3796   0.266   2.368  15.434 -0.5286  0.2174 -0.6539
  247MPD1    C1 3797   0.303   2.238  15.458 -0.3792  0.5557 -0.1372
  247MPD1    C2 3798   0.235   2.133  15.404  0.4536 -0.4291  0.1172
  247MPD1    C3 3799   0.116   2.151  15.333  0.0758 -0.5736 -0.0572
  247MPD1    C4 3800   0.080   2.280  15.311  0.3910 -0.4170  0.8198
  247MPD1    C5 3801   0.154   2.387  15.357 -0.2920 -0.9321  0.7144
  247MPD1     H 3802   0.264   2.033  15.434 -0.4532 -0.9963 -0.9193
  247MPD1    H1 3803   4.731   2.305  15.252  1.2890  0.0652 -0.2899
  247MPD1    H2 3804   0.322   2.453  15.472 -0.8150 -0.2238  0.7196
  247MPD1    H3 3805   0.120   2.489  15.338 -0.5269 -1.3575 -1.1582
  247MPD1     N 3806   0.028   2.048  15.275  0.0950 -0.7700  0.0454
  247MPD1    H5 3807   4.688   2.084  15.222  1.2343  1.9884  0.2276
  247MPD1    N1 3808   0.422   2.218  15.529 -0.1654  0.2096  0.1861
  247MPD1    H6 3809   0.426   2.121  15.560 -0.3011 -0.3110 -1.4130
  247MPD1    H7 3810   0.424   2.291  15.600  3.1856 -0.1023  0.4085
  248MPD1     C 3811   0.150   4.422  17.548 -0.6359 -0.7349  0.1310
  248MPD1    C1 3812   0.138   4.559  17.530 -0.3951 -0.0364 -0.8662
  248MPD1    C2 3813   0.222   4.640  17.607  0.1538 -0.4239  0.1726
  248MPD1    C3 3814   0.341   4.587  17.667  0.2562  0.4679  0.5161
  248MPD1    C4 3815   0.353   4.456  17.675  0.2850  0.7905  0.2617
  248MPD1    C5 3816   0.265   4.375  17.610  0.4043 -0.7436 -0.0992
  248MPD1     H 3817   0.193   0.006  17.615 -0.5645 -0.6648  0.7369
  248MPD1    H1 3818   0.441   4.407  17.716  0.7798  1.1107 -0.4089
  248MPD1    H2 3819   0.083   4.343  17.518  1.3832 -2.4567  0.1735
  248MPD1    H3 3820   0.278   4.268  17.617 -3.5935 -1.1209  1.1872
  248MPD1     N 3821   0.438   4.676  17.722  0.2712  0.5650  0.8306
  248MPD1    H5 3822   0.423   0.035  17.694  1.5554  0.3053 -0.7730
  248MPD1    N1 3823   0.017   4.598  17.485 -0.3746 -0.3259  0.2572
  248MPD1    H6 3824   0.018   4.690  17.442 -1.1501 -0.9149 -1.0117
  248MPD1    H7 3825   4.725   4.531  17.415 -0.8246 -0.9915  1.0850
  249MPD1     C 3826   2.426   3.919  11.336  0.3023  0.0516 -0.3525
  249MPD1    C1 3827   2.354   3.843  11.252 -0.0398  0.0058 -0.4104
  249MPD1    C2 3828   2.328   3.894  11.126  0.4671 -0.2299  0.0065
  249MPD1    C3 3829   2.343   4.032  11.110  0.1692  0.4200 -0.2502
  249MPD1    C4 3830   2.409   4.110  11.211 -0.1356 -0.4253  0.3944
  249MPD1    C5 3831   2.465   4.048  11.317  0.4570 -0.1210  0.3871
  249MPD1     H 3832   2.287   3.830  11.048  2.8066 -0.3894 -1.0807
  249MPD1    H1 3833   2.413   4.218  11.206 -0.5513 -0.3619  1.4306
  249MPD1    H2 3834   2.453   3.886  11.436  1.5317 -1.3291 -1.1506
  249MPD1    H3 3835   2.522   4.104  11.390  2.5085 -3.0711  1.0138
  249MPD1     N 3836   2.291   4.083  10.990 -0.3022  0.0423 -0.1713
  249MPD1    H5 3837   2.270   4.015  10.918 -2.4918  1.3449 -0.7875
  249MPD1    N1 3838   2.346   3.702  11.277 -0.7862  0.0944 -0.0211
  249MPD1    H6 3839   2.261   3.668  11.233 -0.6791 -1.8731  1.2942
  249MPD1    H7 3840   2.336   3.685  11.377  0.6857  2.0978  0.4822
  250MPD2     C 3841   3.807   3.718  12.733 -0.2515  0.4780 -0.8975
  250MPD2    C1 3842   3.746   3.842  12.732  0.1490  0.0250  0.0816
  250MPD2    C2 3843   3.614   3.859  12.687 -0.3926  0.3083 -0.4015
  250MPD2    C3 3844   3.557   3.749  12.621 -0.6430 -0.6638 -0.1118
  250MPD2    C4 3845   3.629   3.630  12.610  0.1308  0.0102  0.3427
  250MPD2    C5 3846   3.751   3.616  12.670 -0.7775  0.0614  0.1766
  250MPD2     H 3847   3.559   3.951  12.705 -0.6271  0.1111 -0.1153
  250MPD2    H1 3848   3.589   3.546  12.555  0.8391 -0.0337 -0.1070
  250MPD2    H2 3849   3.901   3.701  12.783 -0.9399 -1.6587 -0.3199
  250MPD2    H3 3850   3.791   3.516  12.661 -2.5657 -0.7164  0.7934
  250MPD2     N 3851   3.429   3.743  12.566 -0.4232 -0.6526  0.7220
  250MPD2    H5 3852   3.413   3.657  12.515 -2.2632 -0.9362  1.7735
  250MPD2    N1 3853   3.815   3.945  12.793  0.1687 -0.0073  0.0544
  250MPD2    H7 3854   3.906   3.927  12.836  0.9797 -2.4503 -2.6861
  251TMC3    C1 3855   3.851   4.173  12.859 -0.1379 -0.7082  0.0985
  251TMC3    C2 3856   3.798   4.295  12.878  0.8295  0.6226  0.3738
  251TMC3    C3 3857   3.878   4.390  12.936  0.7648  0.0687 -0.0019
  251TMC3    C4 3858   3.981   4.149  12.895 -0.4099 -0.6365 -0.4099
  251TMC3    C5 3859   4.052   4.236  12.976 -0.4125  0.1651  0.3014
  251TMC3    C6 3860   4.004   4.361  12.983 -0.1287  0.6989 -0.4379
  251TMC3     C 3861   3.774   4.075  12.792 -0.2277  0.2524  0.4541
  251TMC3     O 3862   3.674   4.126  12.740 -0.0802  0.2429  0.2400
  251TMC3     H 3863   3.693   4.321  12.865 -0.1605 -2.3434  2.3699
  251TMC3    H1 3864   4.027   4.055  12.869 -0.3718 -0.3986 -1.2031
  251TMC3    H2 3865   4.059   4.440  13.034 -0.5260  0.5170  0.2801
  251TMC3    C7 3866   4.124   4.185  13.095  0.2597  0.1203  0.2065
  251TMC3    C8 3867   3.808   4.508  12.990  0.1295 -0.1349 -0.7226
  251TMC3    O1 3868   4.123   4.263  13.188  0.3169  0.0407  0.1121
  251TMC3    O2 3869   3.683   4.510  12.994  0.1601 -0.6237 -0.1919
  252TMC3    C1 3870   3.704   1.088   9.795 -0.5061  0.3679  0.3035
  252TMC3    C2 3871   3.832   1.128   9.755 -0.4580  0.9350  0.0250
  252TMC3    C3 3872   3.936   1.076   9.830 -0.5070  0.0381  0.3460
  252TMC3    C4 3873   3.678   0.985   9.889  0.4612 -0.4856  1.1308
  252TMC3    C5 3874   3.786   0.930   9.948  0.1300 -0.2121 -0.9997
  252TMC3    C6 3875   3.917   0.969   9.916  0.3078  0.3240  0.0864
  252TMC3     C 3876   3.605   1.093   9.693  0.4728 -1.4800 -0.1493
  252TMC3     O 3877   3.547   0.984   9.687  0.2264  0.1821  0.7248
  252TMC3     H 3878   3.849   1.217   9.695 -0.2720  1.3081  0.6324
  252TMC3    H1 3879   3.579   0.957   9.923  0.8863 -1.2769  1.7059
  252TMC3    H2 3880   3.994   0.923   9.977 -1.2657 -3.2788 -0.6232
  252TMC3    C7 3881   3.772   0.840  10.058  0.3419  0.0515 -0.4001
  252TMC3    C8 3882   4.070   1.131   9.811  0.7361  0.2327  0.6869
  252TMC3    O1 3883   3.841   0.837  10.156  0.1972 -0.0936  0.1213
  252TMC3    O2 3884   4.085   1.227   9.732 -0.4521  0.3342  0.0642
  253MPD2     C 3885   0.462   4.391  15.222 -0.9229  1.0070 -0.1559
  253MPD2    C1 3886   0.349   4.329  15.179  0.5749 -0.7520 -0.1364
  253MPD2    C2 3887   0.295   4.227  15.257 -0.7764 -0.1269  0.3400
  253MPD2    C3 3888   0.346   4.193  15.385 -0.2788 -0.4675 -0.1182
  253MPD2    C4 3889   0.466   4.254  15.421  0.0452 -0.8609  0.0839
  253MPD2    C5 3890   0.526   4.353  15.341 -0.8309  0.1152  0.1748
  253MPD2     H 3891   0.202   4.186  15.218  0.1444 -1.0642 -0.8635
  253MPD2    H1 3892   0.518   4.224  15.512  0.5720  0.1853  0.1199
  253MPD2    H2 3893   0.513   4.472  15.170  1.9278  0.2609  1.5067
  253MPD2    H3 3894   0.612   4.404  15.383  0.2056  0.2009 -2.0557
  253MPD2     N 3895   0.281   4.112  15.477 -0.5482 -0.3536  0.0867
  253MPD2    H5 3896   0.325   4.099  15.568  1.5039  0.8361 -0.7511
  253MPD2    N1 3897   0.278   4.356  15.056  0.0775  0.1800  0.5800
  253MPD2    H7 3898   0.195   4.302  15.035 -0.1063  0.4240  0.6727
  254TMC3    C1 3899   0.110   3.995  15.589  0.6811 -0.2954 -0.5080
  254TMC3    C2 3900   4.716   3.987  15.602  0.0762 -0.0110 -0.3502
  254TMC3    C3 3901   4.672   3.932  15.714  0.6509 -0.2313 -0.2284
  254TMC3    C4 3902   0.198   3.954  15.682  0.1344  0.2038 -0.1899
  254TMC3    C5 3903   0.142   3.885  15.787  0.6097  0.5848 -0.4104
  254TMC3    C6 3904   0.015   3.864  15.803 -0.1801 -0.8226  0.1419
  254TMC3     C 3905   0.154   4.055  15.462  0.2112 -0.2778  0.0755
  254TMC3     O 3906   0.074   4.076  15.371  0.2168 -0.0947 -0.2013
  254TMC3     H 3907   4.644   4.025  15.530  0.3362 -1.3579 -1.3260
  254TMC3    H1 3908   0.306   3.967  15.682  0.0731  0.6865 -1.8215
  254TMC3    H2 3909   4.709   3.813  15.889  0.0959 -1.1546  0.0890
  254TMC3    C7 3910   0.224   3.839  15.892 -0.0283 -0.0383  1.2069
  254TMC3    C8 3911   4.530   3.949  15.754  0.1930  0.0613 -0.3337
  254TMC3    O1 3912   0.168   3.751  15.957  0.0775 -0.0725 -0.5142
  254TMC3    O2 3913   4.495   3.898  15.858  0.1645 -0.5005 -0.2680
  255MPD2     C 3914   2.552   2.666  11.060  0.4353 -0.2883 -0.0895
  255MPD2    C1 3915   2.577   2.700  10.928  0.5720 -0.4188  0.0719
  255MPD2    C2 3916   2.700   2.680  10.870  0.1537  0.5081  0.5563
  255MPD2    C3 3917   2.806   2.639  10.953 -0.4008 -0.6305 -0.2188
  255MPD2    C4 3918   2.783   2.619  11.085  0.0435  0.7344 -0.3880
  255MPD2    C5 3919   2.654   2.622  11.136  0.8032  0.7469 -0.0335
  255MPD2     H 3920   2.716   2.688  10.763  1.7656 -0.9226  0.6932
  255MPD2    H1 3921   2.859   2.594  11.158  0.1577 -2.0335 -1.4550
  255MPD2    H2 3922   2.454   2.671  11.106  0.9500 -0.2599  0.9957
  255MPD2    H3 3923   2.652   2.612  11.244 -2.3534  3.0388  0.1122
  255MPD2     N 3924   2.935   2.643  10.890 -0.3352 -0.4122  0.4274
  255MPD2    H5 3925   2.926   2.652  10.789  0.6292  0.3121  0.3984
  255MPD2    N1 3926   2.472   2.754  10.850  0.3323 -0.3683  0.0404
  255MPD2    H7 3927   2.380   2.753  10.893 -0.5561  0.0065 -1.8028
  256TMC3    C1 3928   2.352   2.838  10.661  0.5155  0.4474  0.3643
  256TMC3    C2 3929   2.294   2.962  10.685  0.5310 -0.4588 -0.1440
  256TMC3    C3 3930   2.229   3.021  10.579  0.0175  0.4606 -0.5767
  256TMC3    C4 3931   2.339   2.782  10.537  0.1576  0.6571 -0.1185
  256TMC3    C5 3932   2.269   2.841  10.444 -0.2254 -0.1721  1.3463
  256TMC3    C6 3933   2.208   2.959  10.456 -0.1220  0.7459  0.5030
  256TMC3     C 3934   2.479   2.805  10.718 -0.3965  0.0064 -0.9979
  256TMC3     O 3935   2.576   2.823  10.649 -0.0884 -0.0098 -0.8533
  256TMC3     H 3936   2.318   3.017  10.775  3.2434  0.7680 -1.6142
  256TMC3    H1 3937   2.399   2.695  10.509  0.6450  0.9477  0.0197
  256TMC3    H2 3938   2.153   3.008  10.376 -0.9469  0.4933  0.9155
  256TMC3    C7 3939   2.232   2.749  10.342 -0.3339 -0.0216  0.3886
  256TMC3    C8 3940   2.196   3.168  10.588  0.4269  0.9318 -1.0880
  256TMC3    O1 3941   2.232   2.629  10.376  0.0196  0.3494  0.4525
  256TMC3    O2 3942   2.236   3.225  10.690  0.0005 -0.4501  0.7237
  257MPD2     C 3943   1.998   3.530  12.764  0.2495  0.4477  0.2645
  257MPD2    C1 3944   2.032   3.642  12.840  0.7944  0.0572 -0.2439
  257MPD2    C2 3945   2.070   3.629  12.970  0.9072  0.0749  0.2467
  257MPD2    C3 3946   2.072   3.507  13.032 -0.0162 -0.0907  0.4869
  257MPD2    C4 3947   2.031   3.397  12.960 -0.8047  0.8058  0.0259
  257MPD2    C5 3948   2.005   3.412  12.829  0.0694  0.4313  0.1084
  257MPD2     H 3949   2.111   3.706  13.034 -0.9851 -0.8649  2.5905
  257MPD2    H1 3950   2.038   3.299  13.004 -0.2421  1.1684  0.7471
  257MPD2    H2 3951   1.964   3.537  12.662 -0.6334 -1.2460  0.4556
  257MPD2    H3 3952   1.986   3.323  12.770 -0.1597  0.7650 -0.3270
  257MPD2     N 3953   2.133   3.513  13.157 -0.0629 -0.0573  0.0787
  257MPD2    H5 3954   2.153   3.603  13.198 -0.7417  1.1274 -2.1538
  257MPD2    N1 3955   2.023   3.764  12.770  0.1774 -0.0922 -0.1454
  257MPD2    H7 3956   1.987   3.755  12.676 -2.2046 -2.9094  1.0667
  258TMC3    C1 3957   2.227   3.430  13.360  0.6624  0.4337 -0.8586
  258TMC3    C2 3958   2.315   3.534  13.370  0.4748  0.7832  0.5868
  258TMC3    C3 3959   2.398   3.533  13.478  0.2285  0.3916  0.9623
  258TMC3    C4 3960   2.215   3.326  13.456 -0.3429  0.2174  0.0231
  258TMC3    C5 3961   2.297   3.335  13.563 -0.1473  0.4254  0.1075
  258TMC3    C6 3962   2.381   3.446  13.585 -0.0737  0.1202  0.5971
  258TMC3     C 3963   2.154   3.401  13.240  0.1397 -0.1703  0.1417
  258TMC3     O 3964   2.132   3.285  13.218 -0.1128 -0.5421  0.0377
  258TMC3     H 3965   2.328   3.606  13.290 -0.4359  0.9174  0.5594
  258TMC3    H1 3966   2.146   3.242  13.452 -0.3519  0.2779 -1.1643
  258TMC3    H2 3967   2.463   3.454  13.655 -1.8055  0.5516  2.6010
  258TMC3    C7 3968   2.298   3.226  13.650  0.4798 -0.0768 -0.3518
  258TMC3    C8 3969   2.533   3.586  13.473 -0.1562 -0.0568  0.7100
  258TMC3    O1 3970   2.230   3.126  13.628 -0.2224  0.0126  0.2106
  258TMC3    O2 3971   2.589   3.625  13.575  0.5331  0.2160  0.4558
  259MPD2     C 3972   1.578   0.941   0.707 -0.5322  0.5009  0.2692
  259MPD2    C1 3973   1.636   0.826   0.658  0.3074  0.1067  0.5973
  259MPD2    C2 3974   1.603   0.785   0.529  0.2987  0.1928  0.0862
  259MPD2    C3 3975   1.516   0.859   0.454 -0.0379  0.2446 -0.0892
  259MPD2    C4 3976   1.458   0.972   0.506 -0.3479 -0.7755 -0.2386
  259MPD2    C5 3977   1.487   1.013   0.633  0.3314 -0.2177 -0.0202
  259MPD2     H 3978   1.638   0.693   0.482 -1.0710 -1.2067  1.7993
  259MPD2    H1 3979   1.385   1.031   0.452  2.2016  2.2947 -0.3051
  259MPD2    H2 3980   1.597   0.974   0.809 -0.0802  3.1277 -0.6940
  259MPD2    H3 3981   1.430   1.091   0.682  0.5023  0.9910 -1.7276
  259MPD2     N 3982   1.475   0.812   0.329  0.9233  0.5808 -0.2121
  259MPD2    H5 3983   1.514   0.722   0.304 -2.0318 -1.2340  1.7041
  259MPD2    N1 3984   1.704   0.747   0.747 -0.0704 -0.0558  0.6734
  259MPD2    H7 3985   1.697   0.788   0.840 -0.0257  2.4863 -0.4407
  260TMC3    C1 3986   1.372   0.819   0.115  0.7640  0.0670 -0.1225
  260TMC3    C2 3987   1.334   0.908   0.024 -0.2992 -0.2609 -0.1780
  260TMC3    C3 3988   1.323   0.867  17.651  0.1867  0.3739 -0.3909
  260TMC3    C4 3989   1.392   0.686   0.086 -0.2243  0.2449  0.8159
  260TMC3    C5 3990   1.369   0.645  17.706  0.2942 -0.8778  0.1437
  260TMC3    C6 3991   1.329   0.740  17.611  0.1993  0.7149  0.0051
  260TMC3     C 3992   1.379   0.867   0.252  0.1455  0.8302 -0.8831
  260TMC3     O 3993   1.298   0.957   0.269 -0.3525 -0.4495 -0.0821
  260TMC3     H 3994   1.307   1.008   0.058  0.1372 -0.6548  1.3451
  260TMC3    H1 3995   1.397   0.624   0.175 -0.9853 -1.1970 -0.1384
  260TMC3    H2 3996   1.312   0.723  17.505  0.0412  1.0053 -0.0165
  260TMC3    C7 3997   1.452   0.533  17.665 -0.0118 -0.1455  0.4067
  260TMC3    C8 3998   1.421   0.944  17.573 -0.0393 -0.2765 -0.1986
  260TMC3    O1 3999   1.464   0.532  17.544 -0.1509 -0.3250 -0.8490
  260TMC3    O2 4000   1.439   1.057  17.623  0.2886  0.4234  0.5274
  261MPD2     C 4001   3.260   3.625  11.921  0.0743  0.7781 -0.9072
  261MPD2    C1 4002   3.248   3.747  11.987  0.3609  0.0131  0.5899
  261MPD2    C2 4003   3.279   3.864  11.916 -0.0159  0.5013 -0.3254
  261MPD2    C3 4004   3.317   3.857  11.785 -0.2644 -0.2234  0.6574
  261MPD2    C4 4005   3.328   3.735  11.713 -0.0538 -0.7887  0.4844
  261MPD2    C5 4006   3.295   3.620  11.785  0.7895 -0.8985  0.2323
  261MPD2     H 4007   3.279   3.955  11.977  1.7232  1.2151 -1.3988
  261MPD2    H1 4008   3.343   3.728  11.606  0.5903  1.7346  0.4146
  261MPD2    H2 4009   3.247   3.532  11.975  2.0722  1.2781  0.4666
  261MPD2    H3 4010   3.295   3.522  11.739  3.2534 -1.3805  1.2333
  261MPD2     N 4011   3.340   3.984  11.724  0.4333 -0.9197  0.4988
  261MPD2    H5 4012   3.342   4.065  11.785 -0.0023  0.3774 -1.2159
  261MPD2    N1 4013   3.210   3.759  12.127 -0.8649  0.1537  0.8587
  261MPD2    H7 4014   3.210   3.852  12.166 -2.0704  0.1500  0.8773
  262TMC3    C1 4015   3.444   4.140  11.582 -0.0924 -0.2660 -0.6258
  262TMC3    C2 4016   3.356   4.242  11.617  0.2373  0.8919 -0.5197
  262TMC3    C3 4017   3.371   4.372  11.576 -0.0415 -0.4721 -0.5526
  262TMC3    C4 4018   3.551   4.174  11.500 -0.1157 -0.9624  0.1080
  262TMC3    C5 4019   3.566   4.305  11.466 -0.8216  0.1167 -0.1519
  262TMC3    C6 4020   3.477   4.402  11.502  0.2973  0.5204  0.0305
  262TMC3     C 4021   3.407   4.006  11.606  0.2444  1.1825 -0.2672
  262TMC3     O 4022   3.442   3.929  11.518 -0.1088 -0.1280 -0.3173
  262TMC3     H 4023   3.265   4.219  11.672  3.7880 -3.3856  3.5785
  262TMC3    H1 4024   3.620   4.097  11.467 -0.8923 -1.8842  0.6490
  262TMC3    H2 4025   3.501   4.508  11.507  0.2783  0.5154  0.2563
  262TMC3    C7 4026   3.703   4.342  11.433  0.1623  0.2562  0.5092
  262TMC3    C8 4027   3.281   4.474  11.635  0.4466  0.6526 -0.0448
  262TMC3    O1 4028   3.782   4.246  11.446 -0.0248  0.1966 -0.1648
  262TMC3    O2 4029   3.271   4.570  11.564  0.7760 -0.3258 -0.2837
  263MPD2     C 4030   4.175   3.244  11.288 -0.1907 -0.3037 -0.0827
  263MPD2    C1 4031   4.287   3.324  11.307 -0.0546  0.5874  0.6043
  263MPD2    C2 4032   4.298   3.434  11.225  0.1039 -0.1059 -0.6365
  263MPD2    C3 4033   4.202   3.453  11.122  0.2707  0.0360 -0.9920
  263MPD2    C4 4034   4.099   3.363  11.093 -0.1596  1.0458 -0.4891
  263MPD2    C5 4035   4.086   3.265  11.188  0.1698 -0.3135 -0.1649
  263MPD2     H 4036   4.371   3.509  11.253  0.0417 -0.9663  1.8593
  263MPD2    H1 4037   4.016   3.376  11.024  0.0771 -0.8393 -1.1478
  263MPD2    H2 4038   4.165   3.153  11.346  2.6924 -1.6249 -1.6404
  263MPD2    H3 4039   4.005   3.195  11.172  0.8456 -1.0582 -0.3293
  263MPD2     N 4040   4.208   3.564  11.034 -0.0131 -0.7494  0.1056
  263MPD2    H5 4041   4.287   3.624  11.055 -1.0720  0.4036  0.8253
  263MPD2    N1 4042   4.378   3.282  11.412 -0.0761 -0.2293 -0.8005
  263MPD2    H7 4043   4.349   3.195  11.456 -3.4022 -0.3034 -3.1854
  264TMC3    C1 4044   4.143   3.746  10.913  0.5222 -0.1255 -0.0168
  264TMC3    C2 4045   4.162   3.839  11.012 -0.1870 -0.0777  0.0754
  264TMC3    C3 4046   4.223   3.955  10.974  0.1819  0.4717 -0.6720
  264TMC3    C4 4047   4.181   3.763  10.784  0.4934  0.2007 -0.0791
  264TMC3    C5 4048   4.230   3.888  10.752  0.2894  0.4735  0.3905
  264TMC3    C6 4049   4.237   3.984  10.842 -0.3281  0.4297 -0.8212
  264TMC3     C 4050   4.106   3.613  10.949  0.0849 -0.3486  0.2442
  264TMC3     O 4051   4.024   3.557  10.878 -0.2024 -0.6698 -0.6224
  264TMC3     H 4052   4.146   3.820  11.117 -1.2692  1.7655  0.2464
  264TMC3    H1 4053   4.171   3.688  10.707 -2.0149 -0.9171  1.3563
  264TMC3    H2 4054   4.274   4.084  10.824  1.1868  0.3723  1.8004
  264TMC3    C7 4055   4.308   3.896  10.627  0.4484 -0.5710 -0.0936
  264TMC3    C8 4056   4.247   4.064  11.068 -0.0741 -0.0118  0.0050
  264TMC3    O1 4057   4.342   3.793  10.570  0.0212 -0.9390 -0.2829
  264TMC3    O2 4058   4.312   4.156  11.019 -0.4709  0.0772  0.5231
  265MPD2     C 4059   1.323   3.841  15.727  0.1700 -0.2437  0.0206
  265MPD2    C1 4060   1.325   3.949  15.635  0.6741 -0.3775  0.3761
  265MPD2    C2 4061   1.378   3.927  15.509 -1.3224  0.5467 -0.6959
  265MPD2    C3 4062   1.448   3.814  15.484  0.5154  0.4841 -0.3058
  265MPD2    C4 4063   1.466   3.713  15.583 -0.4881  0.7146 -0.5568
  265MPD2    C5 4064   1.395   3.724  15.697  0.4699  0.2597 -0.4014
  265MPD2     H 4065   1.376   4.009  15.438  3.5751 -0.9531 -2.5844
  265MPD2    H1 4066   1.508   3.616  15.558  1.9648  1.7115 -0.3396
  265MPD2    H2 4067   1.254   3.833  15.810 -2.4034  1.7059 -1.9254
  265MPD2    H3 4068   1.389   3.633  15.755 -0.4511  0.1722 -0.6271
  265MPD2     N 4069   1.518   3.794  15.363 -0.3958 -0.0414  0.4280
  265MPD2    H5 4070   1.541   3.698  15.340 -1.0259  0.1385 -0.9617
  265MPD2    N1 4071   1.260   4.070  15.668 -0.1740 -0.6041  0.3416
  265MPD2    H7 4072   1.270   4.145  15.600  0.5046  0.0752  1.1989
  266TMC3    C1 4073   1.145   4.227  15.802 -0.4631  0.6122  0.9686
  266TMC3    C2 4074   1.190   4.296  15.910 -0.1130 -0.1906 -0.1617
  266TMC3    C3 4075   1.156   4.430  15.914  0.2795 -0.5952 -0.0333
  266TMC3    C4 4076   1.083   4.285  15.696  0.7904  0.1351  0.2387
  266TMC3    C5 4077   1.046   4.419  15.711  0.1765 -0.2458  0.0986
  266TMC3    C6 4078   1.082   4.495  15.814  0.0033  0.8733 -0.0274
  266TMC3     C 4079   1.198   4.095  15.787  0.2050  0.7624 -0.0933
  266TMC3     O 4080   1.193   4.030  15.891  0.0860 -0.3995 -0.3634
  266TMC3     H 4081   1.247   4.247  15.989 -2.3880 -1.1081  0.9180
  266TMC3    H1 4082   1.048   4.228  15.611  0.3141  1.7702 -0.6686
  266TMC3    H2 4083   1.061   4.601  15.814 -1.5621  0.5540 -1.1475
  266TMC3    C7 4084   0.973   4.472  15.595 -0.4159  0.2785 -0.2252
  266TMC3    C8 4085   1.250   4.508  15.993 -0.0943 -0.0553  0.0757
  266TMC3    O1 4086   0.894   4.391  15.544 -0.5453  0.0848 -0.0186
  266TMC3    O2 4087   1.352   4.449  16.022  0.2438 -0.2844 -0.1440
  267MPD2     C 4088   3.792   0.660   0.132 -0.4628 -0.3398 -0.5232
  267MPD2    C1 4089   3.879   0.736   0.059  0.1983  0.5456  0.3946
  267MPD2    C2 4090   3.845   0.762  17.677 -0.2599 -0.7869  0.2783
  267MPD2    C3 4091   3.732   0.712  17.613  0.1379  1.0720 -0.1720
  267MPD2    C4 4092   3.645   0.647  17.690 -0.1795 -0.2557 -0.3968
  267MPD2    C5 4093   3.680   0.619   0.066 -0.0943  0.0680  0.1173
  267MPD2     H 4094   3.917   0.805  17.608  0.4100  1.3862  2.3389
  267MPD2    H1 4095   3.549   0.608  17.658 -1.6290  2.6293  0.4264
  267MPD2    H2 4096   3.811   0.642   0.237 -3.2127 -1.3759 -0.2005
  267MPD2    H3 4097   3.604   0.576   0.130  1.7186 -0.7453  1.7373
  267MPD2     N 4098   3.703   0.729  17.480 -0.0240 -0.2716 -0.0297
  267MPD2    H5 4099   3.615   0.686  17.452 -1.0253  2.4470 -1.0370
  267MPD2    N1 4100   4.007   0.770   0.113  0.1342  0.1629 -0.2077
  267MPD2    H7 4101   4.013   0.745   0.211  0.0414  2.7834  0.4608
  268TMC3    C1 4102   4.192   0.911   0.168  0.6184  0.2895 -1.1995
  268TMC3    C2 4103   4.249   1.025   0.123  0.5642 -0.3901 -0.0613
  268TMC3    C3 4104   4.378   1.051   0.155  0.2941 -0.5418 -0.2857
  268TMC3    C4 4105   4.264   0.827   0.249  0.0892  0.1790 -0.2985
  268TMC3    C5 4106   4.386   0.865   0.295 -0.2473 -0.5613 -0.6501
  268TMC3    C6 4107   4.447   0.976   0.242 -0.3181  0.0622 -0.4374
  268TMC3     C 4108   4.106   0.853   0.065 -0.0295 -0.3894 -0.2353
  268TMC3     O 4109   4.120   0.907  17.706  0.6047 -0.5774 -0.1299
  268TMC3     H 4110   4.188   1.095   0.067 -0.8686 -0.7054  1.0958
  268TMC3    H1 4111   4.218   0.734   0.278 -0.5314  0.8014  0.7407
  268TMC3    H2 4112   4.553   0.989   0.261 -0.2704 -2.1760  0.8560
  268TMC3    C7 4113   4.436   0.812   0.413  0.6960 -0.1825  0.2796
  268TMC3    C8 4114   4.451   1.119   0.053  0.4520 -0.6274 -0.1756
  268TMC3    O1 4115   4.429   0.689   0.426  0.5979 -0.2031  1.2673
  268TMC3    O2 4116   4.567   1.154   0.069  0.1271 -0.2036  0.1754
  269MPD2     C 4117   3.460   4.339  15.408  0.6623  0.3643  0.1070
  269MPD2    C1 4118   3.568   4.332  15.495  0.1155  0.0897 -0.0917
  269MPD2    C2 4119   3.657   4.438  15.483  0.2852  0.0899  0.6907
  269MPD2    C3 4120   3.631   4.545  15.398 -0.3721 -0.8176  0.3885
  269MPD2    C4 4121   3.518   4.547  15.317 -0.2698  0.0871 -0.5935
  269MPD2    C5 4122   3.437   4.441  15.318  0.8788  0.0161 -0.0538
  269MPD2     H 4123   3.741   4.446  15.550  2.7552 -1.1960 -2.2502
  269MPD2    H1 4124   3.488   4.621  15.244  0.1233  0.5678 -0.2616
  269MPD2    H2 4125   3.391   4.256  15.405  0.7331  0.3467 -1.1019
  269MPD2    H3 4126   3.351   4.443  15.253  0.3610  1.1645  0.6652
  269MPD2     N 4127   3.722   4.647  15.399 -0.5416 -0.1705  0.2879
  269MPD2    H5 4128   3.809   4.631  15.450 -2.7030 -0.1907  3.9844
  269MPD2    N1 4129   3.582   4.215  15.580 -0.4715  0.0598 -0.2560
  269MPD2    H7 4130   3.517   4.138  15.565  2.5154 -2.5690  0.0987
  270TMC3    C1 4131   3.697   4.073  15.735  0.2991 -0.5259  0.3011
  270TMC3    C2 4132   3.579   4.004  15.753 -0.4536 -0.1372  1.2516
  270TMC3    C3 4133   3.580   3.871  15.749  0.0792 -0.1064 -0.4120
  270TMC3    C4 4134   3.815   4.004  15.718  0.2693  0.1982 -0.7429
  270TMC3    C5 4135   3.819   3.868  15.736 -0.6480 -0.6379  0.2477
  270TMC3    C6 4136   3.703   3.804  15.743  0.1541 -0.1517 -0.5020
  270TMC3     C 4137   3.683   4.203  15.676 -0.1037  0.0577 -0.0589
  270TMC3     O 4138   3.779   4.278  15.691 -0.4224  0.1526 -0.1703
  270TMC3     H 4139   3.490   4.063  15.769  0.9737  2.5624 -0.6429
  270TMC3    H1 4140   3.905   4.062  15.703  1.2610 -1.1116  0.0770
  270TMC3    H2 4141   3.722   3.698  15.733 -3.7100 -0.8837 -0.1619
  270TMC3    C7 4142   3.928   3.782  15.700 -0.1905  0.2043 -0.2675
  270TMC3    C8 4143   3.500   3.821  15.640 -0.0679 -0.3882 -0.1429
  270TMC3    O1 4144   3.970   3.696  15.780  0.4288 -0.8190  0.1042
  270TMC3    O2 4145   3.552   3.733  15.574  0.2300  0.0601 -0.3071
  271MPD2     C 4146   3.084   3.752  13.831 -0.6008  0.5574  0.3972
  271MPD2    C1 4147   3.065   3.853  13.920  0.5297 -0.3950 -0.2663
  271MPD2    C2 4148   2.970   3.946  13.888  0.1444 -0.9136 -0.9977
  271MPD2    C3 4149   2.901   3.953  13.766  0.3162 -0.1050  0.8223
  271MPD2    C4 4150   2.937   3.850  13.675 -0.3646  0.0777  0.1023
  271MPD2    C5 4151   3.032   3.753  13.702 -0.1117 -0.1855  0.2095
  271MPD2     H 4152   2.955   4.025  13.961 -0.5445 -2.3270  0.3957
  271MPD2    H1 4153   2.893   3.852  13.576  1.0718 -3.4998 -0.6081
  271MPD2    H2 4154   3.168   3.684  13.841  0.0663  1.2863 -0.1802
  271MPD2    H3 4155   3.054   3.682  13.623  1.3722 -0.2678  0.6994
  271MPD2     N 4156   2.801   4.045  13.730 -0.4150 -0.5152  0.2412
  271MPD2    H5 4157   2.770   4.038  13.633 -4.7276  3.0048  1.3406
  271MPD2    N1 4158   3.112   3.850  14.051  0.5461  0.4991  0.5652
  271MPD2    H7 4159   3.091   3.929  14.111  1.7916  0.3729  1.1490
  272TMC3    C1 4160   3.206   3.759  14.257 -0.8297  0.2580 -0.7889
  272TMC3    C2 4161   3.310   3.684  14.309 -0.4313  0.0739  0.4831
  272TMC3    C3 4162   3.350   3.704  14.442  0.5366 -0.1812  0.3951
  272TMC3    C4 4163   3.148   3.854  14.326  0.2869 -0.4635 -0.5060
  272TMC3    C5 4164   3.197   3.888  14.453 -0.1282 -0.8060 -0.3651
  272TMC3    C6 4165   3.293   3.809  14.509  0.8150 -0.3328  0.4130
  272TMC3     C 4166   3.180   3.744  14.110  0.4764 -0.4413 -0.2663
  272TMC3     O 4167   3.243   3.655  14.062 -0.4690  0.0516  0.3037
  272TMC3     H 4168   3.357   3.603  14.254 -0.7579 -1.7853  2.9260
  272TMC3    H1 4169   3.061   3.909  14.291  0.0610  0.5798  1.7120
  272TMC3    H2 4170   3.316   3.816  14.615  1.5262  0.0320  0.2353
  272TMC3    C7 4171   3.161   4.014  14.512  1.0982 -0.0719  0.0887
  272TMC3    C8 4172   3.442   3.611  14.506  0.2758 -0.3220  0.1333
  272TMC3    O1 4173   3.070   4.079  14.453 -0.5064 -0.1866  0.0951
  272TMC3    O2 4174   3.458   3.613  14.626  0.0959  0.5199  0.0884
  273MPD2     C 4175   4.229   2.267  11.552 -0.3142  0.2156 -0.7813
  273MPD2    C1 4176   4.352   2.330  11.546  0.2136  0.0768  0.4510
  273MPD2    C2 4177   4.413   2.351  11.424 -0.8269  0.4873 -0.5064
  273MPD2    C3 4178   4.367   2.308  11.308 -0.7448  0.7269 -0.3230
  273MPD2    C4 4179   4.242   2.245  11.313  0.6074 -0.2279  0.4108
  273MPD2    C5 4180   4.181   2.222  11.433  0.5024 -0.1878 -0.4265
  273MPD2     H 4181   4.515   2.387  11.428 -0.7525  0.0021  1.8678
  273MPD2    H1 4182   4.199   2.198  11.225 -0.9149  1.1252  0.4246
  273MPD2    H2 4183   4.169   2.245  11.639  0.4960 -1.5149 -0.6717
  273MPD2    H3 4184   4.089   2.165  11.431  0.6436 -0.4659  1.0212
  273MPD2     N 4185   4.441   2.320  11.186 -0.0367  0.7284 -0.1299
  273MPD2    H5 4186   4.409   2.275  11.100 -0.9073  1.7756 -0.3516
  273MPD2    N1 4187   4.414   2.393  11.659  0.2451 -0.3043 -0.1478
  273MPD2    H7 4188   4.504   2.432  11.632 -1.4253  2.6348 -1.5043
  274TMC3    C1 4189   4.608   2.387  11.040 -0.4222 -0.1599 -0.0563
  274TMC3    C2 4190   4.519   2.393  10.940 -0.0798 -0.3445 -0.4134
  274TMC3    C3 4191   4.566   2.437  10.822  0.1453  1.0982 -0.3850
  274TMC3    C4 4192   0.001   2.429  11.024  0.1292  0.2976  0.1946
  274TMC3    C5 4193   0.040   2.466  10.905 -0.1220 -0.7056 -0.2554
  274TMC3    C6 4194   4.697   2.464  10.798 -0.1502 -0.1230 -0.4379
  274TMC3     C 4195   4.553   2.404  11.170 -0.5678  0.4903  0.5270
  274TMC3     O 4196   4.630   2.462  11.249 -0.2487 -0.0582 -0.2256
  274TMC3     H 4197   4.414   2.370  10.954 -0.6211  2.0941 -0.5309
  274TMC3    H1 4198   0.073   2.414  11.104  0.1919 -1.7841 -0.2436
  274TMC3    H2 4199   4.724   2.516  10.707 -2.3518  1.4203 -0.2052
  274TMC3    C7 4200   0.134   2.566  10.919  0.3205 -0.1682 -1.0877
  274TMC3    C8 4201   4.480   2.404  10.715 -0.4770 -0.2860 -0.5546
  274TMC3    O1 4202   0.198   2.587  10.815  0.4718 -0.2133 -0.1044
  274TMC3    O2 4203   4.384   2.334  10.747  0.3863  0.2421  0.2831
  275MPD2     C 4204   0.052   0.005  14.440  0.6097 -0.0382  0.0172
  275MPD2    C1 4205   4.721   0.079  14.347 -0.3358  0.4002 -0.5664
  275MPD2    C2 4206   4.599   0.031  14.305  0.9501  0.1170  0.2208
  275MPD2    C3 4207   4.543   4.662  14.366  0.1830  0.2008  0.5180
  275MPD2    C4 4208   4.611   4.588  14.456 -1.0410 -0.5681  0.5982
  275MPD2    C5 4209   0.001   4.627  14.491 -0.1958 -0.0016 -0.1482
  275MPD2     H 4210   4.546   0.091  14.231  2.1820  2.7812  1.4823
  275MPD2    H1 4211   4.569   4.498  14.499  0.8876 -2.5202 -1.5851
  275MPD2    H2 4212   0.146   0.038  14.481 -0.5824  2.2983  0.8724
  275MPD2    H3 4213   0.059   4.562  14.555  2.3763  1.3014 -1.1648
  275MPD2     N 4214   4.405   4.628  14.351  0.2644  0.3997  0.3805
  275MPD2    H5 4215   4.364   4.546  14.394 -1.2994  0.9536 -0.0583
  275MPD2    N1 4216   0.028   0.197  14.292  0.5205 -0.1506 -1.1457
  275MPD2    H7 4217   4.706   0.231  14.217 -1.4386  1.2191  1.0362
  276TMC3    C1 4218   0.130   0.406  14.290 -0.4412  0.2514  0.0071
  276TMC3    C2 4219   0.004   0.453  14.287 -0.6041  0.3760 -0.3055
  276TMC3    C3 4220   4.709   0.568  14.346 -0.1299 -0.6512 -0.1823
  276TMC3    C4 4221   0.229   0.482  14.344 -0.1414 -0.4251 -0.1383
  276TMC3    C5 4222   0.196   0.608  14.398 -0.4189  0.0903 -0.1049
  276TMC3    C6 4223   0.064   0.650  14.407 -0.3374 -0.4263  0.1176
  276TMC3     C 4224   0.141   0.264  14.320 -0.6095  0.6864 -0.1241
  276TMC3     O 4225   0.229   0.231  14.399  0.0345  0.4284 -0.2291
  276TMC3     H 4226   4.653   0.409  14.242 -0.2841 -0.2151 -0.3535
  276TMC3    H1 4227   0.324   0.429  14.344  0.5010  0.7212 -3.4895
  276TMC3    H2 4228   0.028   0.742  14.451  0.2581 -0.7583  1.2854
  276TMC3    C7 4229   0.275   0.648  14.509  0.8892  0.8520 -0.0468
  276TMC3    C8 4230   4.599   0.551  14.445  0.0988 -0.1818 -0.5832
  276TMC3    O1 4231   0.209   0.689  14.604  0.1918 -0.5950 -0.7078
  276TMC3    O2 4232   4.560   0.645  14.515 -0.4694 -0.2452 -0.3510
  277MPD2     C 4233   1.611   4.048  13.274 -0.6585  0.1436 -0.5965
  277MPD2    C1 4234   1.494   4.118  13.299 -0.0429 -0.7259 -0.4554
  277MPD2    C2 4235   1.432   4.103  13.427  0.5050  0.1790  0.1783
  277MPD2    C3 4236   1.486   4.012  13.514  0.2116  0.1537  0.7105
  277MPD2    C4 4237   1.604   3.944  13.486  0.1245  1.1683  0.0828
  277MPD2    C5 4238   1.659   3.963  13.367  0.1116  0.4159  0.1543
  277MPD2     H 4239   1.334   4.145  13.448  0.2724  0.6918 -1.9213
  277MPD2    H1 4240   1.653   3.886  13.563 -0.4972  1.2958  0.5687
  277MPD2    H2 4241   1.652   4.046  13.174  0.5756  2.3162 -0.1156
  277MPD2    H3 4242   1.747   3.912  13.330 -0.5587 -0.5984 -0.0700
  277MPD2     N 4243   1.406   3.981  13.628  0.4804  0.1374  0.5752
  277MPD2    H5 4244   1.312   4.020  13.624  0.4149 -0.0057  0.7052
  277MPD2    N1 4245   1.432   4.195  13.196  0.2950  0.4344  0.1209
  277MPD2    H7 4246   1.489   4.211  13.114 -0.1651  2.2313  0.1478
  278TMC3    C1 4247   1.309   3.854  13.788 -0.6540 -0.0484 -0.2797
  278TMC3    C2 4248   1.298   3.729  13.829 -0.0445  1.1411 -0.0859
  278TMC3    C3 4249   1.186   3.658  13.823 -0.6276 -0.5344 -0.4926
  278TMC3    C4 4250   1.201   3.926  13.765 -0.1844  0.5104  0.6172
  278TMC3    C5 4251   1.080   3.863  13.779 -0.6319  0.1259 -0.1618
  278TMC3    C6 4252   1.075   3.725  13.801  0.8233  0.3827  0.8395
  278TMC3     C 4253   1.433   3.881  13.723  0.4668  0.7576 -0.3684
  278TMC3     O 4254   1.532   3.811  13.736  0.3383  0.1621 -0.6531
  278TMC3     H 4255   1.393   3.677  13.830  0.6915  2.5180  2.6625
  278TMC3    H1 4256   1.208   4.031  13.739 -3.5075  0.5325 -0.2499
  278TMC3    H2 4257   0.983   3.668  13.796  2.2268 -1.7405 -0.6399
  278TMC3    C7 4258   0.966   3.945  13.791 -0.3753 -0.2745 -0.2514
  278TMC3    C8 4259   1.210   3.530  13.748  0.7403 -0.5742  0.5419
  278TMC3    O1 4260   0.991   4.062  13.805  0.0697  0.4782  0.3904
  278TMC3    O2 4261   1.305   3.463  13.785 -0.0078 -0.0031 -0.1356
  279MPD2     C 4262   1.241   4.441   0.032  0.1260 -0.1028 -0.1171
  279MPD2    C1 4263   1.111   4.399   0.027  0.0797  0.5726 -0.1535
  279MPD2    C2 4264   1.051   4.392  17.646  0.0157 -0.4782 -1.2724
  279MPD2    C3 4265   1.130   4.419  17.534  0.0207  0.3510  0.4958
  279MPD2    C4 4266   1.266   4.448  17.538  0.4660  0.1282 -0.1463
  279MPD2    C5 4267   1.314   4.464  17.666  0.2571 -0.2660  0.0590
  279MPD2     H 4268   0.947   4.362  17.638  0.0319 -1.0487  0.5115
  279MPD2    H1 4269   1.323   4.465  17.447 -0.9275  2.3093 -0.6073
  279MPD2    H2 4270   1.293   4.452   0.126 -0.9577 -1.2208  0.6218
  279MPD2    H3 4271   1.418   4.492  17.681 -0.7050  2.2945  1.9699
  279MPD2     N 4272   1.073   4.404  17.406  0.0081  0.4163  0.4742
  279MPD2    H5 4273   1.122   4.440  17.325 -0.1135 -0.1226  0.1660
  279MPD2    N1 4274   1.037   4.380   0.144  0.0881 -0.2406  0.2368
  279MPD2    H7 4275   1.075   4.403   0.235  1.7757  3.3788 -1.3737
  280TMC3    C1 4276   0.853   4.311   0.275 -0.1014  0.0670 -0.3370
  280TMC3    C2 4277   0.758   4.214   0.284  0.8230 -0.2361  0.4707
  280TMC3    C3 4278   0.654   4.237   0.365 -0.6270 -0.3139 -0.1202
  280TMC3    C4 4279   0.852   4.427   0.345 -0.5581  0.0382 -0.6980
  280TMC3    C5 4280   0.739   4.452   0.415  0.2003 -0.3731 -1.4492
  280TMC3    C6 4281   0.640   4.359   0.427 -0.4624 -0.9432  0.1166
  280TMC3     C 4282   0.915   4.308   0.146 -0.3612  0.2627 -0.0692
  280TMC3     O 4283   0.859   4.253   0.056 -0.9825  0.0123  0.4402
  280TMC3     H 4284   0.771   4.118   0.235  2.5148 -0.3296  1.0654
  280TMC3    H1 4285   0.912   4.516   0.328 -1.8018  0.7072 -1.6096
  280TMC3    H2 4286   0.545   4.379   0.475  0.2067  0.2772  0.9307
  280TMC3    C7 4287   0.705   4.592   0.440 -0.2701  0.2440 -0.3039
  280TMC3    C8 4288   0.543   4.144   0.362 -0.3808 -0.8693  0.2670
  280TMC3    O1 4289   0.797   4.662   0.474  0.3246 -0.8278  0.3032
  280TMC3    O2 4290   0.480   4.134   0.464 -0.3470  0.1897 -0.0858
  281TMC3    C1 4291   3.691   4.154  13.596 -0.5179  0.6610  0.0386
  281TMC3    C2 4292   3.811   4.125  13.649  0.8163 -0.3177  0.3062
  281TMC3    C3 4293   3.862   4.000  13.630 -0.3348 -0.3735  0.2145
  281TMC3    C4 4294   3.613   4.055  13.549 -0.2145 -0.1872 -0.1552
  281TMC3    C5 4295   3.658   3.928  13.533  0.6207  0.4249 -0.0347
  281TMC3    C6 4296   3.785   3.894  13.582  0.0880 -0.0167  1.3994
  281TMC3     C 4297   3.625   4.277  13.635 -0.1649 -0.6859  0.1909
  281TMC3     O 4298   3.502   4.270  13.639 -0.5703  0.1718  0.2889
  281TMC3     H 4299   3.874   4.202  13.692 -1.2545  0.7983  1.3405
  281TMC3    H1 4300   3.517   4.078  13.504  0.9659 -0.5934 -2.8813
  281TMC3    H2 4301   3.817   3.791  13.586  1.0438  0.2175 -0.1913
  281TMC3    C7 4302   3.554   3.835  13.547  0.1676  0.0922  0.9292
  281TMC3    C8 4303   4.001   4.005  13.583  0.3494  0.0307 -0.8379
  281TMC3    O1 4304   3.448   3.883  13.583  0.5406  0.0911  0.5327
  281TMC3    O2 4305   4.053   4.115  13.577  0.3393 -0.0672  0.2050
  282MPD2     C 4306   1.419   0.936  14.965 -0.1638  0.1647 -0.5744
  282MPD2    C1 4307   1.318   1.018  15.000  0.7100  0.0220 -0.0468
  282MPD2    C2 4308   1.268   1.110  14.914 -0.5872  0.3353  0.8219
  282MPD2    C3 4309   1.299   1.106  14.777  0.3157 -0.5516  0.0165
  282MPD2    C4 4310   1.402   1.020  14.736  0.0852  0.3290  0.0980
  282MPD2    C5 4311   1.464   0.942  14.832 -1.2816 -0.0227 -0.2831
  282MPD2     H 4312   1.188   1.179  14.940 -0.2806  0.7022  0.7795
  282MPD2    H1 4313   1.443   1.025  14.636 -0.2104 -1.9572 -0.1371
  282MPD2    H2 4314   1.473   0.883  15.042  0.0933 -1.0313 -1.5774
  282MPD2    H3 4315   1.548   0.881  14.801 -0.3071  1.2631 -0.1437
  282MPD2     N 4316   1.221   1.173  14.679 -0.2832 -0.0842  0.1639
  282MPD2    H5 4317   1.136   1.214  14.717 -1.5672 -2.0777 -0.5611
  282MPD2    N1 4318   1.277   1.035  15.133  0.4373  0.0181 -0.5168
  282MPD2    H7 4319   1.209   1.108  15.151  0.9664  0.2075  0.6995
  283TMC3    C1 4320   1.224   0.988  15.353 -0.4451 -0.2742 -0.6441
  283TMC3    C2 4321   1.218   1.122  15.364  0.3755  0.6107 -0.2035
  283TMC3    C3 4322   1.142   1.172  15.465 -1.1027  0.1829  0.3424
  283TMC3    C4 4323   1.138   0.906  15.415  0.2385  0.4616 -0.2205
  283TMC3    C5 4324   1.044   0.966  15.493  0.4335  0.4280  0.6566
  283TMC3    C6 4325   1.048   1.095  15.535  0.0726 -0.1776 -0.4023
  283TMC3     C 4326   1.299   0.941  15.236  0.4512  0.4718 -0.1330
  283TMC3     O 4327   1.323   0.822  15.224 -0.0237 -0.5572 -0.1408
  283TMC3     H 4328   1.285   1.195  15.320 -0.9887  1.3647 -1.0484
  283TMC3    H1 4329   1.148   0.799  15.401 -2.7358  0.2674 -0.9422
  283TMC3    H2 4330   0.975   1.143  15.599  1.2346  2.0969 -0.7762
  283TMC3    C7 4331   0.944   0.879  15.546 -0.6693  0.4286 -0.3171
  283TMC3    C8 4332   1.153   1.304  15.516 -0.0296 -0.1045  0.2835
  283TMC3    O1 4333   0.898   0.920  15.651 -0.0582 -0.0749  0.3887
  283TMC3    O2 4334   1.102   1.322  15.629 -0.4349 -0.0562  0.2649
  284MPD2     C 4335   4.258   0.213  12.262  0.0346 -0.0105  0.0673
  284MPD2    C1 4336   4.373   0.285  12.266  0.1833  0.5257  0.1925
  284MPD2    C2 4337   4.464   0.259  12.365  0.1633 -0.5017  0.0459
  284MPD2    C3 4338   4.445   0.159  12.463 -0.3758  0.2041  0.7872
  284MPD2    C4 4339   4.326   0.086  12.454  0.5309 -0.6343  0.0307
  284MPD2    C5 4340   4.234   0.123  12.359  0.2691 -0.5085 -0.0418
  284MPD2     H 4341   4.553   0.319  12.375 -0.6821  1.0736 -1.8747
  284MPD2    H1 4342   4.307   4.733  12.510 -0.0838 -0.1448  0.6397
  284MPD2    H2 4343   4.176   0.249  12.201  1.6446 -0.2913 -2.2691
  284MPD2    H3 4344   4.135   0.080  12.372 -0.3115  0.6819 -0.5518
  284MPD2     N 4345   4.543   0.123  12.559 -0.0458  0.2832  0.1116
  284MPD2    H5 4346   4.517   0.045  12.619  2.2178  0.7108  1.6226
  284MPD2    N1 4347   4.408   0.379  12.172  0.4551 -0.0657  0.1133
  284MPD2    H7 4348   4.507   0.402  12.163  0.2424  0.6173 -0.5554
  285TMC3    C1 4349   4.410   0.484  11.978  0.5300 -0.2519  0.7156
  285TMC3    C2 4350   4.518   0.418  11.926 -0.6352  0.1034  0.1666
  285TMC3    C3 4351   4.592   0.485  11.829 -0.2646  0.2171  0.3626
  285TMC3    C4 4352   4.377   0.613  11.951 -0.3146 -0.3266  1.1563
  285TMC3    C5 4353   4.455   0.671  11.847 -0.8553  0.1023  0.2731
  285TMC3    C6 4354   4.563   0.612  11.793 -0.2992 -0.6281 -0.1408
  285TMC3     C 4355   4.330   0.422  12.080 -0.0944  0.4538 -1.1727
  285TMC3     O 4356   4.208   0.458  12.094 -0.4882 -0.1343  0.0553
  285TMC3     H 4357   4.539   0.319  11.964  1.7423  1.3660  2.1491
  285TMC3    H1 4358   4.295   0.658  12.006 -0.5863 -0.8187  1.1564
  285TMC3    H2 4359   4.629   0.675  11.734 -0.4079 -0.8697 -0.5177
  285TMC3    C7 4360   4.434   0.816  11.815  0.8580 -0.6567  0.6238
  285TMC3    C8 4361   4.684   0.414  11.748  0.1838 -0.6976 -0.4946
  285TMC3    O1 4362   4.541   0.878  11.797  0.2650  0.4726 -0.1371
  285TMC3    O2 4363   4.673   0.289  11.748 -0.1377 -0.1320 -0.2959
  286MPD2     C 4364   0.216   3.582   1.382  0.1155 -0.5343 -0.8177
  286MPD2    C1 4365   0.126   3.539   1.279 -0.3552 -0.4815  0.3207
  286MPD2    C2 4366   0.133   3.410   1.232  0.0294  0.1413 -0.5295
  286MPD2    C3 4367   0.216   3.316   1.296 -0.0170 -0.0733 -0.1843
  286MPD2    C4 4368   0.299   3.358   1.398 -0.2464 -0.2888  0.6047
  286MPD2    C5 4369   0.297   3.491   1.438 -0.1471 -0.1796 -1.0370
  286MPD2     H 4370   0.063   3.389   1.152  0.0845 -2.4950  0.1000
  286MPD2    H1 4371   0.370   3.297   1.453  2.7218  0.2725 -2.5681
  286MPD2    H2 4372   0.198   3.683   1.419  3.4233 -0.3086  0.1321
  286MPD2    H3 4373   0.350   3.516   1.530  0.5390 -1.3989 -1.1043
  286MPD2     N 4374   0.229   3.183   1.256  0.4145 -0.4836 -0.0995
  286MPD2    H5 4375   0.288   3.125   1.314  2.1217 -0.3834 -1.7466
  286MPD2    N1 4376   0.024   3.621   1.219 -0.2935 -1.2272  0.0207
  286MPD2    H7 4377   4.712   3.576   1.143 -2.6878  3.4330 -1.1627
  287TMC3    C1 4378   0.202   2.982   1.129  0.3504  0.4057 -0.2413
  287TMC3    C2 4379   0.124   2.912   1.038 -0.8026 -1.1643 -0.6777
  287TMC3    C3 4380   0.171   2.801   0.975  0.4091 -0.3541  0.8225
  287TMC3    C4 4381   0.326   2.939   1.151  0.1889 -0.8516 -0.2875
  287TMC3    C5 4382   0.380   2.831   1.084 -0.5704 -0.6649  0.2450
  287TMC3    C6 4383   0.304   2.760   0.997 -0.1564  0.5505  0.1745
  287TMC3     C 4384   0.168   3.121   1.153 -0.1043 -0.4913  0.5518
  287TMC3     O 4385   0.075   3.163   1.085  0.0797  0.3347 -0.4128
  287TMC3     H 4386   0.020   2.935   1.016 -0.9147  0.6430  1.7880
  287TMC3    H1 4387   0.400   2.993   1.209  0.5245 -1.2620 -0.3295
  287TMC3    H2 4388   0.354   2.676   0.950  0.6638  1.0808  0.0982
  287TMC3    C7 4389   0.519   2.814   1.096 -0.0178  0.3430 -0.2259
  287TMC3    C8 4390   0.115   2.741   0.848  0.8652 -0.6519  0.1298
  287TMC3    O1 4391   0.571   2.845   1.198 -0.2665 -0.1824  0.2192
  287TMC3    O2 4392   0.173   2.644   0.798 -0.2986  0.3388  0.9056
  288TMC3    C1 4393   1.845   3.793  14.396 -0.6646 -1.1045 -0.2664
  288TMC3    C2 4394   1.792   3.742  14.510  0.0247 -0.1747  0.0707
  288TMC3    C3 4395   1.658   3.710  14.502  0.2721  0.1126 -0.3068
  288TMC3    C4 4396   1.777   3.815  14.275  0.2368 -1.1574  0.3154
  288TMC3    C5 4397   1.646   3.785  14.280 -0.1078 -0.3057 -0.0784
  288TMC3    C6 4398   1.585   3.726  14.388  0.1738 -0.1802  0.5117
  288TMC3     C 4399   1.981   3.832  14.393 -0.0082 -0.5993 -0.3086
  288TMC3     O 4400   2.039   3.851  14.286 -0.2829 -0.1815 -0.3396
  288TMC3     H 4401   1.850   3.718  14.598 -0.1061 -1.7727 -0.2654
  288TMC3    H1 4402   1.825   3.869  14.194 -3.1481 -0.4020 -1.1902
  288TMC3    H2 4403   1.477   3.726  14.395  0.1208 -1.4450 -0.1718
  288TMC3    C7 4404   1.553   3.882  14.213  0.1740  0.9333 -0.0307
  288TMC3    C8 4405   1.583   3.673  14.624  0.3505 -0.2890 -0.2678
  288TMC3    O1 4406   1.446   3.902  14.266  0.1856  0.0676 -0.3693
  288TMC3    O2 4407   1.652   3.695  14.723  0.0585 -0.6617  0.2412
  289MPD2     C 4408   1.809   2.981  14.607 -0.3642  0.2626 -0.4013
  289MPD2    C1 4409   1.782   3.097  14.544 -0.3856  0.6485  0.2949
  289MPD2    C2 4410   1.668   3.097  14.460  0.1885  0.4287 -0.1165
  289MPD2    C3 4411   1.588   2.982  14.441  0.0660 -0.4385  0.2282
  289MPD2    C4 4412   1.622   2.868  14.515 -0.4286  0.3634 -0.3138
  289MPD2    C5 4413   1.740   2.868  14.594 -0.6294  0.3110 -0.1306
  289MPD2     H 4414   1.624   3.186  14.416 -0.2454  0.7503  0.9602
  289MPD2    H1 4415   1.555   2.783  14.513 -1.0760  0.8994 -1.1296
  289MPD2    H2 4416   1.889   2.966  14.678 -0.7151  0.7598  0.0996
  289MPD2    H3 4417   1.760   2.778  14.650  0.9813  1.5365  1.2295
  289MPD2     N 4418   1.471   2.983  14.352 -0.1686 -0.0281 -0.8148
  289MPD2    H5 4419   1.408   2.904  14.345  1.0104 -1.0695  0.1403
  289MPD2    N1 4420   1.874   3.199  14.572 -0.3215 -0.8068  0.1188
  289MPD2    H7 4421   1.962   3.182  14.619 -0.9391 -0.6954  1.3096
  290TMC3    C1 4422   1.338   3.058  14.163  0.7915 -0.4181 -0.0788
  290TMC3    C2 4423   1.287   3.161  14.098 -0.1199  0.2930 -0.8355
  290TMC3    C3 4424   1.203   3.133  13.990 -0.3379  0.7124 -0.1230
  290TMC3    C4 4425   1.311   2.924  14.135 -0.0963 -0.0117  0.0142
  290TMC3    C5 4426   1.222   2.897  14.032  0.2481 -0.3096 -0.5224
  290TMC3    C6 4427   1.166   3.003  13.962  0.7313 -0.3744  1.1595
  290TMC3     C 4428   1.440   3.085  14.260 -0.7754  0.2350 -0.2517
  290TMC3     O 4429   1.489   3.193  14.247  0.0696  0.2276  0.2011
  290TMC3     H 4430   1.296   3.262  14.136  0.8135  0.4651 -1.5259
  290TMC3    H1 4431   1.374   2.844  14.173 -1.7148 -1.1708  0.2656
  290TMC3    H2 4432   1.112   2.978  13.872 -0.2552 -1.2767  2.0086
  290TMC3    C7 4433   1.138   2.784  14.048 -0.2213  0.4481  0.0957
  290TMC3    C8 4434   1.108   3.230  13.925 -0.5868 -0.5114  0.4862
  290TMC3    O1 4435   1.024   2.786  14.002 -0.3094  0.1430 -0.3610
  290TMC3    O2 4436   1.031   3.185  13.842  0.0433  0.3259 -0.1891
  291MPD2     C 4437   0.946   2.828   0.160 -0.1173  0.2940 -0.0530
  291MPD2    C1 4438   1.076   2.790   0.168 -0.0061  0.4333  0.0690
  291MPD2    C2 4439   1.174   2.873   0.132  0.0976  0.1125  0.1682
  291MPD2    C3 4440   1.150   3.003   0.099 -1.1983 -0.4522  0.9650
  291MPD2    C4 4441   1.021   3.045   0.095 -0.4368 -0.2379 -0.2465
  291MPD2    C5 4442   0.914   2.957   0.124  0.7920  0.1489  0.2446
  291MPD2     H 4443   1.278   2.843   0.140  0.2759  0.3475 -1.2288
  291MPD2    H1 4444   1.004   3.145   0.057  1.0839  1.3255  3.2411
  291MPD2    H2 4445   0.866   2.755   0.174  0.5221 -0.2693  0.6824
  291MPD2    H3 4446   0.811   2.990   0.123  1.0303  0.8994  0.1511
  291MPD2     N 4447   1.249   3.096   0.056  0.2989 -0.2388 -0.0731
  291MPD2    H5 4448   1.217   3.175  17.750 -0.5739  0.0773  0.8601
  291MPD2    N1 4449   1.114   2.658   0.193 -0.2035  0.8104 -0.0449
  291MPD2    H7 4450   1.214   2.641   0.192 -0.0671  1.6162  0.6260
  292TMC3    C1 4451   1.106   2.419   0.227  0.3112 -0.1030 -0.3277
  292TMC3    C2 4452   1.242   2.415   0.221  0.2984 -0.1976 -0.0467
  292TMC3    C3 4453   1.306   2.292   0.190 -0.8442  0.3946 -0.3661
  292TMC3    C4 4454   1.030   2.313   0.208 -0.0119  1.0114 -0.4471
  292TMC3    C5 4455   1.091   2.197   0.183  0.3454  0.2493 -0.1396
  292TMC3    C6 4456   1.226   2.185   0.169  0.1289 -0.2982  0.6867
  292TMC3     C 4457   1.032   2.549   0.220 -0.1322  0.5462  0.0203
  292TMC3     O 4458   0.914   2.546   0.247 -0.0772  0.1842 -1.1706
  292TMC3     H 4459   1.308   2.491   0.261 -0.2125 -0.1094  0.6147
  292TMC3    H1 4460   0.923   2.328   0.207 -0.1874 -0.2185  0.3663
  292TMC3    H2 4461   1.261   2.086   0.143 -1.4324 -1.1227  1.7367
  292TMC3    C7 4462   1.009   2.087   0.153 -0.5948 -0.0294  0.0163
  292TMC3    C8 4463   1.410   2.258   0.293 -0.5456 -0.2419 -0.3299
  292TMC3    O1 4464   1.045   2.025   0.051 -0.0649  0.2135  0.2945
  292TMC3    O2 4465   1.478   2.346   0.343 -0.6820  1.0291 -0.2963
  293MPD2     C 4466   2.281   3.994  12.442 -0.4830 -0.3749  0.6475
  293MPD2    C1 4467   2.260   3.873  12.494 -0.8061  0.7067 -0.7668
  293MPD2    C2 4468   2.307   3.846  12.618 -0.7118 -0.4993 -0.1625
  293MPD2    C3 4469   2.376   3.940  12.692  0.2754  0.0319  0.5022
  293MPD2    C4 4470   2.398   4.065  12.635  0.1862  0.1457  0.4625
  293MPD2    C5 4471   2.351   4.094  12.508  0.3875 -0.0423 -0.5946
  293MPD2     H 4472   2.294   3.744  12.654  4.0796 -1.2432 -0.6430
  293MPD2    H1 4473   2.449   4.144  12.689  1.5937 -0.1638 -0.4352
  293MPD2    H2 4474   2.248   4.008  12.339  2.6518  1.0014 -0.1946
  293MPD2    H3 4475   2.369   4.187  12.455 -0.1158 -0.7168 -1.9637
  293MPD2     N 4476   2.421   3.912  12.821  0.2684  0.1136 -0.0307
  293MPD2    H5 4477   2.409   3.818  12.857 -2.0936  0.4169 -0.0792
  293MPD2    N1 4478   2.182   3.787  12.414 -0.2891  0.5255  0.2342
  293MPD2    H7 4479   2.124   3.834  12.345 -2.0981  0.8078  1.9290
  294TMC3    C1 4480   2.130   3.598  12.297  0.3371 -0.1806 -0.1743
  294TMC3    C2 4481   2.000   3.639  12.270  0.1356 -0.2843 -0.0646
  294TMC3    C3 4482   1.926   3.564  12.186  0.7663 -0.1501 -0.0108
  294TMC3    C4 4483   2.177   3.487  12.237 -0.0304  0.5021 -0.7582
  294TMC3    C5 4484   2.104   3.430  12.134  0.6714 -0.1406  0.1627
  294TMC3    C6 4485   1.977   3.466  12.106  0.8665 -0.1124  0.3016
  294TMC3     C 4486   2.209   3.654  12.402  0.7835  0.0161 -0.2469
  294TMC3     O 4487   2.271   3.577  12.468  0.1322  0.8287 -0.4125
  294TMC3     H 4488   1.953   3.705  12.343 -1.5586 -0.5350 -0.9452
  294TMC3    H1 4489   2.273   3.445  12.264  0.4884  0.6421 -2.4079
  294TMC3    H2 4490   1.915   3.418  12.031  2.5107  1.3721 -2.0323
  294TMC3    C7 4491   2.133   3.295  12.100  0.4927  0.0012  0.1755
  294TMC3    C8 4492   1.785   3.552  12.219  0.3157  0.1343  0.2575
  294TMC3    O1 4493   2.034   3.222  12.081 -0.5244  0.9628 -0.2504
  294TMC3    O2 4494   1.739   3.639  12.290  0.6637  0.1081  1.0005
  295MPD2     C 4495   4.117   2.373   0.787  0.3175  0.1298 -0.0444
  295MPD2    C1 4496   4.085   2.296   0.687  1.1986  0.3073 -0.2717
  295MPD2    C2 4497   4.146   2.170   0.669  0.2858  1.0208 -0.0276
  295MPD2    C3 4498   4.247   2.139   0.760 -0.9635 -0.1661 -0.4807
  295MPD2    C4 4499   4.287   2.224   0.860 -0.2263  0.3573  0.1495
  295MPD2    C5 4500   4.218   2.344   0.871  0.4034 -0.0951 -0.3515
  295MPD2     H 4501   4.109   2.105   0.591  0.7288 -0.3502  0.8962
  295MPD2    H1 4502   4.371   2.204   0.926 -0.4063 -0.6569  0.0591
  295MPD2    H2 4503   4.059   2.463   0.805  1.6363  1.2526 -1.4528
  295MPD2    H3 4504   4.240   2.412   0.952  0.2561 -0.1581 -0.2592
  295MPD2     N 4505   4.324   2.023   0.760  0.2187 -0.5060 -0.2800
  295MPD2    H5 4506   4.395   2.015   0.832 -0.2782 -0.2544  0.2426
  295MPD2    N1 4507   3.986   2.336   0.592 -0.0046 -0.0076 -0.4821
  295MPD2    H7 4508   3.964   2.271   0.516 -0.1167  0.1668 -0.5992
  296TMC3    C1 4509   4.382   1.799   0.731  0.0585  0.6599  0.1351
  296TMC3    C2 4510   4.411   1.785   0.866  0.0911 -0.6300 -0.1428
  296TMC3    C3 4511   4.430   1.660   0.908 -0.6077  0.1325  0.7606
  296TMC3    C4 4512   4.370   1.697   0.644  0.4331 -0.7860  0.0768
  296TMC3    C5 4513   4.396   1.571   0.700 -0.2983 -0.3011  0.2297
  296TMC3    C6 4514   4.428   1.550   0.829 -0.2999  0.5976 -0.0969
  296TMC3     C 4515   4.308   1.916   0.681 -0.4779  0.0572  0.2342
  296TMC3     O 4516   4.232   1.899   0.590  0.1907 -0.6762  0.2007
  296TMC3     H 4517   4.423   1.872   0.931 -2.2711 -0.9312  0.7045
  296TMC3    H1 4518   4.358   1.701   0.537  0.2955 -1.7497  0.0534
  296TMC3    H2 4519   4.460   1.453   0.865 -0.8089  0.0827 -1.0277
  296TMC3    C7 4520   4.351   1.457   0.616 -0.2094  0.4971  0.0273
  296TMC3    C8 4521   4.516   1.646   1.025 -0.0896  0.1746  1.4309
  296TMC3    O1 4522   4.358   1.470   0.495 -0.6197 -0.1081  0.3141
  296TMC3    O2 4523   4.602   1.558   1.029  0.1952 -0.3729  0.6802
  297MPD2     C 4524   0.389   4.227  16.305 -0.3033  0.3037  0.6770
  297MPD2    C1 4525   0.345   4.296  16.192  0.1541 -0.2952  0.2407
  297MPD2    C2 4526   0.409   4.410  16.157  0.1855  0.0759 -0.0971
  297MPD2    C3 4527   0.501   4.472  16.246  0.2984 -0.6280 -0.4805
  297MPD2    C4 4528   0.552   4.400  16.355  0.2700 -0.7691 -0.2138
  297MPD2    C5 4529   0.493   4.279  16.382  0.3617 -0.2165 -0.3789
  297MPD2     H 4530   0.387   4.452  16.060  2.3663 -1.7747 -1.3906
  297MPD2    H1 4531   0.620   4.445  16.427 -0.2224  3.2767 -2.2619
  297MPD2    H2 4532   0.336   4.141  16.343 -0.0718 -0.6403 -1.1503
  297MPD2    H3 4533   0.508   4.249  16.485  1.5254 -0.9245 -0.7569
  297MPD2     N 4534   0.554   4.597  16.205 -0.1745 -0.1901  0.5263
  297MPD2    H5 4535   0.511   4.634  16.121  1.6756 -0.6339 -0.5995
  297MPD2    N1 4536   0.235   4.253  16.116 -0.0446 -0.1898 -0.4972
  297MPD2    H7 4537   0.214   4.317  16.039  1.5073  3.8895  2.4848
  298TMC3    C1 4538   0.017   4.226  16.088 -1.0054  0.3183 -0.3172
  298TMC3    C2 4539   0.039   4.259  15.961 -0.0746 -0.2589 -0.3420
  298TMC3    C3 4540   4.674   4.315  15.895  0.0806  0.0067 -0.3760
  298TMC3    C4 4541   4.637   4.256  16.154  0.3131  0.5047 -0.3594
  298TMC3    C5 4542   4.532   4.320  16.090  0.5116 -0.1602 -0.8801
  298TMC3    C6 4543   4.552   4.348  15.954  0.3718 -1.1475  0.4850
  298TMC3     C 4544   0.131   4.189  16.164  0.3650 -0.3377  0.1875
  298TMC3     O 4545   0.113   4.127  16.267 -0.4773  0.5182  0.2521
  298TMC3     H 4546   0.131   4.229  15.912 -2.2710 -1.4097 -3.7487
  298TMC3    H1 4547   4.634   4.230  16.259  3.4220  0.5896 -0.2378
  298TMC3    H2 4548   4.464   4.380  15.899  1.0274 -0.1058  0.0403
  298TMC3    C7 4549   4.465   4.420  16.177  0.4222 -0.8372  0.9701
  298TMC3    C8 4550   4.687   4.329  15.754  0.2593  0.3914  0.3220
  298TMC3    O1 4551   4.492   4.420  16.295 -0.0503 -0.0795 -0.1349
  298TMC3    O2 4552   0.055   4.291  15.710 -0.3782 -0.1613  0.1936
  299MPD2     C 4553   1.130   0.008  10.255  0.1584 -0.4884 -0.1041
  299MPD2    C1 4554   1.104   4.665  10.360  0.0272 -0.6254  0.2279
  299MPD2    C2 4555   1.000   4.570  10.343 -0.3976  0.4787 -0.6269
  299MPD2    C3 4556   0.925   4.559  10.226 -0.1929 -0.7015 -0.1269
  299MPD2    C4 4557   0.951   4.643  10.113 -0.5739  0.0766 -0.0288
  299MPD2    C5 4558   1.056   4.737  10.133  0.1487 -0.0071  0.3853
  299MPD2     H 4559   0.981   4.504  10.426 -0.1672 -0.2634 -1.1692
  299MPD2    H1 4560   0.905   4.635  10.015  0.7919 -0.5204 -0.6232
  299MPD2    H2 4561   1.209   0.081  10.261  2.1082 -2.4427 -1.9226
  299MPD2    H3 4562   1.090   0.069  10.058 -1.1351  0.4889  0.2751
  299MPD2     N 4563   0.818   4.467  10.214 -0.2432  0.0526  0.1927
  299MPD2    H5 4564   0.750   4.478  10.139 -0.4048  0.1850  0.3569
  299MPD2    N1 4565   1.180   4.684  10.475  0.5938  0.1237  0.3546
  299MPD2    H7 4566   1.257   0.012  10.463  0.8809 -0.2944 -0.0884
  300TMC3    C1 4567   0.668   4.299  10.296 -0.2134 -0.0859 -0.3208
  300TMC3    C2 4568   0.567   4.381  10.252 -0.2387  0.1258  0.6154
  300TMC3    C3 4569   0.431   4.352  10.293  0.0311 -0.7033 -0.7598
  300TMC3    C4 4570   0.640   4.190  10.374 -0.0365  0.5138 -0.4198
  300TMC3    C5 4571   0.506   4.179  10.421  0.7619 -0.6638  0.0525
  300TMC3    C6 4572   0.400   4.252  10.380  0.2783 -0.1729 -0.1046
  300TMC3     C 4573   0.795   4.362  10.302 -0.9615 -0.3877  0.8695
  300TMC3     O 4574   0.868   4.316  10.387  0.2685  0.0535  0.7321
  300TMC3     H 4575   0.580   4.477  10.203  2.5614 -0.3906  0.3561
  300TMC3    H1 4576   0.721   4.132  10.417 -0.7616  0.7512  1.2628
  300TMC3    H2 4577   0.307   4.252  10.435 -0.1333  0.6330 -0.8177
  300TMC3    C7 4578   0.490   4.114  10.546  0.1148  0.5552 -0.3624
  300TMC3    C8 4579   0.352   4.469  10.303 -0.2549  0.5522  0.0199
  300TMC3    O1 4580   0.567   4.026  10.568 -0.0362 -0.4422  0.2871
  300TMC3    O2 4581   0.285   4.478  10.405 -0.2444  0.0053 -0.6776
  301MPD2     C 4582   3.605   0.558   0.687  0.3483  0.7195  0.0625
  301MPD2    C1 4583   3.472   0.549   0.703  1.0966  0.7895  0.3162
  301MPD2    C2 4584   3.416   0.431   0.746 -0.0104 -0.0888  0.2274
  301MPD2    C3 4585   3.481   0.316   0.757 -0.1073 -0.2141  0.1619
  301MPD2    C4 4586   3.613   0.332   0.763  0.0677 -0.0427 -0.3010
  301MPD2    C5 4587   3.678   0.450   0.723 -0.4090  0.1700 -0.1331
  301MPD2     H 4588   3.315   0.443   0.782  1.3078 -1.0547  4.2720
  301MPD2    H1 4589   3.668   0.241   0.788 -0.0290  0.4597  1.7376
  301MPD2    H2 4590   3.657   0.647   0.653  2.2143  0.3665  1.9960
  301MPD2    H3 4591   3.786   0.453   0.727 -0.4555 -0.2539  1.4769
  301MPD2     N 4592   3.423   0.199   0.810 -0.1098 -0.1307  0.3357
  301MPD2    H5 4593   3.496   0.129   0.821  0.3439  0.2786 -0.1098
  301MPD2    N1 4594   3.374   0.649   0.684  0.8517  0.1763  0.1156
  301MPD2    H7 4595   3.277   0.618   0.685 -0.4239  4.1523  3.4295
  302TMC3    C1 4596   3.235   0.050   0.845 -0.0625  0.2409 -0.4843
  302TMC3    C2 4597   3.321   4.701   0.912 -0.6915 -0.3425  0.2873
  302TMC3    C3 4598   3.289   4.568   0.901 -0.3069 -0.1479  0.0578
  302TMC3    C4 4599   3.120   0.012   0.776 -0.7674 -0.1796  0.5129
  302TMC3    C5 4600   3.094   4.619   0.773 -0.2053 -0.5589 -0.2492
  302TMC3    C6 4601   3.180   4.526   0.826 -0.4726  0.0489  0.6322
  302TMC3     C 4602   3.286   0.178   0.800 -0.7422 -0.0195  0.4960
  302TMC3     O 4603   3.196   0.251   0.759  0.8483  0.0564 -0.6769
  302TMC3     H 4604   3.408   0.004   0.963 -0.2438  0.3969 -1.0715
  302TMC3    H1 4605   3.056   0.088   0.732  1.9145  1.5840 -0.3398
  302TMC3    H2 4606   3.154   4.422   0.811  1.8641 -0.8951  3.0252
  302TMC3    C7 4607   2.998   4.565   0.683 -0.1650  0.7199  0.2069
  302TMC3    C8 4608   3.398   4.478   0.943 -0.6098  0.3703  0.6746
  302TMC3    O1 4609   3.020   4.453   0.635  0.1623 -0.1627 -0.2823
  302TMC3    O2 4610   3.511   4.527   0.944 -0.6042  0.2052  0.2450
  303MPD2     C 4611   2.553   4.371  11.561  0.1865  0.2513  0.0546
  303MPD2    C1 4612   2.652   4.302  11.492 -0.1921  1.0501  0.7028
  303MPD2    C2 4613   2.665   4.331  11.355 -0.1734 -0.2279 -0.2955
  303MPD2    C3 4614   2.589   4.428  11.296 -0.0572  0.1341  0.5474
  303MPD2    C4 4615   2.488   4.497  11.368  0.0452 -0.5815 -0.3150
  303MPD2    C5 4616   2.473   4.467  11.500  0.4858 -0.5711 -0.0866
  303MPD2     H 4617   2.742   4.281  11.298 -0.3292  0.3248 -0.9795
  303MPD2    H1 4618   2.409   4.554  11.321  1.1935  0.2659 -1.1978
  303MPD2    H2 4619   2.519   4.352  11.663  0.9546  1.3916  0.5237
  303MPD2    H3 4620   2.393   4.512  11.557  1.7558  1.0114  0.4508
  303MPD2     N 4621   2.603   4.450  11.154  0.3405 -0.3942 -0.0682
  303MPD2    H5 4622   2.664   4.389  11.101  0.2525  0.5340 -1.2257
  303MPD2    N1 4623   2.727   4.195  11.542  0.0899  0.5792  0.4439
  303MPD2    H7 4624   2.792   4.147  11.481  0.5451  1.7177  0.0179
  304TMC3    C1 4625   2.804   4.028  11.694  0.4113 -0.4653 -0.4995
  304TMC3    C2 4626   2.748   3.907  11.723  0.4121 -0.5257 -0.0596
  304TMC3    C3 4627   2.834   3.798  11.734 -0.4028 -0.1136 -0.4421
  304TMC3    C4 4628   2.938   4.048  11.661  0.2805  0.8069 -0.3437
  304TMC3    C5 4629   3.018   3.938  11.655 -0.1546 -0.4063  0.4905
  304TMC3    C6 4630   2.966   3.817  11.701 -0.3906 -0.2094  0.5135
  304TMC3     C 4631   2.720   4.148  11.676  0.0633  0.4386 -0.2101
  304TMC3     O 4632   2.641   4.182  11.764  0.1346 -0.5779 -0.0294
  304TMC3     H 4633   2.642   3.904  11.741  0.9137  0.8897  3.0676
  304TMC3    H1 4634   2.976   4.143  11.625 -0.0626  1.1467  0.1946
  304TMC3    H2 4635   3.029   3.729  11.707  0.3526  0.2211 -0.9171
  304TMC3    C7 4636   3.087   3.930  11.528  0.1985  0.5869 -0.3083
  304TMC3    C8 4637   2.780   3.681  11.669  0.5585 -0.8471 -0.0890
  304TMC3    O1 4638   3.137   4.032  11.488 -0.6242 -0.1962  0.1094
  304TMC3    O2 4639   2.853   3.626  11.587  0.1017  0.0749 -0.2092
  305MPD2     C 4640   1.670   1.626  14.082 -0.5709 -0.1460 -0.1506
  305MPD2    C1 4641   1.624   1.499  14.120  0.3699 -0.2415 -0.3565
  305MPD2    C2 4642   1.580   1.413  14.025  0.2414  0.3269 -0.2965
  305MPD2    C3 4643   1.571   1.452  13.892 -0.1316  0.9515  0.5112
  305MPD2    C4 4644   1.608   1.579  13.856 -0.0805  0.0639 -0.2233
  305MPD2    C5 4645   1.661   1.662  13.949  0.1916 -0.3042 -0.6550
  305MPD2     H 4646   1.554   1.313  14.055 -0.0092  0.4654 -0.0578
  305MPD2    H1 4647   1.592   1.607  13.753  1.4051 -2.6490 -1.1674
  305MPD2    H2 4648   1.723   1.697  14.146  0.6091 -0.4861 -0.7460
  305MPD2    H3 4649   1.692   1.760  13.916 -0.7456  0.5663  1.0731
  305MPD2     N 4650   1.517   1.359  13.802 -0.4425 -0.1930  0.1330
  305MPD2    H5 4651   1.477   1.271  13.831 -0.5688 -0.4884 -0.9733
  305MPD2    N1 4652   1.641   1.465  14.259  0.3564 -0.0204  0.0402
  305MPD2    H7 4653   1.671   1.539  14.321 -0.9030 -0.2533  0.9275
  306TMC3    C1 4654   1.645   1.330  14.450 -1.0348  0.0595 -0.0977
  306TMC3    C2 4655   1.642   1.205  14.511 -0.3383  0.2877  0.7519
  306TMC3    C3 4656   1.701   1.189  14.631  0.1048 -0.2763 -0.1375
  306TMC3    C4 4657   1.699   1.437  14.519  0.0865 -0.2575 -0.8457
  306TMC3    C5 4658   1.747   1.415  14.647 -0.6557 -0.0975  0.5205
  306TMC3    C6 4659   1.757   1.292  14.702  0.0870 -0.6857 -0.1826
  306TMC3     C 4660   1.625   1.335  14.309  0.0493 -0.4974 -0.9362
  306TMC3     O 4661   1.586   1.229  14.260 -1.2088 -0.0396  0.3116
  306TMC3     H 4662   1.597   1.125  14.453 -0.4703  0.9926 -0.1176
  306TMC3    H1 4663   1.695   1.535  14.473  0.0164 -0.5996 -1.5775
  306TMC3    H2 4664   1.814   1.269  14.792  0.5725 -1.3523 -0.6657
  306TMC3    C7 4665   1.793   1.534  14.715  0.3807 -0.6714 -0.0294
  306TMC3    C8 4666   1.742   1.048  14.649  0.3622 -0.4747  0.6640
  306TMC3    O1 4667   1.816   1.629  14.644 -0.3740 -0.4943  0.6524
  306TMC3    O2 4668   1.718   0.971  14.561  0.1911  0.5042  0.0166
  307MPD2     C 4669   4.182   3.886  17.680 -0.4817  0.6607 -0.1507
  307MPD2    C1 4670   4.118   3.979   0.008  0.4188  0.3456  0.1428
  307MPD2    C2 4671   4.061   3.933   0.127  0.5673  0.2637  0.3992
  307MPD2    C3 4672   4.082   3.799   0.169  0.2501  0.0128  0.6102
  307MPD2    C4 4673   4.151   3.712   0.090  0.0422 -0.3526 -0.4976
  307MPD2    C5 4674   4.202   3.755  17.719 -0.0880 -0.6483 -0.2133
  307MPD2     H 4675   4.005   4.007   0.184 -1.1271 -0.2457 -0.6126
  307MPD2    H1 4676   4.178   3.611   0.118 -0.7711 -0.2864  0.5473
  307MPD2    H2 4677   4.231   3.915  17.587  2.3535 -1.2313  0.7638
  307MPD2    H3 4678   4.256   3.687  17.655  1.8187  1.5864 -0.9629
  307MPD2     N 4679   4.019   3.764   0.291 -0.6588  0.0078  0.4075
  307MPD2    H5 4680   3.969   3.833   0.346 -2.7014 -0.5006 -0.8171
  307MPD2    N1 4681   4.122   4.122  17.741  0.5772  0.2156  0.3384
  307MPD2    H7 4682   4.084   4.183   0.062  1.2575  2.7256 -1.4407
  308TMC3    C1 4683   3.739   3.631   0.524 -0.1927 -0.2455  0.1857
  308TMC3    C2 4684   3.739   3.756   0.584  0.1154 -0.4963 -0.0776
  308TMC3    C3 4685   3.858   3.820   0.585 -0.8585 -0.2549 -0.5386
  308TMC3    C4 4686   3.845   3.568   0.471 -0.0522 -0.1128 -0.3881
  308TMC3    C5 4687   3.959   3.636   0.477 -0.3895 -0.3178  0.2975
  308TMC3    C6 4688   3.968   3.754   0.534 -0.6538  0.0954  0.1469
  308TMC3     C 4689   3.617   3.558   0.518  0.2402 -0.4585  0.7077
  308TMC3     O 4690   3.641   3.442   0.499 -0.2611  0.5255 -0.2990
  308TMC3     H 4691   3.651   3.797   0.633 -0.0630 -0.6857 -0.2359
  308TMC3    H1 4692   3.834   3.495   0.393  0.0830 -1.1934  0.6011
  308TMC3    H2 4693   4.066   3.797   0.550 -0.0544 -1.4481  0.7334
  308TMC3    C7 4694   4.023   3.631   0.347  0.2162  0.9263 -1.0010
  308TMC3    C8 4695   3.877   3.956   0.635 -0.0664 -0.7663  0.0877
  308TMC3    O1 4696   4.060   3.522   0.305  0.0487 -0.1631 -0.1771
  308TMC3    O2 4697   3.990   3.983   0.672 -0.0278  0.4437 -0.4004
  309MPD2     C 4698   3.327   4.351  17.108 -1.4583  0.1018  0.0630
  309MPD2    C1 4699   3.258   4.373  16.992  0.2086 -0.3918  0.2273
  309MPD2    C2 4700   3.122   4.387  17.008  0.5558 -0.4141 -0.5554
  309MPD2    C3 4701   3.055   4.363  17.126 -0.7153 -0.2465 -0.0603
  309MPD2    C4 4702   3.132   4.340  17.236  0.2745  0.0623  0.1623
  309MPD2    C5 4703   3.264   4.333  17.227  0.0532 -0.2065  0.2872
  309MPD2     H 4704   3.064   4.418  16.922  0.6993 -1.0279 -0.8769
  309MPD2    H1 4705   3.089   4.322  17.333 -0.0188 -1.2291 -0.2118
  309MPD2    H2 4706   3.434   4.332  17.104 -1.0244  2.9381 -1.7361
  309MPD2    H3 4707   3.320   4.300  17.313  0.1063  1.2714  0.8278
  309MPD2     N 4708   2.918   4.384  17.147 -0.2619  0.6908  0.1397
  309MPD2    H5 4709   2.888   4.387  17.244 -0.6769  0.7863  0.0081
  309MPD2    N1 4710   3.329   4.393  16.869 -1.0785 -0.0083 -0.2543
  309MPD2    H7 4711   3.275   4.402  16.783 -0.4399  2.1651 -0.4372
  310TMC3    C1 4712   3.497   4.368  16.708 -0.3295  0.4813 -0.6871
  310TMC3    C2 4713   3.445   4.458  16.624 -0.6799 -0.5979  0.2490
  310TMC3    C3 4714   3.470   4.445  16.492  0.3363  0.2179  0.4366
  310TMC3    C4 4715   3.578   4.272  16.670  0.5792  0.5067 -0.4466
  310TMC3    C5 4716   3.614   4.267  16.539 -0.3462  0.1113 -0.8511
  310TMC3    C6 4717   3.555   4.351  16.449  0.9079 -0.5779  0.9366
  310TMC3     C 4718   3.463   4.378  16.847 -0.0524 -0.2288  0.0184
  310TMC3     O 4719   3.551   4.353  16.934  0.4999  0.2154 -0.0572
  310TMC3     H 4720   3.384   4.542  16.657  0.1361  0.3937 -0.7999
  310TMC3    H1 4721   3.620   4.210  16.748  2.5072  0.5960 -1.4345
  310TMC3    H2 4722   3.546   4.314  16.348 -1.1194  0.8378  0.6124
  310TMC3    C7 4723   3.715   4.172  16.497  0.1041 -0.3633 -0.1216
  310TMC3    C8 4724   3.380   4.509  16.397  0.1085 -0.9263  0.0551
  310TMC3    O1 4725   3.750   4.098  16.583  0.0812 -0.3063 -0.3341
  310TMC3    O2 4726   3.287   4.569  16.450 -0.1869 -0.0335  0.0049
  311MPD2     C 4727   0.109   1.587  12.885 -0.2850 -0.5340  0.0688
  311MPD2    C1 4728   0.207   1.495  12.921 -0.1941  0.3475  0.3079
  311MPD2    C2 4729   0.177   1.362  12.941 -0.6871  0.2657  0.2856
  311MPD2    C3 4730   0.041   1.322  12.924  0.5202 -0.1309 -0.2990
  311MPD2    C4 4731   4.689   1.408  12.874  0.4850  0.1715 -0.7382
  311MPD2    C5 4732   4.718   1.545  12.856 -0.1142 -0.1202 -0.4001
  311MPD2     H 4733   0.245   1.282  12.968  0.4093 -0.0397 -3.4156
  311MPD2    H1 4734   4.585   1.382  12.857  0.7581 -0.6667 -1.1243
  311MPD2    H2 4735   0.124   1.694  12.880 -0.4390 -0.5364 -0.5224
  311MPD2    H3 4736   4.635   1.610  12.831  1.0876  1.7066  0.3714
  311MPD2     N 4737   0.016   1.187  12.951  0.4848  0.0481  0.1446
  311MPD2    H5 4738   0.088   1.130  12.993 -1.4119 -2.9411 -0.6514
  311MPD2    N1 4739   0.342   1.539  12.936 -0.1344 -0.3805 -0.4738
  311MPD2    H7 4740   0.365   1.635  12.959  0.7201 -1.3451  2.7497
  312TMC3    C1 4741   4.606   1.000  12.983  0.0577  0.1952  0.2785
  312TMC3    C2 4742   4.497   0.931  12.940 -0.2830  0.2365 -0.2466
  312TMC3    C3 4743   4.459   0.825  13.015 -0.3675  0.0685  0.9043
  312TMC3    C4 4744   4.686   0.954  13.082 -0.2426 -0.2558  0.2015
  312TMC3    C5 4745   4.646   0.840  13.151 -0.1523 -0.0622  0.8999
  312TMC3    C6 4746   4.526   0.783  13.122  0.4861  0.4014  0.4544
  312TMC3     C 4747   4.632   1.125  12.914 -0.1150  0.4188 -0.5821
  312TMC3     O 4748   4.544   1.164  12.836  0.1405 -0.0278 -0.4600
  312TMC3     H 4749   4.462   0.955  12.840  0.8665  1.4855 -0.3566
  312TMC3    H1 4750   0.047   0.997  13.096 -0.8323  1.3773 -0.5918
  312TMC3    H2 4751   4.486   0.710  13.192  0.4355  0.9506  1.0015
  312TMC3    C7 4752   4.684   0.835  13.287 -0.0136  0.3209 -1.2910
  312TMC3    C8 4753   4.331   0.770  12.977  0.3142  0.4518 -0.3306
  312TMC3    O1 4754   4.644   0.738  13.350 -0.0754  0.0012  0.1812
  312TMC3    O2 4755   4.311   0.657  13.008 -0.0078 -1.0357 -0.3515
  313MPD2     C 4756   4.397   0.206  11.334 -0.0210 -1.0375  0.0587
  313MPD2    C1 4757   4.459   0.323  11.294 -0.0963 -0.3275  0.7108
  313MPD2    C2 4758   4.544   0.315  11.182  0.1177  0.5270  0.3690
  313MPD2    C3 4759   4.566   0.191  11.122  0.6307  0.0006  0.0335
  313MPD2    C4 4760   4.518   0.074  11.178 -0.6645 -0.5307  0.1911
  313MPD2    C5 4761   4.424   0.081  11.274  0.2209 -0.4822 -1.2042
  313MPD2     H 4762   4.592   0.406  11.149 -0.2237 -0.0290 -1.6483
  313MPD2    H1 4763   4.536   4.710  11.145  1.2857  0.6377 -2.3587
  313MPD2    H2 4764   4.320   0.202  11.410 -0.2663 -0.3271 -0.1570
  313MPD2    H3 4765   4.378   4.733  11.321 -0.3339  0.2939 -0.3281
  313MPD2     N 4766   4.656   0.192  11.009 -0.0122  0.1127 -0.2028
  313MPD2    H5 4767   4.710   0.274  10.986  0.0452 -0.0269 -0.5554
  313MPD2    N1 4768   4.445   0.439  11.377 -0.3560  0.9790 -0.3325
  313MPD2    H7 4769   4.380   0.436  11.455 -0.8432 -2.2384 -0.8720
  314TMC3    C1 4770   4.467   0.665  11.460 -0.1383  0.3927 -0.1340
  314TMC3    C2 4771   4.551   0.763  11.493 -0.9024 -0.5719  0.0878
  314TMC3    C3 4772   4.514   0.890  11.475 -0.3883  0.5271 -0.5455
  314TMC3    C4 4773   4.346   0.693  11.412 -0.1131  0.2410  0.1159
  314TMC3    C5 4774   4.316   0.822  11.385 -0.6574 -0.8847  0.5351
  314TMC3    C6 4775   4.406   0.926  11.407 -0.2896  0.1435 -0.2718
  314TMC3     C 4776   4.517   0.555  11.377 -0.4641 -0.5496 -0.2907
  314TMC3     O 4777   4.621   0.582  11.315 -0.6982 -0.1897 -0.0359
  314TMC3     H 4778   4.652   0.740  11.526 -0.8567  2.6788  2.1783
  314TMC3    H1 4779   4.280   0.613  11.380 -0.4206 -0.1037  1.6158
  314TMC3    H2 4780   4.359   1.023  11.397  1.7926  1.2721  0.9157
  314TMC3    C7 4781   4.245   0.831  11.255  0.0128 -0.1039 -0.2377
  314TMC3    C8 4782   4.605   1.004  11.495  0.2678  0.6063  0.7001
  314TMC3    O1 4783   4.164   0.748  11.216 -0.0466  0.1904  0.3291
  314TMC3    O2 4784   4.572   1.104  11.431 -1.0940  0.0571 -0.1346
  315MPD2     C 4785   4.124   4.517   0.302 -0.4369 -0.8910 -0.4105
  315MPD2    C1 4786   4.249   4.475   0.253 -0.0419 -0.7597 -0.5188
  315MPD2    C2 4787   4.332   4.571   0.206 -0.3038  0.2863  0.4703
  315MPD2    C3 4788   4.308   4.703   0.206 -0.3583 -0.3981  1.0209
  315MPD2    C4 4789   4.184   0.009   0.254  0.3471  0.0611  0.4852
  315MPD2    C5 4790   4.098   4.653   0.305  0.1956 -0.7624  1.1965
  315MPD2     H 4791   4.430   4.536   0.175  0.3770  1.6667  1.0616
  315MPD2    H1 4792   4.164   0.116   0.256  0.1439  0.1110 -3.7622
  315MPD2    H2 4793   4.057   4.444   0.347 -0.7839 -2.0956 -2.8372
  315MPD2    H3 4794   3.999   4.690   0.331  1.7779  3.2972  1.3140
  315MPD2     N 4795   4.399   0.060   0.152  0.5453  0.8779  0.1409
  315MPD2    H5 4796   4.479   0.035   0.094  1.4231  2.2508  0.7452
  315MPD2    N1 4797   4.288   4.337   0.253 -0.3651  0.0107  0.4295
  315MPD2    H7 4798   4.386   4.316   0.236 -0.6579 -0.2149 -0.9949
  316TMC3    C1 4799   4.528   0.249   0.133 -0.0222 -0.3645  0.1974
  316TMC3    C2 4800   4.633   0.278   0.212 -0.0860 -0.0173 -0.8850
  316TMC3    C3 4801   0.019   0.262   0.172 -0.0572  0.6045 -0.2003
  316TMC3    C4 4802   4.550   0.216  17.750  0.1977 -0.5211  0.0308
  316TMC3    C5 4803   4.683   0.203  17.701 -0.0699  0.2181 -0.5228
  316TMC3    C6 4804   0.050   0.229   0.046  0.0239 -0.1923 -0.3663
  316TMC3     C 4805   4.413   0.188   0.197  0.3340  0.8729 -0.7693
  316TMC3     O 4806   4.372   0.232   0.303  0.8763 -0.1938  0.0198
  316TMC3     H 4807   4.606   0.323   0.307 -3.0878 -0.2244 -1.6306
  316TMC3    H1 4808   4.463   0.200  17.688 -0.6059 -0.8533  1.2570
  316TMC3    H2 4809   0.152   0.208   0.016  0.2380  1.3528 -0.7249
  316TMC3    C7 4810   4.712   0.218  17.561 -0.1761 -0.7858 -0.1847
  316TMC3    C8 4811   0.127   0.275   0.273  0.2760  0.6431  0.0246
  316TMC3    O1 4812   0.089   0.254  17.537 -0.6839  0.0740  0.5529
  316TMC3    O2 4813   0.106   0.349   0.369  0.3344  0.1155 -0.4095
  317MPD2     C 4814   1.262   3.360  12.967 -0.0362 -0.1666  0.0080
  317MPD2    C1 4815   1.251   3.237  12.905 -0.1826  0.2190 -0.2782
  317MPD2    C2 4816   1.328   3.130  12.950 -0.4961  0.2829 -0.4337
  317MPD2    C3 4817   1.405   3.139  13.069 -0.2698  0.1806  0.3195
  317MPD2    C4 4818   1.414   3.265  13.131 -0.2377 -0.3879  0.5810
  317MPD2    C5 4819   1.345   3.371  13.077 -0.0784 -0.6276  0.1060
  317MPD2     H 4820   1.313   3.035  12.899  1.4111  1.1158 -2.5459
  317MPD2    H1 4821   1.466   3.283  13.224  1.1893 -1.2621 -0.0363
  317MPD2    H2 4822   1.213   3.449  12.930  0.1165  0.1718  0.6285
  317MPD2    H3 4823   1.346   3.469  13.123 -0.2079 -0.5617 -0.0298
  317MPD2     N 4824   1.450   3.018  13.138  0.0960  1.0962 -0.0916
  317MPD2    H5 4825   1.449   2.932  13.085  0.3301 -0.4988  2.5080
  317MPD2    N1 4826   1.178   3.216  12.789  0.1141  0.8628 -0.5065
  317MPD2    H7 4827   1.190   3.122  12.754 -4.3062 -0.1236  0.5455
  318TMC3    C1 4828   1.562   2.897  13.290  0.1032 -0.0916 -0.1046
  318TMC3    C2 4829   1.490   2.786  13.257 -0.0374  0.0115 -0.1642
  318TMC3    C3 4830   1.547   2.669  13.291 -0.7492 -0.1098  0.1632
  318TMC3    C4 4831   1.675   2.894  13.363 -0.3645 -0.0503 -0.0810
  318TMC3    C5 4832   1.731   2.771  13.391  0.6846 -0.0992 -0.3792
  318TMC3    C6 4833   1.670   2.654  13.352 -0.2853 -0.2977 -0.7215
  318TMC3     C 4834   1.502   3.026  13.263 -0.0151 -0.5578  0.1714
  318TMC3     O 4835   1.498   3.112  13.349 -0.5100  0.2393  0.1302
  318TMC3     H 4836   1.402   2.792  13.194  0.6268 -2.5776 -1.3288
  318TMC3    H1 4837   1.714   2.989  13.398  0.6807 -0.9318  1.1540
  318TMC3    H2 4838   1.712   2.554  13.361  2.7214  1.1182  0.8258
  318TMC3    C7 4839   1.848   2.767  13.479  0.3426  0.0752 -0.7329
  318TMC3    C8 4840   1.468   2.549  13.259 -0.4080 -0.5766  0.0452
  318TMC3    O1 4841   1.846   2.845  13.574 -0.2752  0.0721  0.0305
  318TMC3    O2 4842   1.495   2.447  13.325 -0.5442 -0.2950  0.1613
  319MPD2     C 4843   2.685   4.087  16.715 -0.3303 -0.7440  0.1892
  319MPD2    C1 4844   2.699   3.960  16.670  0.6127  0.5243  0.6401
  319MPD2    C2 4845   2.633   3.921  16.555 -0.9654  0.2960  0.5544
  319MPD2    C3 4846   2.531   4.001  16.501 -0.3724 -0.4261 -0.7020
  319MPD2    C4 4847   2.509   4.128  16.550 -0.1028 -0.2695 -0.0182
  319MPD2    C5 4848   2.591   4.171  16.651 -0.2644  0.3975 -0.4879
  319MPD2     H 4849   2.658   3.827  16.508  3.1471  1.2662  0.8233
  319MPD2    H1 4850   2.435   4.191  16.502 -1.0077  0.3498  2.1794
  319MPD2    H2 4851   2.751   4.124  16.792 -1.3316  1.4929 -0.0248
  319MPD2    H3 4852   2.581   4.272  16.689 -0.5063  0.3542 -0.4376
  319MPD2     N 4853   2.447   3.974  16.389  0.5154 -0.0909  0.0686
  319MPD2    H5 4854   2.364   4.032  16.384 -0.6857 -1.8135 -0.0053
  319MPD2    N1 4855   2.782   3.861  16.725  0.4792  0.5396 -0.0982
  319MPD2    H7 4856   2.773   3.767  16.687  0.0266  0.6037 -0.1595
  320TMC3    C1 4857   2.366   3.843  16.200  0.1772 -0.5428 -0.0476
  320TMC3    C2 4858   2.273   3.942  16.162 -0.8281 -0.3839  0.1191
  320TMC3    C3 4859   2.170   3.910  16.075  0.1556  0.3285  0.1131
  320TMC3    C4 4860   2.349   3.716  16.167  0.3061 -0.5750  0.1419
  320TMC3    C5 4861   2.243   3.688  16.077 -0.2123 -0.1600 -0.2222
  320TMC3    C6 4862   2.152   3.778  16.037  0.7473  0.1178  0.5716
  320TMC3     C 4863   2.468   3.869  16.304 -0.6440  0.4483 -0.5537
  320TMC3     O 4864   2.581   3.812  16.296  0.2784  0.1320  0.3826
  320TMC3     H 4865   2.279   4.043  16.200  3.0367 -0.8543  0.7651
  320TMC3    H1 4866   2.412   3.636  16.203 -0.5218 -0.7536  1.1793
  320TMC3    H2 4867   2.075   3.740  15.971  0.6215 -1.8679  1.8783
  320TMC3    C7 4868   2.199   3.552  16.097 -0.0740  0.3715 -0.1115
  320TMC3    C8 4869   2.072   4.008  16.056 -0.8059 -0.2330  0.3178
  320TMC3    O1 4870   2.156   3.486  16.005  0.6997  0.4136  0.2614
  320TMC3    O2 4871   2.098   4.124  16.064 -0.3577 -0.0738 -0.5279
  321TMC3    C1 4872   2.941   3.763  16.858 -0.4519  0.2553 -0.1397
  321TMC3    C2 4873   2.876   3.642  16.870 -0.0017 -0.0991 -0.8425
  321TMC3    C3 4874   2.950   3.533  16.906 -0.2083 -0.3142  0.3279
  321TMC3    C4 4875   3.071   3.788  16.896  0.6572 -0.3936  0.1794
  321TMC3    C5 4876   3.135   3.672  16.930  0.1509 -0.8021 -0.0127
  321TMC3    C6 4877   3.084   3.541  16.931  0.1606 -0.3535 -0.1601
  321TMC3     C 4878   2.863   3.885  16.832  0.2676 -0.1614  1.2418
  321TMC3     O 4879   2.913   3.984  16.890 -0.0666  0.6122 -0.0797
  321TMC3     H 4880   2.769   3.634  16.851  0.0235 -0.2443 -0.9229
  321TMC3    H1 4881   3.111   3.888  16.897  0.8335 -0.5001  2.3920
  321TMC3    H2 4882   3.143   3.452  16.949 -0.1723 -0.9023 -1.7845
  321TMC3    C7 4883   3.199   3.686  17.058 -0.0468 -0.1423 -0.1714
  321TMC3    C8 4884   2.886   3.452  17.008 -0.1004  0.2586 -0.0592
  321TMC3    O1 4885   3.193   3.582  17.129 -0.8962  0.2573  0.5452
  321TMC3    O2 4886   2.795   3.377  16.973 -0.5457 -0.2160  0.1958
  322MPD2     C 4887   1.774   0.594  13.270 -0.5894 -0.2389  0.7673
  322MPD2    C1 4888   1.715   0.517  13.375 -0.3579 -0.0315  0.2890
  322MPD2    C2 4889   1.682   0.383  13.348 -0.2655 -0.8277  0.6980
  322MPD2    C3 4890   1.698   0.325  13.224  0.4741  0.1043 -0.3273
  322MPD2    C4 4891   1.755   0.405  13.127  0.0044  0.3246  0.5453
  322MPD2    C5 4892   1.789   0.538  13.146 -0.3344  0.1597  0.0822
  322MPD2     H 4893   1.637   0.326  13.429  0.0369 -0.2535  1.2671
  322MPD2    H1 4894   1.769   0.376  13.023 -0.6571  0.4366  0.4260
  322MPD2    H2 4895   1.775   0.702  13.283 -0.0778 -0.0222 -1.0396
  322MPD2    H3 4896   1.822   0.597  13.061  0.1269  1.0749  0.8942
  322MPD2     N 4897   1.650   0.194  13.187  0.3299 -0.3861  0.4743
  322MPD2    H5 4898   1.673   0.155  13.096 -0.8141  0.7336 -0.3043
  322MPD2    N1 4899   1.686   0.591  13.496 -0.0379  0.1467 -0.2456
  322MPD2    H7 4900   1.703   0.691  13.492  0.2361  0.1208  0.3446
  323TMC3    C1 4901   1.630   0.609  13.741  0.3689  0.4618 -0.0269
  323TMC3    C2 4902   1.686   0.734  13.737 -0.1840 -0.7448 -0.0242
  323TMC3    C3 4903   1.730   0.779  13.859  0.3248  0.2755  0.3375
  323TMC3    C4 4904   1.619   0.531  13.852 -0.1651  0.1491  0.3396
  323TMC3    C5 4905   1.664   0.579  13.975 -0.0177 -0.2294 -0.5826
  323TMC3    C6 4906   1.725   0.701  13.978  0.6051 -0.7265  0.1722
  323TMC3     C 4907   1.625   0.535  13.612  0.5254 -0.3030 -0.6194
  323TMC3     O 4908   1.559   0.430  13.617  0.1438 -0.4227  0.8558
  323TMC3     H 4909   1.682   0.791  13.645 -1.0139 -0.1173  0.3985
  323TMC3    H1 4910   1.599   0.426  13.838 -1.7654  0.5226 -0.1307
  323TMC3    H2 4911   1.769   0.731  14.073 -2.0143 -1.2433  1.5275
  323TMC3    C7 4912   1.696   0.491  14.088 -0.6380  0.4156 -0.2804
  323TMC3    C8 4913   1.852   0.856  13.854  0.6317  0.1845  0.0325
  323TMC3    O1 4914   1.690   0.375  14.055  0.2589  0.5800 -0.2477
  323TMC3    O2 4915   1.927   0.838  13.950  0.0261  0.3700  0.1270
  324MPD2     C 4916   2.941   1.193  14.647 -0.0089  0.2655 -0.0665
  324MPD2    C1 4917   2.922   1.285  14.549  0.2249 -0.0586 -0.0814
  324MPD2    C2 4918   2.792   1.333  14.525 -0.1317 -0.2427 -0.2081
  324MPD2    C3 4919   2.681   1.286  14.597  0.0541 -0.4019  0.3475
  324MPD2    C4 4920   2.707   1.192  14.698 -0.2386  0.3250  0.1445
  324MPD2    C5 4921   2.836   1.148  14.722 -0.3624  0.1847  0.7541
  324MPD2     H 4922   2.789   1.406  14.445 -0.0475  0.4113  0.3859
  324MPD2    H1 4923   2.627   1.136  14.744 -1.0671  0.5644 -1.0190
  324MPD2    H2 4924   3.041   1.153  14.664  0.5752  2.4075  1.6276
  324MPD2    H3 4925   2.854   1.062  14.785  0.9997  1.0163  1.4965
  324MPD2     N 4926   2.551   1.329  14.572 -0.2182 -0.5120  0.4334
  324MPD2    H5 4927   2.471   1.292  14.624 -1.6760  0.8003 -0.8792
  324MPD2    N1 4928   3.031   1.342  14.477 -0.0396 -0.8633  0.0855
  324MPD2    H7 4929   2.998   1.413  14.412  1.1074  0.2673  0.7478
  325TMC3    C1 4930   2.380   1.452  14.459 -0.2611  0.4461 -0.2809
  325TMC3    C2 4931   2.342   1.501  14.342  0.2113  0.0123  0.0390
  325TMC3    C3 4932   2.244   1.596  14.344 -0.0706  0.0606  0.0451
  325TMC3    C4 4933   2.336   1.506  14.578 -0.4344 -0.3420  0.1607
  325TMC3    C5 4934   2.240   1.599  14.574  0.5442 -0.6539  0.6073
  325TMC3    C6 4935   2.187   1.641  14.458  0.3395  0.0235 -0.7087
  325TMC3     C 4936   2.513   1.401  14.461  0.2853  0.4590  0.2904
  325TMC3     O 4937   2.576   1.417  14.358  0.3214 -0.5265  0.5554
  325TMC3     H 4938   2.379   1.463  14.247 -4.1519  0.4041 -1.8054
  325TMC3    H1 4939   2.386   1.490  14.673 -0.9076 -2.1354  0.1010
  325TMC3    H2 4940   2.112   1.719  14.453 -1.4755 -1.5704  1.6589
  325TMC3    C7 4941   2.216   1.679  14.690 -0.3643  0.0404  0.5564
  325TMC3    C8 4942   2.190   1.633  14.212 -0.0070  0.1390 -0.1478
  325TMC3    O1 4943   2.212   1.628  14.804 -0.3797 -0.8509  0.3045
  325TMC3    O2 4944   2.239   1.567  14.122  0.2162  0.0907  0.0547
  326MPD2     C 4945   4.123   2.570  11.075  0.2952  0.0289 -0.2482
  326MPD2    C1 4946   4.146   2.613  10.948  0.1301  0.2613  0.6741
  326MPD2    C2 4947   4.261   2.684  10.927 -0.3091  0.0628  0.1727
  326MPD2    C3 4948   4.353   2.711  11.031 -0.5129 -0.1881  1.1600
  326MPD2    C4 4949   4.314   2.676  11.159 -0.1643  0.2000 -0.2541
  326MPD2    C5 4950   4.203   2.602  11.178  0.1235 -0.1330  0.2754
  326MPD2     H 4951   4.281   2.711  10.824 -1.7830 -1.4001 -0.5026
  326MPD2    H1 4952   4.363   2.713  11.248 -2.0231 -0.1002  0.8886
  326MPD2    H2 4953   4.030   2.520  11.101  0.4364 -0.2510 -0.2770
  326MPD2    H3 4954   4.170   2.569  11.276 -1.1280  1.8747  0.5264
  326MPD2     N 4955   4.467   2.790  11.010  0.0591  0.4982  0.0446
  326MPD2    H5 4956   4.509   2.835  11.090 -0.1280  0.3521  0.2262
  326MPD2    N1 4957   4.052   2.610  10.839  0.0547  0.5831 -0.0538
  326MPD2    H7 4958   4.055   2.673  10.759  1.3268 -1.0155 -1.2902
  327TMC3    C1 4959   3.858   2.543  10.740 -0.0364 -0.1051  0.5799
  327TMC3    C2 4960   3.826   2.676  10.749  0.4399 -0.1090  0.1849
  327TMC3    C3 4961   3.800   2.748  10.638  0.2850  0.5931  0.2269
  327TMC3    C4 4962   3.871   2.488  10.619 -0.6440  0.1777  0.3496
  327TMC3    C5 4963   3.843   2.560  10.506  0.0546 -0.2443 -0.2669
  327TMC3    C6 4964   3.814   2.692  10.518  0.1296 -0.8178 -0.6231
  327TMC3     C 4965   3.958   2.514  10.840 -0.5556 -0.2225 -0.9501
  327TMC3     O 4966   3.980   2.404  10.879 -0.3317  0.0343 -0.3728
  327TMC3     H 4967   3.825   2.705  10.854 -0.3914 -0.8663  0.3847
  327TMC3    H1 4968   3.887   2.381  10.616 -1.0538  0.0255  3.5190
  327TMC3    H2 4969   3.786   2.748  10.430  0.4702 -1.0158 -0.8543
  327TMC3    C7 4970   3.948   2.548  10.406 -0.1679 -0.7105 -0.0195
  327TMC3    C8 4971   3.791   2.890  10.647 -0.4581 -0.8733  0.2492
  327TMC3    O1 4972   3.942   2.624  10.309 -0.0358  0.5204  0.0734
  327TMC3    O2 4973   3.759   2.946  10.543  0.2545  0.5592  0.0821
  328MPD2     C 4974   2.254   2.503  17.085 -0.1897  0.3011  0.4145
  328MPD2    C1 4975   2.139   2.446  17.029  0.3205  0.2841  0.2543
  328MPD2    C2 4976   2.088   2.516  16.917 -0.4868 -0.4382 -0.8303
  328MPD2    C3 4977   2.134   2.648  16.887 -0.2680  0.4797 -0.3716
  328MPD2    C4 4978   2.240   2.702  16.955 -0.3979  1.5513  0.0585
  328MPD2    C5 4979   2.303   2.625  17.041 -0.0679 -0.9353 -0.2258
  328MPD2     H 4980   2.001   2.475  16.866  0.4652 -2.1151 -1.0949
  328MPD2    H1 4981   2.294   2.795  16.941  0.0084  1.3962  0.6040
  328MPD2    H2 4982   2.304   2.440  17.158 -0.4332 -0.2500  0.1025
  328MPD2    H3 4983   2.399   2.656  17.079 -0.3056  0.2415 -0.5697
  328MPD2     N 4984   2.051   2.735  16.815 -0.7093  0.5800  0.6057
  328MPD2    H5 4985   2.054   2.833  16.839  1.5207  0.8628 -0.8619
  328MPD2    N1 4986   2.085   2.325  17.085 -0.4317 -0.0956 -0.3064
  328MPD2    H7 4987   2.121   2.283  17.170 -1.2511  0.5662  0.3726
  329TMC3    C1 4988   1.949   2.137  17.096 -0.0218 -0.9578  0.1907
  329TMC3    C2 4989   1.863   2.200  17.189  0.1571  0.2934  0.3903
  329TMC3    C3 4990   1.764   2.116  17.234 -0.0613  0.9889  0.1544
  329TMC3    C4 4991   1.924   2.020  17.034 -0.2302  0.8711 -0.5823
  329TMC3    C5 4992   1.837   1.937  17.103 -0.0288  0.5191 -0.1539
  329TMC3    C6 4993   1.752   1.985  17.195 -0.3254  0.2411  0.9453
  329TMC3     C 4994   2.003   2.240  17.009  0.2264  0.1346  0.7655
  329TMC3     O 4995   1.953   2.256  16.898  0.1932 -0.2865  0.3779
  329TMC3     H 4996   1.877   2.301  17.225  0.6820  0.1263  0.6558
  329TMC3    H1 4997   1.998   1.993  16.960  1.8914 -0.1378  1.9241
  329TMC3    H2 4998   1.671   1.927  17.237 -0.5118 -0.6932 -0.7458
  329TMC3    C7 4999   1.833   1.789  17.095  0.1014 -0.0302 -0.2251
  329TMC3    C8 5000   1.636   2.179  17.268 -0.1293  0.4612  0.4728
  329TMC3    O1 5001   1.763   1.729  17.175  0.0319 -0.0967  0.8265
  329TMC3    O2 5002   1.533   2.126  17.223  0.4262  0.3921  0.3062
  330TMC3    C1 5003   4.434   2.437   9.419  0.0799 -0.3794  0.3530
  330TMC3    C2 5004   4.419   2.316   9.357  0.1565  0.0196  0.5116
  330TMC3    C3 5005   4.499   2.211   9.394 -0.8361  0.8226 -0.9852
  330TMC3    C4 5006   4.544   2.467   9.490 -0.6292  0.1124  0.3346
  330TMC3    C5 5007   4.640   2.365   9.507  0.7593  0.7424  0.5401
  330TMC3    C6 5008   4.609   2.233   9.468  0.0158 -0.1027  0.1113
  330TMC3     C 5009   4.325   2.533   9.422  0.1849 -0.8605 -0.3730
  330TMC3     O 5010   4.339   2.644   9.379  0.1085 -0.2047 -0.1366
  330TMC3     H 5011   4.324   2.284   9.315  1.5226 -2.9238 -0.3556
  330TMC3    H1 5012   4.551   2.560   9.546  0.1860  0.2441  0.0111
  330TMC3    H2 5013   4.670   2.145   9.487  1.7102  0.3787 -3.1853
  330TMC3    C7 5014   0.005   2.386   9.611  0.5823 -0.5188 -0.3898
  330TMC3    C8 5015   4.462   2.084   9.339  0.1441  0.0530  0.0615
  330TMC3    O1 5016   4.723   2.479   9.691 -0.9893 -0.7006  0.1801
  330TMC3    O2 5017   4.415   2.074   9.227 -0.1420 -0.0103  0.3831
  331MPD2     C 5018   3.008   1.037  12.830  0.0228 -0.6134  0.3508
  331MPD2    C1 5019   2.971   0.961  12.725 -0.4761  0.0534  0.1896
  331MPD2    C2 5020   2.913   0.834  12.755  0.1017 -0.2638 -0.8393
  331MPD2    C3 5021   2.915   0.779  12.879 -0.0192 -0.1125 -0.4588
  331MPD2    C4 5022   2.966   0.855  12.981 -0.2767  0.0343  0.2473
  331MPD2    C5 5023   3.009   0.982  12.955 -1.1982 -0.1255  0.4788
  331MPD2     H 5024   2.869   0.768  12.681 -0.6845 -1.4092  0.6464
  331MPD2    H1 5025   2.985   0.827  13.084 -0.1495  0.9214  0.4686
  331MPD2    H2 5026   3.046   1.136  12.808  1.0586 -1.0487  0.1596
  331MPD2    H3 5027   3.028   1.044  13.042  0.7578 -0.1053  0.0327
  331MPD2     N 5028   2.849   0.656  12.896  0.0901 -0.2817 -0.7544
  331MPD2    H5 5029   2.797   0.629  12.813 -0.9649 -2.0578  0.4530
  331MPD2    N1 5030   2.971   1.018  12.594 -0.8134  0.2848 -0.0427
  331MPD2    H7 5031   3.020   1.105  12.578  1.3793 -0.5699  2.0315
  332TMC3    C1 5032   2.776   0.453  13.003  0.6816 -0.3913  0.2135
  332TMC3    C2 5033   2.685   0.435  12.902  0.5624  0.4325  0.1846
  332TMC3    C3 5034   2.628   0.312  12.896 -0.1663  0.1632 -0.0698
  332TMC3    C4 5035   2.810   0.358  13.095  0.5031  0.2340 -0.7417
  332TMC3    C5 5036   2.752   0.231  13.074  0.1893 -0.5977  0.0981
  332TMC3    C6 5037   2.663   0.213  12.977  0.1873  1.0194 -0.2437
  332TMC3     C 5038   2.837   0.590  13.015 -0.0784  0.3682  0.0112
  332TMC3     O 5039   2.880   0.615  13.126 -0.3584 -0.1758  0.6527
  332TMC3     H 5040   2.658   0.507  12.826  0.4203 -0.2500 -0.4092
  332TMC3    H1 5041   2.885   0.376  13.172  1.3374 -1.0337 -1.2519
  332TMC3    H2 5042   2.627   0.120  12.936  0.7972  1.2624 -1.3282
  332TMC3    C7 5043   2.825   0.112  13.116 -0.2792 -0.7941 -0.3505
  332TMC3    C8 5044   2.577   0.284  12.767 -0.6246 -0.6981 -0.0779
  332TMC3    O1 5045   2.765   0.006  13.137  0.5833 -0.2066  0.3762
  332TMC3    O2 5046   2.645   0.327  12.674 -0.2801 -0.2380  0.0361
  333MPD2     C 5047   2.759   1.189  11.536 -0.0804 -0.1961  0.2612
  333MPD2    C1 5048   2.720   1.127  11.416  0.3434 -0.0703  0.1811
  333MPD2    C2 5049   2.621   1.024  11.424  0.3801 -0.2522  0.0682
  333MPD2    C3 5050   2.559   0.983  11.542 -0.2459 -0.4933 -0.1163
  333MPD2    C4 5051   2.608   1.055  11.654  0.5685  0.7093 -0.2630
  333MPD2    C5 5052   2.705   1.152  11.654  0.2350  0.2130 -0.2833
  333MPD2     H 5053   2.597   0.963  11.337 -0.6305 -0.8052  0.7349
  333MPD2    H1 5054   2.570   1.024  11.750 -2.0506  0.3363 -1.4052
  333MPD2    H2 5055   2.836   1.265  11.537  0.9026 -1.1697 -1.8068
  333MPD2    H3 5056   2.742   1.193  11.747 -0.3887  1.2470 -0.4997
  333MPD2     N 5057   2.467   0.871  11.559 -0.0824 -0.3044 -0.3061
  333MPD2    H5 5058   2.460   0.804  11.483  1.0108 -2.1512  1.2441
  333MPD2    N1 5059   2.802   1.153  11.305 -0.1523  0.0038  0.0871
  333MPD2    H7 5060   2.866   1.231  11.314  2.5596 -1.9156 -2.7050
  334TMC3    C1 5061   2.916   1.125  11.107 -0.9511  0.2986 -1.5330
  334TMC3    C2 5062   3.034   1.127  11.177 -0.3942  0.0076 -0.3188
  334TMC3    C3 5063   3.155   1.143  11.119 -0.2273  0.5073 -1.2235
  334TMC3    C4 5064   2.922   1.108  10.971  0.5437  0.0790 -0.4288
  334TMC3    C5 5065   3.048   1.118  10.915 -0.6235 -0.3173 -0.0599
  334TMC3    C6 5066   3.165   1.142  10.984 -0.4678 -0.4405 -0.4963
  334TMC3     C 5067   2.800   1.090  11.182 -0.7929  0.2125  1.0903
  334TMC3     O 5068   2.715   1.018  11.133  0.2352 -0.0689  0.1015
  334TMC3     H 5069   3.037   1.124  11.286 -2.8016  0.7260 -0.2355
  334TMC3    H1 5070   2.831   1.107  10.913  0.1952  1.9267  0.0975
  334TMC3    H2 5071   3.261   1.146  10.935 -0.9779 -0.2172 -1.4803
  334TMC3    C7 5072   3.045   1.155  10.776 -0.0992 -0.4425  0.0450
  334TMC3    C8 5073   3.278   1.132  11.192 -0.2525  0.3672  0.5960
  334TMC3    O1 5074   2.951   1.113  10.712  0.3858 -0.2518  0.1762
  334TMC3    O2 5075   3.268   1.092  11.310  0.4684  0.5303  0.2224
  335TMC3    C1 5076   2.903   2.380  17.491  0.6708 -0.0191 -0.1191
  335TMC3    C2 5077   2.792   2.365  17.417 -0.7062 -0.6106  0.2368
  335TMC3    C3 5078   2.810   2.387  17.281 -0.2281  0.1857 -0.4200
  335TMC3    C4 5079   3.025   2.420  17.438 -0.2767 -0.0730  0.1260
  335TMC3    C5 5080   3.031   2.451  17.309 -0.1211  0.4726  0.6507
  335TMC3    C6 5081   2.925   2.436  17.224 -0.4244 -0.0261 -0.2564
  335TMC3     C 5082   2.883   2.410  17.628  0.1564 -0.5868  0.2809
  335TMC3     O 5083   2.960   2.488  17.679  0.4125  0.3252  0.3278
  335TMC3     H 5084   2.689   2.365  17.453 -0.2944  1.3578  1.3822
  335TMC3    H1 5085   3.110   2.428  17.504  0.4664 -3.7988 -0.3631
  335TMC3    H2 5086   2.940   2.464  17.120 -0.5285  0.8196 -0.0492
  335TMC3    C7 5087   3.165   2.471  17.251 -0.2447 -0.3300  0.6966
  335TMC3    C8 5088   2.694   2.392  17.192 -0.0713 -0.2827  0.1986
  335TMC3    O1 5089   3.168   2.431  17.134  0.0670 -0.0573 -0.2953
  335TMC3    O2 5090   2.704   2.460  17.091  0.5254  0.2763  0.0567
  336MPD2     C 5091   2.215   0.489  16.012 -0.0187 -0.2221 -0.3317
  336MPD2    C1 5092   2.188   0.394  15.913  0.0351  0.0278 -0.0269
  336MPD2    C2 5093   2.209   0.264  15.948  0.6328  0.0072 -0.1276
  336MPD2    C3 5094   2.240   0.223  16.069 -0.0949 -0.2433  0.3604
  336MPD2    C4 5095   2.257   0.312  16.169 -0.0134 -1.2033  0.0424
  336MPD2    C5 5096   2.240   0.448  16.145  0.5279 -0.1009  0.2337
  336MPD2     H 5097   2.196   0.186  15.873 -1.4349  0.4894 -0.2683
  336MPD2    H1 5098   2.279   0.282  16.271 -0.0251 -1.7450 -0.1167
  336MPD2    H2 5099   2.185   0.592  15.995  1.5034  0.0806 -1.1748
  336MPD2    H3 5100   2.254   0.516  16.229 -0.9639  1.2510 -0.6069
  336MPD2     N 5101   2.239   0.087  16.106 -0.3222 -0.7786  0.4628
  336MPD2    H5 5102   2.239   0.057  16.203 -0.8465 -2.8943 -0.1863
  336MPD2    N1 5103   2.124   0.424  15.788 -0.8405  0.0755  0.2074
  336MPD2    H7 5104   2.096   0.339  15.740  0.3076 -0.4518  0.4712
  337TMC3    C1 5105   2.040   0.545  15.602 -0.0409  0.2314 -0.3765
  337TMC3    C2 5106   1.930   0.460  15.596  0.1300  0.1597  0.0636
  337TMC3    C3 5107   1.830   0.490  15.509  0.4453  0.4052 -0.4892
  337TMC3    C4 5108   2.057   0.658  15.530  0.1311 -0.5280 -1.0270
  337TMC3    C5 5109   1.963   0.679  15.439  0.0844 -0.5607 -0.1093
  337TMC3    C6 5110   1.847   0.603  15.426 -0.0684 -0.2123 -0.2564
  337TMC3     C 5111   2.108   0.544  15.728 -0.1481 -0.3258 -0.2932
  337TMC3     O 5112   2.141   0.651  15.766  0.0371  0.5719  0.7632
  337TMC3     H 5113   1.916   0.365  15.647  1.1640  0.1492  0.3241
  337TMC3    H1 5114   2.119   0.739  15.568 -2.8316  0.5446  1.5802
  337TMC3    H2 5115   1.789   0.635  15.340 -0.0554 -0.2840 -0.2923
  337TMC3    C7 5116   1.969   0.809  15.376  0.7348 -0.8478  0.4505
  337TMC3    C8 5117   1.716   0.403  15.492  0.6854 -0.1149  0.2414
  337TMC3    O1 5118   1.908   0.816  15.267  0.0816 -0.3795  0.1989
  337TMC3    O2 5119   1.724   0.282  15.522  0.4494  0.2451 -0.0595
  338MPD2     C 5120   2.688   4.391   0.801  0.5550  0.2199  0.0799
  338MPD2    C1 5121   2.631   4.359   0.680  0.3597 -0.5796 -0.8106
  338MPD2    C2 5122   2.505   4.402   0.646  0.5464 -0.0749  0.3007
  338MPD2    C3 5123   2.429   4.474   0.737 -0.1164  0.8802 -0.0048
  338MPD2    C4 5124   2.493   4.509   0.852  0.0677  1.2093  0.2653
  338MPD2    C5 5125   2.615   4.467   0.882  0.7804  0.1128 -0.4032
  338MPD2     H 5126   2.463   4.379   0.549  1.6289 -1.8662  0.2614
  338MPD2    H1 5127   2.448   4.578   0.921 -0.6331 -0.1713  1.1926
  338MPD2    H2 5128   2.791   4.369   0.828  0.1624 -0.6360  0.8693
  338MPD2    H3 5129   2.660   4.510   0.971 -1.2162  0.2340  0.5324
  338MPD2     N 5130   2.299   4.514   0.703  0.1325  0.9720 -0.1971
  338MPD2    H5 5131   2.263   4.493   0.611 -2.4565 -1.3128  1.3279
  338MPD2    N1 5132   2.683   4.260   0.592  0.3203  0.5889 -0.3644
  338MPD2    H7 5133   2.631   4.232   0.510  2.8767 -1.3211 -1.3522
  339TMC3    C1 5134   2.076   4.584   0.734 -0.0765  0.0272  0.6139
  339TMC3    C2 5135   1.961   4.532   0.795  0.1775 -0.3653  0.0599
  339TMC3    C3 5136   1.847   4.521   0.723 -0.0687 -0.4170  0.1736
  339TMC3    C4 5137   2.074   4.625   0.609  0.0590 -0.1709 -0.0719
  339TMC3    C5 5138   1.958   4.613   0.538 -0.0900 -0.2842 -0.3791
  339TMC3    C6 5139   1.840   4.570   0.593 -0.2148  0.8776  0.4482
  339TMC3     C 5140   2.207   4.555   0.799 -0.4555  0.0407  0.1290
  339TMC3     O 5141   2.217   4.568   0.922  0.3849  0.1773  0.5094
  339TMC3     H 5142   1.981   4.484   0.890  0.3930  0.7182  0.5642
  339TMC3    H1 5143   2.167   4.663   0.567  0.9438  0.3664  2.3851
  339TMC3    H2 5144   1.751   4.548   0.536  0.7468 -0.4865 -0.5222
  339TMC3    C7 5145   1.949   4.677   0.413 -0.9367 -0.4289 -0.2715
  339TMC3    C8 5146   1.733   4.447   0.770  0.1664 -0.1356  1.0773
  339TMC3    O1 5147   2.012   0.044   0.412  0.5134 -0.3640  0.1917
  339TMC3    O2 5148   1.625   4.486   0.741  0.1942  0.0995  0.0498
  340MPD2     C 5149   2.168   2.602   9.852 -0.1363  0.1943  0.1229
  340MPD2    C1 5150   2.221   2.533   9.955  0.0525  0.6375 -0.2760
  340MPD2    C2 5151   2.227   2.599  10.078  0.4781 -0.4155  0.2914
  340MPD2    C3 5152   2.187   2.734  10.094  0.3509 -0.2391  0.4847
  340MPD2    C4 5153   2.142   2.805   9.985 -0.5826  0.2625 -0.5021
  340MPD2    C5 5154   2.130   2.732   9.866  0.7037 -0.7419  0.1582
  340MPD2     H 5155   2.278   2.552  10.161  0.8452 -0.0257  0.2903
  340MPD2    H1 5156   2.107   2.908   9.982  0.9839  0.8571  1.7184
  340MPD2    H2 5157   2.160   2.551   9.756  0.9959  1.4011 -0.6227
  340MPD2    H3 5158   2.086   2.783   9.781 -1.7625 -1.4969  0.9916
  340MPD2     N 5159   2.203   2.796  10.219  0.1809 -0.3817 -0.1805
  340MPD2    H5 5160   2.194   2.897  10.212 -1.2024 -0.5105 -0.4076
  340MPD2    N1 5161   2.266   2.399   9.934  0.2849 -0.5639  0.5577
  340MPD2    H7 5162   2.282   2.361   9.841 -1.8732 -0.1088 -0.0032
  341TMC3    C1 5163   2.344   2.189   9.998 -0.4472  0.6250  0.1109
  341TMC3    C2 5164   2.322   2.083  10.084  0.4505 -0.5338 -0.0476
  341TMC3    C3 5165   2.399   1.966  10.072 -0.3732  0.4554 -0.5816
  341TMC3    C4 5166   2.441   2.182   9.899  0.5651 -0.2415 -0.4243
  341TMC3    C5 5167   2.506   2.060   9.882  0.2392  0.4440  0.2277
  341TMC3    C6 5168   2.478   1.954   9.959  0.7273 -0.1843 -0.1252
  341TMC3     C 5169   2.278   2.316  10.038  0.2772 -0.1129  0.3182
  341TMC3     O 5170   2.220   2.318  10.147  0.2562  0.4000 -0.2758
  341TMC3     H 5171   2.263   2.102  10.173  0.4807  1.1674 -0.3878
  341TMC3    H1 5172   2.479   2.272   9.853  1.2664 -1.3485 -2.0163
  341TMC3    H2 5173   2.533   1.862   9.950 -0.1685 -0.7078 -0.2060
  341TMC3    C7 5174   2.636   2.069   9.834  0.1577 -0.4705 -0.2320
  341TMC3    C8 5175   2.347   1.851  10.128  0.2414 -0.4091  1.0327
  341TMC3    O1 5176   2.721   1.996   9.886  0.3689  0.6729 -0.1680
  341TMC3    O2 5177   2.338   1.755  10.048  0.2808 -0.6320 -0.0825
  342MPD2     C 5178   0.503   0.708  17.597  0.0819  0.7396 -0.0411
  342MPD2    C1 5179   0.543   0.759  17.480  0.2168  0.1625 -0.5084
  342MPD2    C2 5180   0.556   0.895  17.460  0.2317  0.1014 -0.0729
  342MPD2    C3 5181   0.541   0.978  17.570  0.8791 -0.1269 -0.5238
  342MPD2    C4 5182   0.517   0.926  17.690  0.0740  0.2626 -0.1589
  342MPD2    C5 5183   0.491   0.796  17.701  0.2862  0.3853 -0.0096
  342MPD2     H 5184   0.573   0.934  17.360  2.7735 -2.3637 -0.5802
  342MPD2    H1 5185   0.500   0.988   0.027 -0.7679  0.2877 -0.3340
  342MPD2    H2 5186   0.487   0.602  17.616  1.8139  0.1754 -1.7011
  342MPD2    H3 5187   0.461   0.757   0.047 -0.6110  3.2814  0.8696
  342MPD2     N 5188   0.553   1.122  17.558  0.6043  0.2787 -0.0407
  342MPD2    H5 5189   0.532   1.176  17.641  0.4953  1.1342 -0.6303
  342MPD2    N1 5190   0.588   0.675  17.382  0.0962 -0.2177 -0.4711
  342MPD2    H7 5191   0.592   0.719  17.291 -2.2519  0.4561 -0.2231
  343TMC3    C1 5192   0.618   0.481  17.258 -0.6187 -0.1430  0.4967
  343TMC3    C2 5193   0.688   0.553  17.165  0.2674 -0.2794  0.1505
  343TMC3    C3 5194   0.714   0.488  17.049  0.0511  0.3031  0.0079
  343TMC3    C4 5195   0.592   0.349  17.252 -0.0487  0.0053  0.1210
  343TMC3    C5 5196   0.613   0.289  17.128  0.6442 -0.3011  0.0070
  343TMC3    C6 5197   0.668   0.359  17.027 -0.5892  0.7718  0.2845
  343TMC3     C 5198   0.607   0.539  17.388 -0.4161 -0.1446 -0.0418
  343TMC3     O 5199   0.596   0.457  17.482 -0.3618 -0.6153  0.4541
  343TMC3     H 5200   0.718   0.657  17.171 -0.2199 -0.2378  1.5953
  343TMC3    H1 5201   0.544   0.294  17.332  1.5976  1.0280  1.8038
  343TMC3    H2 5202   0.668   0.304  16.933  0.6224  0.6452  0.3481
  343TMC3    C7 5203   0.603   0.137  17.126  0.3067  0.0799  0.4626
  343TMC3    C8 5204   0.774   0.562  16.939  0.3974  0.2916  0.3000
  343TMC3    O1 5205   0.574   0.086  17.017 -0.0995 -0.6111  0.1475
  343TMC3    O2 5206   0.818   0.673  16.963  0.3500  0.0592 -0.0417
  344MPD2     C 5207   1.589   0.450  10.832 -0.5548  0.6730 -0.6496
  344MPD2    C1 5208   1.574   0.357  10.726  0.0075  0.3077  0.2682
  344MPD2    C2 5209   1.642   0.387  10.612 -0.6187 -0.6280 -0.2508
  344MPD2    C3 5210   1.727   0.496  10.595 -0.6098 -0.9362 -0.0182
  344MPD2    C4 5211   1.749   0.579  10.709  0.6733 -0.5799  0.2267
  344MPD2    C5 5212   1.683   0.544  10.826 -0.5480 -0.1453  0.5792
  344MPD2     H 5213   1.640   0.321  10.526  2.1644  1.5411 -1.9729
  344MPD2    H1 5214   1.821   0.660  10.715 -0.8600  0.6842  1.5737
  344MPD2    H2 5215   1.545   0.435  10.930 -0.2986 -2.2635 -0.9851
  344MPD2    H3 5216   1.708   0.608  10.910  0.9189 -1.9722  1.5234
  344MPD2     N 5217   1.797   0.526  10.471  0.4008  0.4273 -0.4915
  344MPD2    H5 5218   1.873   0.593  10.477  0.2621  0.5842 -0.4773
  344MPD2    N1 5219   1.506   0.236  10.739 -0.2528  0.6216 -0.2837
  344MPD2    H7 5220   1.501   0.178  10.656  1.7031  0.0888 -0.0448
  345TMC3    C1 5221   1.886   0.541  10.257 -0.5640  0.5795  0.2473
  345TMC3    C2 5222   1.997   0.584  10.315 -0.5867 -0.2211  0.0708
  345TMC3    C3 5223   2.066   0.697  10.273 -0.1380  0.2959 -0.0666
  345TMC3    C4 5224   1.841   0.596  10.138 -0.3475  0.0079 -0.7337
  345TMC3    C5 5225   1.905   0.709  10.100  0.4255  0.2603  0.5198
  345TMC3    C6 5226   2.005   0.767  10.168 -0.2060  0.5450 -0.1853
  345TMC3     C 5227   1.781   0.468  10.345 -0.3138  0.6932 -0.0054
  345TMC3     O 5228   1.691   0.396  10.302  0.5358  0.2902  0.4682
  345TMC3     H 5229   2.034   0.539  10.406  1.3693  2.2346  0.4885
  345TMC3    H1 5230   1.744   0.565  10.103 -0.2783  1.3394 -2.1005
  345TMC3    H2 5231   2.020   0.874  10.155 -0.5986  0.8781  2.1808
  345TMC3    C7 5232   1.806   0.804  10.037 -0.3782  0.2432  0.2161
  345TMC3    C8 5233   2.092   0.792  10.379 -0.3240 -0.3187 -0.3115
  345TMC3    O1 5234   1.776   0.903  10.098 -0.7074  0.8190 -0.0396
  345TMC3    O2 5235   2.033   0.777  10.485  0.0898 -0.3154 -0.2026
  346MPD2     C 5236   1.521   2.281  14.357  0.3181 -0.6675  0.1822
  346MPD2    C1 5237   1.626   2.317  14.271  0.2034 -0.2825 -0.3227
  346MPD2    C2 5238   1.731   2.392  14.316 -0.2329 -0.0864 -0.1763
  346MPD2    C3 5239   1.738   2.428  14.446 -0.7215  0.9986 -0.2054
  346MPD2    C4 5240   1.645   2.389  14.539 -0.9894  0.7725  0.5374
  346MPD2    C5 5241   1.531   2.322  14.488  0.1885  0.5168  0.2342
  346MPD2     H 5242   1.804   2.434  14.248  0.3676 -0.1131  0.4613
  346MPD2    H1 5243   1.665   2.389  14.646 -0.0613  0.5157  0.3688
  346MPD2    H2 5244   1.434   2.228  14.322 -0.0390  1.4174 -2.0901
  346MPD2    H3 5245   1.459   2.293  14.564 -0.0160  1.8342  0.5467
  346MPD2     N 5246   1.852   2.498  14.484  0.5489 -0.7358 -0.8252
  346MPD2    H5 5247   1.912   2.517  14.404 -0.8666  3.3817 -0.8610
  346MPD2    N1 5248   1.625   2.287  14.137  0.2428  0.5583 -0.0399
  346MPD2    H7 5249   1.706   2.309  14.080 -0.7467  2.9091 -0.5636
  347TMC3    C1 5250   2.033   2.570  14.620 -0.7894  0.0321  0.1287
  347TMC3    C2 5251   2.118   2.501  14.537  0.0088  0.4515 -0.4183
  347TMC3    C3 5252   2.246   2.481  14.593  0.4661 -0.1362 -0.5443
  347TMC3    C4 5253   2.051   2.607  14.752  0.3347  0.1781  0.1323
  347TMC3    C5 5254   2.184   2.600  14.789 -0.3585  0.3286 -0.3048
  347TMC3    C6 5255   2.275   2.533  14.716 -0.7234  0.2634  0.0701
  347TMC3     C 5256   1.899   2.523  14.612  0.0675 -0.7503 -0.2944
  347TMC3     O 5257   1.846   2.490  14.718 -0.9649 -0.0604  0.4536
  347TMC3     H 5258   2.094   2.431  14.458  0.9688 -0.4793  0.1060
  347TMC3    H1 5259   1.973   2.647  14.816 -0.1687 -3.0892  1.5408
  347TMC3    H2 5260   2.375   2.525  14.756  0.8297  1.1560 -3.6166
  347TMC3    C7 5261   2.217   2.606  14.929  0.5228  0.1651  0.1619
  347TMC3    C8 5262   2.277   2.337  14.593  0.2362  0.2850  0.3279
  347TMC3    O1 5263   2.131   2.553  14.997 -0.2618 -0.7053 -0.4719
  347TMC3    O2 5264   2.250   2.271  14.495  0.1612 -1.1174 -0.2576
  348MPD2     C 5265   4.441   1.531  12.172 -0.5675 -0.5242 -0.8438
  348MPD2    C1 5266   4.536   1.627  12.158 -0.7322 -0.6589 -0.4158
  348MPD2    C2 5267   4.553   1.694  12.039 -0.3232 -0.1070 -0.0729
  348MPD2    C3 5268   4.465   1.678  11.928  0.5981 -0.0736 -0.2763
  348MPD2    C4 5269   4.375   1.572  11.941 -0.1796  0.3075  0.0774
  348MPD2    C5 5270   4.362   1.504  12.059 -0.1733  0.2164 -0.2440
  348MPD2     H 5271   4.623   1.776  12.038  1.5256 -1.6782 -0.6755
  348MPD2    H1 5272   4.318   1.534  11.857 -0.3464 -1.1575  0.8705
  348MPD2    H2 5273   4.423   1.486  12.269 -1.3451 -1.1189 -1.2574
  348MPD2    H3 5274   4.294   1.420  12.053  0.5488 -0.3458 -0.5232
  348MPD2     N 5275   4.482   1.765  11.813 -0.1291  0.4315  0.0195
  348MPD2    H5 5276   4.559   1.831  11.819  0.4599 -0.3221  0.6308
  348MPD2    N1 5277   4.618   1.668  12.265 -0.0315  0.7089  0.9490
  348MPD2    H7 5278   4.688   1.735  12.235  0.4156  0.8109  2.2185
  349TMC3    C1 5279   0.027   1.644  12.440  0.4620 -0.0567  0.3654
  349TMC3    C2 5280   0.073   1.535  12.515  0.5283 -0.0311 -0.2001
  349TMC3    C3 5281   0.195   1.485  12.500  0.3923  0.4303 -1.0605
  349TMC3    C4 5282   0.121   1.712  12.361  0.0627  0.4584  0.9819
  349TMC3    C5 5283   0.249   1.663  12.353 -0.1819 -0.8175 -0.0274
  349TMC3    C6 5284   0.286   1.559  12.432 -0.0035  0.8893  0.8052
  349TMC3     C 5285   4.636   1.621  12.392  0.1619  0.3574  0.3329
  349TMC3     O 5286   4.555   1.550  12.450  0.2125 -0.3946 -0.3304
  349TMC3     H 5287   4.737   1.480  12.571  1.3028 -0.3778  0.4799
  349TMC3    H1 5288   0.085   1.799  12.307 -0.5942 -1.3320 -1.4781
  349TMC3    H2 5289   0.387   1.521  12.418  0.2428  1.3975  1.2262
  349TMC3    C7 5290   0.281   1.638  12.212 -0.0093 -0.2034 -0.1693
  349TMC3    C8 5291   0.243   1.363  12.577 -0.3618 -0.0929  0.4634
  349TMC3    O1 5292   0.263   1.524  12.169  0.0873  0.1043  0.1277
  349TMC3    O2 5293   0.363   1.360  12.603  0.1021  0.0134 -0.1037
  350MPD2     C 5294   4.555   0.707  10.216  0.1461 -0.0091 -0.5290
  350MPD2    C1 5295   4.476   0.598  10.241 -0.0284 -0.2639 -0.1117
  350MPD2    C2 5296   4.528   0.491  10.314 -0.1359 -0.5086  0.1019
  350MPD2    C3 5297   4.646   0.508  10.384  0.4017 -0.0619  0.3247
  350MPD2    C4 5298   4.713   0.624  10.378 -0.4016  0.2221  0.8210
  350MPD2    C5 5299   4.678   0.716  10.291 -0.3546  0.4503  0.1816
  350MPD2     H 5300   4.471   0.400  10.331 -2.1997  0.5425 -1.1395
  350MPD2    H1 5301   0.069   0.631  10.432 -0.1796  1.2536  0.3019
  350MPD2    H2 5302   4.518   0.783  10.149  2.2847 -0.5875 -2.3777
  350MPD2    H3 5303   0.003   0.798  10.259 -1.6538  1.2648 -0.3050
  350MPD2     N 5304   4.671   0.385  10.457  0.4568 -0.1265 -0.1003
  350MPD2    H5 5305   4.608   0.307  10.444  1.2292 -0.3097 -2.8394
  350MPD2    N1 5306   4.351   0.573  10.168 -0.3238 -0.6493  0.4497
  350MPD2    H7 5307   4.317   0.478  10.180  1.8927 -1.6615 -1.1525
  351TMC3    C1 5308   4.170   0.603  10.027 -0.2267 -0.3766 -0.2182
  351TMC3    C2 5309   4.094   0.515  10.104 -0.5053  0.3106  0.0892
  351TMC3    C3 5310   3.984   0.458  10.039 -0.4774 -0.3012 -0.6427
  351TMC3    C4 5311   4.125   0.648   9.906  0.3200 -0.3783 -0.8785
  351TMC3    C5 5312   4.000   0.607   9.865  0.3759  0.0551  0.1847
  351TMC3    C6 5313   3.928   0.499   9.919  0.6497 -0.2182  0.1189
  351TMC3     C 5314   4.284   0.661  10.081  0.2417  0.1966 -0.0373
  351TMC3     O 5315   4.316   0.775  10.044 -0.4038 -0.3498 -0.3485
  351TMC3     H 5316   4.132   0.482  10.200 -0.8254  0.6220  0.3240
  351TMC3    H1 5317   4.168   0.734   9.856  1.0860 -1.3051 -1.8184
  351TMC3    H2 5318   3.837   0.451   9.885  2.3616 -1.6398 -2.4577
  351TMC3    C7 5319   3.934   0.669   9.756  0.1879 -0.2971 -0.2046
  351TMC3    C8 5320   3.913   0.357  10.119  0.2236  0.4009 -0.0806
  351TMC3    O1 5321   3.813   0.677   9.751  0.2903  0.2569  0.1133
  351TMC3    O2 5322   3.855   0.257  10.073  0.1947  0.0067 -0.2658
  352MPD2     C 5323   3.250   1.582   1.033  0.4739 -0.6274  0.0320
  352MPD2    C1 5324   3.139   1.553   0.954  0.3149 -0.1281 -0.3336
  352MPD2    C2 5325   3.142   1.440   0.873  0.2192 -0.5792 -0.1043
  352MPD2    C3 5326   3.256   1.370   0.855 -0.2348 -0.9816  0.2324
  352MPD2    C4 5327   3.367   1.395   0.939 -1.0090  0.1482 -0.0965
  352MPD2    C5 5328   3.364   1.506   1.024 -0.0203 -0.0438  0.2325
  352MPD2     H 5329   3.052   1.408   0.823  0.0895  0.5426 -0.5916
  352MPD2    H1 5330   3.453   1.330   0.935 -2.0118 -1.2035  0.5710
  352MPD2    H2 5331   3.252   1.660   1.107 -0.1480  0.3994 -1.0222
  352MPD2    H3 5332   3.451   1.525   1.086 -0.3460 -1.2724  1.0680
  352MPD2     N 5333   3.259   1.257   0.776 -0.3907 -0.0667  0.5202
  352MPD2    H5 5334   3.341   1.198   0.779 -1.1026 -1.0323  0.7565
  352MPD2    N1 5335   3.018   1.626   0.964  0.0857  0.2066 -0.0598
  352MPD2    H7 5336   3.001   1.683   1.046  0.7226  0.4235 -0.0742
  353TMC3    C1 5337   3.174   1.074   0.646  0.0787 -0.1231 -0.5657
  353TMC3    C2 5338   3.288   1.004   0.681  1.1549 -0.7378 -0.0382
  353TMC3    C3 5339   3.286   0.865   0.657  0.2411 -0.1496  0.3739
  353TMC3    C4 5340   3.057   1.013   0.599  0.5514  0.0295 -0.4117
  353TMC3    C5 5341   3.059   0.876   0.598 -0.1550 -0.8989 -0.4232
  353TMC3    C6 5342   3.171   0.802   0.610  0.2185  0.1901  0.5274
  353TMC3     C 5343   3.163   1.217   0.687 -0.0103 -0.3099  0.1217
  353TMC3     O 5344   3.058   1.267   0.647 -0.4666  0.3418 -0.1875
  353TMC3     H 5345   3.386   1.046   0.699  0.6841  0.5154 -0.3805
  353TMC3    H1 5346   2.974   1.077   0.571  2.0247  1.7776 -0.8427
  353TMC3    H2 5347   3.167   0.704   0.564 -0.4865  0.5010 -0.0714
  353TMC3    C7 5348   2.937   0.799   0.620  0.1568 -0.4320 -0.4254
  353TMC3    C8 5349   3.405   0.786   0.669  1.4731 -0.0441 -0.2474
  353TMC3    O1 5350   2.942   0.687   0.567  0.7714 -0.1464  0.2239
  353TMC3    O2 5351   3.504   0.850   0.681  0.1705 -0.0222  0.0694
  354TMC3    C1 5352   4.261   2.523  13.208  0.4506  0.1270  0.9233
  354TMC3    C2 5353   4.289   2.657  13.238 -0.3274 -0.1207 -0.0369
  354TMC3    C3 5354   4.422   2.702  13.219 -0.3705 -0.1562  0.3382
  354TMC3    C4 5355   4.356   2.441  13.157  0.3905  0.0520 -0.2330
  354TMC3    C5 5356   4.475   2.498  13.128  1.1713  0.1194  0.1037
  354TMC3    C6 5357   4.512   2.619  13.156 -0.9784 -0.2472 -0.2397
  354TMC3     C 5358   4.134   2.456  13.232 -0.2201  0.1054 -0.0016
  354TMC3     O 5359   4.145   2.336  13.240  0.2653  0.1445 -0.1011
  354TMC3     H 5360   4.217   2.712  13.297 -1.6518 -1.8832 -0.0209
  354TMC3    H1 5361   4.330   2.343  13.119  0.6104 -0.2178  0.2942
  354TMC3    H2 5362   4.616   2.644  13.139 -1.3424  0.5291 -1.3372
  354TMC3    C7 5363   4.549   2.412  13.039  0.4283  0.1951 -0.2253
  354TMC3    C8 5364   4.445   2.844  13.190 -0.0377  0.5804 -0.6708
  354TMC3    O1 5365   4.535   2.292  13.038  0.3761 -0.2771  0.1468
  354TMC3    O2 5366   4.544   2.865  13.122  0.5802 -0.3874 -0.8378
  355MPD2     C 5367   4.284   3.538  11.959  0.3744 -0.1554 -0.2347
  355MPD2    C1 5368   4.344   3.598  11.848  0.4084 -0.3230 -0.6353
  355MPD2    C2 5369   4.467   3.667  11.863  0.2601  0.4195  0.3167
  355MPD2    C3 5370   4.508   3.700  11.989  0.6859  0.3936  0.2298
  355MPD2    C4 5371   4.447   3.642  12.098  0.6764  0.4047  0.2731
  355MPD2    C5 5372   4.336   3.564  12.084 -0.6615 -0.0797  0.1166
  355MPD2     H 5373   4.517   3.704  11.775  1.0588  1.9447  1.4195
  355MPD2    H1 5374   4.494   3.665  12.193  2.5995 -1.4825 -0.2168
  355MPD2    H2 5375   4.195   3.477  11.946 -0.0695  0.1170  1.5331
  355MPD2    H3 5376   4.291   3.530  12.176 -0.4052 -1.4243 -0.2575
  355MPD2     N 5377   4.619   3.775  12.020 -0.1647  0.4488  0.7990
  355MPD2    H5 5378   4.641   3.784  12.118 -0.6269 -0.2840  0.9689
  355MPD2    N1 5379   4.279   3.565  11.722 -0.4353  0.2488  1.0258
  355MPD2    H7 5380   4.189   3.518  11.730 -1.2828  1.0756 -3.5007
  356TMC3    C1 5381   0.057   3.927  11.988  0.0688 -0.2337 -0.1879
  356TMC3    C2 5382   0.119   4.026  11.902 -0.0297 -0.7200 -0.2613
  356TMC3    C3 5383   0.210   4.107  11.965 -0.3696 -0.1183  1.3043
  356TMC3    C4 5384   0.111   3.900  12.117 -0.2505 -0.1666  0.3132
  356TMC3    C5 5385   0.197   3.990  12.169  0.2720  0.9550 -1.0220
  356TMC3    C6 5386   0.254   4.089  12.095 -0.1785  0.0778 -0.9894
  356TMC3     C 5387   4.694   3.840  11.930  0.1419  0.7689  0.0359
  356TMC3     O 5388   4.683   3.854  11.808 -0.5000  0.0327 -0.5391
  356TMC3     H 5389   0.080   4.052  11.804  2.0984  0.1824 -0.8654
  356TMC3    H1 5390   0.084   3.813  12.176 -0.9373  0.7520  1.3540
  356TMC3    H2 5391   0.343   4.141  12.129 -0.5734 -1.2940  2.0958
  356TMC3    C7 5392   0.247   3.968  12.303 -0.3179 -0.3173  0.6692
  356TMC3    C8 5393   0.297   4.175  11.874  0.0946  0.9451 -0.1714
  356TMC3    O1 5394   0.249   3.851  12.341  0.3414 -0.0189  0.4257
  356TMC3    O2 5395   0.286   4.146  11.752 -0.2798  0.0991 -0.2192
  357MPD2     C 5396   4.221   3.113   0.798 -0.7838  0.0618 -0.2721
  357MPD2    C1 5397   4.246   3.011   0.890 -0.1207 -0.9916  0.3332
  357MPD2    C2 5398   4.208   3.025   1.022  0.0409 -0.4070  1.0923
  357MPD2    C3 5399   4.137   3.139   1.063  0.2313  0.5111  0.1926
  357MPD2    C4 5400   4.099   3.239   0.971  1.0316 -0.2910 -0.3373
  357MPD2    C5 5401   4.142   3.221   0.839  0.1709  0.7492 -0.7104
  357MPD2     H 5402   4.231   2.949   1.096 -0.9537 -1.0639  0.7254
  357MPD2    H1 5403   4.044   3.330   0.994  0.2073 -0.6896 -0.7154
  357MPD2    H2 5404   4.248   3.106   0.693 -0.3347 -1.9821 -0.0132
  357MPD2    H3 5405   4.114   3.297   0.766  0.7663  0.9657 -0.7181
  357MPD2     N 5406   4.107   3.179   1.200 -0.2637 -0.3519 -0.1794
  357MPD2    H5 5407   4.101   3.281   1.203  0.1853 -0.3535  0.7492
  357MPD2    N1 5408   4.307   2.892   0.836 -0.2783 -0.5481 -0.1769
  357MPD2    H7 5409   4.323   2.881   0.737  0.6075  0.2403 -0.1272
  358TMC3    C1 5410   4.421   2.684   0.824  0.5854 -0.3295 -0.1710
  358TMC3    C2 5411   4.362   2.661   0.700  0.4119 -0.2871 -0.1018
  358TMC3    C3 5412   4.422   2.558   0.629 -0.1420  0.0821  0.0107
  358TMC3    C4 5413   4.522   2.605   0.876 -0.1266  0.8522  0.4886
  358TMC3    C5 5414   4.556   2.494   0.808 -0.3022  0.0519 -0.1551
  358TMC3    C6 5415   4.517   2.473   0.679 -0.2172  0.0672  0.2118
  358TMC3     C 5416   4.368   2.791   0.906 -0.2303 -0.4497 -0.9619
  358TMC3     O 5417   4.391   2.794   1.024  0.3243  0.5750  0.4612
  358TMC3     H 5418   4.275   2.710   0.659  1.6332  1.9386 -0.0450
  358TMC3    H1 5419   4.567   2.637   0.969  3.1681  4.6502 -2.4421
  358TMC3    H2 5420   4.588   2.423   0.614 -0.1898  2.0311 -1.2563
  358TMC3    C7 5421   4.666   2.416   0.857  0.4990 -0.1841  0.3966
  358TMC3    C8 5422   4.344   2.522   0.519 -0.3353  0.5597  0.6012
  358TMC3    O1 5423   4.729   2.340   0.787 -0.0907 -0.0614  0.1402
  358TMC3    O2 5424   4.292   2.605   0.449 -0.0586 -0.1456  0.2509
  359MPD2     C 5425   4.607   2.157  12.435 -0.2558  0.0298  0.5627
  359MPD2    C1 5426   4.497   2.213  12.372  1.3203 -0.6229 -0.1734
  359MPD2    C2 5427   4.366   2.184  12.416 -0.2270  0.0605  0.6285
  359MPD2    C3 5428   4.341   2.077  12.495  0.0710  0.0928 -0.3339
  359MPD2    C4 5429   4.449   2.018  12.558 -0.2466  0.4509 -0.3279
  359MPD2    C5 5430   4.576   2.056  12.527  0.4399 -0.0573  0.3216
  359MPD2     H 5431   4.287   2.247  12.377 -1.7825 -2.2452  0.0138
  359MPD2    H1 5432   4.443   1.940  12.632 -1.4886  0.4610 -0.4132
  359MPD2    H2 5433   4.712   2.180  12.422 -0.5048  1.0741  0.3993
  359MPD2    H3 5434   4.653   1.991  12.568  0.9686  0.1392 -0.3512
  359MPD2     N 5435   4.209   2.039  12.524  0.6206 -0.0902  0.0841
  359MPD2    H5 5436   4.196   1.978  12.605 -0.2952  0.9518  0.7139
  359MPD2    N1 5437   4.502   2.308  12.263  0.1550 -0.1904  0.2051
  359MPD2    H7 5438   4.413   2.353  12.241  0.5049  0.7136  0.6255
  360TMC3    C1 5439   4.594   2.429  12.086  1.1813 -0.0780  0.3730
  360TMC3    C2 5440   4.700   2.490  12.036  0.1283 -0.5257 -0.0390
  360TMC3    C3 5441   4.701   2.524  11.904  0.3736 -0.0749  0.3378
  360TMC3    C4 5442   4.483   2.395  12.009  0.1637 -0.3319  0.3773
  360TMC3    C5 5443   4.493   2.422  11.873 -0.1609 -0.7172 -0.4335
  360TMC3    C6 5444   4.598   2.494  11.820 -0.0740  0.1291 -0.1233
  360TMC3     C 5445   4.616   2.349  12.206 -0.1363 -0.6592 -0.2481
  360TMC3     O 5446   4.732   2.329  12.236  0.3000 -0.0295 -0.8049
  360TMC3     H 5447   0.051   2.511  12.095  1.9010 -0.6956 -2.6411
  360TMC3    H1 5448   4.391   2.350  12.044 -1.2484  0.9295 -1.6519
  360TMC3    H2 5449   4.603   2.531  11.718  0.3875  1.4131  0.3694
  360TMC3    C7 5450   4.390   2.371  11.786 -0.0841  1.1812 -0.7341
  360TMC3    C8 5451   0.048   2.633  11.862  0.2532 -0.1058 -0.9677
  360TMC3    O1 5452   4.302   2.310  11.841 -0.5168 -0.3680 -0.5994
  360TMC3    O2 5453   4.722   2.731  11.818  0.2851  0.0480  0.1881
  361MPD2     C 5454   2.089   1.205  16.446 -0.7155  0.3826 -0.0829
  361MPD2    C1 5455   1.967   1.162  16.488 -0.1876  0.1454  0.4528
  361MPD2    C2 5456   1.958   1.041  16.558  0.3797  0.2245  0.7995
  361MPD2    C3 5457   2.069   0.976  16.609 -0.1678  0.9932 -0.2419
  361MPD2    C4 5458   2.188   1.011  16.551 -0.0181 -0.6510  0.6850
  361MPD2    C5 5459   2.196   1.125  16.469 -0.3818  0.0498  0.1109
  361MPD2     H 5460   1.856   1.018  16.588  0.2379 -1.1603 -0.7932
  361MPD2    H1 5461   2.278   0.953  16.567  0.5307  0.1520  0.4974
  361MPD2    H2 5462   2.101   1.301  16.398  1.5395 -0.9563 -2.2015
  361MPD2    H3 5463   2.293   1.153  16.429 -0.2325  0.2231  0.5894
  361MPD2     N 5464   2.062   0.868  16.695  0.0614  0.6043  0.0599
  361MPD2    H5 5465   2.151   0.829  16.723  0.7130  1.3742 -0.9306
  361MPD2    N1 5466   1.849   1.236  16.456  0.1712  0.5068  0.0766
  361MPD2    H7 5467   1.768   1.203  16.509 -1.0837  1.9244 -0.9709
  362TMC3    C1 5468   1.703   1.400  16.411  0.1314  0.1454  0.7100
  362TMC3    C2 5469   1.648   1.386  16.541 -0.3240 -0.5833  0.1605
  362TMC3    C3 5470   1.529   1.453  16.560  0.7238  0.4973 -0.5712
  362TMC3    C4 5471   1.651   1.475  16.315  1.0059  1.1576 -0.2760
  362TMC3    C5 5472   1.530   1.524  16.336  0.7156 -0.2066 -0.1661
  362TMC3    C6 5473   1.465   1.517  16.451 -0.1861  0.1765  0.1041
  362TMC3     C 5474   1.834   1.355  16.384  0.2489  0.4188  0.8025
  362TMC3     O 5475   1.908   1.413  16.307 -0.5023 -0.2390  0.0499
  362TMC3     H 5476   1.699   1.339  16.623 -0.7657  1.6279  1.7001
  362TMC3    H1 5477   1.690   1.488  16.215  1.9071  0.6451  0.0024
  362TMC3    H2 5478   1.387   1.592  16.454  1.0750  1.4234  1.7288
  362TMC3    C7 5479   1.493   1.612  16.234 -0.0704 -0.2007 -0.3767
  362TMC3    C8 5480   1.541   1.539  16.679 -0.0707 -0.2138 -0.1152
  362TMC3    O1 5481   1.578   1.685  16.188 -0.3186  0.6747 -0.1947
  362TMC3    O2 5482   1.660   1.562  16.714  0.2720 -0.4813 -0.3233
  363TMC3    C1 5483   4.684   3.763   9.727  0.6513 -0.4569  0.3042
  363TMC3    C2 5484   0.072   3.725   9.777 -0.0699 -0.4764 -0.2588
  363TMC3    C3 5485   0.134   3.817   9.856 -0.3479 -0.3182  0.0908
  363TMC3    C4 5486   4.634   3.890   9.751  0.1770  0.1530 -0.3705
  363TMC3    C5 5487   4.704   3.982   9.824 -0.1710  0.7726  0.1922
  363TMC3    C6 5488   0.086   3.941   9.884  0.8474  0.2896  0.3283
  363TMC3     C 5489   4.589   3.659   9.698 -0.3221  0.4617 -0.0134
  363TMC3     O 5490   4.489   3.695   9.634 -0.1432  0.0674 -0.2031
  363TMC3     H 5491   0.111   3.626   9.757  0.3941 -0.3747  0.1646
  363TMC3    H1 5492   4.533   3.912   9.720 -0.3207  0.1581  1.2227
  363TMC3    H2 5493   0.144   4.009   9.945 -0.3165  0.8810  0.7801
  363TMC3    C7 5494   4.633   4.105   9.864 -0.2718 -0.2351 -0.1305
  363TMC3    C8 5495   0.280   3.792   9.886  0.0223  0.6360  0.5659
  363TMC3    O1 5496   4.536   4.132   9.795 -0.2230 -0.4116  0.1160
  363TMC3    O2 5497   0.342   3.897   9.894 -0.1501 -0.1630 -0.1163
  364MPD2     C 5498   3.756   3.328  10.913 -0.3339 -0.4744 -0.0579
  364MPD2    C1 5499   3.773   3.311  10.778  1.0787 -0.0035 -0.1289
  364MPD2    C2 5500   3.783   3.183  10.728 -0.2158 -0.3670  0.0926
  364MPD2    C3 5501   3.764   3.073  10.809 -0.5006 -0.4885  0.1576
  364MPD2    C4 5502   3.730   3.102  10.943 -0.4601 -0.2799 -0.1509
  364MPD2    C5 5503   3.720   3.226  10.990 -0.4418 -0.6238 -0.3310
  364MPD2     H 5504   3.807   3.175  10.623 -0.8215  1.5302 -0.1987
  364MPD2    H1 5505   3.731   3.022  11.017  0.7325  0.0269  0.1672
  364MPD2    H2 5506   3.757   3.429  10.951 -0.9380  0.3193 -2.1798
  364MPD2    H3 5507   3.701   3.245  11.095 -0.6759 -0.7536 -0.3505
  364MPD2     N 5508   3.792   2.938  10.774 -0.2262 -0.2633 -0.6568
  364MPD2    H5 5509   3.787   2.874  10.852  1.6079  2.9143  2.0788
  364MPD2    N1 5510   3.794   3.426  10.701  0.4310 -0.0874 -0.1568
  364MPD2    H7 5511   3.780   3.513  10.751 -1.2581  0.7673 -2.1176
  365TMC3    C1 5512   3.847   3.569  10.516 -1.1183  0.5291  0.8963
  365TMC3    C2 5513   3.828   3.586  10.379  0.0518 -0.5537  0.5072
  365TMC3    C3 5514   3.827   3.710  10.323 -0.1000  0.9891 -0.4353
  365TMC3    C4 5515   3.874   3.674  10.601  0.0373  0.3638  0.6056
  365TMC3    C5 5516   3.876   3.799  10.542  0.5326 -0.0629  0.1015
  365TMC3    C6 5517   3.852   3.820  10.407 -0.1541  0.3521  1.1892
  365TMC3     C 5518   3.829   3.437  10.567  0.0628 -0.2473 -0.1330
  365TMC3     O 5519   3.847   3.344  10.490 -0.5240 -0.4071  0.0466
  365TMC3     H 5520   3.807   3.498  10.320  0.5487 -0.7555  0.6348
  365TMC3    H1 5521   3.907   3.654  10.702  1.3184  0.4752  0.2075
  365TMC3    H2 5522   3.845   3.923  10.373 -1.7265  0.2401  1.2039
  365TMC3    C7 5523   3.891   3.915  10.634  0.2530  0.3632 -0.1520
  365TMC3    C8 5524   3.745   3.742  10.208 -0.0860  0.0820  0.7097
  365TMC3    O1 5525   3.921   4.022  10.594 -0.1438  0.6077 -0.0365
  365TMC3    O2 5526   3.699   3.854  10.203 -0.3681 -0.0534  0.1611
  366MPD2     C 5527   1.685   4.327  15.477  0.3021 -0.1942 -0.2786
  366MPD2    C1 5528   1.820   4.370  15.463 -0.2284  0.0268 -0.4523
  366MPD2    C2 5529   1.925   4.276  15.476 -0.0794 -0.9697 -0.0608
  366MPD2    C3 5530   1.897   4.135  15.484 -0.1396 -0.3368  0.2731
  366MPD2    C4 5531   1.766   4.098  15.498  0.2983  0.2621  0.3136
  366MPD2    C5 5532   1.661   4.193  15.490 -0.0429  1.0501 -0.5014
  366MPD2     H 5533   2.028   4.308  15.459 -0.3104 -1.1413 -1.8107
  366MPD2    H1 5534   1.727   3.997  15.508 -0.7046  0.5865 -0.2663
  366MPD2    H2 5535   1.599   4.391  15.460  0.1510  0.2525  2.1374
  366MPD2    H3 5536   1.561   4.157  15.509  0.1514  0.3818 -0.7462
  366MPD2     N 5537   2.004   4.046  15.464 -0.1374  0.3779  0.2552
  366MPD2    H5 5538   2.097   4.084  15.453 -0.0798 -0.1258 -0.9187
  366MPD2    N1 5539   1.843   4.508  15.425  0.6833 -0.3764 -0.9922
  366MPD2    H7 5540   1.940   4.539  15.430  0.9387 -1.5952  1.4447
  367TMC3    C1 5541   1.820   4.727  15.360 -0.3870  0.0820 -0.4738
  367TMC3    C2 5542   1.915   0.030  15.448  0.1412 -1.0734 -0.4087
  367TMC3    C3 5543   1.979   0.152  15.419 -0.5754 -0.6648  0.2925
  367TMC3    C4 5544   1.770   0.067  15.261  0.0305  0.1186 -0.6010
  367TMC3    C5 5545   1.837   0.183  15.239 -0.1692 -0.0303 -0.1501
  367TMC3    C6 5546   1.942   0.227  15.313 -0.5304 -0.1229 -0.3829
  367TMC3     C 5547   1.751   4.603  15.396  0.3052  0.0875  0.6712
  367TMC3     O 5548   1.629   4.609  15.412  0.1322 -0.1374 -0.0131
  367TMC3     H 5549   1.936   4.716  15.540  0.8284  1.2235  0.7260
  367TMC3    H1 5550   1.691   0.028  15.197  1.8965  2.9297 -4.5679
  367TMC3    H2 5551   1.997   0.317  15.286 -0.6214  0.4624  1.3700
  367TMC3    C7 5552   1.790   0.260  15.123  0.3874  0.9898  0.3792
  367TMC3    C8 5553   2.093   0.180  15.506 -0.3870  0.0369  0.1541
  367TMC3    O1 5554   1.800   0.381  15.125  0.8539 -0.4085 -0.5304
  367TMC3    O2 5555   2.080   0.154  15.624  0.8112 -0.1338 -0.1950
  368MPD2     C 5556   2.954   1.320  13.365 -0.4568  0.0741  0.0238
  368MPD2    C1 5557   2.995   1.396  13.259  0.5999  0.4403 -0.3536
  368MPD2    C2 5558   3.090   1.347  13.166 -0.0462 -0.7863 -0.8401
  368MPD2    C3 5559   3.154   1.231  13.196 -0.3007  0.5293 -0.5774
  368MPD2    C4 5560   3.130   1.168  13.315 -0.1080  0.1480 -0.2000
  368MPD2    C5 5561   3.023   1.204  13.394  0.4854 -0.2093  0.2169
  368MPD2     H 5562   3.109   1.411  13.081  0.3816  0.5393  0.2475
  368MPD2    H1 5563   3.192   1.086  13.350 -0.7725 -0.5514 -0.6722
  368MPD2    H2 5564   2.882   1.366  13.432 -0.5950  0.5426 -0.4518
  368MPD2    H3 5565   3.014   1.150  13.487  2.8676  0.3708  0.7834
  368MPD2     N 5566   3.262   1.186  13.121 -0.3691 -0.1416 -0.3480
  368MPD2    H5 5567   3.323   1.111  13.155  0.9698  0.9944 -0.2285
  368MPD2    N1 5568   2.932   1.521  13.243  0.5685  0.2230 -0.3180
  368MPD2    H7 5569   2.856   1.542  13.307  0.8702  1.5595 -0.3987
  369TMC3    C1 5570   2.851   1.725  13.168 -0.4702  0.2274 -0.3541
  369TMC3    C2 5571   2.896   1.832  13.099  0.1968 -0.3563  0.2753
  369TMC3    C3 5572   2.818   1.892  13.009  0.2341 -0.5768  0.0858
  369TMC3    C4 5573   2.719   1.683  13.154  0.1165  0.2800 -0.0421
  369TMC3    C5 5574   2.638   1.758  13.069  0.4837 -0.2329  0.3349
  369TMC3    C6 5575   2.684   1.862  12.994  0.0295 -0.0768  0.1687
  369TMC3     C 5576   2.949   1.615  13.150  0.2707  0.5055 -0.7112
  369TMC3     O 5577   3.032   1.622  13.062 -0.1528 -0.3860 -0.2980
  369TMC3     H 5578   3.003   1.851  13.098  0.2291 -0.4685  1.7595
  369TMC3    H1 5579   2.680   1.591  13.195  1.0431  0.0766  0.3828
  369TMC3    H2 5580   2.625   1.913  12.919  0.1283 -1.6488 -0.9704
  369TMC3    C7 5581   2.489   1.729  13.094 -0.2907  0.4275  0.6410
  369TMC3    C8 5582   2.878   1.943  12.885 -0.1938 -0.9820  0.0528
  369TMC3    O1 5583   2.459   1.642  13.182  0.1440  0.1753 -0.1580
  369TMC3    O2 5584   2.818   2.031  12.821  0.0337  0.5854 -0.1750
  370TMC3    C1 5585   2.740   2.002  16.184  0.6606 -0.3697 -0.2865
  370TMC3    C2 5586   2.715   1.943  16.304 -0.0225  0.2044  0.4950
  370TMC3    C3 5587   2.754   1.812  16.315  0.5985 -0.1997 -0.0440
  370TMC3    C4 5588   2.809   1.947  16.082 -0.2595 -0.4070 -0.1326
  370TMC3    C5 5589   2.848   1.819  16.097  0.0221 -0.3059  0.1162
  370TMC3    C6 5590   2.827   1.750  16.217 -0.0260  0.9308  0.5589
  370TMC3     C 5591   2.648   2.106  16.138 -0.3646 -0.3862  0.3603
  370TMC3     O 5592   2.548   2.115  16.206 -0.0324 -0.0956 -0.3481
  370TMC3     H 5593   2.647   1.983  16.378 -0.3963  1.2278 -0.3953
  370TMC3    H1 5594   2.841   2.001  15.994  2.1322 -0.3833  0.7792
  370TMC3    H2 5595   2.857   1.646  16.226 -0.4472  0.8129  0.6102
  370TMC3    C7 5596   2.918   1.762  15.991 -0.6106 -0.3214  0.6704
  370TMC3    C8 5597   2.707   1.724  16.415  1.0807  0.6411 -0.4003
  370TMC3    O1 5598   2.911   1.815  15.881 -0.1189  0.3169 -0.1949
  370TMC3    O2 5599   2.714   1.605  16.391  0.4390  0.1345  0.7040
  371TMC3    C1 5600   3.820   0.116  15.369 -0.9313  0.1347 -0.2122
  371TMC3    C2 5601   3.840   0.146  15.508 -0.3197  0.0189  0.4229
  371TMC3    C3 5602   3.907   0.264  15.523 -0.2071 -0.4768  0.4395
  371TMC3    C4 5603   3.863   0.196  15.267 -0.6208 -0.5425 -1.0517
  371TMC3    C5 5604   3.933   0.308  15.297  0.2213 -0.6982 -1.0374
  371TMC3    C6 5605   3.958   0.339  15.427  0.2847  0.9385 -0.2759
  371TMC3     C 5606   3.719   0.024  15.326  0.4098 -0.3200  0.5539
  371TMC3     O 5607   3.652   0.072  15.235 -0.2037 -0.1966 -0.9632
  371TMC3     H 5608   3.803   0.088  15.593  0.0272 -2.9641 -1.4520
  371TMC3    H1 5609   3.860   0.164  15.163  1.6338 -0.6723 -1.0608
  371TMC3    H2 5610   4.003   0.435  15.451  3.0064 -0.3249 -0.3092
  371TMC3    C7 5611   3.971   0.418  15.205 -0.4821  0.3382 -0.0899
  371TMC3    C8 5612   3.922   0.298  15.662  0.6127  0.6930  0.8314
  371TMC3    O1 5613   4.047   0.502  15.247 -0.2184 -0.1830 -0.1262
  371TMC3    O2 5614   3.965   0.206  15.728 -0.3060  0.1960  0.1055
  372MPD2     C 5615   3.699   1.842  13.403  0.2231  0.2971 -0.0411
  372MPD2    C1 5616   3.761   1.783  13.519  0.2870 -0.0247  1.1094
  372MPD2    C2 5617   3.691   1.684  13.586 -0.0026 -0.6112  0.1844
  372MPD2    C3 5618   3.568   1.637  13.534 -0.1968  0.2627  0.3047
  372MPD2    C4 5619   3.504   1.705  13.428  0.1669  0.1595 -0.3695
  372MPD2    C5 5620   3.569   1.817  13.377 -0.6330  0.2991 -0.0329
  372MPD2     H 5621   3.732   1.644  13.678  1.0061  2.5819  1.1291
  372MPD2    H1 5622   3.402   1.676  13.402  0.4251 -0.6137 -0.5055
  372MPD2    H2 5623   3.757   1.903  13.334 -1.8157  0.4765 -1.5927
  372MPD2    H3 5624   3.528   1.877  13.297  1.5196  1.5020 -0.2135
  372MPD2     N 5625   3.498   1.528  13.596  0.0361 -0.1831 -0.6738
  372MPD2    H5 5626   3.411   1.497  13.554 -1.1286  0.9266  0.8930
  372MPD2    N1 5627   3.883   1.837  13.570  0.3906 -0.6172 -0.5017
  372MPD2    H7 5628   3.913   1.795  13.657 -0.1950 -0.8529 -0.4174
  373TMC3    C1 5629   3.433   1.340  13.715 -0.2980 -0.1603 -0.0984
  373TMC3    C2 5630   3.305   1.386  13.723  0.3402  0.0322 -0.1579
  373TMC3    C3 5631   3.224   1.299  13.793 -0.1916  0.5974  0.7336
  373TMC3    C4 5632   3.479   1.216  13.752  0.8032 -0.7717 -0.4007
  373TMC3    C5 5633   3.387   1.128  13.796  0.2107 -0.6362  0.5021
  373TMC3    C6 5634   3.260   1.168  13.816 -0.5096 -0.3113  0.3605
  373TMC3     C 5635   3.543   1.431  13.673 -0.4953 -0.1681  0.2961
  373TMC3     O 5636   3.645   1.414  13.732  0.1925 -0.3610 -0.2507
  373TMC3     H 5637   3.291   1.492  13.704 -0.8650 -0.0480  0.2702
  373TMC3    H1 5638   3.583   1.199  13.731  1.2227  2.1584 -0.6450
  373TMC3    H2 5639   3.186   1.100  13.858 -2.0542  0.8449 -0.4759
  373TMC3    C7 5640   3.435   0.993  13.841 -0.0804 -0.3252 -0.3098
  373TMC3    C8 5641   3.092   1.360  13.827  0.5433  0.0806  0.8200
  373TMC3    O1 5642   3.364   0.942  13.926  0.4561  0.0462 -0.3550
  373TMC3    O2 5643   3.061   1.464  13.774 -0.1183 -0.1864 -0.3768
  374TMC3    C1 5644   3.935   1.832   9.504  0.3960  0.1423  0.7295
  374TMC3    C2 5645   4.042   1.893   9.563 -0.3929  0.7898 -0.5776
  374TMC3    C3 5646   4.055   2.025   9.541  0.1637 -0.2377 -0.5460
  374TMC3    C4 5647   3.835   1.903   9.448 -0.4570  0.3649 -0.5617
  374TMC3    C5 5648   3.846   2.036   9.423  0.2872 -0.3409  0.7203
  374TMC3    C6 5649   3.963   2.096   9.468  0.4394  0.0561 -0.0082
  374TMC3     C 5650   3.912   1.696   9.522  0.3769 -0.3284  0.9208
  374TMC3     O 5651   3.976   1.636   9.611 -0.3984 -0.5616  0.1880
  374TMC3     H 5652   4.127   1.831   9.588  0.6111  2.4316  0.0589
  374TMC3    H1 5653   3.743   1.848   9.429  1.2279 -2.8177  0.5653
  374TMC3    H2 5654   3.970   2.204   9.478 -1.4079 -0.0760  2.5496
  374TMC3    C7 5655   3.730   2.106   9.379 -0.1340 -1.4277 -0.7804
  374TMC3    C8 5656   4.164   2.094   9.607  0.3977 -0.2953  0.1372
  374TMC3    O1 5657   3.630   2.040   9.369  0.1489  0.5429 -0.4792
  374TMC3    O2 5658   4.202   2.192   9.544 -0.2231 -0.0427 -1.3724
  375MPD2     C 5659   4.369   1.943  17.036  0.1562 -0.1668  0.3726
  375MPD2    C1 5660   4.298   1.988  16.930 -0.1996  0.5786  0.8703
  375MPD2    C2 5661   4.339   1.953  16.801 -0.0754  0.9017  0.6332
  375MPD2    C3 5662   4.454   1.891  16.772 -0.4457 -0.3656 -0.5192
  375MPD2    C4 5663   4.527   1.850  16.882 -0.5170  0.4873  0.1965
  375MPD2    C5 5664   4.491   1.878  17.011  0.8156 -0.5426  0.3051
  375MPD2     H 5665   4.279   1.987  16.717 -1.1698  0.0410  1.0546
  375MPD2    H1 5666   4.622   1.797  16.873 -0.0797  1.3208 -0.1114
  375MPD2    H2 5667   4.342   1.968  17.138  1.6112  0.3741  0.6292
  375MPD2    H3 5668   4.551   1.851  17.098  1.6457  1.1212  0.2504
  375MPD2     N 5669   4.503   1.865  16.641  0.1357  0.3964 -0.6783
  375MPD2    H5 5670   4.594   1.823  16.629 -0.0187  0.1052 -0.8219
  375MPD2    N1 5671   4.178   2.060  16.933  0.5655 -0.6791 -0.3492
  375MPD2    H7 5672   4.139   2.078  16.841 -1.4995  0.6904  0.7885
  376TMC3    C1 5673   4.529   1.911  16.414  0.0862 -0.3566  1.0310
  376TMC3    C2 5674   4.656   1.956  16.431 -0.4877  0.3075  0.1030
  376TMC3    C3 5675   4.724   2.024  16.336 -0.4328  0.2162  1.0112
  376TMC3    C4 5676   4.468   1.922  16.294 -0.6238  0.7373  0.6895
  376TMC3    C5 5677   4.547   1.982  16.192 -0.1487  0.4984 -0.1097
  376TMC3    C6 5678   4.672   2.032  16.207 -0.4312  0.5240  0.0169
  376TMC3     C 5679   4.443   1.912  16.526  0.1637 -0.2241  0.8404
  376TMC3     O 5680   4.332   1.953  16.497 -0.2255 -0.1865  0.8630
  376TMC3     H 5681   4.696   1.970  16.531 -3.2363 -0.1887  1.2857
  376TMC3    H1 5682   4.363   1.895  16.286 -0.6964  1.1872  0.1617
  376TMC3    H2 5683   4.720   2.090  16.129 -0.9089  0.9135  0.0180
  376TMC3    C7 5684   4.477   2.013  16.067 -0.0751 -0.2145 -0.0248
  376TMC3    C8 5685   0.127   2.059  16.359 -0.5600  0.2144  0.3731
  376TMC3    O1 5686   4.519   2.101  15.994  0.0020  0.5040 -0.5611
  376TMC3    O2 5687   0.163   2.151  16.284 -0.9654 -0.4201  0.5648
  377MPD2     C 5688   2.879   1.415  12.882  0.1582 -0.3618 -0.4923
  377MPD2    C1 5689   2.819   1.479  12.777  0.3451  0.1967  0.8598
  377MPD2    C2 5690   2.683   1.480  12.770  0.9722 -0.2078  0.1121
  377MPD2    C3 5691   2.600   1.443  12.874 -0.2413 -0.0498 -1.2768
  377MPD2    C4 5692   2.657   1.372  12.973 -0.4181 -0.0950  0.4172
  377MPD2    C5 5693   2.797   1.366  12.978 -0.1799 -0.6009 -0.0886
  377MPD2     H 5694   2.630   1.531  12.690  2.6545 -0.4033 -1.1321
  377MPD2    H1 5695   2.591   1.329  13.048 -2.0444  1.3558 -0.1828
  377MPD2    H2 5696   2.987   1.413  12.892 -0.0040 -1.3067  0.9680
  377MPD2    H3 5697   2.842   1.323  13.067 -1.0969 -1.4086 -0.0162
  377MPD2     N 5698   2.458   1.456  12.878  0.0265  0.2620  0.5605
  377MPD2    H5 5699   2.416   1.411  12.959  0.8326  1.1018  1.4603
  377MPD2    N1 5700   2.903   1.546  12.681  0.1072 -1.4466  0.0675
  377MPD2    H7 5701   3.004   1.536  12.693  0.1254  0.2303  1.2554
  378TMC3    C1 5702   2.959   1.791  12.289 -0.1817 -0.3087  0.6512
  378TMC3    C2 5703   2.916   1.780  12.419 -0.2460  0.0530 -0.2048
  378TMC3    C3 5704   2.954   1.665  12.479  0.8534  0.6548 -0.4814
  378TMC3    C4 5705   3.031   1.692  12.224 -0.2025 -0.5012  0.2810
  378TMC3    C5 5706   3.071   1.585  12.292  0.2503  0.2953 -0.3493
  378TMC3    C6 5707   3.030   1.566  12.423  0.4802 -0.4714 -0.1299
  378TMC3     C 5708   2.902   1.890  12.203  0.4985  0.2420  0.3947
  378TMC3     O 5709   2.946   1.896  12.090  0.2756 -0.2692  0.1410
  378TMC3     H 5710   2.871   1.858  12.479  1.4595  0.3288  0.7122
  378TMC3    H1 5711   3.045   1.702  12.117 -2.8962 -1.8803 -0.1957
  378TMC3    H2 5712   3.049   1.471  12.473 -1.8944 -1.2147 -0.6204
  378TMC3    C7 5713   3.151   1.478  12.226 -0.2470 -0.0055  0.3493
  378TMC3    C8 5714   2.857   1.633  12.581 -0.4801 -0.3149  0.0219
  378TMC3    O1 5715   3.157   1.378  12.293  0.3208  0.1326 -0.1315
  378TMC3    O2 5716   2.756   1.700  12.596 -0.0536  0.3861  0.1904
  379MPD2     C 5717   3.229   4.645  15.927  0.3619  0.1342 -0.5713
  379MPD2    C1 5718   3.160   4.639  16.046 -0.1813 -0.0769 -0.4121
  379MPD2    C2 5719   3.225   4.600  16.161 -0.3941  0.1718  0.1240
  379MPD2    C3 5720   3.360   4.564  16.150 -0.0601 -0.4637 -0.1565
  379MPD2    C4 5721   3.430   4.573  16.031 -0.0066  0.0806 -0.5567
  379MPD2    C5 5722   3.360   4.609  15.917  0.4088  0.1540  0.0595
  379MPD2     H 5723   3.171   4.597  16.254  0.0413 -0.9942  0.3352
  379MPD2    H1 5724   3.534   4.550  16.013 -0.0737 -0.4981 -0.2046
  379MPD2    H2 5725   3.178   4.677  15.837  0.3138  4.2133  0.9196
  379MPD2    H3 5726   3.412   4.599  15.822 -1.1283 -0.1845 -0.7501
  379MPD2     N 5727   3.423   4.518  16.264 -0.0155 -0.3965  0.5174
  379MPD2    H5 5728   3.512   4.472  16.246 -1.4171 -1.7620 -3.0060
  379MPD2    N1 5729   3.019   4.657  16.044  0.3468 -0.3889  0.4639
  379MPD2    H7 5730   2.984   4.698  15.958 -0.0304  0.8771  1.2280
  380TMC3    C1 5731   2.794   4.628  16.080 -0.6476 -0.0629 -0.2376
  380TMC3    C2 5732   2.738   4.508  16.035 -0.6467 -0.3066  0.4977
  380TMC3    C3 5733   2.647   4.499  15.936 -0.5278 -0.1560 -0.5299
  380TMC3    C4 5734   2.769   4.737  16.001  0.3541 -0.5485  0.3428
  380TMC3    C5 5735   2.665   4.733  15.911 -0.0753  0.8702 -0.2591
  380TMC3    C6 5736   2.591   4.618  15.888 -0.5765 -0.0530 -0.2068
  380TMC3     C 5737   2.926   4.614  16.138 -0.2914  0.3964  0.9159
  380TMC3     O 5738   2.939   4.544  16.237  0.6105 -0.1574 -0.7903
  380TMC3     H 5739   2.771   4.423  16.094 -3.7273 -1.6806  0.2604
  380TMC3    H1 5740   2.811   0.097  16.022 -1.4376  0.4876 -0.9141
  380TMC3    H2 5741   2.541   4.611  15.792 -3.5388 -1.6705  1.4505
  380TMC3    C7 5742   2.642   0.108  15.826 -0.0128  0.1100 -0.1223
  380TMC3    C8 5743   2.681   4.410  15.829  0.0372  0.2534 -0.1468
  380TMC3    O1 5744   2.732   0.187  15.822 -0.0565  0.0552 -0.8366
  380TMC3    O2 5745   2.628   4.427  15.721 -0.5586 -0.9251 -0.3835
  381TMC3    C1 5746   2.727   1.102  16.213 -0.4679  0.3269 -0.4770
  381TMC3    C2 5747   2.821   1.198  16.226 -0.3127  0.5069 -0.3298
  381TMC3    C3 5748   2.814   1.278  16.338  0.2686  0.1929 -0.9184
  381TMC3    C4 5749   2.617   1.094  16.298 -0.3453  0.2357  0.1818
  381TMC3    C5 5750   2.606   1.186  16.400 -0.3629 -0.5786 -0.3809
  381TMC3    C6 5751   2.708   1.273  16.421 -0.9000 -0.4317  0.2261
  381TMC3     C 5752   2.759   0.991  16.129  0.5241 -0.5910 -0.4424
  381TMC3     O 5753   2.873   0.959  16.112  0.2569  0.2329  0.3460
  381TMC3     H 5754   2.901   1.205  16.153 -0.8152 -2.7841 -1.1908
  381TMC3    H1 5755   2.552   1.007  16.304 -0.4185  0.1932 -1.4440
  381TMC3    H2 5756   2.714   1.340  16.506 -0.5541  1.5171 -1.3459
  381TMC3    C7 5757   2.554   1.129  16.519  0.6442 -0.4047  0.1603
  381TMC3    C8 5758   2.931   1.371  16.360 -0.1481 -0.2271 -0.3724
  381TMC3    O1 5759   2.588   1.014  16.530 -0.2695  0.2317 -0.0541
  381TMC3    O2 5760   3.017   1.363  16.269  0.6442 -0.4568 -0.1972
  382MPD2     C 5761   1.800   3.567  17.550 -0.2333 -0.6218  0.5353
  382MPD2    C1 5762   1.933   3.540  17.548  0.1833  0.8690 -0.2800
  382MPD2    C2 5763   1.972   3.416  17.491  0.2959 -0.0246 -0.2676
  382MPD2    C3 5764   1.880   3.333  17.429 -0.2907 -0.1748 -0.5793
  382MPD2    C4 5765   1.750   3.361  17.438  0.0897 -0.2214 -0.0474
  382MPD2    C5 5766   1.708   3.475  17.503 -0.0632 -0.6129  0.0217
  382MPD2     H 5767   2.080   3.404  17.494  0.5089  1.6077 -1.0734
  382MPD2    H1 5768   1.676   3.300  17.388  1.0375 -0.3906 -1.2255
  382MPD2    H2 5769   1.760   3.664  17.577  0.8390  0.8846 -3.2409
  382MPD2    H3 5770   1.603   3.497  17.490 -0.1843 -0.5878  0.9947
  382MPD2     N 5771   1.913   3.219  17.347 -0.0831  0.3169 -0.2052
  382MPD2    H5 5772   1.835   3.165  17.312  0.1682 -0.9253  1.1318
  382MPD2    N1 5773   2.023   3.629  17.609 -0.4623 -0.8954 -0.2268
  382MPD2    H7 5774   2.112   3.582  17.624 -0.3923 -1.0137 -0.9910
  383TMC3    C1 5775   2.020   3.019  17.291 -0.4270  0.3550  0.0342
  383TMC3    C2 5776   1.936   2.991  17.187  0.3395  0.8657  0.1094
  383TMC3    C3 5777   1.920   2.860  17.157 -0.2268  0.2589  0.0653
  383TMC3    C4 5778   2.089   2.924  17.362 -0.1468  0.1454  0.4941
  383TMC3    C5 5779   2.064   2.798  17.333  0.1718  0.0810  0.6592
  383TMC3    C6 5780   1.979   2.761  17.232  0.3039 -0.1963  0.5721
  383TMC3     C 5781   2.035   3.156  17.338 -0.4589 -0.6587 -0.3213
  383TMC3     O 5782   2.142   3.198  17.377  0.5038 -0.1214  0.1743
  383TMC3     H 5783   1.883   3.060  17.122 -0.9363  0.2578  0.5174
  383TMC3    H1 5784   2.143   2.952  17.452  0.0947  0.9668  0.0961
  383TMC3    H2 5785   1.952   2.656  17.230 -0.2659 -0.0296 -0.6540
  383TMC3    C7 5786   2.074   2.692  17.429 -0.6324  0.2288 -0.3511
  383TMC3    C8 5787   1.805   2.830  17.087  0.2113  0.4005  0.2193
  383TMC3    O1 5788   2.075   2.578  17.398 -0.3363 -0.1143 -0.0263
  383TMC3    O2 5789   1.711   2.907  17.080 -0.1041  0.6029  0.1826
  384MPD2     C 5790   3.142   0.179  12.291  0.2030 -0.0428 -0.3096
  384MPD2    C1 5791   3.156   0.096  12.399  0.5778 -0.6679 -0.0746
  384MPD2    C2 5792   3.252   4.737  12.399  0.2203  0.2160 -0.1239
  384MPD2    C3 5793   3.328   4.708  12.286  0.0289 -0.4198  0.3345
  384MPD2    C4 5794   3.313   0.050  12.179  0.8239 -0.2896 -0.2003
  384MPD2    C5 5795   3.225   0.154  12.184 -0.7861 -0.0183  0.4030
  384MPD2     H 5796   3.244   4.659  12.474 -0.3990  0.2489 -0.1506
  384MPD2    H1 5797   3.367   0.027  12.087  1.0553 -1.2174  0.1707
  384MPD2    H2 5798   3.063   0.254  12.297  0.0571 -0.0893 -1.5167
  384MPD2    H3 5799   3.209   0.214  12.095 -0.5473 -0.4350  0.0797
  384MPD2     N 5800   3.424   4.609  12.301 -0.0705  0.2782  0.2093
  384MPD2    H5 5801   3.433   4.569  12.394 -1.6920 -1.5721 -0.4293
  384MPD2    N1 5802   3.065   0.088  12.507 -0.2453  0.3686  1.1700
  384MPD2    H7 5803   3.091   0.022  12.580 -0.8487 -0.8191  0.3270
  385TMC3    C1 5804   3.601   4.473  12.282 -0.2392  0.1295 -0.2515
  385TMC3    C2 5805   3.600   4.340  12.240  0.6361  0.3422 -0.2242
  385TMC3    C3 5806   3.602   4.247  12.341  0.0156 -0.3989 -0.0856
  385TMC3    C4 5807   3.604   4.509  12.416 -0.7363  0.1873 -0.0866
  385TMC3    C5 5808   3.602   4.408  12.512  0.4231  0.2967  0.1174
  385TMC3    C6 5809   3.587   4.283  12.472 -0.1230  0.3612  0.0218
  385TMC3     C 5810   3.517   4.560  12.211 -0.0306 -0.7660  0.4417
  385TMC3     O 5811   3.504   4.560  12.090  0.0715 -0.0214  0.5828
  385TMC3     H 5812   3.581   4.309  12.137  0.7003 -3.0943  0.7773
  385TMC3    H1 5813   3.618   4.613  12.442  2.0377  0.0184 -0.8790
  385TMC3    H2 5814   3.571   4.207  12.547 -1.8658 -0.8962 -1.6183
  385TMC3    C7 5815   3.506   4.438  12.617 -1.4347 -0.9345  0.3302
  385TMC3    C8 5816   3.573   4.108  12.315  0.3893 -0.8153  0.4809
  385TMC3    O1 5817   3.440   4.537  12.585 -0.1614  0.8835  0.3194
  385TMC3    O2 5818   3.513   4.040  12.401 -0.0402  0.0135 -0.6572
  386TMC3    C1 5819   3.982   1.944  11.683 -0.7433  0.2992  0.2133
  386TMC3    C2 5820   4.001   1.905  11.553  0.1713 -0.5512  0.4562
  386TMC3    C3 5821   3.898   1.858  11.485  0.5597  0.3633  0.4644
  386TMC3    C4 5822   3.856   1.936  11.745 -0.0212  0.0500  0.4973
  386TMC3    C5 5823   3.754   1.911  11.658  1.0092  1.1469  0.0863
  386TMC3    C6 5824   3.769   1.873  11.530 -0.1670 -0.1564  0.1467
  386TMC3     C 5825   4.094   1.987  11.765  0.0536  0.1313  0.2485
  386TMC3     O 5826   4.187   2.034  11.705  0.2980 -0.1896 -0.3944
  386TMC3     H 5827   4.106   1.906  11.526  0.2364 -2.0187  0.6825
  386TMC3    H1 5828   3.848   1.958  11.851  0.3019 -0.0895  0.5526
  386TMC3    H2 5829   3.693   1.860  11.454 -0.6584  0.1500  0.5840
  386TMC3    C7 5830   3.623   1.953  11.702 -0.0463  0.1017 -0.1874
  386TMC3    C8 5831   3.892   1.837  11.344 -0.6945  0.9003 -0.0312
  386TMC3    O1 5832   3.613   1.977  11.825  0.3230 -0.2069  0.1109
  386TMC3    O2 5833   3.809   1.762  11.305  0.7294 -0.2860 -0.5432
  387MPD2     C 5834   1.228   2.164   9.706 -0.2658  0.3486  0.0973
  387MPD2    C1 5835   1.309   2.113   9.809 -0.0745  0.4172  0.0410
  387MPD2    C2 5836   1.311   1.981   9.833 -0.3283  0.4614 -0.0007
  387MPD2    C3 5837   1.259   1.892   9.745 -0.6057  0.0175  0.5627
  387MPD2    C4 5838   1.184   1.932   9.634  0.3976  0.0599 -0.3121
  387MPD2    C5 5839   1.164   2.069   9.627 -0.4394  0.3243  0.2732
  387MPD2     H 5840   1.356   1.940   9.923 -0.7323 -0.1215 -0.0657
  387MPD2    H1 5841   1.146   1.864   9.559 -1.5676  0.8082  0.0017
  387MPD2    H2 5842   1.209   2.268   9.681 -0.0636 -0.5695 -3.8325
  387MPD2    H3 5843   1.106   2.112   9.545 -0.2533  1.2478  0.6280
  387MPD2     N 5844   1.303   1.757   9.762 -0.1683 -0.4298 -0.3396
  387MPD2    H5 5845   1.364   1.736   9.840  1.2205  1.6143 -0.8963
  387MPD2    N1 5846   1.364   2.193   9.910  0.9237 -0.9876  0.2793
  387MPD2    H7 5847   1.425   2.150   9.978 -0.3868 -2.5142  0.4704
  388TMC3    C1 5848   1.479   2.354  10.025 -0.3342  0.0864  0.4076
  388TMC3    C2 5849   1.469   2.464  10.103  0.3323 -0.1169  0.0082
  388TMC3    C3 5850   1.563   2.477  10.207  0.3807 -0.6859 -0.3766
  388TMC3    C4 5851   1.570   2.252  10.040  0.0669 -0.2654 -0.2301
  388TMC3    C5 5852   1.654   2.264  10.147 -0.2431  0.0132 -0.5363
  388TMC3    C6 5853   1.650   2.368  10.230 -0.5159 -0.3961  0.3935
  388TMC3     C 5854   1.377   2.326   9.921  0.3717  0.2343 -0.3601
  388TMC3     O 5855   1.313   2.408   9.862  0.6189  0.3458  0.2064
  388TMC3     H 5856   1.390   2.537  10.089 -0.9355 -1.3589  0.7328
  388TMC3    H1 5857   1.587   2.167   9.975  1.1164 -1.6815  1.9170
  388TMC3    H2 5858   1.724   2.377  10.308  0.0661  0.4254 -0.2513
  388TMC3    C7 5859   1.774   2.174  10.132  0.3262 -0.0959  0.2525
  388TMC3    C8 5860   1.548   2.570  10.312 -0.2799  0.2249  0.1910
  388TMC3    O1 5861   1.888   2.219  10.117  0.0939 -0.2797 -0.1674
  388TMC3    O2 5862   1.586   2.528  10.422 -0.1837 -0.4493 -0.0839
  389MPD2     C 5863   0.797   0.404  11.063  0.2418 -0.1625  0.1943
  389MPD2    C1 5864   0.678   0.339  11.013  0.4999 -0.4403  0.3464
  389MPD2    C2 5865   0.613   0.248  11.095  0.0536 -0.1174 -0.2414
  389MPD2    C3 5866   0.659   0.231  11.221  0.2765  0.5947 -0.1889
  389MPD2    C4 5867   0.763   0.307  11.260  0.0025 -0.1359  0.3393
  389MPD2    C5 5868   0.829   0.396  11.191 -0.2112 -0.0144  0.0822
  389MPD2     H 5869   0.525   0.192  11.064 -2.0156  2.5743  0.7949
  389MPD2    H1 5870   0.800   0.295  11.361 -1.8973  1.0685  1.1882
  389MPD2    H2 5871   0.853   0.469  10.997 -1.9012  0.2839 -1.1904
  389MPD2    H3 5872   0.920   0.438  11.232 -1.3228  1.0812  1.4093
  389MPD2     N 5873   0.605   0.155  11.323  0.4940  0.1883 -0.7422
  389MPD2    H5 5874   0.661   0.154  11.408 -1.6119  2.6910  0.6783
  389MPD2    N1 5875   0.637   0.375  10.881 -0.1482  0.4380  0.1546
  389MPD2    H7 5876   0.696   0.446  10.839 -1.8476  1.6710 -0.1719
  390TMC3    C1 5877   0.453   0.033  11.454  0.2485 -0.1733  0.2618
  390TMC3    C2 5878   0.378   4.655  11.470  0.1578 -0.1992 -0.3976
  390TMC3    C3 5879   0.311   4.640  11.591  0.0662  0.2814  0.1672
  390TMC3    C4 5880   0.457   0.137  11.546  0.1488  0.5327 -0.0651
  390TMC3    C5 5881   0.388   0.116  11.663  0.2170  0.2985 -0.3152
  390TMC3    C6 5882   0.319   0.003  11.688  0.7725 -0.4870  0.1980
  390TMC3     C 5883   0.493   0.077  11.320 -0.3327  0.2874 -0.5507
  390TMC3     O 5884   0.432   0.036  11.220  0.1540  0.4637  0.4064
  390TMC3     H 5885   0.395   4.573  11.402 -2.4505 -0.5818 -0.6094
  390TMC3    H1 5886   0.511   0.229  11.528 -0.8960  1.4298  1.3667
  390TMC3    H2 5887   0.273   4.725  11.785 -2.2225  1.3984 -0.9249
  390TMC3    C7 5888   0.381   0.239  11.749  0.1951  0.1911  0.4397
  390TMC3    C8 5889   0.216   4.531  11.600 -0.1719 -0.1353  0.0796
  390TMC3    O1 5890   0.448   0.333  11.709  0.0373 -0.2317  0.8708
  390TMC3    O2 5891   0.224   4.430  11.528  0.6959  0.8224 -0.0342
  391MPD2     C 5892   4.230   1.639  11.087  0.1300 -0.0779 -0.4141
  391MPD2    C1 5893   4.344   1.719  11.079 -0.6650  0.2071  0.2351
  391MPD2    C2 5894   4.406   1.738  10.957  0.4049 -0.2508  0.3550
  391MPD2    C3 5895   4.348   1.691  10.842 -0.7515 -0.3314  1.1581
  391MPD2    C4 5896   4.225   1.626  10.853  0.8405 -0.2060 -0.7360
  391MPD2    C5 5897   4.172   1.604  10.968  0.0307  1.0073 -0.0985
  391MPD2     H 5898   4.494   1.801  10.944  0.8938 -0.6804  1.5932
  391MPD2    H1 5899   4.162   1.588  10.773  0.1656 -2.0799  0.6841
  391MPD2    H2 5900   4.180   1.627  11.182  0.1243 -1.3834 -0.5828
  391MPD2    H3 5901   4.074   1.559  10.965  1.3201 -1.8790  1.0736
  391MPD2     N 5902   4.423   1.721  10.718 -0.1492 -0.3694 -0.0251
  391MPD2    H5 5903   4.510   1.770  10.734 -1.0604  2.1685 -2.9451
  391MPD2    N1 5904   4.395   1.762  11.207 -0.7534  0.3710 -0.0707
  391MPD2    H7 5905   4.340   1.739  11.288  1.1434  0.2160  1.1842
  392TMC3    C1 5906   4.492   1.734  10.494 -0.1399  0.6363  0.0238
  392TMC3    C2 5907   4.439   1.755  10.372 -0.1324  0.0000  0.1901
  392TMC3    C3 5908   4.521   1.770  10.257  0.4655  0.3582 -1.1306
  392TMC3    C4 5909   4.628   1.722  10.506  0.2917  0.2153  1.0076
  392TMC3    C5 5910   4.709   1.732  10.391  0.1751 -0.3969  0.0720
  392TMC3    C6 5911   4.658   1.756  10.266  0.1193  0.5070  0.0588
  392TMC3     C 5912   4.395   1.681  10.592 -0.2818  0.9413  0.2611
  392TMC3     O 5913   4.289   1.628  10.549  0.1067 -0.1593  0.0080
  392TMC3     H 5914   4.332   1.768  10.365 -0.0567  0.6096  0.1781
  392TMC3    H1 5915   4.665   1.674  10.597  2.0791 -0.1189  0.0971
  392TMC3    H2 5916   4.724   1.753  10.181  0.8145  0.9142  0.5812
  392TMC3    C7 5917   0.115   1.728  10.395 -0.5097  0.5503 -0.0701
  392TMC3    C8 5918   4.449   1.821  10.143  0.4095  0.2257 -0.3510
  392TMC3    O1 5919   0.178   1.671  10.303 -0.1764 -0.0159 -0.3855
  392TMC3    O2 5920   4.328   1.800  10.138 -0.2904 -0.2736 -0.2031
  393TMC3    C1 5921   3.881   0.036  10.919  0.0871  0.3331 -0.8055
  393TMC3    C2 5922   3.754   4.730  10.947  0.4506  0.1971  0.2861
  393TMC3    C3 5923   3.726   4.598  10.916 -0.2017 -0.6584 -0.6608
  393TMC3    C4 5924   3.977   4.685  10.890 -0.0173  0.9806 -0.0269
  393TMC3    C5 5925   3.945   4.548  10.872  0.1072 -0.0571 -0.0648
  393TMC3    C6 5926   3.815   4.502  10.881  0.1645  0.1832 -0.6789
  393TMC3     C 5927   3.895   0.178  10.881 -0.4174 -0.1652  0.0882
  393TMC3     O 5928   3.800   0.251  10.897 -0.0247  0.2154  0.2059
  393TMC3     H 5929   3.679   0.059  10.986  0.0395  0.5292 -1.0894
  393TMC3    H1 5930   4.079   4.714  10.869  0.0489 -0.6433 -1.9739
  393TMC3    H2 5931   3.789   4.403  10.844  0.1354  1.2712 -3.6218
  393TMC3    C7 5932   4.014   4.492  10.761 -1.0267  0.6278 -0.7309
  393TMC3    C8 5933   3.592   4.556  10.976 -0.0915 -0.1432  0.1021
  393TMC3    O1 5934   3.965   4.408  10.692 -0.8715  0.2766 -0.1424
  393TMC3    O2 5935   3.534   4.648  11.030  0.2178 -0.1141  0.3095
  394TMC3    C1 5936   0.539   0.356  10.667 -0.8817 -0.0288  0.2567
  394TMC3    C2 5937   0.429   0.351  10.586 -0.2339  0.1139 -0.9147
  394TMC3    C3 5938   0.432   0.416  10.466 -0.1003  0.4007 -0.6741
  394TMC3    C4 5939   0.663   0.383  10.620  0.2558  0.1794  0.4535
  394TMC3    C5 5940   0.664   0.416  10.485 -0.1614 -0.1190  0.5611
  394TMC3    C6 5941   0.552   0.448  10.412  0.1396  0.4653 -0.5561
  394TMC3     C 5942   0.528   0.326  10.810 -0.3025 -0.1182  0.0288
  394TMC3     O 5943   0.438   0.250  10.841 -0.1474  0.4099 -0.5455
  394TMC3     H 5944   0.337   0.316  10.631 -0.7673  1.0216 -1.2893
  394TMC3    H1 5945   0.756   0.385  10.675  1.5973  1.8628 -1.8951
  394TMC3    H2 5946   0.562   0.477  10.308 -0.0748 -1.5736 -1.1406
  394TMC3    C7 5947   0.790   0.459  10.421 -0.1716  0.4460  0.3664
  394TMC3    C8 5948   0.342   0.371  10.367 -1.5329 -0.1528 -0.0265
  394TMC3    O1 5949   0.779   0.557  10.351  0.4632  0.1126  0.1326
  394TMC3    O2 5950   0.282   0.457  10.298 -0.2426  0.0937 -0.3016
  395TMC3    C1 5951   4.495   2.870  14.982  0.5725  0.8383 -0.1322
  395TMC3    C2 5952   4.405   2.871  14.872  0.4932 -0.4340  0.0574
  395TMC3    C3 5953   4.446   2.914  14.752  0.5081 -0.2837  0.5521
  395TMC3    C4 5954   4.631   2.893  14.957  0.7830 -0.5665 -0.6371
  395TMC3    C5 5955   4.668   2.925  14.833 -0.8574  0.4417 -0.4015
  395TMC3    C6 5956   4.577   2.946  14.733  0.2421  0.2399  0.0240
  395TMC3     C 5957   4.461   2.797  15.103  0.1620  0.6345 -0.5195
  395TMC3     O 5958   4.539   2.809  15.193 -0.2196  0.0972  0.0585
  395TMC3     H 5959   4.299   2.857  14.883  0.2879  0.5905 -0.6117
  395TMC3    H1 5960   4.708   2.884  15.032 -0.9024 -0.2429  1.1617
  395TMC3    H2 5961   4.602   2.955  14.628 -0.1265  1.0198 -0.0020
  395TMC3    C7 5962   0.070   2.922  14.796 -0.3569  0.6347 -0.1895
  395TMC3    C8 5963   4.347   2.927  14.650 -0.2349 -0.2095  0.0690
  395TMC3    O1 5964   0.149   2.868  14.875 -0.2535 -0.9003 -0.6834
  395TMC3    O2 5965   4.335   3.032  14.584  0.2704  0.0473 -0.5696
  396MPD2     C 5966   0.281   2.884  16.978 -0.4543  0.5394  0.3974
  396MPD2    C1 5967   0.406   2.937  16.998  0.0186 -0.2302 -0.0618
  396MPD2    C2 5968   0.450   3.051  16.931  0.3964 -0.4594  0.3727
  396MPD2    C3 5969   0.359   3.123  16.851 -0.0979  0.2252  0.3305
  396MPD2    C4 5970   0.236   3.070  16.836 -0.0495  0.7197  0.3899
  396MPD2    C5 5971   0.201   2.953  16.892 -0.8164  0.1177 -0.2329
  396MPD2     H 5972   0.553   3.083  16.940  0.6482 -0.5052 -2.4405
  396MPD2    H1 5973   0.157   3.114  16.777 -1.0090 -1.7428 -0.1375
  396MPD2    H2 5974   0.252   2.786  17.015  0.7442 -0.4124 -1.1604
  396MPD2    H3 5975   0.102   2.913  16.874 -0.9091  0.3869 -0.3193
  396MPD2     N 5976   0.401   3.248  16.793 -0.4002 -0.4153 -0.1184
  396MPD2    H5 5977   0.495   3.276  16.819 -0.1988 -0.7236 -0.5171
  396MPD2    N1 5978   0.482   2.866  17.094 -0.0573 -0.3761  0.1991
  396MPD2    H7 5979   0.447   2.778  17.130  1.4447 -0.7334  0.8059
  397TMC3    C1 5980   0.664   2.813  17.240 -0.8498  0.2203  0.4715
  397TMC3    C2 5981   0.800   2.812  17.218 -0.1760 -0.1349  0.8101
  397TMC3    C3 5982   0.855   2.695  17.169 -0.0105 -0.1602 -0.4146
  397TMC3    C4 5983   0.599   2.689  17.255 -0.2973 -0.1913 -0.5535
  397TMC3    C5 5984   0.675   2.570  17.249  0.5103 -0.1658  0.0958
  397TMC3    C6 5985   0.800   2.575  17.194  0.8885 -0.3834 -0.0560
  397TMC3     C 5986   0.596   2.913  17.157 -0.3741 -0.0679 -0.1175
  397TMC3     O 5987   0.648   3.028  17.149  0.1680  0.1334  0.0790
  397TMC3     H 5988   0.858   2.901  17.201  0.3921 -1.2272 -2.8750
  397TMC3    H1 5989   0.505   2.693  17.309 -0.1328  1.7960 -0.4466
  397TMC3    H2 5990   0.845   2.477  17.184 -0.5041 -1.1018  0.6795
  397TMC3    C7 5991   0.602   2.443  17.267  0.7137 -1.5026 -0.3365
  397TMC3    C8 5992   1.003   2.690  17.157  0.0676  0.0437 -0.4149
  397TMC3    O1 5993   0.658   2.343  17.227 -0.1835 -0.3557 -0.3014
  397TMC3    O2 5994   1.044   2.580  17.181 -0.1479 -0.1005 -0.1956
  398MPD2     C 5995   2.867   4.508  17.649  0.3094  0.4446  0.6201
  398MPD2    C1 5996   2.966   4.422  17.690  0.4588 -0.1807  0.0573
  398MPD2    C2 5997   3.050   4.459   0.040 -0.0397  0.2239  0.4570
  398MPD2    C3 5998   3.037   4.579   0.104  0.0685  0.6590 -0.4117
  398MPD2    C4 5999   2.942   4.669   0.059 -0.4390 -0.4141 -0.0379
  398MPD2    C5 6000   2.859   4.628  17.708 -0.6836 -0.2384 -0.2481
  398MPD2     H 6001   3.122   4.389   0.083  0.8149  0.2103 -0.9910
  398MPD2    H1 6002   2.929   0.032   0.096  0.8527  0.1590 -1.1597
  398MPD2    H2 6003   2.790   4.486  17.576  1.9978 -1.8176 -0.4641
  398MPD2    H3 6004   2.779   4.691  17.670  0.2093  1.4715  0.7095
  398MPD2     N 6005   3.121   4.601   0.217 -0.4333 -0.3101 -0.3826
  398MPD2    H5 6006   3.191   4.532   0.243 -1.5466 -1.9949 -1.9075
  398MPD2    N1 6007   2.978   4.287  17.648  0.8598 -0.0919 -0.4327
  398MPD2    H7 6008   3.025   4.223  17.711 -0.3563  0.4509  1.0076
  399TMC3    C1 6009   2.949   4.099  17.504  0.8788  0.7347  0.5244
  399TMC3    C2 6010   3.008   4.017  17.599 -0.1171  0.2446  0.1557
  399TMC3    C3 6011   3.040   3.884  17.563  0.0657 -0.4642 -0.1949
  399TMC3    C4 6012   2.912   4.046  17.387 -0.1467 -0.8212  0.7574
  399TMC3    C5 6013   2.952   3.920  17.346  0.4332  0.5134  0.0236
  399TMC3    C6 6014   3.016   3.839  17.438  0.3158 -0.2640 -0.0285
  399TMC3     C 6015   2.921   4.241  17.535  0.1100 -0.4714 -0.4337
  399TMC3     O 6016   2.873   4.299  17.435 -0.1208 -0.0340 -0.1464
  399TMC3     H 6017   3.027   4.043  17.702  0.7277  1.7194 -0.3788
  399TMC3    H1 6018   2.861   4.108  17.314  1.2857 -0.6448 -0.0970
  399TMC3    H2 6019   3.043   3.738  17.410  1.9174 -0.0385  0.6844
  399TMC3    C7 6020   2.843   3.841  17.291 -0.2717 -0.6851 -0.4384
  399TMC3    C8 6021   3.013   3.794  17.672 -0.4817 -0.1721 -0.0608
  399TMC3    O1 6022   2.812   3.750  17.363 -0.2836 -0.2878  0.0395
  399TMC3    O2 6023   3.042   3.829   0.037 -0.1361  0.5491  0.2172
  400TMC3    C1 6024   1.865   2.818  16.704 -0.5821  0.1278 -0.6632
  400TMC3    C2 6025   1.764   2.798  16.610 -0.0659  0.2219  0.5158
  400TMC3    C3 6026   1.679   2.896  16.576 -0.8913  0.0681  0.6328
  400TMC3    C4 6027   1.876   2.933  16.771  0.3123 -0.3191  0.1622
  400TMC3    C5 6028   1.777   3.028  16.743 -0.2963  0.7709  0.7251
  400TMC3    C6 6029   1.677   3.007  16.649 -0.4145 -1.0755  0.5649
  400TMC3     C 6030   1.948   2.703  16.735  0.0194  0.3028  0.4003
  400TMC3     O 6031   1.914   2.593  16.690  0.1364  0.5817 -0.1934
  400TMC3     H 6032   1.748   2.698  16.572  0.9498 -0.2892  1.4071
  400TMC3    H1 6033   1.952   2.961  16.843  0.8539 -3.2565  0.6934
  400TMC3    H2 6034   1.611   3.090  16.626 -1.2503 -1.5701  1.1634
  400TMC3    C7 6035   1.763   3.145  16.831 -0.3190 -0.3305 -0.4986
  400TMC3    C8 6036   1.560   2.865  16.497 -0.3669 -0.0780  0.2914
  400TMC3    O1 6037   1.648   3.179  16.849 -0.1230 -0.0810  0.2616
  400TMC3    O2 6038   1.485   2.960  16.498 -0.0773  0.5172 -0.3308
  401MPD2     C 6039   0.494   1.605   0.760 -0.1414 -0.6663  0.2753
  401MPD2    C1 6040   0.589   1.505   0.768 -0.5407 -0.1698 -0.3319
  401MPD2    C2 6041   0.541   1.374   0.744 -0.3214 -0.3581 -0.2501
  401MPD2    C3 6042   0.411   1.349   0.711  0.0474  0.3252 -0.2466
  401MPD2    C4 6043   0.318   1.452   0.718  0.5362  0.0457 -0.4833
  401MPD2    C5 6044   0.365   1.579   0.743  0.5258 -0.4070 -0.3569
  401MPD2     H 6045   0.608   1.288   0.743 -0.3535 -0.3815 -0.4370
  401MPD2    H1 6046   0.212   1.432   0.708  0.1864  1.2022  0.9068
  401MPD2    H2 6047   0.518   1.710   0.768  0.6247 -0.8040 -0.2945
  401MPD2    H3 6048   0.293   1.661   0.741 -2.0386 -2.6473  0.3232
  401MPD2     N 6049   0.367   1.212   0.694 -0.0756  0.7816 -0.3291
  401MPD2    H5 6050   0.442   1.144   0.691 -0.2885  0.5138  0.3614
  401MPD2    N1 6051   0.724   1.524   0.803  0.7192 -0.0125  0.0129
  401MPD2    H7 6052   0.785   1.443   0.812  0.4601 -0.1355  0.7095
  402TMC3    C1 6053   0.225   1.032   0.658 -0.5319  0.8285 -0.5406
  402TMC3    C2 6054   0.301   0.954   0.743 -0.8306  0.3088 -0.5179
  402TMC3    C3 6055   0.303   0.818   0.725  0.1199 -0.2532  0.2220
  402TMC3    C4 6056   0.155   0.972   0.553 -0.9220  1.2396 -0.9055
  402TMC3    C5 6057   0.176   0.834   0.532 -0.9061  0.8668 -0.3076
  402TMC3    C6 6058   0.241   0.758   0.618  0.0165  0.3110 -0.0269
  402TMC3     C 6059   0.244   1.175   0.649 -0.1704  0.0798  0.0868
  402TMC3     O 6060   0.176   1.244   0.576 -0.4376 -0.4302 -0.0305
  402TMC3     H 6061   0.349   1.007   0.825 -0.3659  0.0633 -0.6312
  402TMC3    H1 6062   0.118   1.042   0.480 -1.5229  0.8182 -1.0098
  402TMC3    H2 6063   0.256   0.654   0.591 -2.5461 -0.3392  1.0577
  402TMC3    C7 6064   0.150   0.786   0.395 -0.5702  0.1529  0.6164
  402TMC3    C8 6065   0.383   0.728   0.808  0.0876 -0.0499 -0.3257
  402TMC3    O1 6066   0.069   0.850   0.328  0.7694  0.5015 -0.6988
  402TMC3    O2 6067   0.431   0.630   0.755  0.0127  0.4034 -0.4747
  403MPD2     C 6068   3.088   3.960  13.186  0.8449  0.1596  0.0685
  403MPD2    C1 6069   2.985   3.995  13.279  0.2265  0.2745  0.4868
  403MPD2    C2 6070   3.023   4.025  13.411 -0.4112  0.3753 -0.3879
  403MPD2    C3 6071   3.160   4.023  13.441 -1.1290 -0.0532 -0.5043
  403MPD2    C4 6072   3.258   4.001  13.343  0.4986  0.1354 -0.4938
  403MPD2    C5 6073   3.219   3.963  13.219 -0.0215 -0.4074 -0.1407
  403MPD2     H 6074   2.948   4.055  13.483 -0.3856  2.0121 -1.0265
  403MPD2    H1 6075   3.367   4.004  13.348  0.6242 -1.7224 -2.1952
  403MPD2    H2 6076   3.062   3.935  13.084 -1.6600 -0.3184  0.8104
  403MPD2    H3 6077   3.293   3.943  13.143  1.1440 -1.1405  1.1890
  403MPD2     N 6078   3.212   4.060  13.565  0.0229 -0.5855  0.3001
  403MPD2    H5 6079   3.293   4.006  13.597 -0.4570 -0.5882  1.4790
  403MPD2    N1 6080   2.854   3.997  13.234 -0.6630 -0.1113  0.5274
  403MPD2    H7 6081   2.843   3.995  13.133  2.2661 -2.2162  0.2611
  404TMC3    C1 6082   2.622   4.000  13.238 -0.0230 -0.4798  0.6248
  404TMC3    C2 6083   2.527   3.931  13.305  0.4038  0.0024  0.4366
  404TMC3    C3 6084   2.424   3.875  13.238  0.0050  0.2904 -0.5668
  404TMC3    C4 6085   2.621   4.003  13.103 -0.1080 -0.1286  0.1805
  404TMC3    C5 6086   2.520   3.943  13.036 -0.2086  0.2268  0.5051
  404TMC3    C6 6087   2.417   3.883  13.102 -0.2076  0.5774  0.6242
  404TMC3     C 6088   2.744   4.014  13.313 -0.4695 -0.5959  0.5483
  404TMC3     O 6089   2.740   4.019  13.434  0.1013  0.5174 -0.4016
  404TMC3     H 6090   2.537   3.919  13.413 -0.9162 -0.6696  0.4946
  404TMC3    H1 6091   2.698   4.058  13.051 -0.3093 -0.6833 -0.7072
  404TMC3    H2 6092   2.330   3.837  13.057 -0.1470  0.8918  0.1916
  404TMC3    C7 6093   2.499   3.993  12.898  0.1511  0.5851 -0.5404
  404TMC3    C8 6094   2.298   3.865  13.306  0.0186  0.5033 -0.1472
  404TMC3    O1 6095   2.560   4.097  12.872  0.2674 -0.1566 -0.2360
  404TMC3    O2 6096   2.212   3.797  13.246  0.2716 -0.1938 -0.4881
  405MPD2     C 6097   3.263   0.774  15.455  0.1453  0.6479 -0.5188
  405MPD2    C1 6098   3.333   0.685  15.374  0.5756  0.0395 -0.1793
  405MPD2    C2 6099   3.302   0.674  15.243 -0.5660  0.0436 -0.3571
  405MPD2    C3 6100   3.206   0.763  15.191  0.1640 -0.6253 -0.2699
  405MPD2    C4 6101   3.126   0.848  15.268  0.0256 -0.0208  0.3490
  405MPD2    C5 6102   3.162   0.847  15.403 -0.4732 -0.2816 -0.0476
  405MPD2     H 6103   3.341   0.598  15.176  0.7022  0.3415  0.0406
  405MPD2    H1 6104   3.037   0.902  15.240 -0.2419 -0.9672 -0.6213
  405MPD2    H2 6105   3.268   0.784  15.563 -1.3766 -0.9805 -0.3055
  405MPD2    H3 6106   3.111   0.912  15.472  0.0958 -0.1043  0.2097
  405MPD2     N 6107   3.170   0.739  15.054  0.2683  0.5476  0.2493
  405MPD2    H5 6108   3.221   0.671  14.999 -1.9053 -2.0276  1.4330
  405MPD2    N1 6109   3.420   0.593  15.429 -0.1844 -0.0503 -0.0571
  405MPD2    H7 6110   3.465   0.525  15.368  1.0908  0.3042  0.4762
  406TMC3    C1 6111   2.998   0.689  14.640  0.2333  0.9238 -0.0527
  406TMC3    C2 6112   3.023   0.557  14.641 -0.7447  0.0232 -1.0472
  406TMC3    C3 6113   3.055   0.506  14.760 -0.1916  0.0764  0.4449
  406TMC3    C4 6114   3.009   0.771  14.753 -0.3747 -0.0927 -0.4105
  406TMC3    C5 6115   3.025   0.713  14.871 -0.0608  0.1132 -0.7387
  406TMC3    C6 6116   3.053   0.580  14.872 -0.4423  0.2646 -0.0641
  406TMC3     C 6117   2.963   0.766  14.523 -0.3961  0.1896  0.1138
  406TMC3     O 6118   3.021   0.873  14.511 -0.4783  0.2388  0.4005
  406TMC3     H 6119   3.040   0.494  14.554  0.2272  0.8192 -1.4269
  406TMC3    H1 6120   2.991   0.878  14.754  0.9470  0.1302 -1.5194
  406TMC3    H2 6121   3.062   0.532  14.968 -1.4278 -2.1738 -1.1966
  406TMC3    C7 6122   3.068   0.805  14.981 -0.2162 -0.5911 -0.0300
  406TMC3    C8 6123   3.081   0.362  14.774 -0.0092 -0.0830  0.4347
  406TMC3    O1 6124   3.008   0.910  15.009 -0.1229 -0.5729  0.3102
  406TMC3    O2 6125   3.010   0.285  14.710  0.3163  0.0416 -0.0653
  407MPD2     C 6126   0.662   1.644   9.617  0.4231 -0.1955  0.4643
  407MPD2    C1 6127   0.800   1.644   9.624 -0.1849  0.0768 -0.0296
  407MPD2    C2 6128   0.868   1.698   9.729  0.1321 -0.0229  0.4783
  407MPD2    C3 6129   0.794   1.759   9.829  0.6626 -0.2118  0.1100
  407MPD2    C4 6130   0.656   1.763   9.821 -0.2129 -0.2911  0.1186
  407MPD2    C5 6131   0.594   1.699   9.721  0.5763 -0.2249  0.1854
  407MPD2     H 6132   0.976   1.697   9.723  0.1038 -1.6965  0.4398
  407MPD2    H1 6133   0.596   1.814   9.895 -1.8707 -1.9293 -0.0930
  407MPD2    H2 6134   0.604   1.620   9.528 -0.2370  1.9024  0.3283
  407MPD2    H3 6135   0.485   1.697   9.721  0.5680  0.4126  0.8239
  407MPD2     N 6136   0.861   1.822   9.937  0.1098  0.3058 -0.4304
  407MPD2    H5 6137   0.803   1.875  10.002  1.1293 -1.3233  1.8152
  407MPD2    N1 6138   0.882   1.596   9.516 -0.9513  0.0095 -0.1403
  407MPD2    H7 6139   0.983   1.593   9.527 -0.5588  0.4593 -3.5986
  408TMC3    C1 6140   0.938   1.595   9.298 -0.1324 -0.3387 -0.2297
  408TMC3    C2 6141   1.044   1.521   9.332 -0.0076  0.9687  0.5488
  408TMC3    C3 6142   1.165   1.559   9.286  0.0187  0.7749 -0.0780
  408TMC3    C4 6143   0.946   1.726   9.259  0.8639 -0.0668 -0.6377
  408TMC3    C5 6144   1.078   1.773   9.227  0.0620  0.3327  0.4622
  408TMC3    C6 6145   1.182   1.683   9.231  0.0316 -0.1875  0.5218
  408TMC3     C 6146   0.838   1.574   9.388  0.1060 -0.4543 -0.5085
  408TMC3     O 6147   0.727   1.597   9.343  0.3677  0.2324 -0.4442
  408TMC3     H 6148   1.035   1.425   9.381 -0.1321  0.8116  0.2170
  408TMC3    H1 6149   0.865   1.796   9.273  1.7684  0.4858  1.7996
  408TMC3    H2 6150   1.281   1.718   9.204 -1.8375  3.0273 -2.1916
  408TMC3    C7 6151   1.112   1.911   9.244  0.0462 -0.0630 -0.6990
  408TMC3    C8 6152   1.276   1.467   9.310 -0.1479  0.5413  0.1224
  408TMC3    O1 6153   1.224   1.943   9.272 -0.5806 -0.1640  0.0526
  408TMC3    O2 6154   1.241   1.352   9.327 -0.0495 -0.2528 -0.0803
  409MPD2     C 6155   0.480   2.309  16.953  0.3246  0.0301 -0.5562
  409MPD2    C1 6156   0.611   2.263  16.934  0.0452 -0.4027 -0.9982
  409MPD2    C2 6157   0.709   2.349  16.884  0.3617 -0.3113 -0.5379
  409MPD2    C3 6158   0.683   2.481  16.848 -0.7547  0.1646  0.7347
  409MPD2    C4 6159   0.551   2.528  16.869  0.0920  0.2538  0.0243
  409MPD2    C5 6160   0.458   2.440  16.921  0.3044 -0.2089 -0.1686
  409MPD2     H 6161   0.810   2.310  16.880  1.3228  1.9000  2.1029
  409MPD2    H1 6162   0.523   2.628  16.838 -3.2315 -0.7278 -0.0809
  409MPD2    H2 6163   0.400   2.250  16.997 -1.1528  0.1266 -3.1237
  409MPD2    H3 6164   0.355   2.469  16.939 -0.1876 -1.3019 -1.2794
  409MPD2     N 6165   0.779   2.569  16.791 -0.5517 -0.1994 -0.4526
  409MPD2    H5 6166   0.741   2.661  16.773 -0.0648  0.1197  0.2006
  409MPD2    N1 6167   0.649   2.129  16.967 -0.3882  0.3539 -0.9815
  409MPD2    H7 6168   0.749   2.118  16.967 -0.3808  0.4397 -4.1478
  410TMC3    C1 6169   0.991   2.654  16.724 -0.3649 -1.0032 -0.3168
  410TMC3    C2 6170   1.109   2.660  16.790  0.1910  0.5613 -0.4696
  410TMC3    C3 6171   1.186   2.766  16.752 -0.8229 -0.1369  0.6109
  410TMC3    C4 6172   0.938   2.736  16.636  0.6638  0.3209 -0.7834
  410TMC3    C5 6173   1.030   2.835  16.600 -0.8704 -0.2950 -0.0852
  410TMC3    C6 6174   1.149   2.856  16.656 -0.1504 -1.0620 -0.9950
  410TMC3     C 6175   0.912   2.541  16.770  0.1101  0.2262  0.2207
  410TMC3     O 6176   0.976   2.447  16.817 -0.7286 -0.2212  0.3106
  410TMC3     H 6177   1.137   2.589  16.866 -0.3397  2.9329  1.9696
  410TMC3    H1 6178   0.835   2.735  16.603  0.4487  2.5002 -0.1359
  410TMC3    H2 6179   1.229   2.915  16.612 -0.7309 -0.2700 -0.9917
  410TMC3    C7 6180   0.997   2.899  16.473  0.3529 -0.4108  0.3860
  410TMC3    C8 6181   1.326   2.768  16.792  0.2436 -0.4499  0.3729
  410TMC3    O1 6182   0.902   2.844  16.420 -0.4196  0.6592  0.5914
  410TMC3    O2 6183   1.386   2.870  16.817 -0.2614  0.1206 -0.3614
  411MPD2     C 6184   0.905   3.614  14.558 -0.1966  0.6209 -0.1855
  411MPD2    C1 6185   0.773   3.584  14.528 -0.6106 -0.1156  0.2787
  411MPD2    C2 6186   0.749   3.475  14.449 -0.1449 -0.4584 -0.9013
  411MPD2    C3 6187   0.850   3.404  14.389 -0.2744  0.0971 -0.0684
  411MPD2    C4 6188   0.982   3.434  14.425  0.9228  0.0464  0.4121
  411MPD2    C5 6189   1.009   3.549  14.499 -0.4945 -0.4584  0.3974
  411MPD2     H 6190   0.647   3.446  14.429 -0.7697  1.7906 -0.9527
  411MPD2    H1 6191   1.061   3.378  14.378  0.5413  0.8778 -1.2311
  411MPD2    H2 6192   0.939   3.694  14.622  1.4770  0.8362 -1.3440
  411MPD2    H3 6193   1.110   3.586  14.512 -1.0220  1.6253 -1.3151
  411MPD2     N 6194   0.826   3.293  14.305 -0.3099 -0.5211 -0.2690
  411MPD2    H5 6195   0.908   3.241  14.276 -0.3320 -1.9911  2.2633
  411MPD2    N1 6196   0.659   3.647  14.583  0.4393  0.1141 -0.1478
  411MPD2    H7 6197   0.567   3.621  14.549  0.1850 -0.1248  0.7396
  412TMC3    C1 6198   0.719   3.130  14.183  0.3384 -0.3997  0.5399
  412TMC3    C2 6199   0.688   3.020  14.256 -0.3252 -1.2036 -0.7213
  412TMC3    C3 6200   0.709   2.901  14.200  0.0395  0.1170 -0.8550
  412TMC3    C4 6201   0.781   3.128  14.062  0.2055  0.0221 -0.2959
  412TMC3    C5 6202   0.795   3.007  14.006 -0.5287 -0.0340  0.5348
  412TMC3    C6 6203   0.766   2.896  14.073 -0.3396  0.1102 -0.0273
  412TMC3     C 6204   0.709   3.259  14.244  0.0776 -0.2626 -0.1442
  412TMC3     O 6205   0.594   3.308  14.254 -0.0462  0.5125 -1.0080
  412TMC3     H 6206   0.637   3.046  14.348 -0.8061 -2.6894 -0.5816
  412TMC3    H1 6207   0.788   3.221  14.007  0.9383  0.8519  1.1948
  412TMC3    H2 6208   0.774   2.801  14.020 -0.6932 -0.5527  1.1208
  412TMC3    C7 6209   0.736   3.005  13.871  0.0414  0.1590  0.1440
  412TMC3    C8 6210   0.588   2.818  14.202  0.1206 -0.3837 -0.1833
  412TMC3    O1 6211   0.633   2.932  13.863 -0.3269 -0.0113  0.4986
  412TMC3    O2 6212   0.560   2.766  14.307  0.7846  0.3009  0.3403
  413MPD2     C 6213   2.142   1.542  16.073 -0.5445 -0.0793  0.1257
  413MPD2    C1 6214   2.137   1.544  15.935  0.0201  0.1683  0.2559
  413MPD2    C2 6215   2.247   1.502  15.869  0.4012 -0.0190  0.1177
  413MPD2    C3 6216   2.362   1.466  15.940 -1.0729 -0.2020  1.1728
  413MPD2    C4 6217   2.362   1.458  16.073 -0.2663 -0.1181 -0.5962
  413MPD2    C5 6218   2.253   1.505  16.139 -0.1042  0.0425 -0.6270
  413MPD2     H 6219   2.252   1.490  15.761 -0.3815 -1.7620  0.2837
  413MPD2    H1 6220   2.443   1.425  16.137 -2.0005 -3.2492 -0.0626
  413MPD2    H2 6221   2.054   1.566  16.131 -0.3416  1.6923 -0.2807
  413MPD2    H3 6222   2.247   1.509  16.247 -0.7581  1.6151 -0.7276
  413MPD2     N 6223   2.475   1.438  15.864  0.2297 -0.7349  0.5299
  413MPD2    H5 6224   2.464   1.454  15.764  1.7514 -0.3284  0.4209
  413MPD2    N1 6225   2.016   1.575  15.869  0.3879 -0.5609 -0.0603
  413MPD2    H7 6226   1.935   1.592  15.929 -0.3567 -1.2471 -0.8815
  414TMC3    C1 6227   2.675   1.382  15.795 -0.2970 -0.7606 -0.6286
  414TMC3    C2 6228   2.737   1.262  15.790 -0.1253 -0.7100  0.0093
  414TMC3    C3 6229   2.730   1.197  15.671  0.4957  0.5063 -0.7675
  414TMC3    C4 6230   2.628   1.447  15.683  0.4593  0.1458  0.1764
  414TMC3    C5 6231   2.632   1.382  15.561 -0.2925 -0.8374 -0.2299
  414TMC3    C6 6232   2.684   1.260  15.560 -0.6034 -0.0169 -0.1892
  414TMC3     C 6233   2.599   1.404  15.909  0.8810  0.2620 -0.3995
  414TMC3     O 6234   2.632   1.365  16.022  0.1926  0.4118 -0.6768
  414TMC3     H 6235   2.762   1.212  15.883 -0.2746 -1.3167 -0.2779
  414TMC3    H1 6236   2.577   1.543  15.685 -0.8378 -0.4880 -1.9706
  414TMC3    H2 6237   2.685   1.200  15.469 -0.0891  1.4747 -1.1639
  414TMC3    C7 6238   2.525   1.418  15.463  0.3990  0.3780  0.6126
  414TMC3    C8 6239   2.806   1.069  15.649 -0.4636  0.4722 -0.5119
  414TMC3    O1 6240   2.436   1.484  15.513  0.6363  0.1482  0.0896
  414TMC3    O2 6241   2.792   1.011  15.539 -0.5103  0.4333 -0.2599
  415TMC3    C1 6242   2.596   4.559  10.946 -0.0776 -0.1780 -0.0370
  415TMC3    C2 6243   2.584   4.674  10.874  0.5834  0.2263 -0.3886
  415TMC3    C3 6244   2.594   4.665  10.737 -0.3669  0.2426  0.5667
  415TMC3    C4 6245   2.606   4.448  10.880  0.2804 -0.3143 -0.0577
  415TMC3    C5 6246   2.609   4.444  10.741  0.7105 -0.1127  0.2129
  415TMC3    C6 6247   2.613   4.556  10.667 -0.3961 -0.4262  0.3956
  415TMC3     C 6248   2.563   4.560  11.086 -0.2629  0.6969 -0.4093
  415TMC3     O 6249   2.522   4.668  11.130  0.3983  0.1698  0.8458
  415TMC3     H 6250   2.537   0.022  10.920  0.3811 -0.3009  0.3896
  415TMC3    H1 6251   2.613   4.354  10.933 -2.7739 -1.2105 -1.1944
  415TMC3    H2 6252   2.618   4.556  10.559 -1.7511  1.9376  0.3164
  415TMC3    C7 6253   2.594   4.321  10.664  0.2775  0.1170 -0.3580
  415TMC3    C8 6254   2.624   0.057  10.675  1.0606 -0.8485 -0.1657
  415TMC3    O1 6255   2.576   4.330  10.543 -0.0780  0.1396 -0.0451
  415TMC3    O2 6256   2.564   0.157  10.722 -0.2160 -0.3393 -0.1877
  416MPD2     C 6257   0.266   2.995  11.161 -0.3412  0.4042  0.3220
  416MPD2    C1 6258   0.166   2.933  11.237  0.8020  0.2036  0.0112
  416MPD2    C2 6259   0.120   2.810  11.189  0.2471  0.6281  0.5571
  416MPD2    C3 6260   0.169   2.758  11.072  0.0854 -0.0692  0.0779
  416MPD2    C4 6261   0.271   2.819  10.997  0.4807 -0.1735 -0.3881
  416MPD2    C5 6262   0.315   2.935  11.050  0.7286 -1.1168 -0.7448
  416MPD2     H 6263   0.050   2.748  11.245 -0.8176  0.4735 -0.9458
  416MPD2    H1 6264   0.307   2.783  10.901  0.5963  0.0519 -0.4298
  416MPD2    H2 6265   0.288   3.096  11.191 -1.1687  1.2530 -1.8981
  416MPD2    H3 6266   0.388   2.987  10.989  0.6841  2.0833  1.8996
  416MPD2     N 6267   0.123   2.632  11.042  0.0934 -0.3824  0.2536
  416MPD2    H5 6268   0.068   2.586  11.113  0.3079 -1.0578 -0.0132
  416MPD2    N1 6269   0.111   3.001  11.350 -0.3842  0.5554 -0.0575
  416MPD2    H7 6270   0.147   3.094  11.371  0.5965 -0.3754  2.3933
  417TMC3    C1 6271   4.699   3.050  11.519  0.1400  1.1763  0.1509
  417TMC3    C2 6272   4.644   3.009  11.636  0.4539  0.3123 -0.0199
  417TMC3    C3 6273   4.565   3.102  11.703 -0.1306  0.0633  0.2994
  417TMC3    C4 6274   4.664   3.164  11.455 -0.5272  0.3747 -0.5207
  417TMC3    C5 6275   4.579   3.245  11.524  0.4888  0.2422 -0.6156
  417TMC3    C6 6276   4.528   3.217  11.644 -0.9655  0.1077 -0.0911
  417TMC3     C 6277   0.027   2.948  11.442  0.1064  0.2966 -0.5183
  417TMC3     O 6278   4.710   2.843  11.450 -0.3226  0.1343  1.1748
  417TMC3     H 6279   4.683   2.921  11.686 -3.1335 -1.3936 -0.1958
  417TMC3    H1 6280   4.694   3.197  11.356  0.0252 -1.2756 -0.8971
  417TMC3    H2 6281   4.465   3.289  11.695  1.2483  1.7649  0.3348
  417TMC3    C7 6282   4.499   3.335  11.440  0.8222  0.3684  0.8680
  417TMC3    C8 6283   4.537   3.094  11.851 -0.1814  0.1095  0.0696
  417TMC3    O1 6284   4.547   3.439  11.399 -0.1540  0.5154 -0.7375
  417TMC3    O2 6285   4.509   3.199  11.902 -0.1498  0.6972 -0.3988
  418TMC3    C1 6286   3.405   0.086   0.454  0.1209 -0.5478  0.6846
  418TMC3    C2 6287   3.277   0.097   0.419  0.0394 -0.0499  0.4057
  418TMC3    C3 6288   3.210   4.710   0.404  0.6745  0.3348  0.5025
  418TMC3    C4 6289   3.456   4.707   0.503 -0.7910 -0.2185  0.7333
  418TMC3    C5 6290   3.383   4.591   0.495  0.2056  0.2713 -0.7293
  418TMC3    C6 6291   3.262   4.590   0.437  0.3213  0.3963  0.2319
  418TMC3     C 6292   3.511   0.168   0.402  0.3179  1.1043  0.1038
  418TMC3     O 6293   3.474   0.282   0.390  0.0952 -0.2154 -0.5380
  418TMC3     H 6294   3.239   0.192   0.381  0.5113 -0.0847 -0.1510
  418TMC3    H1 6295   3.548   4.732   0.555 -2.1910  2.8625  1.7610
  418TMC3    H2 6296   3.201   4.501   0.432  0.6973  0.2346 -1.4892
  418TMC3    C7 6297   3.451   4.463   0.521 -0.3726 -1.0773 -0.9410
  418TMC3    C8 6298   3.114   4.714   0.298 -0.6713 -0.4523  0.4725
  418TMC3    O1 6299   3.387   4.364   0.494  0.0369 -0.1359  0.0630
  418TMC3    O2 6300   3.067   0.088   0.276 -0.3393  0.3803 -0.3564
  419MPD2     C 6301   1.799   2.762  12.736  0.9062 -0.1009  0.3820
  419MPD2    C1 6302   1.731   2.860  12.662  0.0654 -0.5491  0.7778
  419MPD2    C2 6303   1.702   2.978  12.721 -0.5257  0.1571  0.7541
  419MPD2    C3 6304   1.755   3.011  12.845  0.1480 -0.1091 -0.1883
  419MPD2    C4 6305   1.813   2.911  12.921 -0.5303 -0.4523 -0.0858
  419MPD2    C5 6306   1.830   2.790  12.861 -0.0461  0.3514  0.0708
  419MPD2     H 6307   1.655   3.059  12.666  1.0526  0.0210 -0.8014
  419MPD2    H1 6308   1.846   2.918  13.024  2.1879 -0.1293 -0.9959
  419MPD2    H2 6309   1.835   2.667  12.698  0.4955 -0.0659 -0.0834
  419MPD2    H3 6310   1.882   2.711  12.915  1.1368 -1.0736 -3.1759
  419MPD2     N 6311   1.749   3.134  12.915 -0.1397 -0.5609 -0.1082
  419MPD2    H5 6312   1.788   3.140  13.009 -1.9454 -0.1645  0.6259
  419MPD2    N1 6313   1.693   2.846  12.527 -0.1993 -0.1465  0.2121
  419MPD2    H7 6314   1.665   2.932  12.481  3.6615  0.8812 -0.2636
  420TMC3    C1 6315   1.675   3.357  12.961 -0.4472  0.2441  0.1185
  420TMC3    C2 6316   1.640   3.473  12.917  0.4886 -0.0878  0.2554
  420TMC3    C3 6317   1.656   3.576  13.000 -0.4186 -0.2670  0.4999
  420TMC3    C4 6318   1.719   3.333  13.089  0.1674 -0.2858  0.4169
  420TMC3    C5 6319   1.740   3.440  13.172 -0.2788  0.5338  0.6983
  420TMC3    C6 6320   1.706   3.565  13.131  0.4518 -0.2817 -0.3824
  420TMC3     C 6321   1.673   3.243  12.876  0.3867 -0.4221 -0.6069
  420TMC3     O 6322   1.603   3.256  12.776 -0.7492  0.4378  0.1606
  420TMC3     H 6323   1.612   3.489  12.813  0.9142  1.1865  0.3298
  420TMC3    H1 6324   1.721   3.235  13.134  0.1246 -0.2262  0.5495
  420TMC3    H2 6325   1.709   3.649  13.200  0.6235 -1.0525  0.5446
  420TMC3    C7 6326   1.805   3.415  13.296  0.1713  0.0322 -0.2435
  420TMC3    C8 6327   1.573   3.693  12.982 -0.6827 -0.5362 -0.0047
  420TMC3    O1 6328   1.828   3.301  13.328  0.3510 -0.2011 -0.2156
  420TMC3    O2 6329   1.572   3.725  12.861 -0.5375  0.3798 -0.0912
  421TMC3    C1 6330   3.219   4.147  13.784 -0.4441 -0.0889 -0.1170
  421TMC3    C2 6331   3.202   4.269  13.844  0.2975 -0.1097 -0.1139
  421TMC3    C3 6332   3.306   4.299  13.932 -1.1879  0.4211 -0.2332
  421TMC3    C4 6333   3.313   4.051  13.818 -0.7286  0.1794 -0.2561
  421TMC3    C5 6334   3.402   4.079  13.911 -1.0037 -0.1215  0.2832
  421TMC3    C6 6335   3.406   4.204  13.962 -0.2171 -0.1015 -0.3263
  421TMC3     C 6336   3.155   4.141  13.653  0.4224 -0.4270  0.3667
  421TMC3     O 6337   3.062   4.220  13.633  0.1763  0.3636 -0.2252
  421TMC3     H 6338   3.115   4.328  13.818  0.0412 -0.4666 -0.0657
  421TMC3    H1 6339   3.292   3.955  13.772  0.6653  0.4283 -1.4143
  421TMC3    H2 6340   3.491   4.241  14.019 -0.4223  0.1725 -0.1941
  421TMC3    C7 6341   3.517   3.997  13.935  0.8398  0.1201 -0.7975
  421TMC3    C8 6342   3.314   4.433  13.988 -0.0429  0.4535  0.8105
  421TMC3    O1 6343   3.613   4.054  13.977  0.5174  0.3154 -0.7687
  421TMC3    O2 6344   3.401   4.467  14.062  0.3027  0.3283 -0.2596
  422TMC3    C1 6345   0.807   1.558  13.005  0.2974 -0.5821  0.2774
  422TMC3    C2 6346   0.824   1.678  12.945 -0.0556  1.1013  0.0538
  422TMC3    C3 6347   0.704   1.739  12.911  0.1583  0.4978  0.6742
  422TMC3    C4 6348   0.689   1.487  13.024 -0.0774 -0.3304  0.1532
  422TMC3    C5 6349   0.576   1.543  12.983  0.2394 -0.0554  0.0141
  422TMC3    C6 6350   0.583   1.670  12.917 -0.8553  0.5849 -0.1050
  422TMC3     C 6351   0.925   1.478  12.993 -0.6267  1.0011 -0.2238
  422TMC3     O 6352   1.032   1.531  12.979  0.2998 -0.0729 -0.4356
  422TMC3     H 6353   0.919   1.725  12.923  0.9713 -0.3214  1.4903
  422TMC3    H1 6354   0.687   1.400  13.088  1.1750 -0.4298  0.0601
  422TMC3    H2 6355   0.497   1.724  12.881 -0.0849  1.5609 -0.4799
  422TMC3    C7 6356   0.450   1.462  12.978 -0.1275 -0.0069  0.4184
  422TMC3    C8 6357   0.724   1.839  12.808  0.1740  0.4131  0.5170
  422TMC3    O1 6358   0.458   1.342  12.998  0.3471 -0.2354  0.5461
  422TMC3    O2 6359   0.803   1.933  12.837  0.4907  0.6809 -0.0949
  423MPD2     C 6360   2.405   1.995   0.438  0.1581 -0.4913  0.3751
  423MPD2    C1 6361   2.471   1.871   0.447 -0.3042  0.3895 -0.3216
  423MPD2    C2 6362   2.455   1.778   0.347  0.3320 -0.7454 -0.1055
  423MPD2    C3 6363   2.399   1.820   0.227  0.6624  0.5483  0.2460
  423MPD2    C4 6364   2.347   1.945   0.205  0.0481  0.0230  0.1733
  423MPD2    C5 6365   2.349   2.031   0.312  0.2473  0.8026  0.4120
  423MPD2     H 6366   2.493   1.677   0.359  1.2513 -0.2435  1.2214
  423MPD2    H1 6367   2.303   1.980   0.113  0.6130  1.6424  0.5253
  423MPD2    H2 6368   2.418   2.074   0.510  2.6078  1.1061 -1.7910
  423MPD2    H3 6369   2.299   2.127   0.304 -1.2566  0.1233  1.6597
  423MPD2     N 6370   2.382   1.739   0.112 -0.2662  0.0715 -0.3494
  423MPD2    H5 6371   2.348   1.783   0.027 -1.7431  2.7424  1.6015
  423MPD2    N1 6372   2.547   1.832   0.559  0.5754 -0.7073 -0.1990
  423MPD2    H7 6373   2.595   1.743   0.555 -2.0777 -2.1363 -0.6542
  424TMC3    C1 6374   2.620   1.809   0.775 -0.5704 -0.2800  0.3874
  424TMC3    C2 6375   2.747   1.759   0.765  0.3526  0.1646 -0.2217
  424TMC3    C3 6376   2.817   1.711   0.874  1.7338  0.6791 -0.0960
  424TMC3    C4 6377   2.557   1.797   0.897  0.0721  0.1150  0.2222
  424TMC3    C5 6378   2.620   1.734   0.998 -0.6602  0.0616  0.0715
  424TMC3    C6 6379   2.749   1.705   0.993  0.2610 -0.0844 -0.8317
  424TMC3     C 6380   2.551   1.893   0.676  0.0231  0.6351  0.0909
  424TMC3     O 6381   2.474   1.982   0.711 -0.3019 -0.0108  0.4551
  424TMC3     H 6382   2.799   1.773   0.671 -0.2006  0.5993 -0.4618
  424TMC3    H1 6383   2.454   1.831   0.904 -0.2918 -0.8546 -0.3939
  424TMC3    H2 6384   2.782   1.629   1.063 -1.5855  0.7130  0.9212
  424TMC3    C7 6385   2.556   1.728   1.129 -0.8032  0.9814 -0.0004
  424TMC3    C8 6386   2.935   1.633   0.850  0.0451 -0.3365  0.5337
  424TMC3    O1 6387   2.621   1.733   1.237 -0.0121  0.0144 -0.2034
  424TMC3    O2 6388   2.963   1.603   0.735  0.4829  0.4023  0.2069
  425MPD2     C 6389   1.443   1.631  17.373 -1.2990 -0.2438  0.1263
  425MPD2    C1 6390   1.360   1.556  17.285 -1.2474  0.2024 -0.0252
  425MPD2    C2 6391   1.222   1.549  17.307  0.1080 -0.4769  0.6642
  425MPD2    C3 6392   1.173   1.592  17.422 -0.1767 -0.1844  0.3511
  425MPD2    C4 6393   1.252   1.670  17.501 -0.0857 -0.0860 -0.2575
  425MPD2    C5 6394   1.385   1.699  17.476 -0.4822 -0.0698  0.1774
  425MPD2     H 6395   1.157   1.495  17.239 -0.8028  0.8685  0.4465
  425MPD2    H1 6396   1.222   1.706  17.598 -0.3794 -0.3711 -0.2402
  425MPD2    H2 6397   1.550   1.632  17.355 -1.4096 -0.8060 -0.5728
  425MPD2    H3 6398   1.443   1.758  17.547  0.8065  0.0494 -0.9826
  425MPD2     N 6399   1.036   1.576  17.462 -0.0423 -0.0734 -0.4814
  425MPD2    H5 6400   1.002   1.603  17.554 -3.1612 -1.2170 -1.2684
  425MPD2    N1 6401   1.429   1.485  17.175 -0.4583  0.1106  0.1398
  425MPD2    H7 6402   1.529   1.493  17.162 -0.3103  1.5424  2.2643
  426TMC3    C1 6403   1.443   1.339  16.991 -0.2646 -0.8727  0.6471
  426TMC3    C2 6404   1.392   1.304  16.868 -0.5232 -0.0951  1.3214
  426TMC3    C3 6405   1.472   1.217  16.793  0.0456  0.2765 -0.5222
  426TMC3    C4 6406   1.557   1.279  17.039 -0.1803 -0.2452  0.2027
  426TMC3    C5 6407   1.624   1.190  16.962 -0.6260 -0.0002  0.7168
  426TMC3    C6 6408   1.590   1.164  16.837 -0.2364 -0.5399 -0.1236
  426TMC3     C 6409   1.360   1.416  17.083 -0.7708 -0.6149  0.4541
  426TMC3     O 6410   1.241   1.413  17.063  0.0588 -0.2021 -0.5062
  426TMC3     H 6411   1.297   1.337  16.828 -0.3749  1.1981  2.0363
  426TMC3    H1 6412   1.582   1.299  17.143  0.7642  1.5937 -0.3900
  426TMC3    H2 6413   1.630   1.080  16.782  0.1181 -0.4884  0.0619
  426TMC3    C7 6414   1.634   1.056  17.024 -1.7059  0.4768 -0.2715
  426TMC3    C8 6415   1.422   1.155  16.674 -0.2935  0.2335  0.0254
  426TMC3    O1 6416   1.712   0.979  16.971 -0.5993  0.3499 -0.3844
  426TMC3    O2 6417   1.498   1.115  16.589 -0.5707 -0.9071  0.1099
  427MPD2     C 6418   4.733   3.312  14.742 -0.1633 -0.2605 -0.2080
  427MPD2    C1 6419   4.703   3.283  14.873  0.3782 -0.0795  0.0519
  427MPD2    C2 6420   4.568   3.272  14.912  0.0182 -0.4928  0.9209
  427MPD2    C3 6421   4.462   3.290  14.823  0.5416  0.6820  0.8124
  427MPD2    C4 6422   4.491   3.304  14.692 -0.2965  0.1534 -1.0263
  427MPD2    C5 6423   4.623   3.323  14.655 -0.1696  0.2160  0.1154
  427MPD2     H 6424   4.549   3.234  15.012 -1.0370 -0.2338  0.8206
  427MPD2    H1 6425   4.409   3.325  14.624 -0.3596 -0.3809 -1.1165
  427MPD2    H2 6426   0.092   3.318  14.695 -0.6181  0.3804 -1.0655
  427MPD2    H3 6427   4.654   3.339  14.552 -0.1352  0.0563  0.1012
  427MPD2     N 6428   4.326   3.305  14.862 -0.1994  0.0197 -0.7323
  427MPD2    H5 6429   4.261   3.296  14.784 -0.1437 -4.2217 -0.3088
  427MPD2    N1 6430   0.065   3.243  14.960 -0.5713  0.4306 -0.0897
  427MPD2    H7 6431   0.044   3.198  15.049  0.6968 -1.2813 -0.6580
  428TMC3    C1 6432   0.287   3.196  15.038 -0.0116 -0.4822  0.5592
  428TMC3    C2 6433   0.255   3.079  15.110  0.0926  0.7759  0.3922
  428TMC3    C3 6434   0.350   3.006  15.166  0.0902  0.8402 -0.4481
  428TMC3    C4 6435   0.421   3.240  15.031 -0.2533 -0.3151  0.3989
  428TMC3    C5 6436   0.508   3.151  15.089  0.5896  0.3167 -0.8674
  428TMC3    C6 6437   0.481   3.035  15.156 -0.5581 -0.6483 -0.9586
  428TMC3     C 6438   0.200   3.248  14.933 -0.3762 -0.9276  0.5081
  428TMC3     O 6439   0.257   3.300  14.840  0.1378  0.6552  0.0803
  428TMC3     H 6440   0.159   3.031  15.095  0.6818 -0.7670  1.4992
  428TMC3    H1 6441   0.442   3.339  14.991  0.3691  0.1288  1.8320
  428TMC3    H2 6442   0.558   2.967  15.190 -1.4562 -0.6850  1.0036
  428TMC3    C7 6443   0.600   3.223  15.178 -0.2823 -0.8773 -0.1536
  428TMC3    C8 6444   0.311   2.930  15.284 -0.3756 -0.5144  0.2311
  428TMC3    O1 6445   0.603   3.180  15.294 -0.1429 -0.2768  0.2058
  428TMC3    O2 6446   0.212   2.860  15.276 -0.5642 -0.3648  0.2339
  429MPD2     C 6447   0.862   3.048  17.456 -0.3478  0.2068 -0.3777
  429MPD2    C1 6448   0.998   3.013  17.447  0.4672 -0.5950 -0.2631
  429MPD2    C2 6449   1.090   3.109  17.403 -0.8653  0.1308  0.1661
  429MPD2    C3 6450   1.050   3.243  17.389  0.0284  0.0004  0.2041
  429MPD2    C4 6451   0.916   3.275  17.408  0.2705  0.1284  0.3758
  429MPD2    C5 6452   0.828   3.176  17.434  0.2345 -0.2315 -0.9943
  429MPD2     H 6453   1.193   3.082  17.382 -0.7244 -0.5582  1.7405
  429MPD2    H1 6454   0.875   3.375  17.420 -2.1074 -0.6177 -1.3265
  429MPD2    H2 6455   0.784   2.975  17.469  0.3366 -0.8959 -2.4179
  429MPD2    H3 6456   0.723   3.204  17.434 -0.0190 -1.1906  0.4224
  429MPD2     N 6457   1.156   3.335  17.353  0.7502 -0.0717  0.0908
  429MPD2    H5 6458   1.248   3.296  17.337  1.4911  2.3036 -1.4699
  429MPD2    N1 6459   1.045   2.882  17.486  0.0350 -0.5109  0.0803
  429MPD2    H7 6460   1.144   2.871  17.469  0.1233  1.5947 -0.7221
  430TMC3    C1 6461   1.241   3.562  17.294 -0.3271  1.0605 -0.7426
  430TMC3    C2 6462   1.216   3.680  17.229 -0.2087 -0.6327 -0.3056
  430TMC3    C3 6463   1.325   3.737  17.156  0.0918  0.2011 -0.0518
  430TMC3    C4 6464   1.365   3.507  17.302  0.3134  0.1750  0.3418
  430TMC3    C5 6465   1.463   3.564  17.222 -0.7429 -0.3099  0.2487
  430TMC3    C6 6466   1.444   3.681  17.153  0.1326 -0.6976  0.4834
  430TMC3     C 6467   1.127   3.471  17.326 -0.3332 -0.4070  0.5314
  430TMC3     O 6468   1.021   3.524  17.295 -0.1061 -1.0216 -0.0937
  430TMC3     H 6469   1.114   3.715  17.243  0.2554  1.6809 -2.6804
  430TMC3    H1 6470   1.377   3.414  17.357 -2.9398 -0.3723  0.1467
  430TMC3    H2 6471   1.520   3.715  17.085 -0.5451 -0.7946 -0.3160
  430TMC3    C7 6472   1.564   3.482  17.165  0.2676  0.2109 -0.1647
  430TMC3    C8 6473   1.280   3.801  17.031  0.2152  0.3856  0.0969
  430TMC3    O1 6474   1.549   3.360  17.159  0.1925 -0.4962  0.5626
  430TMC3    O2 6475   1.365   3.825  16.945 -0.1244 -0.5310 -0.4257
  431MPD2     C 6476   1.499   3.465  12.258  0.8253  0.9589  0.7133
  431MPD2    C1 6477   1.600   3.388  12.190  0.3683 -0.2866  0.3048
  431MPD2    C2 6478   1.568   3.259  12.158  0.2765  0.0827 -0.0089
  431MPD2    C3 6479   1.449   3.197  12.197 -0.3290  0.1389 -0.3406
  431MPD2    C4 6480   1.353   3.278  12.250 -0.0922 -0.0743  0.4922
  431MPD2    C5 6481   1.381   3.401  12.288 -0.2174  0.3760 -0.6499
  431MPD2     H 6482   1.657   3.213  12.115 -0.0642  1.4494 -2.1735
  431MPD2    H1 6483   1.264   3.228  12.286 -1.1477 -0.3340 -2.4627
  431MPD2    H2 6484   1.523   3.559  12.308 -0.1716  0.8860  1.3361
  431MPD2    H3 6485   1.297   3.455  12.332 -0.5595 -1.9535  1.5342
  431MPD2     N 6486   1.427   3.062  12.177 -0.5271  0.1891 -0.0259
  431MPD2    H5 6487   1.346   3.013  12.215 -1.5415  0.5148 -1.7649
  431MPD2    N1 6488   1.734   3.437  12.169  0.1053  0.0298 -0.3932
  431MPD2    H7 6489   1.798   3.374  12.122  0.8014  0.9803 -0.7054
  432TMC3    C1 6490   1.511   2.842  12.149 -0.4263  0.1997 -0.5235
  432TMC3    C2 6491   1.567   2.751  12.058  0.0464 -0.3195  0.1892
  432TMC3    C3 6492   1.675   2.680  12.083  0.3885  0.4047 -0.5248
  432TMC3    C4 6493   1.545   2.827  12.281 -0.0427  0.0381  0.5227
  432TMC3    C5 6494   1.655   2.747  12.313 -0.7407  0.1279  0.6036
  432TMC3    C6 6495   1.713   2.671  12.216 -0.4178 -0.4509  0.1327
  432TMC3     C 6496   1.515   2.979  12.108  0.8773 -0.2907 -0.2964
  432TMC3     O 6497   1.609   3.011  12.034 -0.1650 -0.1301  0.5416
  432TMC3     H 6498   1.528   2.749  11.957 -2.8497  0.6401  1.2860
  432TMC3    H1 6499   1.487   2.883  12.353 -0.1719  0.3758  0.1558
  432TMC3    H2 6500   1.788   2.602  12.253  2.1924  0.1450 -4.0717
  432TMC3    C7 6501   1.709   2.731  12.454 -0.2411  0.2020  0.0309
  432TMC3    C8 6502   1.746   2.616  11.974 -0.6632 -1.0519 -0.1687
  432TMC3    O1 6503   1.736   2.614  12.483  0.2487  0.8484  0.0817
  432TMC3    O2 6504   1.680   2.570  11.878 -0.5139  0.2625 -0.0122
  433MPD2     C 6505   0.506   1.852  11.033  0.0332 -0.1584 -0.2537
  433MPD2    C1 6506   0.643   1.871  11.012 -0.1776  0.3534  0.2041
  433MPD2    C2 6507   0.705   1.966  11.083 -0.1835 -0.3696  0.4176
  433MPD2    C3 6508   0.644   2.042  11.176 -0.0128  0.2111  0.2412
  433MPD2    C4 6509   0.509   2.016  11.203 -0.1015  1.0268 -0.2922
  433MPD2    C5 6510   0.438   1.926  11.124  0.3835  0.5826 -0.4706
  433MPD2     H 6511   0.810   1.985  11.067 -0.2701 -1.4339 -1.3586
  433MPD2    H1 6512   0.453   2.073  11.277 -1.1882 -1.0167  0.4608
  433MPD2    H2 6513   0.446   1.774  10.988  1.4264 -0.2414 -1.9531
  433MPD2    H3 6514   0.337   1.905  11.157  0.5172 -0.0381 -0.4532
  433MPD2     N 6515   0.720   2.139  11.248  0.1547  0.0706 -0.8029
  433MPD2    H5 6516   0.821   2.138  11.235  0.4372 -1.4536  1.4289
  433MPD2    N1 6517   0.714   1.790  10.921  0.0868  0.0016  0.3103
  433MPD2    H7 6518   0.664   1.710  10.883 -2.2023  2.1072 -1.1405
  434TMC3    C1 6519   0.898   1.728  10.790 -0.1586  0.3795 -0.6418
  434TMC3    C2 6520   0.953   1.647  10.891  0.1582  0.7948  0.4087
  434TMC3    C3 6521   1.062   1.572  10.858  0.0481  0.8086 -0.0305
  434TMC3    C4 6522   0.960   1.742  10.672  0.6226 -0.1961 -0.1387
  434TMC3    C5 6523   1.055   1.645  10.638  0.2533 -0.3827 -0.1131
  434TMC3    C6 6524   1.110   1.565  10.732 -0.4552  0.3195  0.0878
  434TMC3     C 6525   0.816   1.837  10.840  0.1001  0.5819 -0.4890
  434TMC3     O 6526   0.823   1.950  10.794  0.2165  0.3669 -0.0712
  434TMC3     H 6527   0.915   1.660  10.991  0.1501 -2.1649  0.7821
  434TMC3    H1 6528   0.913   1.810  10.601 -0.4533  1.6579  2.3420
  434TMC3    H2 6529   1.199   1.514  10.697 -0.7294  0.6308 -1.0861
  434TMC3    C7 6530   1.030   1.593  10.505 -1.2127  0.0934 -0.1918
  434TMC3    C8 6531   1.136   1.517  10.966  0.7905 -0.0432 -0.5685
  434TMC3    O1 6532   0.989   1.671  10.421 -0.2731  0.8203 -0.1217
  434TMC3    O2 6533   1.107   1.572  11.072 -0.1097  0.1212 -0.7236
  435MPD2     C 6534   3.024   2.186  15.586 -0.5971  0.2386  0.1061
  435MPD2    C1 6535   2.998   2.061  15.636  0.1693  0.3394 -0.5832
  435MPD2    C2 6536   3.088   2.005  15.722 -0.6103  0.3586  0.0422
  435MPD2    C3 6537   3.201   2.066  15.767 -0.3183 -0.5193 -1.0546
  435MPD2    C4 6538   3.225   2.186  15.714  0.1269  0.0620  0.5919
  435MPD2    C5 6539   3.139   2.247  15.624 -0.6378  0.0381  0.3184
  435MPD2     H 6540   3.070   1.909  15.767  2.7793  0.5674  1.8255
  435MPD2    H1 6541   3.318   2.236  15.740  0.2182  0.7392 -1.0546
  435MPD2    H2 6542   2.965   2.245  15.516 -0.6649 -0.3568 -0.3333
  435MPD2    H3 6543   3.158   2.348  15.589  1.2615 -0.4595 -0.0909
  435MPD2     N 6544   3.282   2.005  15.863 -0.7311 -0.3121 -0.2371
  435MPD2    H5 6545   3.261   1.909  15.890 -0.6493  0.2903  1.9279
  435MPD2    N1 6546   2.883   1.990  15.623  0.2502  0.2162  0.2019
  435MPD2    H7 6547   2.864   1.919  15.693  1.2240  0.3310  0.5819
  436TMC3    C1 6548   2.527   1.828  15.708  0.2259  0.3557  0.5258
  436TMC3    C2 6549   2.650   1.875  15.679  0.2736  0.4262 -0.0060
  436TMC3    C3 6550   2.660   1.951  15.563  0.0041 -0.1655  0.3472
  436TMC3    C4 6551   2.410   1.849  15.644  0.2127 -0.2100  0.7366
  436TMC3    C5 6552   2.422   1.938  15.535 -0.0061 -0.6112 -0.0465
  436TMC3    C6 6553   2.544   1.989  15.504  0.1986 -0.0630 -0.5753
  436TMC3     C 6554   2.522   1.808  15.846 -0.2934  1.0980 -0.4788
  436TMC3     O 6555   2.612   1.746  15.898 -0.2817  0.5688 -0.0256
  436TMC3     H 6556   2.735   1.836  15.733 -0.8094  0.6169  1.8398
  436TMC3    H1 6557   2.317   1.814  15.688  0.9636 -0.0343  2.4856
  436TMC3    H2 6558   2.547   2.063  15.424 -2.9105 -0.5633 -1.1239
  436TMC3    C7 6559   2.315   1.969  15.445  0.2439  0.4071 -0.5884
  436TMC3    C8 6560   2.780   2.028  15.542 -0.0139 -0.7047  0.7092
  436TMC3    O1 6561   2.342   2.040  15.347  0.1350  0.9113 -0.6419
  436TMC3    O2 6562   2.766   2.122  15.470 -0.0049  0.4264  0.3041
  437TMC3    C1 6563   0.940   3.850  12.223  0.5893 -0.5339 -0.6246
  437TMC3    C2 6564   0.900   3.802  12.100 -0.2879 -0.0772 -0.7264
  437TMC3    C3 6565   0.967   3.845  11.989  0.9066 -0.0287 -0.7540
  437TMC3    C4 6566   1.047   3.933  12.244 -0.0858  0.0999 -1.0219
  437TMC3    C5 6567   1.114   3.968  12.125 -0.7462  0.4678  0.0386
  437TMC3    C6 6568   1.070   3.928  12.005  0.0002 -0.1943 -0.2065
  437TMC3     C 6569   0.866   3.833  12.340 -0.4825  0.1969 -0.2762
  437TMC3     O 6570   0.908   3.906  12.430  0.3485  0.8205  0.0697
  437TMC3     H 6571   0.813   3.739  12.091  1.0502 -1.5979 -2.9666
  437TMC3    H1 6572   1.054   4.003  12.326 -2.9855 -1.0977  0.2479
  437TMC3    H2 6573   1.104   3.975  11.913 -2.0908  2.5086  0.4108
  437TMC3    C7 6574   1.207   4.077  12.127 -0.3481 -0.1221  0.2818
  437TMC3    C8 6575   0.939   3.791  11.857  0.2678  0.1271 -0.1730
  437TMC3    O1 6576   1.216   4.133  12.020  0.5548 -0.2075  0.2436
  437TMC3    O2 6577   1.008   3.838  11.767 -0.2639  0.1413 -0.0892
  438MPD2     C 6578   3.821   4.654  16.570  0.2913 -0.0293  0.6075
  438MPD2    C1 6579   3.867   4.539  16.636 -0.8250 -0.4837  0.1873
  438MPD2    C2 6580   3.843   4.520  16.767  0.2965  0.1530 -1.2470
  438MPD2    C3 6581   3.786   4.622  16.841  0.1189 -0.3653 -0.2697
  438MPD2    C4 6582   3.735   4.727  16.769 -0.9174 -0.2005  0.0434
  438MPD2    C5 6583   3.759   0.012  16.638  0.1061  0.3829  0.2934
  438MPD2     H 6584   3.872   4.426  16.812 -0.9338  0.3640 -0.0385
  438MPD2    H1 6585   3.673   0.065  16.815 -0.5932  0.1774 -0.1414
  438MPD2    H2 6586   3.842   4.677  16.466  0.4617  0.9725  0.8713
  438MPD2    H3 6587   3.723   0.101  16.588 -0.4549  0.4838  0.8845
  438MPD2     N 6588   3.766   4.620  16.980 -0.4097 -0.6125  0.2947
  438MPD2    H5 6589   3.723   4.701  17.024  1.3945 -0.2178  1.3078
  438MPD2    N1 6590   3.938   4.438  16.571 -0.3467  0.9731 -0.1993
  438MPD2    H7 6591   3.956   4.362  16.637  2.0167  0.3706 -1.5428
  439TMC3    C1 6592   4.085   4.331  16.421  0.6030  0.0114  0.3460
  439TMC3    C2 6593   4.089   4.275  16.293 -0.1139 -0.1397  0.4200
  439TMC3    C3 6594   4.171   4.165  16.276 -0.8045 -0.7473 -0.9722
  439TMC3    C4 6595   4.163   4.297  16.529  0.0520 -0.7859 -0.0966
  439TMC3    C5 6596   4.234   4.182  16.504 -0.1578  0.7045  0.0727
  439TMC3    C6 6597   4.234   4.113  16.387 -0.8759 -0.7616 -0.2889
  439TMC3     C 6598   3.982   4.429  16.441  0.3761  0.0545  0.4418
  439TMC3     O 6599   3.957   4.502  16.348 -0.2555 -0.5258  0.2578
  439TMC3     H 6600   4.019   4.300  16.214 -1.5225 -0.7323  1.4735
  439TMC3    H1 6601   4.172   4.364  16.613 -3.3017 -1.7895  1.0496
  439TMC3    H2 6602   4.294   4.025  16.369  1.4118  0.2263  2.5048
  439TMC3    C7 6603   4.307   4.142  16.619  0.8059 -0.5264 -0.2479
  439TMC3    C8 6604   4.214   4.124  16.143  0.4436 -0.2491 -0.2765
  439TMC3    O1 6605   4.312   4.217  16.719  0.0541 -0.2800  0.2001
  439TMC3    O2 6606   4.289   4.026  16.142 -0.0438  0.5981 -0.2833
  440MPD2     C 6607   2.591   0.340  14.767  0.2557  0.2536 -0.3908
  440MPD2    C1 6608   2.648   0.449  14.829  0.0948 -0.1726  0.0489
  440MPD2    C2 6609   2.742   0.434  14.930  0.2237 -0.8672 -0.4040
  440MPD2    C3 6610   2.780   0.306  14.974  0.2618 -0.1521 -0.1450
  440MPD2    C4 6611   2.722   0.204  14.908  0.7933 -0.1361  0.3805
  440MPD2    C5 6612   2.631   0.217  14.804 -0.5269  0.2685 -0.2012
  440MPD2     H 6613   2.784   0.518  14.983 -0.5932  0.4311 -1.7951
  440MPD2    H1 6614   2.755   0.103  14.931 -0.0181 -0.0598  1.8797
  440MPD2    H2 6615   2.517   0.354  14.689 -1.4705  0.6544  1.3101
  440MPD2    H3 6616   2.592   0.129  14.755  1.0162 -0.4751 -0.0833
  440MPD2     N 6617   2.859   0.282  15.093 -0.2980 -1.1149  0.1867
  440MPD2    H5 6618   2.860   0.186  15.126 -2.2839 -0.6142  1.6618
  440MPD2    N1 6619   2.610   0.578  14.805  0.7275 -0.2686  0.0902
  440MPD2    H7 6620   2.651   0.649  14.864 -1.4327 -0.2502  1.5802
  441TMC3    C1 6621   2.938   0.321  15.306  0.0481  0.0657  0.0844
  441TMC3    C2 6622   2.993   0.413  15.398  0.4367  0.1801  0.3689
  441TMC3    C3 6623   3.014   0.368  15.520 -0.0340 -0.2782 -0.1080
  441TMC3    C4 6624   2.916   0.189  15.339  0.4342 -0.4412  0.0141
  441TMC3    C5 6625   2.960   0.148  15.459  0.2530  0.2724  0.4213
  441TMC3    C6 6626   3.007   0.236  15.551 -0.2519  0.5870 -0.4165
  441TMC3     C 6627   2.895   0.380  15.182 -0.3871 -0.2293  0.8129
  441TMC3     O 6628   2.879   0.498  15.182 -0.2707 -0.1363 -0.1238
  441TMC3     H 6629   2.999   0.519  15.380 -0.2030  0.3995  1.4320
  441TMC3    H1 6630   2.874   0.111  15.277  2.0179 -0.6461 -0.8059
  441TMC3    H2 6631   3.029   0.195  15.649  0.9020  0.1006 -0.8871
  441TMC3    C7 6632   2.911   0.026  15.510 -0.5820 -0.0746  0.3296
  441TMC3    C8 6633   3.044   0.463  15.626 -0.3277 -0.5121 -0.0411
  441TMC3    O1 6634   2.794   4.732  15.492  0.1093 -0.0826  0.0478
  441TMC3    O2 6635   3.101   0.415  15.722 -0.3598 -0.4316 -0.1374
  442MPD2     C 6636   0.671   0.907  16.302 -0.9570 -0.1978  0.2964
  442MPD2    C1 6637   0.652   0.817  16.402 -0.9095 -0.7238 -0.5420
  442MPD2    C2 6638   0.689   0.683  16.372 -0.5058  0.3866  0.2764
  442MPD2    C3 6639   0.734   0.646  16.243 -0.0041  0.0380 -0.2199
  442MPD2    C4 6640   0.747   0.742  16.149 -0.2324 -0.3627  0.5124
  442MPD2    C5 6641   0.709   0.867  16.181 -0.3974  0.1078  0.0205
  442MPD2     H 6642   0.696   0.608  16.450 -1.4215  1.4835  1.4117
  442MPD2    H1 6643   0.768   0.717  16.046 -2.1611 -1.1539  0.3127
  442MPD2    H2 6644   0.636   1.009  16.314  1.1370  0.4789  0.6624
  442MPD2    H3 6645   0.713   0.944  16.105 -0.5787 -0.2657 -0.3659
  442MPD2     N 6646   0.759   0.515  16.198  0.4037 -0.3544 -0.4736
  442MPD2    H5 6647   0.804   0.506  16.108  0.7330 -0.3468 -0.3107
  442MPD2    N1 6648   0.605   0.847  16.533 -0.5153  0.5707 -0.3121
  442MPD2    H7 6649   0.596   0.769  16.597  0.8276  0.6531 -0.0275
  443TMC3    C1 6650   0.478   0.960  16.693  0.0707  0.2321  0.4457
  443TMC3    C2 6651   0.366   1.038  16.693 -0.0435 -0.5737  0.1136
  443TMC3    C3 6652   0.258   0.983  16.747 -0.1839 -0.4210 -0.1894
  443TMC3    C4 6653   0.494   0.845  16.766  1.0050  0.8095 -0.4044
  443TMC3    C5 6654   0.385   0.815  16.847 -0.3953 -1.3494  0.2662
  443TMC3    C6 6655   0.265   0.882  16.838 -0.2328  0.2451  0.6975
  443TMC3     C 6656   0.549   0.965  16.566 -0.1030  0.0264 -0.0444
  443TMC3     O 6657   0.562   1.077  16.512  0.0149 -0.4141  0.5491
  443TMC3     H 6658   0.362   1.133  16.641  0.4710 -0.7460 -0.2551
  443TMC3    H1 6659   0.583   0.784  16.770  0.0513 -0.7106 -2.3960
  443TMC3    H2 6660   0.176   0.842  16.886 -0.5907 -0.8069 -0.8682
  443TMC3    C7 6661   0.393   0.680  16.910 -0.6383  0.2501 -0.3427
  443TMC3    C8 6662   0.165   0.952  16.645 -0.4032  0.8160  0.3802
  443TMC3    O1 6663   0.448   0.595  16.845 -0.2500  0.8830  0.1665
  443TMC3    O2 6664   0.147   0.831  16.635  0.2668  0.1811 -0.5960
  444MPD2     C 6665   0.923   0.664  16.704  0.2749  0.2485  0.0707
  444MPD2    C1 6666   0.882   0.529  16.719  0.5626  0.7551  0.2967
  444MPD2    C2 6667   0.939   0.446  16.624 -0.0983  0.0645 -0.6982
  444MPD2    C3 6668   1.028   0.486  16.524 -0.0226 -0.2196  0.1930
  444MPD2    C4 6669   1.068   0.614  16.514  0.2681  0.0642 -0.1534
  444MPD2    C5 6670   1.020   0.702  16.609  0.0305 -0.1760 -0.4833
  444MPD2     H 6671   0.922   0.341  16.645  2.2200 -0.4912 -1.6115
  444MPD2    H1 6672   1.141   0.640  16.439  1.2351 -0.8630  0.4584
  444MPD2    H2 6673   0.885   0.740  16.772  1.3170  1.2841 -0.5195
  444MPD2    H3 6674   1.055   0.804  16.613  1.4700 -0.6843 -0.1765
  444MPD2     N 6675   1.080   0.379  16.446  0.5031 -0.4137  0.0282
  444MPD2    H5 6676   1.040   0.285  16.450  1.9345 -1.0146  0.4529
  444MPD2    N1 6677   0.809   0.480  16.828  1.1197  0.3521  0.3081
  444MPD2    H7 6678   0.774   0.385  16.832 -0.2757  0.8165 -0.9298
  445TMC3    C1 6679   1.252   0.252  16.344 -0.1536 -0.1950 -0.4688
  445TMC3    C2 6680   1.155   0.152  16.338 -0.5939 -0.2617 -0.2895
  445TMC3    C3 6681   1.184   0.027  16.387  0.8253 -0.2447 -0.2802
  445TMC3    C4 6682   1.375   0.215  16.394  0.2642 -0.4979 -0.2838
  445TMC3    C5 6683   1.396   0.091  16.446 -0.0982  0.0649 -0.8994
  445TMC3    C6 6684   1.302   4.733  16.446  0.0934 -0.6055 -0.2676
  445TMC3     C 6685   1.201   0.382  16.378  0.2146  0.4552  0.1459
  445TMC3     O 6686   1.272   0.479  16.370  0.1411  0.0654 -0.2492
  445TMC3     H 6687   1.064   0.152  16.280 -0.2715 -2.2713 -0.7787
  445TMC3    H1 6688   1.455   0.287  16.399 -1.2219  1.1080  0.2291
  445TMC3    H2 6689   1.324   4.630  16.471  0.2645 -0.7348 -0.9563
  445TMC3    C7 6690   1.529   0.040  16.451  0.4442  0.2866  0.4981
  445TMC3    C8 6691   1.076   4.667  16.354 -0.5104  0.1125 -0.0626
  445TMC3    O1 6692   1.615   0.109  16.398 -0.5252 -0.1097  0.4920
  445TMC3    O2 6693   0.963   4.708  16.336 -0.0140  0.2098 -0.2796
  446MPD2     C 6694   0.747   1.755  11.502 -0.4436  0.3958  0.1595
  446MPD2    C1 6695   0.760   1.682  11.386 -0.3951 -0.0480 -0.0046
  446MPD2    C2 6696   0.885   1.674  11.321 -0.0102 -0.1750  0.0816
  446MPD2    C3 6697   0.989   1.745  11.362 -1.4108  0.3917  0.4916
  446MPD2    C4 6698   0.978   1.828  11.464  0.1813 -0.0892  0.2083
  446MPD2    C5 6699   0.855   1.831  11.540 -0.1720  0.9124  0.5648
  446MPD2     H 6700   0.893   1.626  11.225  0.9179 -0.7370  0.4424
  446MPD2    H1 6701   1.055   1.900  11.489  1.2557 -1.4198  0.6897
  446MPD2    H2 6702   0.660   1.749  11.565 -0.8980  2.1182 -0.2919
  446MPD2    H3 6703   0.862   1.902  11.622  1.8269  0.8465  0.4603
  446MPD2     N 6704   1.105   1.732  11.290  0.3027  0.2965 -0.3092
  446MPD2    H5 6705   1.109   1.690  11.197 -3.3632 -2.2960  0.6970
  446MPD2    N1 6706   0.640   1.624  11.341  0.0193 -0.3143  0.1565
  446MPD2    H7 6707   0.557   1.642  11.396  0.6614 -0.8243  1.3086
  447TMC3    C1 6708   1.327   1.765  11.228 -0.3802  0.6886 -0.4227
  447TMC3    C2 6709   1.306   1.806  11.095 -0.0448 -0.1764  0.3679
  447TMC3    C3 6710   1.411   1.796  11.010  0.0840 -0.4788 -0.3068
  447TMC3    C4 6711   1.450   1.718  11.277  0.1821 -0.4108 -0.6198
  447TMC3    C5 6712   1.550   1.704  11.190  0.1433 -0.0977 -0.0834
  447TMC3    C6 6713   1.532   1.744  11.058  0.0505 -0.4803 -0.2391
  447TMC3     C 6714   1.224   1.786  11.329 -0.6894 -0.0307  0.6672
  447TMC3     O 6715   1.259   1.831  11.436 -0.2110  0.5273 -0.3677
  447TMC3     H 6716   1.209   1.847  11.070  1.3697  2.3007 -1.0021
  447TMC3    H1 6717   1.451   1.697  11.383 -0.2719 -0.4360 -0.6211
  447TMC3    H2 6718   1.614   1.716  10.992  2.1592  1.9683  1.3334
  447TMC3    C7 6719   1.680   1.651  11.223  0.2600  0.2943 -0.5574
  447TMC3    C8 6720   1.385   1.828  10.866 -0.2416 -0.1999  0.1745
  447TMC3    O1 6721   1.761   1.639  11.131 -0.0294 -0.0955  0.0571
  447TMC3    O2 6722   1.269   1.847  10.824 -0.6851 -0.1035 -0.0985
  448TMC3    C1 6723   4.186   1.156  16.752  0.2297  0.0582 -0.4220
  448TMC3    C2 6724   4.151   1.021  16.759  0.3699 -0.2910 -0.2042
  448TMC3    C3 6725   4.150   0.961  16.883  0.5862 -0.3421 -0.0280
  448TMC3    C4 6726   4.222   1.222  16.862  0.0799  0.1219 -0.2194
  448TMC3    C5 6727   4.239   1.155  16.981 -0.6355 -0.6814  0.9417
  448TMC3    C6 6728   4.202   1.028  16.994  0.0599  0.3597  0.0047
  448TMC3     C 6729   4.192   1.230  16.624  0.1228 -0.5052  0.3203
  448TMC3     O 6730   4.203   1.355  16.629 -0.2100  0.1566 -0.1551
  448TMC3     H 6731   4.110   0.968  16.673  0.6176  0.3212 -0.7013
  448TMC3    H1 6732   4.254   1.325  16.850  0.7853 -0.3778 -2.6650
  448TMC3    H2 6733   4.221   0.969  17.082 -0.2957 -0.7848 -0.6804
  448TMC3    C7 6734   4.307   1.228  17.089  0.4966 -0.9791 -0.2878
  448TMC3    C8 6735   4.101   0.823  16.888 -0.4307  0.2740 -0.0165
  448TMC3    O1 6736   4.390   1.308  17.051 -0.0303  0.0742  0.0111
  448TMC3    O2 6737   4.075   0.762  16.786  0.2765 -0.4935 -0.1273
  449MPD2     C 6738   0.568   4.621  13.831 -0.7011 -0.3321  0.0800
  449MPD2    C1 6739   0.436   4.633  13.779  0.2798 -0.5620  0.2603
  449MPD2    C2 6740   0.339   4.551  13.829 -0.0655 -0.4460  0.3746
  449MPD2    C3 6741   0.357   4.462  13.935  0.0599 -0.0260  0.1104
  449MPD2    C4 6742   0.482   4.464  13.997 -0.5391 -0.1813 -0.3959
  449MPD2    C5 6743   0.580   4.541  13.939 -0.4000 -0.5390  0.3301
  449MPD2     H 6744   0.242   4.563  13.781 -0.3034 -0.1199  0.9420
  449MPD2    H1 6745   0.503   4.404  14.085 -0.2016 -2.4572 -2.0288
  449MPD2    H2 6746   0.653   4.682  13.804 -0.1290 -1.9085 -1.5749
  449MPD2    H3 6747   0.677   4.544  13.987  0.6016 -0.8382 -1.6818
  449MPD2     N 6748   0.257   4.368  13.966 -0.1929  0.5504  0.3015
  449MPD2    H5 6749   0.175   4.391  13.911 -0.7894 -1.8506  0.2042
  449MPD2    N1 6750   0.399   4.713  13.672 -0.3896  0.1649  0.0352
  449MPD2    H7 6751   0.298   4.709  13.659 -0.0035 -1.8742 -2.2418
  450TMC3    C1 6752   0.408   0.132  13.503  0.6289  0.9508 -0.5719
  450TMC3    C2 6753   0.443   0.095  13.378 -0.9545  0.3170 -0.0680
  450TMC3    C3 6754   0.339   0.059  13.291  0.1048 -0.3741 -0.7046
  450TMC3    C4 6755   0.281   0.152  13.548 -0.1735 -0.0608  0.0049
  450TMC3    C5 6756   0.174   0.126  13.459  0.4108  0.3034 -0.6046
  450TMC3    C6 6757   0.204   0.071  13.336  0.3361  0.1218 -0.4247
  450TMC3     C 6758   0.485   0.056  13.604  0.7205 -0.2183  0.0403
  450TMC3     O 6759   0.604   0.037  13.587 -0.1272 -0.3927  0.3005
  450TMC3     H 6760   0.548   0.082  13.353 -1.3203 -3.6936  0.4173
  450TMC3    H1 6761   0.264   0.187  13.650 -1.4153  1.5647 -0.7537
  450TMC3    H2 6762   0.129   0.049  13.261  0.8443 -1.0843 -0.5802
  450TMC3    C7 6763   0.074   0.046  13.528 -0.1692 -0.2313  0.3366
  450TMC3    C8 6764   0.363   4.683  13.207  0.4384  0.3448  0.0034
  450TMC3    O1 6765   0.103   0.008  13.641  0.3006  0.2714  1.0117
  450TMC3    O2 6766   0.270   4.603  13.200 -0.0855  0.1889  0.2732
  451MPD2     C 6767   2.125   3.334   0.731  0.0150  0.0477  0.1346
  451MPD2    C1 6768   2.043   3.230   0.737  0.5604  0.6367  0.0240
  451MPD2    C2 6769   2.088   3.115   0.664 -0.5071  0.3451 -0.2004
  451MPD2    C3 6770   2.207   3.110   0.594 -0.3576  0.5338 -0.0867
  451MPD2    C4 6771   2.285   3.226   0.591 -0.2198  0.7300  0.4928
  451MPD2    C5 6772   2.240   3.334   0.663 -0.3709  0.9101  0.4378
  451MPD2     H 6773   2.021   3.030   0.656 -1.1333  0.8874 -0.6799
  451MPD2    H1 6774   2.381   3.226   0.541  0.1509 -1.2643  1.1993
  451MPD2    H2 6775   2.108   3.424   0.789 -0.2626  1.4077 -2.0494
  451MPD2    H3 6776   2.295   3.427   0.675  0.8479  0.4332 -1.4015
  451MPD2     N 6777   2.256   3.000   0.523 -0.1801  0.7525  0.3285
  451MPD2    H5 6778   2.333   3.017   0.459 -1.2624  5.1931  0.1624
  451MPD2    N1 6779   1.920   3.236   0.812  0.2245  0.5051 -0.4768
  451MPD2    H7 6780   1.887   3.321   0.856  1.0955  2.1952 -3.1125
  452TMC3    C1 6781   2.285   2.778   0.453  0.2049 -0.1318  0.0436
  452TMC3    C2 6782   2.278   2.653   0.502  0.6941 -0.6154 -0.3149
  452TMC3    C3 6783   2.320   2.550   0.406  0.7242 -0.4369  0.0808
  452TMC3    C4 6784   2.317   2.813   0.328 -0.3491 -0.1817  0.2241
  452TMC3    C5 6785   2.361   2.717   0.242 -0.2626  0.9507  0.5507
  452TMC3    C6 6786   2.357   2.582   0.284 -0.1672  0.5335  0.2333
  452TMC3     C 6787   2.202   2.872   0.529 -0.6740 -0.0714 -0.1791
  452TMC3     O 6788   2.110   2.828   0.602  0.3001 -0.1976 -0.0064
  452TMC3     H 6789   2.225   2.631   0.594  1.0763  0.4608  0.1572
  452TMC3    H1 6790   2.308   2.915   0.293  0.4115  0.2474  1.3171
  452TMC3    H2 6791   2.385   2.501   0.218 -2.4332 -0.4736  0.5068
  452TMC3    C7 6792   2.383   2.752   0.099  0.4090 -0.3507  0.4673
  452TMC3    C8 6793   2.257   2.416   0.412  1.3135  0.5816  0.1695
  452TMC3    O1 6794   2.410   2.868   0.078  0.1561 -0.4493 -0.2731
  452TMC3    O2 6795   2.248   2.354   0.308  0.4517  0.1787  0.0968
  453TMC3    C1 6796   3.033   0.537  12.003  0.0601  0.2080  0.1389
  453TMC3    C2 6797   2.968   0.421  12.036 -0.1250  0.3251 -0.7564
  453TMC3    C3 6798   2.945   0.329  11.934  0.0004  0.1042  0.5893
  453TMC3    C4 6799   3.063   0.562  11.872  0.5199  0.3819 -0.2911
  453TMC3    C5 6800   3.022   0.480  11.773 -0.4728  0.8919 -0.6716
  453TMC3    C6 6801   2.975   0.353  11.800  0.0185 -0.0118 -0.2818
  453TMC3     C 6802   3.091   0.624  12.102 -0.0222 -1.0957  0.3692
  453TMC3     O 6803   3.145   0.726  12.058  0.5104  0.6345 -0.0818
  453TMC3     H 6804   2.950   0.386  12.137  2.4150 -0.3798 -0.5420
  453TMC3    H1 6805   3.087   0.667  11.856  0.4611  0.0477 -2.5381
  453TMC3    H2 6806   2.953   0.283  11.720  0.6648 -0.3666 -0.1548
  453TMC3    C7 6807   3.074   0.499  11.639 -0.1554  0.1627  0.3270
  453TMC3    C8 6808   2.922   0.192  11.966 -0.1028 -0.2827  0.8691
  453TMC3    O1 6809   3.035   0.417  11.561 -0.9970  0.1347  0.2591
  453TMC3    O2 6810   2.841   0.164  12.052  0.2599 -0.0255  0.1857
  454MPD2     C 6811   1.875   0.261  15.998 -0.4926 -0.4053  1.1273
  454MPD2    C1 6812   1.786   0.280  15.889  1.0535  0.5000  0.0486
  454MPD2    C2 6813   1.712   0.396  15.878  0.1044 -0.3713  0.0548
  454MPD2    C3 6814   1.731   0.499  15.974 -0.6986  0.5294 -0.1877
  454MPD2    C4 6815   1.814   0.472  16.080  0.3379 -0.0591 -0.1289
  454MPD2    C5 6816   1.890   0.359  16.089 -0.2734 -0.4337  0.1939
  454MPD2     H 6817   1.644   0.405  15.795 -0.0941 -0.4467  0.2104
  454MPD2    H1 6818   1.823   0.542  16.162 -1.1337 -0.6321  0.5347
  454MPD2    H2 6819   1.937   0.172  16.005 -0.7307 -0.7673 -1.3450
  454MPD2    H3 6820   1.954   0.347  16.175 -2.6327 -0.8975  1.8951
  454MPD2     N 6821   1.644   0.613  15.972  0.4525  0.2611 -0.0887
  454MPD2    H5 6822   1.643   0.661  16.062  0.9632  1.0590 -0.5117
  454MPD2    N1 6823   1.771   0.185  15.789  0.9318  0.2267 -0.1806
  454MPD2    H7 6824   1.717   0.216  15.709  1.9315  2.1294 -0.0985
  455TMC3    C1 6825   1.425   0.684  15.921  0.0017 -0.3672  0.3249
  455TMC3    C2 6826   1.428   0.768  16.030  0.7120 -0.1606 -0.4081
  455TMC3    C3 6827   1.336   0.746  16.129 -0.0938 -0.0762 -0.0243
  455TMC3    C4 6828   1.323   0.599  15.897  0.1571 -0.7648  0.0347
  455TMC3    C5 6829   1.226   0.579  15.997 -0.3792 -0.0921 -0.0034
  455TMC3    C6 6830   1.236   0.651  16.116 -0.2017  0.0106  0.0052
  455TMC3     C 6831   1.556   0.644  15.867  0.1129  0.4876 -0.1569
  455TMC3     O 6832   1.549   0.593  15.758 -0.2299  0.3115 -0.0040
  455TMC3     H 6833   1.507   0.842  16.031  3.0391 -2.6248 -1.0141
  455TMC3    H1 6834   1.323   0.546  15.803  0.4583  0.6173 -0.7409
  455TMC3    H2 6835   1.170   0.633  16.201 -1.0875 -0.4817 -0.7964
  455TMC3    C7 6836   1.205   0.438  16.029  0.3345  0.9061  0.7835
  455TMC3    C8 6837   1.317   0.855  16.214  0.0801 -0.0960 -0.4400
  455TMC3    O1 6838   1.097   0.395  16.069  0.3576 -0.4261 -0.3532
  455TMC3    O2 6839   1.421   0.917  16.235  0.4673 -0.2770 -0.3487
  456MPD2     C 6840   4.228   4.703  16.070  0.3444  0.0260 -0.5265
  456MPD2    C1 6841   4.306   4.623  16.157 -0.0831 -0.3889 -0.1424
  456MPD2    C2 6842   4.287   4.637  16.290 -0.7207 -0.4420 -0.1506
  456MPD2    C3 6843   4.195   4.729  16.341 -0.4365 -0.3339  0.4240
  456MPD2    C4 6844   4.112   0.059  16.255  0.1685  0.1060 -1.2090
  456MPD2    C5 6845   4.132   0.049  16.125 -0.2279 -0.8104  0.7375
  456MPD2     H 6846   4.337   4.571  16.360  0.4373  0.2271 -0.3525
  456MPD2    H1 6847   4.036   0.130  16.287 -0.7069 -1.4980  0.2633
  456MPD2    H2 6848   4.225   4.685  15.964  2.5950 -0.8057 -0.4507
  456MPD2    H3 6849   4.068   0.107  16.060  0.8109 -0.9300 -0.3961
  456MPD2     N 6850   4.200   4.725  16.483 -0.3492 -0.0603 -0.0835
  456MPD2    H5 6851   4.261   4.654  16.521  1.9833  2.1152  0.2055
  456MPD2    N1 6852   4.386   4.510  16.107 -0.5351  0.3541  0.3708
  456MPD2    H7 6853   4.387   4.508  16.005 -1.8360 -0.9405  0.3804
  457TMC3    C1 6854   4.149   0.042  16.703 -0.5250  0.0805 -0.2805
  457TMC3    C2 6855   4.047   0.084  16.791 -0.0164 -0.3983  0.1093
  457TMC3    C3 6856   4.064   0.085  16.926 -0.1981  0.4300 -0.1554
  457TMC3    C4 6857   4.273   0.009  16.746  0.5300  0.3192  0.3881
  457TMC3    C5 6858   4.286   0.015  16.882 -0.1231 -0.7729 -0.4553
  457TMC3    C6 6859   4.182   0.034  16.977 -0.2559 -0.7208 -0.0742
  457TMC3     C 6860   4.134   0.071  16.564  0.2537 -0.2085 -0.2832
  457TMC3     O 6861   4.046   0.150  16.531 -0.4485 -0.2184 -0.8344
  457TMC3     H 6862   3.958   0.128  16.748  0.2612 -0.4899 -0.5680
  457TMC3    H1 6863   4.358   4.738  16.680 -0.4471 -1.0450 -0.6889
  457TMC3    H2 6864   4.192   0.029  17.085  0.1118 -1.4986 -0.1463
  457TMC3    C7 6865   4.413   0.064  16.921  0.1322  0.0183 -0.0517
  457TMC3    C8 6866   3.995   0.175  17.010 -0.2802  0.3069 -0.4397
  457TMC3    O1 6867   4.485   0.102  16.829 -0.1268  0.1004 -0.1187
  457TMC3    O2 6868   3.967   0.138  17.123  0.3190  0.0887 -0.6350
  458MPD2     C 6869   1.630   4.310  12.254  0.3734 -0.1146  0.4215
  458MPD2    C1 6870   1.617   4.204  12.335 -0.1451  0.3402  0.1132
  458MPD2    C2 6871   1.497   4.137  12.350 -0.0394  0.3323 -0.7690
  458MPD2    C3 6872   1.400   4.170  12.261 -0.4396  0.6002 -0.4047
  458MPD2    C4 6873   1.410   4.288  12.179 -0.0388 -0.3549  0.3127
  458MPD2    C5 6874   1.526   4.356  12.176 -0.5184  0.4035  0.6246
  458MPD2     H 6875   1.475   4.061  12.424  0.8151 -0.7193 -1.5961
  458MPD2    H1 6876   1.323   4.327  12.128 -0.5959 -1.7095  0.2155
  458MPD2    H2 6877   1.720   4.369  12.243  0.1040 -0.0205 -1.2569
  458MPD2    H3 6878   1.544   4.450  12.125  0.6617  0.3076  0.8678
  458MPD2     N 6879   1.288   4.084  12.247  0.0080 -0.0704 -0.2828
  458MPD2    H5 6880   1.286   4.002  12.307  1.4697  1.1061  1.3870
  458MPD2    N1 6881   1.734   4.168  12.411 -0.7461 -0.7689  0.7114
  458MPD2    H7 6882   1.814   4.230  12.408 -1.1901 -0.2274  0.1409
  459TMC3    C1 6883   1.857   4.081  12.581 -0.8151  0.1615 -0.7782
  459TMC3    C2 6884   1.947   4.192  12.568 -0.6383  0.1225  1.1287
  459TMC3    C3 6885   2.052   4.203  12.650  0.1763  0.3002 -0.2315
  459TMC3    C4 6886   1.891   3.978  12.662  0.2371 -0.8439 -0.5973
  459TMC3    C5 6887   1.992   3.995  12.746 -0.3838 -0.0662 -0.2383
  459TMC3    C6 6888   2.066   4.112  12.750 -0.2521  0.2917 -0.1683
  459TMC3     C 6889   1.740   4.064  12.496  0.2254 -0.2657  0.1144
  459TMC3     O 6890   1.676   3.962  12.512  0.6646  0.3730 -0.7771
  459TMC3     H 6891   1.912   4.282  12.518 -1.0832  0.3139  1.7746
  459TMC3    H1 6892   1.823   3.896  12.680 -3.2960  2.1482 -0.2066
  459TMC3    H2 6893   2.156   4.118  12.809 -1.2951  3.1310  1.1411
  459TMC3    C7 6894   2.044   3.885  12.830 -0.1070 -0.0671 -0.5140
  459TMC3    C8 6895   2.141   4.314  12.634  0.6109  0.3101  0.4958
  459TMC3    O1 6896   2.071   3.915  12.945 -0.1295  0.5595  0.4418
  459TMC3    O2 6897   2.205   4.350  12.733  0.4983  0.4710 -0.2422
  460MPD2     C 6898   1.648   1.843  10.625 -0.3643 -0.4532 -0.1058
  460MPD2    C1 6899   1.515   1.864  10.665 -0.1983  0.0183  0.7876
  460MPD2    C2 6900   1.423   1.912  10.574  0.7565 -0.1019  0.0565
  460MPD2    C3 6901   1.459   1.926  10.441 -0.1319  0.0439  0.0123
  460MPD2    C4 6902   1.587   1.890  10.393  0.3593  0.7912  0.2597
  460MPD2    C5 6903   1.675   1.848  10.488 -0.0578  0.7110 -0.1895
  460MPD2     H 6904   1.318   1.924  10.600  0.9905  0.8777  0.5374
  460MPD2    H1 6905   1.612   1.895  10.288  1.2650 -0.9239  0.3973
  460MPD2    H2 6906   1.722   1.809  10.696 -0.9323 -0.5300  0.4452
  460MPD2    H3 6907   1.780   1.830  10.465  0.7259  1.1855  2.9488
  460MPD2     N 6908   1.357   1.970  10.358  0.0230 -0.0120 -0.0272
  460MPD2    H5 6909   1.265   1.987  10.395 -1.0506  0.6600 -2.9760
  460MPD2    N1 6910   1.501   1.837  10.801 -0.5053  0.4232 -0.1933
  460MPD2    H7 6911   1.580   1.803  10.855  1.3971  0.6610 -2.7817
  461TMC3    C1 6912   1.231   1.995  10.164 -0.3525 -0.5489 -0.4268
  461TMC3    C2 6913   1.171   1.879  10.116 -0.0808  0.0644  0.7598
  461TMC3    C3 6914   1.035   1.895  10.082 -0.1423 -0.1119 -0.7896
  461TMC3    C4 6915   1.173   2.118  10.168 -0.3173  0.1805 -0.9559
  461TMC3    C5 6916   1.050   2.130  10.127  0.1682 -0.0080  0.3520
  461TMC3    C6 6917   0.976   2.024  10.085  0.4941 -0.4212  0.2732
  461TMC3     C 6918   1.361   1.986  10.218 -0.6343 -0.5395 -0.1186
  461TMC3     O 6919   1.456   2.004  10.139  0.4435 -0.0612 -0.4033
  461TMC3     H 6920   1.219   1.782  10.116 -0.9855 -0.3823  0.3596
  461TMC3    H1 6921   1.239   2.201  10.190  1.9177 -1.9245  0.3409
  461TMC3    H2 6922   0.873   2.043  10.057  0.3371 -0.2401  0.9872
  461TMC3    C7 6923   0.985   2.263  10.130 -0.0258  0.5871 -0.1229
  461TMC3    C8 6924   0.991   1.801   9.975  0.6755  0.0945 -0.4594
  461TMC3    O1 6925   0.892   2.290  10.056 -0.1446 -0.4243  0.6239
  461TMC3    O2 6926   1.049   1.694   9.965 -0.3745  0.0299 -0.1734
  462TMC3    C1 6927   1.669   3.067  17.640  0.6169  0.9049 -0.3556
  462TMC3    C2 6928   1.617   2.995  17.525  0.4551  0.4078  0.2803
  462TMC3    C3 6929   1.481   2.977  17.517  0.2456 -0.7557 -0.7721
  462TMC3    C4 6930   1.582   3.131  17.719 -0.3293 -0.3764 -0.0674
  462TMC3    C5 6931   1.446   3.114  17.700  0.4646 -0.4305  0.3387
  462TMC3    C6 6932   1.392   3.056  17.586  0.0726  0.5190  0.3158
  462TMC3     C 6933   1.814   3.058  17.658  0.2666 -0.2302 -0.6246
  462TMC3     O 6934   1.877   2.990  17.576  0.5685  0.6924 -0.4270
  462TMC3     H 6935   1.683   2.929  17.468  1.1723 -0.4554  2.1102
  462TMC3    H1 6936   1.613   3.174   0.064  0.0206 -2.2384  0.6526
  462TMC3    H2 6937   1.284   3.045  17.573  0.0376  2.3576 -0.9676
  462TMC3    C7 6938   1.382   3.070   0.065 -1.1275  0.0396 -0.5451
  462TMC3    C8 6939   1.425   2.864  17.454 -0.0763 -0.2997 -0.8798
  462TMC3    O1 6940   1.443   3.008   0.154  0.1344  0.0557 -0.9679
  462TMC3    O2 6941   1.307   2.874  17.417 -0.2426 -0.0544  0.2863
  463MPD2     C 6942   3.441   0.179   1.207 -0.2090 -0.1299 -1.2714
  463MPD2    C1 6943   3.420   0.302   1.140  0.0414  0.6359  0.0172
  463MPD2    C2 6944   3.529   0.386   1.099 -0.6023 -0.7504  0.2900
  463MPD2    C3 6945   3.654   0.333   1.114  0.1531  0.6185 -0.0461
  463MPD2    C4 6946   3.671   0.217   1.183 -0.2159  0.1075  0.7210
  463MPD2    C5 6947   3.573   0.143   1.231 -0.6059 -0.4789  0.4461
  463MPD2     H 6948   3.503   0.476   1.045 -0.1605  1.0213  3.0370
  463MPD2    H1 6949   3.770   0.174   1.200  0.7061  2.6182  1.7190
  463MPD2    H2 6950   3.365   0.116   1.253  1.0699  0.0046  1.0532
  463MPD2    H3 6951   3.602   0.056   1.288 -0.1615 -0.2974  0.4971
  463MPD2     N 6952   3.778   0.404   1.081  0.6516  0.0443  0.1902
  463MPD2    H5 6953   3.864   0.352   1.092  0.0795 -0.5784  1.7252
  463MPD2    N1 6954   3.289   0.350   1.122 -0.2983 -0.4917  0.3877
  463MPD2    H7 6955   3.275   0.438   1.075  0.1572 -1.8593 -2.3195
  464TMC3    C1 6956   3.055   0.332   1.075  0.0712 -0.3462  0.3793
  464TMC3    C2 6957   3.045   0.468   1.077  0.4499  0.3647 -0.2444
  464TMC3    C3 6958   2.939   0.518   1.009  0.7614 -0.2026  0.1731
  464TMC3    C4 6959   2.968   0.246   1.013 -0.8701 -0.8195 -0.2701
  464TMC3    C5 6960   2.862   0.301   0.952  0.7297 -0.2463 -0.0754
  464TMC3    C6 6961   2.841   0.441   0.947  0.3559  0.1024 -0.3798
  464TMC3     C 6962   3.171   0.271   1.137 -0.1412  0.3595  0.0363
  464TMC3     O 6963   3.161   0.152   1.164 -0.0462  0.4702  0.2268
  464TMC3     H 6964   3.100   0.539   1.137  0.2584  1.6870 -1.6134
  464TMC3    H1 6965   2.979   0.138   1.019  2.4899 -0.4868 -0.5207
  464TMC3    H2 6966   2.755   0.489   0.901 -0.2998 -1.1234 -0.4389
  464TMC3    C7 6967   2.774   0.222   0.874  0.6075  0.3541  0.1767
  464TMC3    C8 6968   2.905   0.657   1.022 -0.5649  0.4146  0.6265
  464TMC3    O1 6969   2.811   0.116   0.829  0.7635 -0.1883  0.0428
  464TMC3    O2 6970   2.781   0.679   1.036  0.0198 -0.2602  0.7029
  465MPD2     C 6971   3.625   0.327  17.181  0.0014  0.1862 -0.2567
  465MPD2    C1 6972   3.530   0.233  17.226 -0.5173  0.0362  0.8605
  465MPD2    C2 6973   3.461   0.155  17.135 -0.2992 -0.0470  0.6720
  465MPD2    C3 6974   3.484   0.176  16.996 -0.4599 -0.6424  0.1093
  465MPD2    C4 6975   3.579   0.264  16.955  0.2199  0.3263 -0.4340
  465MPD2    C5 6976   3.651   0.340  17.049  0.0460 -0.3373  0.4062
  465MPD2     H 6977   3.389   0.081  17.166 -1.3326  0.6060 -0.1901
  465MPD2    H1 6978   3.603   0.280  16.851 -3.1593 -0.9586 -1.4152
  465MPD2    H2 6979   3.683   0.384  17.253  2.5440 -0.4775 -1.7961
  465MPD2    H3 6980   3.723   0.415  17.019 -0.9718 -0.2190 -1.7886
  465MPD2     N 6981   3.394   0.105  16.907  0.4864  0.5140  0.2410
  465MPD2    H5 6982   3.327   0.039  16.945 -1.6061  1.3142 -2.0613
  465MPD2    N1 6983   3.502   0.216  17.358 -0.8980 -0.2276 -0.2604
  465MPD2    H7 6984   3.452   0.131  17.381  1.0850 -0.8830  1.5592
  466TMC3    C1 6985   3.043   0.051  16.798  0.7645  0.8043 -0.2308
  466TMC3    C2 6986   2.999   0.153  16.726  0.1401 -0.2300  0.3768
  466TMC3    C3 6987   3.087   0.208  16.639 -0.0911 -0.2554 -0.4554
  466TMC3    C4 6988   3.176   0.014  16.801 -0.3126 -0.1574  0.0132
  466TMC3    C5 6989   3.266   0.082  16.714  0.0131  0.1929  0.6177
  466TMC3    C6 6990   3.217   0.174  16.627  0.1452  1.0996 -0.0441
  466TMC3     C 6991   2.962   4.732  16.912 -0.3431 -0.1605  0.0761
  466TMC3     O 6992   3.021   4.705  17.013  0.4371  0.5506 -0.2331
  466TMC3     H 6993   2.896   0.188  16.730  0.4639  0.5953  1.3509
  466TMC3    H1 6994   3.193   4.660  16.855  1.0629  0.5960  0.8508
  466TMC3    H2 6995   3.285   0.234  16.568  1.8966 -1.2041 -0.4192
  466TMC3    C7 6996   3.392   0.134  16.769 -0.4426 -0.4619 -0.4753
  466TMC3    C8 6997   3.056   0.335  16.564 -0.6974 -0.3725  0.2338
  466TMC3    O1 6998   3.465   0.204  16.699 -0.1896  0.0047 -0.3533
  466TMC3    O2 6999   3.132   0.363  16.472  0.2416  0.2188 -0.1054
  467TMC3    C1 7000   4.024   3.061  13.802  0.1037 -0.3254  0.7670
  467TMC3    C2 7001   3.938   3.119  13.716  0.4670  0.6411 -0.3173
  467TMC3    C3 7002   3.801   3.122  13.746 -0.0728  0.6229  0.3732
  467TMC3    C4 7003   3.979   3.007  13.924  0.2547 -0.8566 -0.1556
  467TMC3    C5 7004   3.839   3.022  13.949 -0.4601 -0.3736  0.0823
  467TMC3    C6 7005   3.753   3.078  13.862 -0.7468 -0.3047 -0.2878
  467TMC3     C 7006   4.163   3.107  13.791  0.1213 -0.4846 -0.0875
  467TMC3     O 7007   4.195   3.210  13.729  0.5839 -0.2636 -0.4320
  467TMC3     H 7008   3.975   3.163  13.624  1.6378 -0.6685 -0.4724
  467TMC3    H1 7009   4.046   2.959  13.995  0.3158  0.5756  0.7444
  467TMC3    H2 7010   3.646   3.078  13.878 -0.6555 -3.0544  0.2213
  467TMC3    C7 7011   3.788   3.000  14.085 -0.0919  0.3294 -0.4195
  467TMC3    C8 7012   3.734   3.235  13.671 -0.7233  0.1428 -0.1688
  467TMC3    O1 7013   3.863   2.969  14.178  0.4308 -0.6508 -0.3318
  467TMC3    O2 7014   3.800   3.276  13.578  0.3014  0.7986 -0.3019
  468MPD2     C 7015   3.256   1.420  10.378 -0.4121 -0.3444  0.3762
  468MPD2    C1 7016   3.305   1.466  10.503  0.5206 -0.0023  0.0176
  468MPD2    C2 7017   3.270   1.403  10.624  0.0404  0.1464 -0.0495
  468MPD2    C3 7018   3.175   1.302  10.622 -0.2729 -0.7504  0.2887
  468MPD2    C4 7019   3.119   1.263  10.498  0.2160  0.4080  0.4808
  468MPD2    C5 7020   3.160   1.322  10.382 -0.3552  0.1960  0.5167
  468MPD2     H 7021   3.323   1.429  10.715 -1.0839 -0.5811  0.8158
  468MPD2    H1 7022   3.048   1.182  10.484  0.6164 -0.3637  2.9369
  468MPD2    H2 7023   3.284   1.459  10.281  0.1504 -2.1165 -0.1728
  468MPD2    H3 7024   3.103   1.299  10.293  1.4540 -4.0648  0.4296
  468MPD2     N 7025   3.144   1.246  10.749  0.4645 -0.1793  0.0043
  468MPD2    H5 7026   3.194   1.289  10.826  0.7305  0.6822 -0.6409
  468MPD2    N1 7027   3.392   1.575  10.513  0.3110  0.2020  0.2033
  468MPD2    H7 7028   3.419   1.607  10.605  3.3201 -0.5847 -0.4162
  469TMC3    C1 7029   3.475   1.774  10.465 -0.1891  0.4018 -0.6012
  469TMC3    C2 7030   3.595   1.764  10.538  0.2952 -0.2449  0.2625
  469TMC3    C3 7031   3.603   1.824  10.661  0.3205 -0.1307  0.7824
  469TMC3    C4 7032   3.370   1.848  10.514 -0.1258 -0.0719 -0.4765
  469TMC3    C5 7033   3.386   1.908  10.634  0.4699 -0.6723  0.1184
  469TMC3    C6 7034   3.497   1.893  10.711  0.1969 -0.2041  0.7865
  469TMC3     C 7035   3.423   1.658  10.405  0.8016  0.5834  0.3342
  469TMC3     O 7036   3.391   1.669  10.288  0.3192 -0.2169  0.0275
  469TMC3     H 7037   3.685   1.722  10.496 -0.3240 -1.7334  0.4059
  469TMC3    H1 7038   3.271   1.835  10.473  0.1738  0.6028 -1.4021
  469TMC3    H2 7039   3.515   1.971  10.785  2.7857 -0.3882  0.3634
  469TMC3    C7 7040   3.272   1.985  10.687  0.4445  0.0944 -0.1149
  469TMC3    C8 7041   3.742   1.849  10.709  0.1032 -0.2733  0.1577
  469TMC3    O1 7042   3.173   1.984  10.612  0.0357 -0.1695 -0.2119
  469TMC3    O2 7043   3.839   1.819  10.643 -0.0341 -0.6073  0.4118
  470TMC3    C1 7044   0.508   2.383   0.325 -0.4725 -0.0013 -0.5971
  470TMC3    C2 7045   0.483   2.514   0.318 -0.6414  0.6791 -0.5505
  470TMC3    C3 7046   0.569   2.600   0.387  0.0450 -0.6383  0.1414
  470TMC3    C4 7047   0.615   2.327   0.385 -0.2271 -0.6684 -0.1113
  470TMC3    C5 7048   0.703   2.412   0.444 -0.2602 -0.1685  0.1439
  470TMC3    C6 7049   0.677   2.547   0.455  0.2200  0.3763  0.4384
  470TMC3     C 7050   0.415   2.289   0.262 -0.4838  0.8292  0.0944
  470TMC3     O 7051   0.359   2.328   0.161 -0.1548  0.2142 -0.1714
  470TMC3     H 7052   0.398   2.549   0.260 -0.0506  0.2997 -1.6292
  470TMC3    H1 7053   0.653   2.232   0.350  1.2919  0.1662 -0.7626
  470TMC3    H2 7054   0.745   2.617   0.503 -0.1404  0.1574  1.2688
  470TMC3    C7 7055   0.825   2.361   0.490 -0.4723  1.0252  0.0492
  470TMC3    C8 7056   0.514   2.711   0.457  0.2170 -0.4689 -0.4254
  470TMC3    O1 7057   0.845   2.242   0.478 -0.0260  0.0301 -0.2800
  470TMC3    O2 7058   0.581   2.753   0.551 -0.2165 -0.4830  0.8049
  471MPD2     C 7059   0.907   3.969  16.709  0.0649  0.2763 -0.1763
  471MPD2    C1 7060   1.031   3.916  16.684  0.8165 -0.4136 -0.6492
  471MPD2    C2 7061   1.109   3.878  16.785 -0.0308  0.3672  0.7040
  471MPD2    C3 7062   1.067   3.883  16.918  0.3342  0.2285 -0.1601
  471MPD2    C4 7063   0.936   3.922  16.939  0.7663 -0.1440 -0.1487
  471MPD2    C5 7064   0.857   3.966  16.834 -0.6406 -0.8516  0.0431
  471MPD2     H 7065   1.206   3.837  16.757 -0.3016  0.9071 -1.0602
  471MPD2    H1 7066   0.897   3.934  17.039 -0.5132  0.3198 -0.7026
  471MPD2    H2 7067   0.858   4.024  16.630  2.3847  2.6001 -0.0058
  471MPD2    H3 7068   0.766   4.019  16.858 -0.9674 -1.8168  0.9627
  471MPD2     N 7069   1.147   3.837  17.030 -0.2908 -0.5121 -0.4629
  471MPD2    H5 7070   1.101   3.846  17.120 -2.2818 -0.0696 -1.5122
  471MPD2    N1 7071   1.083   3.902  16.550  0.0509  0.0514  0.1193
  471MPD2    H7 7072   1.184   3.892  16.543  0.2405  1.7981  0.3234
  472TMC3    C1 7073   1.074   3.839  16.321  0.5960  0.2638 -0.1483
  472TMC3    C2 7074   1.020   3.867  16.203  1.3331  0.2695 -0.4198
  472TMC3    C3 7075   1.052   3.787  16.098  1.2051 -0.6616  0.5658
  472TMC3    C4 7076   1.154   3.730  16.338 -0.5995  0.0364  0.0423
  472TMC3    C5 7077   1.194   3.647  16.237 -0.6455  0.4813  0.2810
  472TMC3    C6 7078   1.145   3.686  16.111 -0.3723 -0.3479  0.2301
  472TMC3     C 7079   1.007   3.899  16.438  0.6265 -0.0474  0.2301
  472TMC3     O 7080   0.886   3.907  16.429  0.9033 -0.2778  0.2712
  472TMC3     H 7081   0.947   3.947  16.199 -1.1371 -1.9253  0.4649
  472TMC3    H1 7082   1.169   3.699  16.441  1.6135 -1.6913 -0.8014
  472TMC3    H2 7083   1.171   3.634  16.019  0.3195  0.6793 -0.1610
  472TMC3    C7 7084   1.193   3.505  16.277  0.1386 -0.2947  0.8612
  472TMC3    C8 7085   0.931   3.738  16.028 -0.7690  0.0241 -0.2543
  472TMC3    O1 7086   1.231   3.480  16.390 -0.3650 -0.1970  0.4208
  472TMC3    O2 7087   0.898   3.791  15.926  0.0079 -0.0885  0.4661
  473MPD2     C 7088   1.062   1.215  13.865  0.2882 -0.8059  0.0866
  473MPD2    C1 7089   1.015   1.331  13.795  0.4185 -0.3066 -0.3420
  473MPD2    C2 7090   1.081   1.448  13.822  0.5242 -0.9028  0.9318
  473MPD2    C3 7091   1.186   1.463  13.913 -0.6346 -0.9464 -0.1389
  473MPD2    C4 7092   1.230   1.352  13.977 -0.2152  0.0838  0.1201
  473MPD2    C5 7093   1.175   1.229  13.941 -0.0517 -0.0718 -0.0922
  473MPD2     H 7094   1.038   1.537  13.778  3.5794  0.1712  0.1374
  473MPD2    H1 7095   1.297   1.355  14.062  0.0365 -0.1731 -0.0670
  473MPD2    H2 7096   1.012   1.119  13.857 -0.2774 -0.4143 -1.1227
  473MPD2    H3 7097   1.197   1.146  14.008 -1.4535  0.6871  1.2994
  473MPD2     N 7098   1.233   1.583  13.956  0.0459 -0.4946  0.4118
  473MPD2    H5 7099   1.307   1.589  14.026 -0.6995 -1.2100  1.2555
  473MPD2    N1 7100   0.903   1.330  13.720 -0.5307 -0.5334 -0.9592
  473MPD2    H7 7101   0.882   1.418  13.675 -2.1364  0.2689  1.3887
  474TMC3    C1 7102   1.199   1.796  14.040  0.3815  0.1550  0.6168
  474TMC3    C2 7103   1.111   1.888  14.091  0.4990  0.0602  0.5803
  474TMC3    C3 7104   1.154   1.985  14.173 -0.2357  0.1859  0.5612
  474TMC3    C4 7105   1.331   1.819  14.063  0.3462  0.0257  0.5734
  474TMC3    C5 7106   1.371   1.914  14.153 -0.5916 -0.0410 -0.1180
  474TMC3    C6 7107   1.280   2.003  14.207  0.1941 -0.7581 -0.3466
  474TMC3     C 7108   1.151   1.695  13.948 -0.6874 -0.0209  0.6825
  474TMC3     O 7109   1.037   1.718  13.899 -0.1815 -0.0098  0.4706
  474TMC3     H 7110   1.005   1.881  14.070  0.7246 -1.3050 -0.1017
  474TMC3    H1 7111   1.410   1.759  14.018  0.6405  2.1252 -1.7378
  474TMC3    H2 7112   1.304   2.085  14.273 -1.0485  0.0896 -0.9438
  474TMC3    C7 7113   1.512   1.927  14.200  0.5966 -0.2267 -0.1335
  474TMC3    C8 7114   1.064   2.095  14.196 -0.1579  0.2856 -0.2802
  474TMC3    O1 7115   1.597   1.913  14.113 -0.0249  0.2032  0.2972
  474TMC3    O2 7116   0.942   2.070  14.187  0.4227 -0.5124 -0.4824
  475MPD2     C 7117   4.407   4.584  10.451  1.0552  0.2199  0.5615
  475MPD2    C1 7118   4.450   4.591  10.581 -0.2569  0.2417 -0.3551
  475MPD2    C2 7119   4.364   4.564  10.685  0.5098  0.5005 -0.2691
  475MPD2    C3 7120   4.237   4.534  10.662  0.2905 -0.1724 -0.2511
  475MPD2    C4 7121   4.199   4.510  10.531 -0.1905  0.6858  0.4753
  475MPD2    C5 7122   4.280   4.548  10.425 -0.5857  0.5053 -0.8067
  475MPD2     H 7123   4.398   4.579  10.786 -2.2192 -1.6730  0.9913
  475MPD2    H1 7124   4.098   4.475  10.514  0.6356 -0.9301 -1.0686
  475MPD2    H2 7125   4.477   4.608  10.372  0.2312 -0.7438 -0.4643
  475MPD2    H3 7126   4.240   4.545  10.324 -1.9109 -1.6769 -0.2212
  475MPD2     N 7127   4.146   4.519  10.768  0.4209  0.0841 -0.2339
  475MPD2    H5 7128   4.176   4.540  10.863 -1.1808  1.1713  0.0219
  475MPD2    N1 7129   4.583   4.630  10.610  0.0045 -0.6688  0.5308
  475MPD2    H7 7130   4.615   4.629  10.706  1.3097  2.4078  0.1399
  476TMC3    C1 7131   0.034   0.013  10.590 -0.4987  0.0506 -0.4662
  476TMC3    C2 7132   0.032   0.140  10.540  0.2311 -0.4071  0.1189
  476TMC3    C3 7133   0.047   0.250  10.621 -0.4799  0.2782 -0.1340
  476TMC3    C4 7134   0.039   0.001  10.723  0.1140 -0.4220 -0.3755
  476TMC3    C5 7135   0.039   0.108  10.814 -0.4671  0.5345 -0.4648
  476TMC3    C6 7136   0.043   0.233  10.758 -0.4107  0.5770 -0.7177
  476TMC3     C 7137   4.677   4.677  10.519 -0.2666 -0.0621 -1.0584
  476TMC3     O 7138   4.673   4.692  10.398  0.5892 -0.3503  0.6888
  476TMC3     H 7139   0.001   0.151  10.436  1.8694 -1.0143 -0.4366
  476TMC3    H1 7140   0.046   4.642  10.771  2.3540 -0.8540 -1.6012
  476TMC3    H2 7141   0.038   0.316  10.827  0.4138  1.4291 -1.6957
  476TMC3    C7 7142   4.682   0.084  10.923 -0.3223  0.2729  0.0508
  476TMC3    C8 7143   0.029   0.384  10.556 -0.4073 -0.0714  0.4140
  476TMC3    O1 7144   4.628   4.715  10.922 -0.6693  0.3652  0.0536
  476TMC3    O2 7145   0.082   0.483  10.611 -0.1348 -0.6137  0.1179
  477MPD2     C 7146   1.999   1.591  12.083  0.5747 -0.2177  0.2841
  477MPD2    C1 7147   1.917   1.493  12.044 -1.0292  0.1499  0.3375
  477MPD2    C2 7148   1.893   1.387  12.132  0.4690 -0.2433  0.1605
  477MPD2    C3 7149   1.949   1.377  12.260 -0.0238  1.1328 -0.6972
  477MPD2    C4 7150   2.033   1.487  12.295  0.2156  0.9183  0.8012
  477MPD2    C5 7151   2.060   1.585  12.205  0.0071  0.0715  0.7100
  477MPD2     H 7152   1.826   1.305  12.107  1.5646 -0.2148 -2.9471
  477MPD2    H1 7153   2.092   1.507  12.383  0.4529  2.2358  0.3524
  477MPD2    H2 7154   2.013   1.682  12.026 -2.1165 -0.1376 -0.2592
  477MPD2    H3 7155   2.104   1.675  12.246  0.0609  0.9577 -1.3066
  477MPD2     N 7156   1.911   1.272  12.351  0.3632 -0.1228 -0.1384
  477MPD2    H5 7157   1.862   1.191  12.316 -0.9035  0.1243  1.0838
  477MPD2    N1 7158   1.843   1.514  11.928 -0.2764 -0.0599  0.7567
  477MPD2    H7 7159   1.843   1.602  11.879 -0.8354  0.0718  0.9972
  478TMC3    C1 7160   1.689   1.477  11.762  0.4220 -0.2003 -0.2744
  478TMC3    C2 7161   1.621   1.591  11.784  0.9558 -0.1585 -0.9924
  478TMC3    C3 7162   1.507   1.621  11.712 -0.1927 -0.0772 -0.0790
  478TMC3    C4 7163   1.666   1.394  11.657  0.6446  0.3386  0.2212
  478TMC3    C5 7164   1.556   1.425  11.578 -0.8217  0.1885  0.5550
  478TMC3    C6 7165   1.473   1.532  11.611  0.2064  0.8766 -0.2460
  478TMC3     C 7166   1.765   1.418  11.870 -0.7208 -0.3452 -0.2547
  478TMC3     O 7167   1.787   1.296  11.866  0.4055 -0.1437 -0.4086
  478TMC3     H 7168   1.640   1.662  11.864  2.3965 -1.2489 -0.3624
  478TMC3    H1 7169   1.724   1.303  11.643  0.3007  0.0667  0.5466
  478TMC3    H2 7170   1.383   1.548  11.553  0.4000 -0.6177 -0.9555
  478TMC3    C7 7171   1.543   1.345  11.456  0.4618  0.2986 -0.7746
  478TMC3    C8 7172   1.409   1.666  11.803 -0.2696 -0.0184 -0.4830
  478TMC3    O1 7173   1.614   1.245  11.444 -0.3738 -0.0092 -0.8380
  478TMC3    O2 7174   1.410   1.618  11.914  0.0063 -0.3039  0.2753
  479MPD2     C 7175   0.752   3.552  15.132  0.2622 -0.0426  0.5517
  479MPD2    C1 7176   0.724   3.437  15.198 -0.2810  0.6440 -0.0741
  479MPD2    C2 7177   0.753   3.426  15.333  0.1305 -0.3136  0.2264
  479MPD2    C3 7178   0.810   3.534  15.399 -0.3662 -0.6284  0.5242
  479MPD2    C4 7179   0.835   3.654  15.331 -0.2585 -0.3443  0.7144
  479MPD2    C5 7180   0.800   3.666  15.199  0.5058  0.2673 -0.1606
  479MPD2     H 7181   0.754   3.329  15.381 -0.8445 -0.5550 -0.2551
  479MPD2    H1 7182   0.879   3.733  15.391 -0.9015  0.5131  0.0472
  479MPD2    H2 7183   0.719   3.567  15.030  0.1818 -1.4398  0.3816
  479MPD2    H3 7184   0.804   3.768  15.162 -0.3109  0.0019 -0.9711
  479MPD2     N 7185   0.850   3.531  15.535  0.1629  0.1960  0.2713
  479MPD2    H5 7186   0.901   3.614  15.562 -0.7176  0.9543 -0.4205
  479MPD2    N1 7187   0.654   3.338  15.125 -0.5983  0.3082  0.0563
  479MPD2    H7 7188   0.637   3.356  15.026 -2.4364 -0.5282  0.2123
  480TMC3    C1 7189   0.609   3.172  15.731  0.2617 -0.6804 -0.4307
  480TMC3    C2 7190   0.492   3.188  15.665 -0.3045 -0.5191 -0.9688
  480TMC3    C3 7191   0.482   3.303  15.596  0.6824  0.3022  0.3696
  480TMC3    C4 7192   0.716   3.247  15.705 -0.2637 -0.2976  0.6703
  480TMC3    C5 7193   0.714   3.351  15.625  0.0054 -0.1676 -0.2104
  480TMC3    C6 7194   0.593   3.383  15.568  0.9876  0.1979  0.2819
  480TMC3     C 7195   0.619   3.069  15.833 -0.3305 -0.5639 -0.2375
  480TMC3     O 7196   0.730   3.021  15.846  0.2314  0.0588 -0.0358
  480TMC3     H 7197   0.409   3.120  15.680  1.5960 -2.6173 -0.1277
  480TMC3    H1 7198   0.808   3.231  15.760  1.0146  0.5871 -1.2249
  480TMC3    H2 7199   0.588   3.477  15.514 -1.1855  0.7117  1.3829
  480TMC3    C7 7200   0.821   3.449  15.642  0.2053  0.0841  0.7237
  480TMC3    C8 7201   0.354   3.308  15.521  0.3336  0.1405  0.0607
  480TMC3    O1 7202   0.867   3.454  15.753 -0.7562 -0.2867  0.2819
  480TMC3    O2 7203   0.264   3.235  15.551  0.1111 -0.0794  0.2846
  481MPD2     C 7204   2.455   3.251  14.413 -0.5734 -0.2864 -0.2893
  481MPD2    C1 7205   2.339   3.181  14.412 -0.0484  0.2745  0.1831
  481MPD2    C2 7206   2.300   3.123  14.535 -0.1613  0.1079 -0.2881
  481MPD2    C3 7207   2.370   3.152  14.653  0.8162  0.6598  0.0662
  481MPD2    C4 7208   2.487   3.225  14.647 -0.3271 -0.1840 -0.7373
  481MPD2    C5 7209   2.521   3.283  14.526 -0.2432 -0.3113 -0.0660
  481MPD2     H 7210   2.208   3.066  14.539  0.0809 -0.0789  2.7935
  481MPD2    H1 7211   2.535   3.246  14.742  2.0123  1.1464 -2.2247
  481MPD2    H2 7212   2.492   3.297  14.322 -3.1495  2.0664 -0.1566
  481MPD2    H3 7213   2.605   3.351  14.520  1.9395 -2.8942  1.1989
  481MPD2     N 7214   2.331   3.104  14.776 -0.0782  0.2060  0.5605
  481MPD2    H5 7215   2.397   3.121  14.852 -0.2255  0.8990  0.5268
  481MPD2    N1 7216   2.265   3.160  14.290  0.4418  0.0886  0.3060
  481MPD2    H7 7217   2.314   3.188  14.206 -0.1561  0.2409  0.0133
  482TMC3    C1 7218   2.055   3.110  14.163  0.0742  0.2325 -0.3762
  482TMC3    C2 7219   1.924   3.073  14.161  0.2100 -0.2385  0.1446
  482TMC3    C3 7220   1.860   3.087  14.043  0.2912 -0.4458  0.2616
  482TMC3    C4 7221   2.118   3.170  14.054  1.2173  0.1503 -0.1508
  482TMC3    C5 7222   2.042   3.195  13.942 -0.0281  0.0733  0.0054
  482TMC3    C6 7223   1.917   3.151  13.935 -0.1743  0.0537 -0.5830
  482TMC3     C 7224   2.135   3.103  14.287  0.4421 -0.2439  0.5595
  482TMC3     O 7225   2.066   3.063  14.382 -0.3460  0.8717 -0.4635
  482TMC3     H 7226   1.869   3.026  14.242 -0.0037 -0.3291 -0.0566
  482TMC3    H1 7227   2.221   3.204  14.055  1.6641 -1.2555  1.4664
  482TMC3    H2 7228   1.862   3.150  13.842 -1.4907  0.2036  0.2050
  482TMC3    C7 7229   2.076   3.319  13.878 -0.0161  0.6244 -0.1854
  482TMC3    C8 7230   1.739   3.012  14.023 -0.3344 -0.1591  0.5128
  482TMC3    O1 7231   2.174   3.384  13.916 -0.3793  0.0727 -0.2919
  482TMC3    O2 7232   1.733   2.911  14.094 -0.5372  0.1279 -0.2687
  483TMC3    C1 7233   0.918   1.652   0.829  0.0947 -0.0134  0.4735
  483TMC3    C2 7234   0.997   1.725   0.748  0.4771  0.1486  0.5032
  483TMC3    C3 7235   1.131   1.692   0.748 -0.0089  0.6402 -0.4259
  483TMC3    C4 7236   0.970   1.547   0.902 -0.1666 -0.3465 -0.3082
  483TMC3    C5 7237   1.105   1.545   0.919  0.0770  0.1181 -1.4300
  483TMC3    C6 7238   1.192   1.603   0.828 -0.1597 -0.3756  0.4835
  483TMC3     C 7239   0.779   1.647   0.802 -0.2070  0.8615  0.0618
  483TMC3     O 7240   0.726   1.757   0.784 -0.4802 -0.0312 -0.0649
  483TMC3     H 7241   0.957   1.783   0.665 -0.8680 -1.0014  0.3433
  483TMC3    H1 7242   0.911   1.476   0.959 -1.0083  1.4461  1.0622
  483TMC3    H2 7243   1.299   1.587   0.831 -0.2517 -0.9787  0.6360
  483TMC3    C7 7244   1.158   1.420   0.970 -0.3805  0.5225 -0.3823
  483TMC3    C8 7245   1.208   1.768   0.655  0.6730  0.5651  0.5021
  483TMC3    O1 7246   1.244   1.359   0.904  0.1833  0.1201  0.1684
  483TMC3    O2 7247   1.144   1.809   0.563 -0.8518  0.5898 -0.1947
  484MPD2     C 7248   2.228   4.477  12.317  0.6117 -0.7008 -1.1240
  484MPD2    C1 7249   2.239   4.450  12.451 -0.3391  0.5534 -0.5053
  484MPD2    C2 7250   2.351   4.492  12.514  0.2559 -0.0265  0.9710
  484MPD2    C3 7251   2.455   4.558  12.455 -0.6436 -0.7228 -0.4082
  484MPD2    C4 7252   2.439   4.568  12.318 -1.1326  0.2736 -0.1917
  484MPD2    C5 7253   2.332   4.529  12.247  0.0533 -0.0317 -0.9304
  484MPD2     H 7254   2.353   4.471  12.621 -1.9066 -0.8841  0.8511
  484MPD2    H1 7255   2.521   4.622  12.272 -0.7500  1.3019  1.6825
  484MPD2    H2 7256   2.139   4.449  12.262 -0.5111 -0.1252  0.4124
  484MPD2    H3 7257   2.328   4.559  12.143  2.3169  0.3793 -0.9160
  484MPD2     N 7258   2.566   4.610  12.527 -0.4538  0.3620 -0.2185
  484MPD2    H5 7259   2.635   4.651  12.465 -0.4907  0.8030  0.0333
  484MPD2    N1 7260   2.142   4.357  12.504  0.0432  0.8214  0.1238
  484MPD2    H7 7261   2.071   4.327  12.438  1.1240 -0.3547 -0.5029
  485TMC3    C1 7262   2.727   4.670  12.681  0.6858 -0.3817 -0.1579
  485TMC3    C2 7263   2.812   4.609  12.765 -0.5787 -0.9624 -0.0924
  485TMC3    C3 7264   2.923   4.674  12.801  0.2600 -0.2878  0.1968
  485TMC3    C4 7265   2.755   0.044  12.605 -0.1403  0.6435  0.5858
  485TMC3    C5 7266   2.873   0.102  12.637  0.1687  0.9582  0.3125
  485TMC3    C6 7267   2.949   0.061  12.743  0.3463  0.5429 -0.4207
  485TMC3     C 7268   2.609   4.593  12.656 -0.3168 -0.4490 -0.3775
  485TMC3     O 7269   2.574   4.514  12.745 -0.5323 -0.7533 -0.3620
  485TMC3     H 7270   2.798   4.507  12.797 -0.4656 -0.3731  1.8368
  485TMC3    H1 7271   2.690   0.095  12.535 -1.3660  0.7325  1.7974
  485TMC3    H2 7272   3.036   0.118  12.772  1.2123 -0.1283 -1.7052
  485TMC3    C7 7273   2.948   0.158  12.528  0.0577  0.3920 -0.3141
  485TMC3    C8 7274   3.034   4.594  12.776 -0.1467 -0.3521 -0.3934
  485TMC3    O1 7275   2.877   0.210  12.440  0.0317  0.2896 -0.2608
  485TMC3    O2 7276   3.116   4.639  12.696 -0.0653 -0.1540 -0.1474
  486MPD2     C 7277   0.161   3.301  12.891  0.8651 -0.2359 -0.1604
  486MPD2    C1 7278   0.127   3.301  12.758  0.1782 -0.3634 -0.1374
  486MPD2    C2 7279   0.048   3.405  12.711 -0.5796 -0.0567  0.6718
  486MPD2    C3 7280   0.002   3.509  12.790 -0.2230 -0.4302  1.1493
  486MPD2    C4 7281   0.046   3.509  12.929 -0.4393  0.1627 -0.0887
  486MPD2    C5 7282   0.123   3.405  12.971  0.9885  0.4721 -0.1767
  486MPD2     H 7283   0.020   3.397  12.607  0.5153  0.3504  0.3525
  486MPD2    H1 7284   0.020   3.590  12.996  0.1302  1.6322 -1.6351
  486MPD2    H2 7285   0.207   3.213  12.933  2.1826  0.2496 -0.5775
  486MPD2    H3 7286   0.163   3.403  13.071  1.0186  0.9039 -0.1813
  486MPD2     N 7287   4.661   3.615  12.722  0.6460  0.3979 -0.4238
  486MPD2    H5 7288   4.653   3.608  12.622  0.5673 -0.1827 -0.3751
  486MPD2    N1 7289   0.173   3.194  12.689 -0.1858 -0.4859 -0.1250
  486MPD2    H7 7290   0.244   3.139  12.737 -0.0425  0.3096  0.5689
  487TMC3    C1 7291   0.192   3.035  12.521 -0.3420  1.0903  0.4221
  487TMC3    C2 7292   0.114   2.945  12.456 -0.1026  0.4411 -0.1301
  487TMC3    C3 7293   0.151   2.819  12.449 -0.6825 -0.6783 -0.0528
  487TMC3    C4 7294   0.312   3.003  12.567 -0.3949 -1.2404 -0.5729
  487TMC3    C5 7295   0.342   2.869  12.577  0.1787 -0.3833  0.6522
  487TMC3    C6 7296   0.281   2.779  12.490  0.3056  0.8404 -0.6531
  487TMC3     C 7297   0.121   3.150  12.569 -0.8866 -0.2500 -0.2648
  487TMC3     O 7298   0.048   3.212  12.491 -0.0605  0.1578  0.2028
  487TMC3     H 7299   0.022   2.981  12.410  0.1587  1.0269 -0.1888
  487TMC3    H1 7300   0.375   3.064  12.630  0.0120 -0.8129 -1.3844
  487TMC3    H2 7301   0.306   2.674  12.495 -1.0681  0.5904  1.2877
  487TMC3    C7 7302   0.345   2.837  12.721  0.2482  0.2884  0.5717
  487TMC3    C8 7303   0.043   2.748  12.517 -0.4821  0.1973 -0.8688
  487TMC3    O1 7304   0.321   2.928  12.796 -0.2409  0.0805 -0.2002
  487TMC3    O2 7305   4.703   2.811  12.595 -0.0528 -0.4092  0.0349
  488MPD2     C 7306   0.163   0.003  16.157  0.0182  0.3017  0.0222
  488MPD2    C1 7307   0.241   0.079  16.246 -0.2823 -0.4980  0.9365
  488MPD2    C2 7308   0.256   0.040  16.375 -0.7806  0.1609 -0.5083
  488MPD2    C3 7309   0.186   4.664  16.423 -0.4816  0.2522 -0.1219
  488MPD2    C4 7310   0.092   4.602  16.343 -0.3457  0.1969 -0.5595
  488MPD2    C5 7311   0.080   4.645  16.214  0.1537  0.5755  0.3792
  488MPD2     H 7312   0.320   0.100  16.439 -1.3183  1.7597 -1.4756
  488MPD2    H1 7313   0.041   4.514  16.381  1.1904  0.3096  1.7253
  488MPD2    H2 7314   0.155   0.020  16.050  2.3443 -2.5019 -0.6232
  488MPD2    H3 7315   0.014   4.591  16.148 -0.5060 -0.7218  2.1001
  488MPD2     N 7316   0.200   4.635  16.560  0.1915  0.1975 -0.5289
  488MPD2    H5 7317   0.281   4.680  16.603 -0.0792  0.6731 -0.5166
  488MPD2    N1 7318   0.309   0.198  16.208 -0.7383 -0.6834 -0.6197
  488MPD2    H7 7319   0.355   0.249  16.283 -2.7282  0.5893 -0.2517
  489TMC3    C1 7320   0.157   4.583  16.787  0.3977 -0.1051 -0.1786
  489TMC3    C2 7321   0.231   4.694  16.825  0.3008 -0.1074  0.0072
  489TMC3    C3 7322   0.211   0.014  16.945 -0.0674 -0.3402 -0.4842
  489TMC3    C4 7323   0.053   4.541  16.864 -0.3854  0.8908  0.1256
  489TMC3    C5 7324   0.032   4.605  16.977  0.9034 -0.4122  0.2376
  489TMC3    C6 7325   0.108   4.710  17.022 -0.2409 -0.1625 -0.3694
  489TMC3     C 7326   0.119   4.565  16.644 -0.3699 -0.3436 -0.0257
  489TMC3     O 7327   0.021   4.502  16.616  0.3490  0.0609  0.8002
  489TMC3     H 7328   0.315   4.728  16.767 -0.0229 -0.1362 -0.4781
  489TMC3    H1 7329   4.720   4.464  16.836 -0.3083  0.0763  2.1999
  489TMC3    H2 7330   0.070   0.021  17.111 -0.5097 -1.6858  0.3523
  489TMC3    C7 7331   4.720   4.530  17.090 -0.1065  0.5840 -0.5745
  489TMC3    C8 7332   0.267   0.152  16.961  0.0138  0.3727  0.3096
  489TMC3    O1 7333   0.024   4.565  17.198  0.8141  0.5423  0.2548
  489TMC3    O2 7334   0.284   0.215  16.858  0.0979  0.6986  0.1184
  490MPD2     C 7335   1.151   0.024  16.794  0.4396  1.0376 -0.3859
  490MPD2    C1 7336   1.184   4.671  16.894  0.1878 -0.0472 -0.0082
  490MPD2    C2 7337   1.316   4.662  16.945 -0.0002  0.8074  0.3605
  490MPD2    C3 7338   1.408   0.015  16.895 -0.2499  0.1219  0.8974
  490MPD2    C4 7339   1.371   0.108  16.805  0.8333 -0.2702  0.2648
  490MPD2    C5 7340   1.244   0.111  16.755 -0.1277 -0.1218 -0.4399
  490MPD2     H 7341   1.337   4.577  17.009 -1.2889 -0.2550 -0.6161
  490MPD2    H1 7342   1.445   0.182  16.774  0.0477 -1.0705 -3.5541
  490MPD2    H2 7343   1.052   0.034  16.753  0.9616 -1.0936 -2.1589
  490MPD2    H3 7344   1.218   0.193  16.688 -1.1969 -1.3687 -1.5611
  490MPD2     N 7345   1.543   0.011  16.953  0.3197  0.5562  0.0948
  490MPD2    H5 7346   1.601   0.092  16.932  2.0861 -0.8502 -0.4462
  490MPD2    N1 7347   1.095   4.580  16.960 -0.2169 -0.5870 -0.0595
  490MPD2    H7 7348   1.132   4.515  17.028  1.2952  1.5819  1.1845
  491TMC3    C1 7349   0.891   4.491  17.039  0.1745  0.5139  0.2942
  491TMC3    C2 7350   0.951   4.473  17.161  0.3196 -0.9488  0.1465
  491TMC3    C3 7351   0.914   4.367  17.235  0.6670  0.4842  0.4138
  491TMC3    C4 7352   0.796   4.410  16.987  0.3725 -0.0312 -0.0211
  491TMC3    C5 7353   0.753   4.305  17.070 -0.1492 -0.3001  0.0438
  491TMC3    C6 7354   0.812   4.282  17.192  0.3707  0.5501  0.2877
  491TMC3     C 7355   0.957   4.581  16.946 -0.0662  0.0594 -0.6248
  491TMC3     O 7356   0.890   4.652  16.876 -0.6516 -0.3554  0.1548
  491TMC3     H 7357   1.018   4.547  17.203  2.4378 -2.9109  0.2200
  491TMC3    H1 7358   0.749   4.427  16.891  0.6658 -0.9589 -0.3240
  491TMC3    H2 7359   0.774   4.204  17.256  0.1007  0.3700 -0.0906
  491TMC3    C7 7360   0.649   4.209  17.022  0.0623 -0.5829 -0.0009
  491TMC3    C8 7361   0.954   4.353  17.377  0.0559  0.2171  0.2145
  491TMC3    O1 7362   0.643   4.095  17.071  0.2503  0.3560  0.3719
  491TMC3    O2 7363   0.891   4.267  17.442  0.8057  0.4156  0.3391
  492MPD2     C 7364   1.392   4.490  11.387  0.2824  0.2116  0.3894
  492MPD2    C1 7365   1.299   4.484  11.286 -0.4640  0.5266 -0.6201
  492MPD2    C2 7366   1.176   4.416  11.308  0.4798 -0.2874 -0.8770
  492MPD2    C3 7367   1.159   4.334  11.418 -0.1011  0.7936  0.0463
  492MPD2    C4 7368   1.248   4.358  11.520 -0.6176  0.1178  0.2849
  492MPD2    C5 7369   1.365   4.423  11.506 -0.4129  0.0671  0.1444
  492MPD2     H 7370   1.100   4.426  11.231  0.2875  0.3360 -0.6081
  492MPD2    H1 7371   1.227   4.294  11.605  0.6035 -0.5217  0.0900
  492MPD2    H2 7372   1.477   4.556  11.378  0.8473 -0.3299  1.6534
  492MPD2    H3 7373   1.426   4.430  11.596 -0.4833  2.1756  0.0356
  492MPD2     N 7374   1.039   4.261  11.441 -0.7812  0.1957  0.7942
  492MPD2    H5 7375   1.039   4.205  11.525  1.7815  0.1068  0.7242
  492MPD2    N1 7376   1.327   4.553  11.161  0.2282 -0.2450 -0.2223
  492MPD2    H7 7377   1.418   4.599  11.164 -0.5596  1.2471  0.7789
  493TMC3    C1 7378   1.312   4.602  10.929  0.1306 -0.6555  0.0185
  493TMC3    C2 7379   1.381   4.715  10.953  0.3330 -0.7287 -0.3966
  493TMC3    C3 7380   1.386   0.065  10.840 -0.6609  0.6303  0.2922
  493TMC3    C4 7381   1.237   4.579  10.816 -0.3434  0.1158 -0.4349
  493TMC3    C5 7382   1.240   4.675  10.714 -0.1740  0.6235  0.2864
  493TMC3    C6 7383   1.316   0.053  10.722  0.3324  0.4112 -0.0157
  493TMC3     C 7384   1.264   4.527  11.045 -0.1736  0.0116  0.6195
  493TMC3     O 7385   1.170   4.457  11.024  0.0748  0.3373 -0.5959
  493TMC3     H 7386   1.443   4.732  11.041  2.8444 -1.3804 -2.0629
  493TMC3    H1 7387   1.206   4.477  10.794  0.0930 -0.0236 -0.4236
  493TMC3    H2 7388   1.297   0.127  10.644 -0.4549  0.0450 -0.1746
  493TMC3    C7 7389   1.151   4.643  10.603 -0.0618  0.4713  0.1907
  493TMC3    C8 7390   1.470   0.182  10.856  0.0689  0.3409 -0.3758
  493TMC3    O1 7391   1.057   4.571  10.635 -0.3010 -0.0232  0.0594
  493TMC3    O2 7392   1.496   0.214  10.970  0.1424  0.5526 -0.7443
  494TMC3    C1 7393   1.848   1.284   0.583  0.1765 -0.4929 -0.7696
  494TMC3    C2 7394   1.831   1.156   0.538 -0.1388  0.0583 -0.2711
  494TMC3    C3 7395   1.811   1.135   0.407 -0.2742 -0.5894  0.0694
  494TMC3    C4 7396   1.857   1.389   0.491  0.1100 -0.7710 -0.2046
  494TMC3    C5 7397   1.822   1.371   0.356 -0.2837 -0.6135 -0.0466
  494TMC3    C6 7398   1.796   1.242   0.318 -0.8344  0.0676 -0.1715
  494TMC3     C 7399   1.910   1.305   0.711  0.2928 -0.0182 -0.0953
  494TMC3     O 7400   1.981   1.402   0.729 -0.5546  0.1079 -0.0265
  494TMC3     H 7401   1.842   1.063   0.593  0.1867  0.7677  0.8752
  494TMC3    H1 7402   1.881   1.488   0.527  0.4665 -0.6723 -0.7134
  494TMC3    H2 7403   1.794   1.220   0.212 -0.6106  1.3204 -0.4290
  494TMC3    C7 7404   1.855   1.458   0.241  0.0514 -0.0144  0.2952
  494TMC3    C8 7405   1.868   1.016   0.362 -0.9898  0.2333 -0.5720
  494TMC3    O1 7406   1.823   1.426   0.130  0.4911 -0.4189 -0.1128
  494TMC3    O2 7407   1.958   0.974   0.439  0.1895  0.4750 -0.0109
  495TMC3    C1 7408   0.547   3.817  14.714 -0.1883 -0.1579 -0.6461
  495TMC3    C2 7409   0.448   3.828  14.617  0.0386  0.1160 -0.0304
  495TMC3    C3 7410   0.315   3.808  14.656  0.4076 -0.6872 -0.2464
  495TMC3    C4 7411   0.512   3.783  14.840  0.1371 -0.3863 -0.4087
  495TMC3    C5 7412   0.384   3.764  14.868  0.3860  0.2383 -0.0088
  495TMC3    C6 7413   0.287   3.770  14.781  0.5508 -0.1143  0.0806
  495TMC3     C 7414   0.668   3.745  14.679 -0.1799 -0.6425 -0.2326
  495TMC3     O 7415   0.764   3.772  14.750 -0.1501  0.2611  0.1850
  495TMC3     H 7416   0.478   3.869  14.522 -1.1693  2.8830  0.7858
  495TMC3    H1 7417   0.580   3.759  14.922  0.1367 -1.3426 -0.6884
  495TMC3    H2 7418   0.185   3.750  14.812  0.5679  1.6465  1.2468
  495TMC3    C7 7419   0.367   3.703  14.999  0.5109  0.6205 -0.4997
  495TMC3    C8 7420   0.233   3.732  14.566 -0.7352  0.2364 -0.2927
  495TMC3    O1 7421   0.440   3.736  15.093  0.3014 -0.0065  0.0018
  495TMC3    O2 7422   0.133   3.677  14.610 -0.0844 -0.0693  0.2500
  496MPD2     C 7423   2.594   3.843  15.209 -0.0977  0.2078 -0.0228
  496MPD2    C1 7424   2.660   3.792  15.311 -0.4578  0.6445  0.0982
  496MPD2    C2 7425   2.598   3.698  15.388  0.2424  0.0681 -0.5952
  496MPD2    C3 7426   2.471   3.651  15.354  0.2218  0.4651  0.8356
  496MPD2    C4 7427   2.412   3.690  15.240 -0.0591  0.8375  1.1876
  496MPD2    C5 7428   2.475   3.790  15.164 -0.2246 -0.1545 -0.0716
  496MPD2     H 7429   2.646   3.644  15.469 -2.6778  1.5345  2.0972
  496MPD2    H1 7430   2.331   3.642  15.186  0.3109 -0.4696  1.8069
  496MPD2    H2 7431   2.628   3.924  15.145 -0.2928  1.2023  1.1353
  496MPD2    H3 7432   2.419   3.827  15.079  1.1170  0.4121 -0.7115
  496MPD2     N 7433   2.401   3.554  15.427  0.0959  0.1746 -0.2699
  496MPD2    H5 7434   2.313   3.520  15.391 -0.2527  2.2592 -1.3446
  496MPD2    N1 7435   2.799   3.828  15.323  0.3889  0.0492  0.5175
  496MPD2    H7 7436   2.832   3.897  15.258  1.7349 -0.8381  0.2578
  497TMC3    C1 7437   2.339   3.401  15.598  0.0627  0.0223 -0.0427
  497TMC3    C2 7438   2.230   3.366  15.527  0.9225 -0.5917 -0.1554
  497TMC3    C3 7439   2.131   3.301  15.593  0.8912  0.0235  0.4021
  497TMC3    C4 7440   2.351   3.365  15.731  0.2370  0.2394  0.0089
  497TMC3    C5 7441   2.250   3.288  15.789  0.1301 -0.2868 -0.7052
  497TMC3    C6 7442   2.135   3.264  15.725 -0.3332  0.2564 -0.5291
  497TMC3     C 7443   2.439   3.488  15.542 -0.2149 -0.2456  0.1582
  497TMC3     O 7444   2.544   3.515  15.599 -0.3304 -0.2603  0.1556
  497TMC3     H 7445   2.223   3.379  15.420  1.2216 -0.7184 -0.1906
  497TMC3    H1 7446   2.440   3.395  15.785  0.7906 -0.7754 -0.3496
  497TMC3    H2 7447   2.065   3.194  15.769 -0.4882  1.1564  0.6767
  497TMC3    C7 7448   2.275   3.199  15.903 -0.2774 -0.1496 -0.2186
  497TMC3    C8 7449   2.016   3.260  15.523  1.0218 -0.8176  0.2636
  497TMC3    O1 7450   2.191   3.124  15.945 -0.0430 -0.0060  0.2684
  497TMC3    O2 7451   1.937   3.199  15.593 -0.4537 -0.7982 -0.2989
  498MPD2     C 7452   2.803   0.322  10.263  0.8988  0.2965 -0.2987
  498MPD2    C1 7453   2.856   0.200  10.267 -0.2880  0.3266 -0.9403
  498MPD2    C2 7454   2.840   0.116  10.373  0.1275 -0.3007 -0.0087
  498MPD2    C3 7455   2.748   0.138  10.472 -0.0560 -0.4935 -0.7249
  498MPD2    C4 7456   2.692   0.254  10.460  0.5894 -0.3916  0.2878
  498MPD2    C5 7457   2.716   0.349  10.362  0.5583 -0.5585 -0.8450
  498MPD2     H 7458   2.899   0.026  10.391 -1.2508 -1.2293 -0.1594
  498MPD2    H1 7459   2.623   0.287  10.537  1.0290  1.5937 -0.1775
  498MPD2    H2 7460   2.827   0.398  10.189 -2.3274  1.8722  0.2831
  498MPD2    H3 7461   2.673   0.448  10.365 -3.8461 -2.4116 -2.0431
  498MPD2     N 7462   2.716   0.039  10.568  0.0625 -0.6245  0.3561
  498MPD2    H5 7463   2.753   4.684  10.554  0.6738 -0.2964 -0.2091
  498MPD2    N1 7464   2.945   0.176  10.162  0.2063  0.0539  0.1373
  498MPD2    H7 7465   2.961   0.247  10.091  0.1618  0.9641  1.0394
  499TMC3    C1 7466   3.131   0.080  10.061 -0.1803 -0.8151 -0.1703
  499TMC3    C2 7467   3.188   4.707  10.013 -0.8186 -0.1247 -0.2767
  499TMC3    C3 7468   3.304   4.716   9.942 -1.0426  0.4335 -0.8001
  499TMC3    C4 7469   3.183   0.205  10.042  0.7591 -0.1513 -0.3078
  499TMC3    C5 7470   3.301   0.216   9.971 -0.2303  0.6974  0.2567
  499TMC3    C6 7471   3.360   0.101   9.919 -0.1963  0.1047 -0.9147
  499TMC3     C 7472   3.025   0.069  10.159  0.0714  0.5469 -0.2475
  499TMC3     O 7473   3.013   4.697  10.212 -1.1039 -0.2478  0.1802
  499TMC3     H 7474   3.135   4.613  10.027 -1.2121 -0.1224 -1.7310
  499TMC3    H1 7475   3.144   0.292  10.092  4.8932  1.2033  0.6152
  499TMC3    H2 7476   3.453   0.102   9.862 -0.4255 -0.5204 -1.2958
  499TMC3    C7 7477   3.379   0.329   9.984 -0.7933 -0.0541  0.4005
  499TMC3    C8 7478   3.370   4.597   9.889 -0.4909 -0.7604  0.2262
  499TMC3    O1 7479   3.458   0.350   9.894  0.3102 -0.1067  0.4247
  499TMC3    O2 7480   3.459   4.610   9.807  0.6129  0.0183  0.1911
  500MPD2     C 7481   0.552   0.659  10.836  0.2040 -0.3384 -0.1833
  500MPD2    C1 7482   0.579   0.712  10.710 -0.3265  0.1056 -0.8066
  500MPD2    C2 7483   0.477   0.760  10.628 -0.5187 -0.2789  0.7195
  500MPD2    C3 7484   0.350   0.759  10.678 -0.6015  0.3620  0.9996
  500MPD2    C4 7485   0.324   0.696  10.794  0.9315  0.0481  0.5452
  500MPD2    C5 7486   0.419   0.643  10.874 -0.0422 -0.3611  0.0837
  500MPD2     H 7487   0.497   0.809  10.533  1.7935  0.2667  1.4864
  500MPD2    H1 7488   0.222   0.684  10.829  1.3013  0.2119  1.6636
  500MPD2    H2 7489   0.636   0.624  10.895 -0.0489  0.8429  0.8627
  500MPD2    H3 7490   0.397   0.595  10.969 -0.6467 -2.1025 -0.9366
  500MPD2     N 7491   0.233   0.813  10.617 -0.2750 -0.3106 -0.4604
  500MPD2    H5 7492   0.148   0.812  10.672  0.7760  0.1359  1.1687
  500MPD2    N1 7493   0.709   0.728  10.663  0.3157 -0.2441  0.6584
  500MPD2    H7 7494   0.724   0.799  10.592 -0.8106  1.3104  1.9614
  501TMC3    C1 7495   0.945   0.699  10.657 -0.0291  0.5824  0.0718
  501TMC3    C2 7496   0.963   0.793  10.562 -0.2049 -0.2917 -0.2421
  501TMC3    C3 7497   1.083   0.829  10.524  0.0820  0.3379  0.1061
  501TMC3    C4 7498   1.058   0.653  10.723  0.3948 -0.4183 -0.2899
  501TMC3    C5 7499   1.177   0.712  10.699  0.0541  0.3974  0.1020
  501TMC3    C6 7500   1.191   0.792  10.593 -0.5901  0.1962  0.4310
  501TMC3     C 7501   0.821   0.666  10.715 -0.0520  0.3667  0.4203
  501TMC3     O 7502   0.815   0.570  10.790  0.6685 -0.4374  0.2739
  501TMC3     H 7503   0.880   0.832  10.503  1.7723  1.7407 -1.6930
  501TMC3    H1 7504   1.037   0.589  10.808  0.2430 -0.6169 -0.4751
  501TMC3    H2 7505   1.285   0.827  10.553  0.4808 -1.0041  1.9323
  501TMC3    C7 7506   1.271   0.716  10.809 -1.0434  0.1781 -0.1250
  501TMC3    C8 7507   1.095   0.963  10.477  0.3189 -0.5324  0.3419
  501TMC3    O1 7508   1.229   0.673  10.917 -0.0114  0.4135  0.0030
  501TMC3    O2 7509   1.184   1.028  10.534 -0.0509  0.2720 -0.4796
  502TMC3    C1 7510   0.194   4.486  14.884 -0.5016 -0.4447 -0.0714
  502TMC3    C2 7511   0.136   4.613  14.884  0.7523  0.2200  0.0284
  502TMC3    C3 7512   4.736   4.634  14.874  0.0039  0.1795 -0.8440
  502TMC3    C4 7513   0.110   4.377  14.868 -0.6273  0.1814  0.6887
  502TMC3    C5 7514   4.717   4.406  14.854 -0.1369 -0.1762  0.4129
  502TMC3    C6 7515   4.654   4.526  14.849 -0.3100  0.1854 -0.3166
  502TMC3     C 7516   0.305   4.469  14.980 -0.4680  0.2413 -0.0457
  502TMC3     O 7517   0.397   4.550  14.991 -0.1173  0.0596 -0.0719
  502TMC3     H 7518   0.202   4.698  14.898  2.4877 -1.2288  0.8073
  502TMC3    H1 7519   0.153   4.278  14.875 -0.5362  0.1127 -0.7901
  502TMC3    H2 7520   4.561   4.543  14.797 -1.3144 -0.2876  1.3506
  502TMC3    C7 7521   4.627   4.304  14.901 -0.7514 -0.2321 -0.2508
  502TMC3    C8 7522   4.702   0.019  14.804  0.3626 -0.2528 -0.2379
  502TMC3    O1 7523   4.690   4.202  14.929 -0.2113 -0.2743 -0.5710
  502TMC3    O2 7524   0.055   0.068  14.743  0.2863  0.1045 -0.0398
  503MPD2     C 7525   1.987   0.076  16.809 -0.0545  0.0721  0.3116
  503MPD2    C1 7526   2.062   0.142  16.902 -0.0131 -0.5430 -0.3260
  503MPD2    C2 7527   2.170   0.070  16.947 -0.1364  0.1638  0.4590
  503MPD2    C3 7528   2.193   4.677  16.913 -0.2066  0.8671 -0.1959
  503MPD2    C4 7529   2.122   4.611  16.814 -0.1505 -0.6575  0.0697
  503MPD2    C5 7530   2.015   4.686  16.763 -0.6203  0.6664  0.3175
  503MPD2     H 7531   2.219   0.106  17.037 -0.1042 -1.1071  0.9487
  503MPD2    H1 7532   2.153   4.516  16.773 -2.9787 -0.5096 -2.3668
  503MPD2    H2 7533   1.900   0.126  16.768  0.4801 -1.6916 -2.9291
  503MPD2    H3 7534   1.950   4.639  16.691  0.5837 -1.2802  0.5070
  503MPD2     N 7535   2.297   4.607  16.979 -0.4082  0.4153 -0.1351
  503MPD2    H5 7536   2.328   4.650  17.066  0.9557  1.0219 -0.9144
  503MPD2    N1 7537   2.039   0.272  16.944  0.8706  0.0142  0.5782
  503MPD2    H7 7538   2.091   0.310  17.022  1.1750  0.5484  0.1172
  504TMC3    C1 7539   2.462   4.467  17.035 -0.1138  0.2396 -0.5120
  504TMC3    C2 7540   2.428   4.486  17.165 -0.0320 -0.2256  1.1673
  504TMC3    C3 7541   2.522   4.464  17.257  0.3258 -0.0482  0.0290
  504TMC3    C4 7542   2.591   4.434  16.996  0.1378  0.2812 -0.6444
  504TMC3    C5 7543   2.688   4.433  17.096  0.0522 -0.6431  0.0405
  504TMC3    C6 7544   2.657   4.446  17.229  0.4023 -0.1549 -0.2802
  504TMC3     C 7545   2.367   4.494  16.937 -0.0946  0.6509  0.1076
  504TMC3     O 7546   2.377   4.440  16.828 -0.2611  0.5559  0.1641
  504TMC3     H 7547   2.324   4.491  17.193 -0.7724  0.1500 -1.6759
  504TMC3    H1 7548   2.612   4.429  16.889  0.5309  1.3614 -0.6195
  504TMC3    H2 7549   2.733   4.442  17.306  0.0760 -0.1539  0.0458
  504TMC3    C7 7550   2.820   4.391  17.050  0.0738 -0.0846 -0.5445
  504TMC3    C8 7551   2.478   4.481  17.395 -0.2515  0.4869  0.1039
  504TMC3    O1 7552   2.813   4.348  16.938 -0.3214  0.1266 -0.4117
  504TMC3    O2 7553   2.408   4.578  17.419  0.5197  0.0614  0.2824
  505MPD2     C 7554   2.412   3.358  11.510  0.2905 -0.2246  0.1025
  505MPD2    C1 7555   2.526   3.403  11.451 -0.0310  0.6829  0.0837
  505MPD2    C2 7556   2.608   3.501  11.513 -0.3292 -0.0301  0.0409
  505MPD2    C3 7557   2.573   3.552  11.638 -0.4808  1.2953 -0.1559
  505MPD2    C4 7558   2.456   3.517  11.693  0.0727  0.5170  0.2829
  505MPD2    C5 7559   2.378   3.421  11.629  0.2339  0.8964  0.6151
  505MPD2     H 7560   2.698   3.523  11.457 -1.2257  2.6111 -0.3684
  505MPD2    H1 7561   2.429   3.557  11.790  1.2876  0.0860  0.7971
  505MPD2    H2 7562   2.350   3.279  11.471 -0.5504 -0.3646  1.7555
  505MPD2    H3 7563   2.290   3.389  11.684 -0.1114  0.5278 -0.1574
  505MPD2     N 7564   2.645   3.655  11.708  0.0524 -0.1490 -0.8142
  505MPD2    H5 7565   2.601   3.699  11.787 -0.7723  0.4652 -1.6215
  505MPD2    N1 7566   2.551   3.367  11.319 -0.1674  0.0100 -0.7396
  505MPD2    H7 7567   2.467   3.343  11.268 -0.3696 -0.0075 -0.4040
  506TMC3    C1 7568   2.672   3.384  11.118 -0.0696  0.3405 -0.2169
  506TMC3    C2 7569   2.576   3.470  11.073 -0.6951 -0.5170  0.1161
  506TMC3    C3 7570   2.624   3.555  10.967 -0.0237 -0.3487  0.7158
  506TMC3    C4 7571   2.795   3.370  11.055  0.3938 -0.1030  0.1816
  506TMC3    C5 7572   2.832   3.447  10.955 -0.4539  0.1878 -0.2956
  506TMC3    C6 7573   2.754   3.549  10.922  0.2266  0.2426  0.3176
  506TMC3     C 7574   2.679   3.373  11.261  0.0672  0.0328 -0.2773
  506TMC3     O 7575   2.791   3.383  11.308  0.1871  0.2748  0.3592
  506TMC3     H 7576   2.476   3.493  11.110 -0.2512  0.5693  0.6642
  506TMC3    H1 7577   2.850   3.278  11.074  0.1789  0.1049  1.8138
  506TMC3    H2 7578   2.785   3.618  10.845  0.7090 -1.3494 -0.9272
  506TMC3    C7 7579   2.967   3.490  10.972 -0.0552  0.1729  1.0734
  506TMC3    C8 7580   2.532   3.646  10.915  0.1927 -0.7035 -0.0858
  506TMC3    O1 7581   3.021   3.538  10.868 -0.2623  0.1761  0.6057
  506TMC3    O2 7582   2.423   3.602  10.876  0.8137  0.2300  0.1160
  507TMC3    C1 7583   3.527   0.234  15.702 -0.0473  0.1203  0.1659
  507TMC3    C2 7584   3.490   0.144  15.611  0.9656  0.6987 -0.1805
  507TMC3    C3 7585   3.436   0.194  15.489  0.5024  0.1027  0.0092
  507TMC3    C4 7586   3.519   0.373  15.681  0.6272 -0.2804 -0.4804
  507TMC3    C5 7587   3.454   0.413  15.569 -0.3984  0.2194  0.0983
  507TMC3    C6 7588   3.412   0.332  15.471 -0.0718  0.0882 -0.1196
  507TMC3     C 7589   3.598   0.190  15.824  0.0493 -0.2737  0.1543
  507TMC3     O 7590   3.652   0.083  15.817  0.1158  0.6192  0.0017
  507TMC3     H 7591   3.507   0.040  15.634  0.9544  0.0716 -3.0205
  507TMC3    H1 7592   3.546   0.437  15.764 -0.2584 -0.4093 -0.0884
  507TMC3    H2 7593   3.369   0.370  15.379 -0.5124 -0.8087 -0.2918
  507TMC3    C7 7594   3.427   0.554  15.560  0.2021 -0.0715  0.3389
  507TMC3    C8 7595   3.360   0.118  15.400 -0.0268  0.1017 -0.4907
  507TMC3    O1 7596   3.411   0.614  15.662  0.0898  0.1962  0.6075
  507TMC3    O2 7597   3.303   0.022  15.452  0.8943  0.4742 -0.5283
  508MPD2     C 7598   4.184   1.837  15.943 -0.4611  0.5420  0.0243
  508MPD2    C1 7599   4.279   1.937  15.951 -0.2661 -0.2716  0.5788
  508MPD2    C2 7600   4.255   2.056  15.874  1.0425  0.2119 -0.1312
  508MPD2    C3 7601   4.147   2.079  15.793  0.1304 -0.0291  0.1731
  508MPD2    C4 7602   4.058   1.972  15.786 -0.2617  0.1752  0.6819
  508MPD2    C5 7603   4.083   1.855  15.853  0.1155 -0.7352 -0.0624
  508MPD2     H 7604   4.327   2.136  15.887 -0.8745  1.8271  0.4506
  508MPD2    H1 7605   3.980   1.976  15.710 -0.4362 -2.1386  0.7258
  508MPD2    H2 7606   4.196   1.740  15.990 -1.2215  0.1806 -0.5269
  508MPD2    H3 7607   4.011   1.776  15.837  0.7251 -1.1417 -0.7992
  508MPD2     N 7608   4.128   2.205  15.735 -0.1066 -0.7041  0.0417
  508MPD2    H5 7609   4.200   2.277  15.742 -0.5553  0.0838 -3.4865
  508MPD2    N1 7610   4.376   1.920  16.049  0.0099 -0.2677 -0.1999
  508MPD2    H7 7611   4.367   1.850  16.122 -2.2436  0.2385  0.0238
  509TMC3    C1 7612   3.951   2.587  15.539  0.3751 -0.3002  0.1500
  509TMC3    C2 7613   4.007   2.669  15.630 -0.3382  0.1292 -0.8911
  509TMC3    C3 7614   4.073   2.602  15.728 -0.0981  0.5922  0.3501
  509TMC3    C4 7615   3.947   2.445  15.553 -0.1492  0.3452 -0.2978
  509TMC3    C5 7616   4.016   2.387  15.657 -0.2915 -1.4951  0.4865
  509TMC3    C6 7617   4.089   2.466  15.742  0.4490  0.0033  0.1518
  509TMC3     C 7618   3.831   2.631  15.462 -0.1476  0.6496 -0.6372
  509TMC3     O 7619   3.746   2.547  15.440 -0.3489  0.3255 -0.4194
  509TMC3     H 7620   3.983   2.774  15.641 -1.3490 -0.1919  0.0319
  509TMC3    H1 7621   3.890   2.376  15.492  1.9566  0.8121 -2.8342
  509TMC3    H2 7622   4.129   2.423  15.833  2.1235 -2.9525 -1.9825
  509TMC3    C7 7623   4.021   2.243  15.661 -0.1232 -0.1502 -0.3800
  509TMC3    C8 7624   4.146   2.683  15.824 -0.3718  0.4112 -0.5232
  509TMC3    O1 7625   3.919   2.180  15.626 -0.0175  0.0578 -0.1055
  509TMC3    O2 7626   4.168   2.629  15.934  0.3343  0.0408  0.4089
  510MPD2     C 7627   1.520   4.139  14.626 -0.0106  0.1673 -0.0001
  510MPD2    C1 7628   1.642   4.102  14.674  0.8291 -0.2855  0.3878
  510MPD2    C2 7629   1.748   4.115  14.586 -0.3967 -0.6459 -0.0867
  510MPD2    C3 7630   1.735   4.162  14.454  0.8229  0.3371 -0.1540
  510MPD2    C4 7631   1.608   4.170  14.405 -0.0293  0.6881  0.2520
  510MPD2    C5 7632   1.510   4.157  14.491 -0.0273 -0.1018  0.4075
  510MPD2     H 7633   1.845   4.087  14.627  0.2110  1.5171 -0.0403
  510MPD2    H1 7634   1.576   4.186  14.302 -4.1800  0.4054  1.4762
  510MPD2    H2 7635   1.436   4.114  14.690  0.4043 -0.6598  0.2153
  510MPD2    H3 7636   1.408   4.158  14.454 -1.0420  0.9087  3.2404
  510MPD2     N 7637   1.836   4.180  14.367 -0.4646 -0.0822  0.0824
  510MPD2    H5 7638   1.812   4.196  14.270 -3.8449 -1.1619  0.7326
  510MPD2    N1 7639   1.647   4.040  14.797  0.4271  0.8256  0.8280
  510MPD2    H7 7640   1.561   4.048  14.850  0.0029  0.3689  0.2072
  511TMC3    C1 7641   1.725   3.896  14.968  0.0958  0.4889 -0.2248
  511TMC3    C2 7642   1.642   3.937  15.063  0.4314  0.4360 -0.9694
  511TMC3    C3 7643   1.628   3.841  15.168  0.1544 -0.4969  0.2163
  511TMC3    C4 7644   1.787   3.774  14.973 -0.2218  0.0360 -0.1545
  511TMC3    C5 7645   1.756   3.681  15.069 -0.5743 -0.0582 -1.1331
  511TMC3    C6 7646   1.671   3.710  15.167 -0.2866 -0.2442  0.0770
  511TMC3     C 7647   1.756   3.976  14.846  0.9951 -0.3056  0.4786
  511TMC3     O 7648   1.852   3.935  14.790 -0.0148 -0.2316  0.3828
  511TMC3     H 7649   1.597   4.035  15.070  1.5375  0.7288  2.0297
  511TMC3    H1 7650   1.844   3.737  14.889  0.8967  1.0629  0.1578
  511TMC3    H2 7651   1.669   3.645  15.253 -1.6804  0.5809  0.6564
  511TMC3    C7 7652   1.757   3.547  15.011  0.4816  0.0195 -0.4152
  511TMC3    C8 7653   1.557   3.891  15.279  0.0270  0.1255 -0.2912
  511TMC3    O1 7654   1.851   3.526  14.936 -0.1529 -1.3204  0.1694
  511TMC3    O2 7655   1.535   4.010  15.294  0.2706  0.2518  0.0384
  512TMC3    C1 7656   0.569   3.433  13.055 -0.7523 -0.0214  0.0472
  512TMC3    C2 7657   0.685   3.411  13.125  1.1734  0.0108  0.3229
  512TMC3    C3 7658   0.775   3.337  13.055 -0.2077  0.3140  0.0330
  512TMC3    C4 7659   0.539   3.371  12.937 -1.4654  0.6796 -0.1125
  512TMC3    C5 7660   0.632   3.286  12.880 -0.3071 -0.6794  0.0714
  512TMC3    C6 7661   0.750   3.259  12.949  0.3557  0.1049  0.2595
  512TMC3     C 7662   0.487   3.551  13.086 -0.5040 -0.2452 -0.2078
  512TMC3     O 7663   0.510   3.605  13.191  0.2454  0.2838 -0.6881
  512TMC3     H 7664   0.710   3.480  13.205 -2.9741 -0.0355  1.6636
  512TMC3    H1 7665   0.445   3.377  12.884 -1.2470  1.3788 -0.4203
  512TMC3    H2 7666   0.833   3.204  12.906 -0.6923 -0.2134 -1.3396
  512TMC3    C7 7667   0.599   3.213  12.760  0.2132  0.3260  0.1858
  512TMC3    C8 7668   0.888   3.282  13.132  0.4315 -0.2788  0.1064
  512TMC3    O1 7669   0.510   3.269  12.701 -0.0823  0.2904 -0.0777
  512TMC3    O2 7670   0.927   3.169  13.105 -0.6660 -0.3388  0.7252
  513MPD2     C 7671   2.567   3.092  13.494  0.5419  0.3013  0.0798
  513MPD2    C1 7672   2.561   3.134  13.359  0.1587  0.6269 -0.4023
  513MPD2    C2 7673   2.676   3.191  13.309  0.0955  0.2888 -0.6500
  513MPD2    C3 7674   2.793   3.199  13.387 -0.9493  0.4098  0.2881
  513MPD2    C4 7675   2.794   3.166  13.518  0.1459  0.0789  0.0549
  513MPD2    C5 7676   2.677   3.109  13.568  0.4180  0.3304 -0.0692
  513MPD2     H 7677   2.687   3.207  13.203 -2.8843 -0.4917 -1.0723
  513MPD2    H1 7678   2.884   3.176  13.577  0.4652 -1.9611 -0.0923
  513MPD2    H2 7679   2.490   3.038  13.547 -0.4775 -0.5426 -2.2721
  513MPD2    H3 7680   2.683   3.069  13.668 -2.2967 -0.2509 -0.1401
  513MPD2     N 7681   2.903   3.243  13.309 -0.4336  0.5736  0.4246
  513MPD2    H5 7682   2.878   3.270  13.215  0.2059  3.5800  1.1017
  513MPD2    N1 7683   2.447   3.125  13.284  0.0942 -0.9586  0.4449
  513MPD2    H7 7684   2.370   3.067  13.318  1.9749 -3.7507  0.0045
  514TMC3    C1 7685   2.332   3.096  13.082  0.0629 -0.0370 -0.2523
  514TMC3    C2 7686   2.291   3.159  12.961  0.4978 -0.3221  0.2054
  514TMC3    C3 7687   2.290   3.079  12.849 -0.0674  0.0876  0.1137
  514TMC3    C4 7688   2.372   2.969  13.079  0.2026  0.0984  0.4483
  514TMC3    C5 7689   2.402   2.901  12.968 -0.5578  0.7521 -1.4537
  514TMC3    C6 7690   2.354   2.952  12.849 -0.3481  0.6308  0.3183
  514TMC3     C 7691   2.424   3.176  13.158 -0.3697 -0.2540  0.1109
  514TMC3     O 7692   2.483   3.268  13.099 -0.1705 -0.0060  0.3391
  514TMC3     H 7693   2.251   3.260  12.966 -1.9153 -1.2554 -0.2855
  514TMC3    H1 7694   2.392   2.923  13.175 -0.7395  1.9781  1.5441
  514TMC3    H2 7695   2.357   2.889  12.761 -0.0641 -0.8221  1.3707
  514TMC3    C7 7696   2.543   2.896  12.955 -0.1810 -0.3964 -0.0639
  514TMC3    C8 7697   2.318   3.160  12.732  1.3446  0.2948 -1.0468
  514TMC3    O1 7698   2.595   2.954  13.049  0.6784  0.1085  0.3547
  514TMC3    O2 7699   2.279   3.274  12.730 -0.1312  0.4315 -0.0267
  515MPD2     C 7700   0.876   0.451  14.155 -0.1171 -0.2286 -0.0864
  515MPD2    C1 7701   0.807   0.404  14.267 -0.6290 -0.2050 -0.0538
  515MPD2    C2 7702   0.870   0.436  14.391  0.1097 -0.2927  0.5305
  515MPD2    C3 7703   0.983   0.511  14.397  0.1713  0.1379  0.8362
  515MPD2    C4 7704   1.026   0.572  14.289 -0.4591  0.3999 -0.0357
  515MPD2    C5 7705   0.979   0.534  14.173 -1.0472  0.2200 -0.2883
  515MPD2     H 7706   0.824   0.396  14.480  1.7895 -0.8432  1.1441
  515MPD2    H1 7707   1.104   0.648  14.293 -1.1193  1.0315  0.8933
  515MPD2    H2 7708   0.843   0.426  14.055  2.1385  2.3441 -1.4697
  515MPD2    H3 7709   1.032   0.581  14.090  0.2535 -4.1400 -1.9098
  515MPD2     N 7710   1.049   0.538  14.516 -0.5923  0.8509 -0.4946
  515MPD2    H5 7711   1.119   0.611  14.503 -1.9353  2.2650  0.1417
  515MPD2    N1 7712   0.686   0.324  14.254 -0.0065  0.2424  0.1615
  515MPD2    H7 7713   0.659   0.301  14.159  0.4816  0.1705  0.0387
  516TMC3    C1 7714   0.520   0.165  14.322  0.7612  0.2125  0.1191
  516TMC3    C2 7715   0.452   0.188  14.209  0.2754  0.2477 -0.1898
  516TMC3    C3 7716   0.385   0.079  14.159  0.1002 -0.5602 -0.2624
  516TMC3    C4 7717   0.534   0.050  14.391  0.4015  1.0065 -0.7337
  516TMC3    C5 7718   0.450   4.694  14.348 -0.9277  0.0578 -0.4069
  516TMC3    C6 7719   0.376   4.701  14.233  0.0026 -0.5683 -0.0742
  516TMC3     C 7720   0.618   0.266  14.365 -0.4556  0.0546 -0.5024
  516TMC3     O 7721   0.635   0.272  14.485 -0.3171  0.1459  0.3569
  516TMC3     H 7722   0.452   0.289  14.170 -0.1973  0.4443  0.3279
  516TMC3    H1 7723   0.594   0.045  14.481 -0.3092  0.8262 -0.2703
  516TMC3    H2 7724   0.316   4.615  14.208 -2.4200  0.6680  1.5034
  516TMC3    C7 7725   0.444   4.579  14.430  0.0883  0.6001 -0.0862
  516TMC3    C8 7726   0.287   0.103  14.058 -0.2611 -0.2833  0.2542
  516TMC3    O1 7727   0.539   4.572  14.505 -0.0698 -0.6782 -0.0217
  516TMC3    O2 7728   0.194   0.028  14.037  0.2816  0.0921 -0.0653
  517MPD2     C 7729   0.646   1.749   0.262  0.4574  0.0228 -0.2422
  517MPD2    C1 7730   0.722   1.766   0.147 -0.1361 -0.1329 -0.5500
  517MPD2    C2 7731   0.807   1.873   0.140 -0.8925 -0.6833  0.0310
  517MPD2    C3 7732   0.818   1.956   0.249 -0.3356 -0.2243  0.7762
  517MPD2    C4 7733   0.748   1.936   0.367  0.6024  0.1665  0.3854
  517MPD2    C5 7734   0.662   1.828   0.374  0.1222  0.2285  0.0647
  517MPD2     H 7735   0.853   1.899   0.045  1.6500 -1.6321  0.9979
  517MPD2    H1 7736   0.754   1.998   0.455  0.4093 -0.1986  0.6529
  517MPD2    H2 7737   0.593   1.655   0.266 -0.1962  0.4334  0.6207
  517MPD2    H3 7738   0.615   1.790   0.463 -0.8559  1.5309  0.1101
  517MPD2     N 7739   0.914   2.062   0.250 -0.7271  0.4661  0.1791
  517MPD2    H5 7740   0.919   2.120   0.333  0.9232 -0.0979  0.4559
  517MPD2    N1 7741   0.726   1.669   0.041  0.1592 -0.3154 -0.0752
  517MPD2    H7 7742   0.802   1.674  17.725 -0.8870  1.9959 -1.0968
  518TMC3    C1 7743   0.691   1.492  17.652 -0.1454 -0.8400 -0.1426
  518TMC3    C2 7744   0.609   1.388  17.611  0.0133 -0.2288 -0.1939
  518TMC3    C3 7745   0.641   1.335  17.491  0.0318 -0.7091 -1.0600
  518TMC3    C4 7746   0.802   1.529  17.580 -0.9690  0.0457 -0.2756
  518TMC3    C5 7747   0.819   1.483  17.457 -0.2729  0.2494 -0.3324
  518TMC3    C6 7748   0.743   1.389  17.413  0.5123  0.5039 -0.3210
  518TMC3     C 7749   0.643   1.568   0.016  0.1660 -0.0619 -0.1764
  518TMC3     O 7750   0.539   1.528   0.072  0.0585 -0.5573 -0.2568
  518TMC3     H 7751   0.515   1.360  17.658 -0.0418 -0.5441 -0.4950
  518TMC3    H1 7752   0.872   1.605  17.614 -1.1036 -0.0763  0.2836
  518TMC3    H2 7753   0.765   1.347  17.316 -1.8491  1.1926 -1.1836
  518TMC3    C7 7754   0.939   1.509  17.389  0.7824 -0.5366 -0.5355
  518TMC3    C8 7755   0.593   1.198  17.453  0.2623 -0.4660 -0.3938
  518TMC3    O1 7756   0.939   1.469  17.273 -0.0915  0.4085  0.5783
  518TMC3    O2 7757   0.635   1.162  17.340  0.3485  0.4124  0.0826
  519MPD2     C 7758   2.614   0.255  14.003  0.1495 -0.1487 -0.2617
  519MPD2    C1 7759   2.486   0.210  13.990  0.0484  0.9441 -0.2224
  519MPD2    C2 7760   2.467   0.069  13.965  0.4165  0.9003 -0.2393
  519MPD2    C3 7761   2.573   4.716  13.964 -0.7075  0.3797  0.7662
  519MPD2    C4 7762   2.698   0.036  13.984  0.3650 -0.1437 -0.3476
  519MPD2    C5 7763   2.717   0.168  13.994 -0.6750 -0.7669  0.0259
  519MPD2     H 7764   2.366   0.043  13.934  0.5651 -0.4966  0.4645
  519MPD2    H1 7765   2.779   4.703  13.991  1.2807  1.1340  2.0041
  519MPD2    H2 7766   2.641   0.360  14.003 -0.2930 -0.0730 -5.3530
  519MPD2    H3 7767   2.813   0.218  14.007 -0.7743 -0.4282 -0.5411
  519MPD2     N 7768   2.564   4.577  13.936  0.5573 -0.2336 -0.0074
  519MPD2    H5 7769   2.650   4.522  13.929 -0.4426 -1.7888 -0.1536
  519MPD2    N1 7770   2.391   0.312  13.960  0.3113 -0.7795 -0.3454
  519MPD2    H7 7771   2.426   0.405  13.941 -1.7986 -0.1327 -1.0999
  520TMC3    C1 7772   2.470   4.388  13.820 -0.3257 -0.3787 -0.2147
  520TMC3    C2 7773   2.403   4.365  13.703 -0.0996  0.2137  0.3683
  520TMC3    C3 7774   2.457   4.267  13.627 -0.3241 -0.3754 -0.3009
  520TMC3    C4 7775   2.584   4.319  13.860 -0.7046  0.0930  0.5952
  520TMC3    C5 7776   2.627   4.216  13.780 -0.0196  0.0355  0.0743
  520TMC3    C6 7777   2.562   4.194  13.663 -0.4579 -0.1508  0.3557
  520TMC3     C 7778   2.445   4.516  13.887  0.0155  0.7234  0.4857
  520TMC3     O 7779   2.332   4.566  13.886  0.1337 -0.7307  1.1395
  520TMC3     H 7780   2.314   4.422  13.677 -0.6247 -1.7309 -2.1415
  520TMC3    H1 7781   2.636   4.348  13.951  0.9317 -0.4797 -0.1654
  520TMC3    H2 7782   2.592   4.115  13.595 -1.9854  1.0032 -1.6711
  520TMC3    C7 7783   2.752   4.139  13.817 -0.0469 -0.2564  0.3282
  520TMC3    C8 7784   2.412   4.258  13.486  0.2004 -0.1767  0.6562
  520TMC3    O1 7785   2.796   4.170  13.924  0.2082 -0.2668  0.0495
  520TMC3    O2 7786   2.497   4.237  13.403 -0.4731 -0.0976  0.2212
  521MPD2     C 7787   3.433   2.691  17.365  0.1778 -0.2394 -1.0489
  521MPD2    C1 7788   3.369   2.594  17.281 -0.1508 -0.3213 -0.1526
  521MPD2    C2 7789   3.440   2.540  17.176  0.0349 -0.0064  1.0326
  521MPD2    C3 7790   3.579   2.561  17.171 -0.1711 -0.8709  0.2532
  521MPD2    C4 7791   3.643   2.649  17.260 -0.3145  0.3159  0.1829
  521MPD2    C5 7792   3.567   2.714  17.357 -0.2870  0.0984  0.6377
  521MPD2     H 7793   3.396   2.470  17.106 -0.5067  1.3748 -0.0162
  521MPD2    H1 7794   3.751   2.661  17.267 -0.1899 -1.1115  0.5697
  521MPD2    H2 7795   3.387   2.740  17.450  0.8099 -1.0117 -0.2505
  521MPD2    H3 7796   3.620   2.784  17.420  1.4669  0.1309 -0.8668
  521MPD2     N 7797   3.646   2.475  17.082  0.0012 -0.0142  0.5600
  521MPD2    H5 7798   3.591   2.421  17.015 -0.6038  2.2767 -0.7933
  521MPD2    N1 7799   3.245   2.558  17.323 -0.8247  0.2541  0.1324
  521MPD2    H7 7800   3.212   2.597  17.411 -1.0967  1.0287 -0.3174
  522TMC3    C1 7801   3.823   2.321  17.021  0.4944 -0.9180 -0.0895
  522TMC3    C2 7802   3.925   2.248  17.072 -0.6418  0.4646  0.6352
  522TMC3    C3 7803   3.983   2.156  16.995  0.2151  0.0888  0.0926
  522TMC3    C4 7804   3.772   2.295  16.899  0.6320 -0.8932 -0.4771
  522TMC3    C5 7805   3.838   2.201  16.825  0.2047  0.0868 -0.6374
  522TMC3    C6 7806   3.936   2.128  16.871 -0.3064  0.3701 -0.4946
  522TMC3     C 7807   3.771   2.426  17.106  0.0013  0.7919 -0.2133
  522TMC3     O 7808   3.853   2.474  17.184 -0.6586  0.5754  0.4165
  522TMC3     H 7809   3.949   2.256  17.177 -0.9722 -3.0318  0.9942
  522TMC3    H1 7810   3.700   2.367  16.861 -0.7418 -2.3749 -0.6969
  522TMC3    H2 7811   3.966   2.040  16.817 -0.6772 -0.8620  1.2893
  522TMC3    C7 7812   3.791   2.174  16.691  0.0371  0.0051  0.3094
  522TMC3    C8 7813   4.113   2.109  17.038 -0.1306  0.3982 -0.4672
  522TMC3    O1 7814   3.889   2.139  16.628 -0.3520  0.3752 -0.4402
  522TMC3    O2 7815   4.130   2.097  17.156  0.5241 -0.6679 -0.4322
  523MPD2     C 7816   1.125   2.563  10.301 -0.4574  0.5846  0.1607
  523MPD2    C1 7817   1.038   2.485  10.223 -0.1021  0.0525  0.3612
  523MPD2    C2 7818   0.926   2.551  10.183 -0.2150  0.2467  0.1153
  523MPD2    C3 7819   0.893   2.678  10.206 -0.1166 -0.2575  0.5422
  523MPD2    C4 7820   0.983   2.748  10.288 -0.1196  0.4392 -0.3521
  523MPD2    C5 7821   1.099   2.694  10.332 -0.8824 -0.2544 -0.5042
  523MPD2     H 7822   0.856   2.493  10.124  2.1275 -1.5316 -0.9300
  523MPD2    H1 7823   0.982   2.856  10.297  0.2308  0.2942  1.4438
  523MPD2    H2 7824   1.222   2.527  10.331 -1.9733 -3.8117 -0.2018
  523MPD2    H3 7825   1.180   2.753  10.374 -1.2194  0.5257 -0.9541
  523MPD2     N 7826   0.803   2.756  10.140 -0.2182  0.1350 -0.1113
  523MPD2    H5 7827   0.780   2.846  10.183  0.3724  0.6253 -0.8211
  523MPD2    N1 7828   1.052   2.346  10.220 -0.3838 -0.1960  0.1934
  523MPD2    H7 7829   1.125   2.309  10.280 -0.1274 -0.9401 -0.5741
  524TMC3    C1 7830   0.654   2.822   9.970 -0.2023 -0.2132 -0.3487
  524TMC3    C2 7831   0.551   2.789   9.886 -0.6879 -0.1045  0.2929
  524TMC3    C3 7832   0.486   2.892   9.827  0.1327 -0.0873 -0.9070
  524TMC3    C4 7833   0.694   2.952   9.995 -0.0829  1.1208 -0.1719
  524TMC3    C5 7834   0.627   3.048   9.930  0.2591 -0.1871 -0.1937
  524TMC3    C6 7835   0.525   3.025   9.840 -0.2331 -0.3905 -0.0408
  524TMC3     C 7836   0.730   2.719  10.030  0.6038  0.5325  0.4327
  524TMC3     O 7837   0.714   2.613   9.975 -0.2972  0.2156  0.2844
  524TMC3     H 7838   0.512   2.688   9.879 -1.8658  0.2854  1.2493
  524TMC3    H1 7839   0.771   2.984  10.064  1.6269  1.2244 -2.1335
  524TMC3    H2 7840   0.472   3.098   9.780 -3.3476  0.1628  3.3609
  524TMC3    C7 7841   0.659   3.188   9.962  0.3625  0.0102 -0.4180
  524TMC3    C8 7842   0.353   2.874   9.761  0.6601  1.0294 -0.2645
  524TMC3    O1 7843   0.758   3.215  10.024 -0.2933 -0.2116 -0.1802
  524TMC3    O2 7844   0.266   2.961   9.779  0.1049 -0.7445 -0.0979
  525MPD2     C 7845   3.560   4.066  14.408  0.4804  0.3313 -0.5968
  525MPD2    C1 7846   3.682   4.074  14.473 -0.0651 -0.1305 -0.0110
  525MPD2    C2 7847   3.777   4.146  14.415  0.1428 -0.0768 -0.4191
  525MPD2    C3 7848   3.759   4.229  14.308 -0.7756 -0.1686  0.0905
  525MPD2    C4 7849   3.634   4.237  14.256  0.4976  0.2922 -0.0047
  525MPD2    C5 7850   3.532   4.159  14.308 -0.2130  0.6277  0.0745
  525MPD2     H 7851   3.873   4.147  14.467 -1.3241  1.0729  2.3174
  525MPD2    H1 7852   3.607   4.302  14.174  1.9050  1.0908  0.1731
  525MPD2    H2 7853   3.481   3.998  14.439  0.1196  0.1896 -1.8019
  525MPD2    H3 7854   3.428   4.172  14.279 -0.5402  0.1440  1.0207
  525MPD2     N 7855   3.845   4.331  14.269  0.1092 -0.4388 -0.4030
  525MPD2    H5 7856   3.815   4.401  14.203 -0.0173 -2.3229 -2.3183
  525MPD2    N1 7857   3.722   3.985  14.577 -0.3298  0.6213  0.0729
  525MPD2    H7 7858   3.821   3.977  14.601 -0.0640  1.1461 -0.8486
  526TMC3    C1 7859   3.696   3.844  14.764  0.2033 -0.3340  0.0888
  526TMC3    C2 7860   3.631   3.876  14.879  0.3747  0.3564  0.6003
  526TMC3    C3 7861   3.693   3.844  14.997  0.4118  0.4549 -0.0169
  526TMC3    C4 7862   3.816   3.789  14.750 -0.2689  0.4427 -0.3295
  526TMC3    C5 7863   3.881   3.764  14.874 -0.0032  0.5535  0.0054
  526TMC3    C6 7864   3.819   3.784  15.000  0.5981 -0.8159 -0.8818
  526TMC3     C 7865   3.632   3.916  14.655  0.2509 -0.3831  0.0056
  526TMC3     O 7866   3.514   3.935  14.663  0.2004 -0.2283  0.2381
  526TMC3     H 7867   3.525   3.897  14.880  0.2975  0.0878 -2.2972
  526TMC3    H1 7868   3.857   3.769  14.652  2.8242  4.1412  0.2186
  526TMC3    H2 7869   3.867   3.765  15.095 -1.7823  1.0891  0.6999
  526TMC3    C7 7870   4.022   3.729  14.863 -0.3359 -0.4321  0.3405
  526TMC3    C8 7871   3.618   3.845  15.127  0.1977 -0.7590 -0.7562
  526TMC3    O1 7872   4.098   3.751  14.956 -0.7491 -0.2473 -0.0159
  526TMC3    O2 7873   3.655   3.766  15.211  0.0585  0.4847  0.1989
  527MPD2     C 7874   2.113   1.676   1.383  0.7407  0.2132 -0.9974
  527MPD2    C1 7875   2.102   1.633   1.252  0.1582  1.1740 -0.0676
  527MPD2    C2 7876   2.209   1.648   1.162 -0.4878  0.6533 -1.0791
  527MPD2    C3 7877   2.330   1.699   1.203 -0.0268 -0.3559 -0.1152
  527MPD2    C4 7878   2.342   1.740   1.334  0.4933 -0.1962 -0.1812
  527MPD2    C5 7879   2.237   1.735   1.417 -0.3543  0.1628  1.0667
  527MPD2     H 7880   2.201   1.620   1.058 -1.0615  0.7664 -1.0647
  527MPD2    H1 7881   2.433   1.782   1.376 -0.2641  2.3741 -1.1070
  527MPD2    H2 7882   2.027   1.674   1.449  2.1483 -0.1183  0.8194
  527MPD2    H3 7883   2.237   1.793   1.509 -0.5244  1.5586  0.1796
  527MPD2     N 7884   2.430   1.697   1.112  0.4039 -0.0302  0.1637
  527MPD2    H5 7885   2.402   1.665   1.020 -0.9376  0.9062  0.2496
  527MPD2    N1 7886   1.983   1.584   1.196 -0.1098  0.2196  0.4453
  527MPD2    H7 7887   1.992   1.549   1.101 -1.3817  0.9731  0.0540
  528TMC3    C1 7888   1.758   1.493   1.187  0.5068 -0.0293 -0.0582
  528TMC3    C2 7889   1.748   1.502   1.046 -1.0177  0.1900 -0.2570
  528TMC3    C3 7890   1.631   1.469   0.992 -0.1308  0.3394 -0.1221
  528TMC3    C4 7891   1.658   1.446   1.268  0.2027  0.8970  0.0364
  528TMC3    C5 7892   1.538   1.429   1.212 -0.2003 -0.3283 -0.7738
  528TMC3    C6 7893   1.523   1.434   1.075  0.5231 -0.1669 -0.9930
  528TMC3     C 7894   1.864   1.558   1.260 -0.2795 -0.2369 -0.0796
  528TMC3     O 7895   1.833   1.584   1.378 -0.0243  0.1085 -0.5253
  528TMC3     H 7896   1.827   1.532   0.979  0.3772  2.5396  2.4241
  528TMC3    H1 7897   1.664   1.423   1.374  1.5765 -1.5529 -0.5782
  528TMC3    H2 7898   1.419   1.428   1.042 -0.3365  0.5029  1.6219
  528TMC3    C7 7899   1.422   1.453   1.288  1.2195 -0.0129  0.0643
  528TMC3    C8 7900   1.623   1.494   0.845  0.1846 -0.3925  0.8036
  528TMC3    O1 7901   1.336   1.523   1.234 -0.1623 -0.4108 -0.1956
  528TMC3    O2 7902   1.719   1.537   0.785 -0.1627 -0.3660  0.3158
  529MPD2     C 7903   4.663   0.890   0.876  0.1591  0.5912  0.2603
  529MPD2    C1 7904   4.653   0.771   0.800 -0.1469  0.1691  1.5535
  529MPD2    C2 7905   4.595   0.778   0.676  0.2537  0.0583  0.2063
  529MPD2    C3 7906   4.540   0.902   0.620  0.2154 -0.1785  0.4308
  529MPD2    C4 7907   4.570   1.008   0.690  0.1160  0.3652  0.1840
  529MPD2    C5 7908   4.638   1.009   0.814  0.6477  0.3968 -0.1012
  529MPD2     H 7909   4.591   0.690   0.612  1.6751 -0.0137  0.2300
  529MPD2    H1 7910   4.538   1.105   0.654  1.9887  1.7260  2.1902
  529MPD2    H2 7911   4.682   0.899   0.983 -0.4033 -1.5473  0.5288
  529MPD2    H3 7912   4.661   1.095   0.876  0.1861  0.5846 -0.1931
  529MPD2     N 7913   4.473   0.914   0.500 -0.4544 -0.4703 -0.1881
  529MPD2    H5 7914   4.453   1.009   0.471  4.1173  0.0350 -1.7396
  529MPD2    N1 7915   4.686   0.648   0.849 -0.4486 -0.1742  0.2615
  529MPD2    H7 7916   4.661   0.567   0.794 -0.3633  1.0291 -1.5237
  530TMC3    C1 7917   0.062   0.492   0.976 -0.2462  0.2596 -0.3385
  530TMC3    C2 7918   0.189   0.461   1.024  0.3014 -0.0311 -0.5528
  530TMC3    C3 7919   0.210   0.335   1.074 -0.1156 -0.4158  0.5608
  530TMC3    C4 7920   4.697   0.412   0.993 -0.8090 -0.2982  0.2345
  530TMC3    C5 7921   4.724   0.281   1.026 -0.0002  0.4759  0.6852
  530TMC3    C6 7922   0.110   0.237   1.068  0.2806  0.0772  0.4085
  530TMC3     C 7923   0.024   0.631   0.967  0.1091  0.0075  0.5150
  530TMC3     O 7924   0.083   0.717   1.029  0.4627 -0.0643 -0.4112
  530TMC3     H 7925   0.271   0.528   1.003 -1.2601  1.8505 -0.6221
  530TMC3    H1 7926   4.600   0.446   0.958 -0.4847 -1.8307 -2.1535
  530TMC3    H2 7927   0.125   0.135   1.102  2.3668 -0.1711 -1.2873
  530TMC3    C7 7928   4.612   0.182   1.030 -0.8072  0.0336 -0.7259
  530TMC3    C8 7929   0.345   0.310   1.120  0.1897 -0.2295 -0.2693
  530TMC3    O1 7930   4.643   0.066   1.062  0.0142  0.1937 -0.3814
  530TMC3    O2 7931   0.408   0.411   1.149  0.5119  0.3789 -0.1055
  531MPD2     C 7932   2.974   2.894  12.697 -1.1526  0.1578 -0.2323
  531MPD2    C1 7933   2.921   2.986  12.794  0.0311  0.6294  0.4658
  531MPD2    C2 7934   2.792   2.979  12.839  0.6880  0.3140 -0.4375
  531MPD2    C3 7935   2.715   2.874  12.791 -0.2737  0.0265  0.0276
  531MPD2    C4 7936   2.767   2.798  12.687 -0.3041  0.8719  0.5506
  531MPD2    C5 7937   2.895   2.797  12.645  0.0931 -0.1664  0.3930
  531MPD2     H 7938   2.755   3.048  12.914  1.1941  1.7421 -1.5055
  531MPD2    H1 7939   2.702   2.727  12.637 -0.6102  0.4311  1.5775
  531MPD2    H2 7940   3.079   2.902  12.668 -0.6363  2.0508  2.1036
  531MPD2    H3 7941   2.928   2.728  12.569  1.0437 -0.0706  0.7201
  531MPD2     N 7942   2.585   2.849  12.839 -0.4731  0.0960  0.3413
  531MPD2    H5 7943   2.528   2.790  12.779  2.1330  0.3509 -2.3854
  531MPD2    N1 7944   3.013   3.077  12.847 -0.9302  0.0775 -0.3120
  531MPD2    H7 7945   3.111   3.065  12.822 -0.4510  1.9204  0.6354
  532TMC3    C1 7946   3.100   3.226  13.011  0.0235 -0.2450 -0.0873
  532TMC3    C2 7947   3.058   3.292  13.119 -0.2640 -0.6475 -0.0711
  532TMC3    C3 7948   3.125   3.276  13.236 -0.0029 -0.1236 -0.1304
  532TMC3    C4 7949   3.201   3.136  13.021  0.2035 -0.2873 -0.0220
  532TMC3    C5 7950   3.278   3.129  13.135 -0.1402  0.2158  0.1183
  532TMC3    C6 7951   3.240   3.200  13.242 -0.2985 -0.1953  0.7877
  532TMC3     C 7952   2.984   3.183  12.932 -0.3775  0.3632 -0.2068
  532TMC3     O 7953   2.879   3.234  12.970  0.3520  0.6840 -0.3443
  532TMC3     H 7954   2.990   3.376  13.113 -0.5600 -0.8550  0.4466
  532TMC3    H1 7955   3.241   3.096  12.928 -0.8134 -1.7493  0.1800
  532TMC3    H2 7956   3.294   3.180  13.334 -0.2777 -0.5452  0.6980
  532TMC3    C7 7957   3.403   3.058  13.143 -0.4277 -1.0415  0.2698
  532TMC3    C8 7958   3.037   3.247  13.351  0.0496 -0.4760  0.5177
  532TMC3    O1 7959   3.487   3.098  13.221  0.1949  0.1552 -0.0930
  532TMC3    O2 7960   3.087   3.222  13.461  0.5230  0.2286  0.1828
  533TMC3    C1 7961   4.016   4.483  14.307  0.3618 -0.3079 -0.1452
  533TMC3    C2 7962   4.147   4.509  14.283 -0.6559  0.0388  0.0902
  533TMC3    C3 7963   4.178   4.645  14.287  0.2989 -0.0838  0.3883
  533TMC3    C4 7964   3.925   4.585  14.316  0.2918  0.0584 -0.3277
  533TMC3    C5 7965   3.963   4.717  14.331 -0.3611 -0.5340 -1.1773
  533TMC3    C6 7966   4.095   0.016  14.306  0.1147 -0.4852 -0.4232
  533TMC3     C 7967   3.975   4.348  14.313  0.5231 -0.3281 -0.1717
  533TMC3     O 7968   4.045   4.262  14.369  0.3123  0.1000  0.1727
  533TMC3     H 7969   4.225   4.435  14.278 -0.8328 -0.4428  4.2583
  533TMC3    H1 7970   3.823   4.556  14.335  0.9735 -1.7338  0.5658
  533TMC3    H2 7971   4.113   0.122  14.294 -0.4406 -0.4114 -0.5790
  533TMC3    C7 7972   3.888   0.034  14.445  0.5037 -0.0958 -0.5752
  533TMC3    C8 7973   4.316   4.690  14.267  0.6692  0.5953  0.2877
  533TMC3    O1 7974   3.774   4.732  14.472 -0.1334  0.0102 -0.1909
  533TMC3    O2 7975   4.332   0.067  14.222 -0.5633 -0.5668 -0.1075
  534MPD2     C 7976   2.516   0.121   0.737 -0.2661  0.4929  0.4130
  534MPD2    C1 7977   2.527   0.234   0.811 -0.4117  0.3587  0.1773
  534MPD2    C2 7978   2.409   0.298   0.844  0.2088 -0.0329 -0.2968
  534MPD2    C3 7979   2.288   0.249   0.799 -0.3157 -0.3394 -0.2545
  534MPD2    C4 7980   2.281   0.152   0.702  1.1209  0.1018 -0.5906
  534MPD2    C5 7981   2.400   0.090   0.674  0.1623  0.4767 -0.0802
  534MPD2     H 7982   2.425   0.380   0.913  0.7061 -0.8648  0.5735
  534MPD2    H1 7983   2.189   0.129   0.650  0.2674 -0.6628  1.2569
  534MPD2    H2 7984   2.602   0.055   0.734 -0.4714  0.3322 -1.6877
  534MPD2    H3 7985   2.386   0.006   0.607  0.7555  0.6125 -0.3744
  534MPD2     N 7986   2.167   0.305   0.823 -0.1445 -0.0687 -0.2933
  534MPD2    H5 7987   2.097   0.271   0.758 -1.5282 -0.2167  1.2637
  534MPD2    N1 7988   2.647   0.278   0.875  0.6082  0.2118  0.2605
  534MPD2    H7 7989   2.627   0.357   0.937  0.5105 -0.7174  1.4127
  535TMC3    C1 7990   2.003   0.428   0.927 -0.5814  0.0731 -0.7307
  535TMC3    C2 7991   1.945   0.428   1.056  0.3255 -0.8342  0.2004
  535TMC3    C3 7992   1.830   0.505   1.064  0.1739 -0.3201 -0.0729
  535TMC3    C4 7993   1.951   0.490   0.823  0.1821  0.2505 -0.0653
  535TMC3    C5 7994   1.835   0.566   0.839  0.2185 -0.2458 -0.1520
  535TMC3    C6 7995   1.775   0.576   0.963 -0.9063  0.6354  0.6075
  535TMC3     C 7996   2.142   0.386   0.931 -0.9030  0.6154  0.7586
  535TMC3     O 7997   2.209   0.413   1.030 -0.4371  0.1730  0.3729
  535TMC3     H 7998   2.001   0.397   1.143 -0.2154 -2.1811  0.0664
  535TMC3    H1 7999   2.017   0.508   0.739  1.4897  0.3005  0.9721
  535TMC3    H2 8000   1.679   0.623   0.981 -0.0957  1.5753  2.5438
  535TMC3    C7 8001   1.768   0.623   0.727  0.2505 -0.1479  0.0543
  535TMC3    C8 8002   1.731   0.462   1.156  1.0972  0.2991  0.2802
  535TMC3    O1 8003   1.803   0.576   0.622  0.1277  0.3082  0.0250
  535TMC3    O2 8004   1.635   0.533   1.174  0.2572  0.1302 -0.4922
  536MPD2     C 8005   0.605   3.897  16.221 -0.1954  0.9636  0.8089
  536MPD2    C1 8006   0.498   3.808  16.217  0.2294  0.2873  0.3643
  536MPD2    C2 8007   0.410   3.805  16.118  0.6338  0.3347  0.0178
  536MPD2    C3 8008   0.425   3.900  16.018 -1.1890  0.4414 -0.5544
  536MPD2    C4 8009   0.524   3.995  16.030  0.3848 -0.2292  0.1249
  536MPD2    C5 8010   0.617   4.004  16.128 -0.3767  0.1355  0.5121
  536MPD2     H 8011   0.324   3.739  16.113 -0.0959  1.2693  0.0159
  536MPD2    H1 8012   0.534   4.078  15.961  0.4177 -0.2547  0.0988
  536MPD2    H2 8013   0.675   3.889  16.303 -0.0718 -1.4986  0.4729
  536MPD2    H3 8014   0.695   4.079  16.141  0.1882 -0.1521 -1.1578
  536MPD2     N 8015   0.332   3.917  15.916  0.2208  0.0960  0.0023
  536MPD2    H5 8016   0.352   3.993  15.851  0.1382 -0.2869 -0.4694
  536MPD2    N1 8017   0.487   3.733  16.336 -0.1341 -0.7371  0.5052
  536MPD2    H7 8018   0.537   3.769  16.417  1.9558  0.3696 -1.2998
  537TMC3    C1 8019   0.400   3.593  16.491 -0.2390 -0.4903  0.2487
  537TMC3    C2 8020   0.413   3.699  16.580  0.1126  0.7646  0.5333
  537TMC3    C3 8021   0.415   3.664  16.705  0.8354  0.1375 -0.3630
  537TMC3    C4 8022   0.390   3.462  16.521 -0.0555  0.3650  0.4863
  537TMC3    C5 8023   0.405   3.436  16.652 -0.2549  0.3523  0.6365
  537TMC3    C6 8024   0.428   3.535  16.745 -0.5511 -0.6983 -0.1776
  537TMC3     C 8025   0.403   3.629  16.353 -0.1187 -0.9116  0.1552
  537TMC3     O 8026   0.336   3.561  16.277 -0.2504 -0.1194 -0.4171
  537TMC3     H 8027   0.412   3.802  16.545 -0.4157  0.1507 -1.2458
  537TMC3    H1 8028   0.370   3.390  16.443  0.1351 -0.5641  1.3003
  537TMC3    H2 8029   0.427   3.523  16.852 -0.9236 -1.3457 -0.2527
  537TMC3    C7 8030   0.338   3.323  16.700 -0.2672 -0.0056 -0.4949
  537TMC3    C8 8031   0.425   3.778  16.802 -0.0011  0.3123  0.1945
  537TMC3    O1 8032   0.256   3.285  16.619  0.0376  0.2406  0.5739
  537TMC3    O2 8033   0.476   3.758  16.913 -0.4862 -0.6804 -0.4893
  538TMC3    C1 8034   1.705   2.043  11.175 -0.0487  0.4949 -0.1926
  538TMC3    C2 8035   1.790   2.004  11.073 -0.0472 -0.2596 -0.9332
  538TMC3    C3 8036   1.752   2.045  10.954 -0.1495 -0.6187 -0.2638
  538TMC3    C4 8037   1.593   2.109  11.163 -0.0970 -0.8715 -0.0044
  538TMC3    C5 8038   1.556   2.149  11.039  0.0045 -0.0965  0.2775
  538TMC3    C6 8039   1.633   2.115  10.928 -0.0361  0.5130  0.2343
  538TMC3     C 8040   1.750   2.024  11.313  0.1860  0.2436 -0.3822
  538TMC3     O 8041   1.674   1.982  11.399 -0.4871  0.1642  0.0679
  538TMC3     H 8042   1.887   1.959  11.095  0.3891 -0.8384 -4.0297
  538TMC3    H1 8043   1.539   2.144  11.250  0.0127 -0.9365  0.0895
  538TMC3    H2 8044   1.599   2.154  10.833 -0.6405 -1.3550 -0.3196
  538TMC3    C7 8045   1.417   2.206  11.018 -0.5522  0.1502 -0.0422
  538TMC3    C8 8046   1.841   2.007  10.844  0.0129  0.3624  0.1247
  538TMC3    O1 8047   1.369   2.199  10.909 -0.1524  0.3147 -0.6988
  538TMC3    O2 8048   1.923   1.920  10.870  0.5060 -0.1180  0.0510
  539MPD2     C 8049   1.190   1.811  11.956  0.7199  0.2530  0.0479
  539MPD2    C1 8050   1.221   1.834  11.828 -0.4020  0.2317  0.6238
  539MPD2    C2 8051   1.154   1.932  11.765 -0.0242 -0.2094  0.0855
  539MPD2    C3 8052   1.052   1.999  11.822 -1.0257 -0.3150  0.3219
  539MPD2    C4 8053   1.008   1.951  11.943  0.0657  0.3665 -0.0859
  539MPD2    C5 8054   1.086   1.867  12.018  0.3718 -0.4629  0.6288
  539MPD2     H 8055   1.195   1.952  11.667 -2.4459  0.8376 -0.7096
  539MPD2    H1 8056   0.932   2.008  11.996 -2.4031 -1.2631 -1.8609
  539MPD2    H2 8057   1.233   1.736  12.022 -2.0247 -1.5520 -0.1697
  539MPD2    H3 8058   1.061   1.833  12.118 -0.2893 -3.3152 -0.4771
  539MPD2     N 8059   0.977   2.092  11.752 -0.1648  0.4194 -0.1436
  539MPD2    H5 8060   0.884   2.115  11.785  0.1138  3.5234 -1.4697
  539MPD2    N1 8061   1.324   1.764  11.756 -0.0587 -0.5762  0.5321
  539MPD2    H7 8062   1.332   1.791  11.658  1.3633  1.0596  1.1007
  540TMC3    C1 8063   0.914   2.239  11.588  0.6742  0.5756 -0.1827
  540TMC3    C2 8064   0.888   2.223  11.452  0.0292 -0.3808  0.4284
  540TMC3    C3 8065   0.776   2.300  11.411  0.2762  0.1688 -0.0878
  540TMC3    C4 8066   0.833   2.298  11.678  0.0234 -0.2461 -0.8189
  540TMC3    C5 8067   0.738   2.383  11.631  0.0880 -0.4450 -0.1058
  540TMC3    C6 8068   0.718   2.390  11.496 -0.1871  0.1031  0.0641
  540TMC3     C 8069   1.019   2.152  11.639  0.0332  0.2573  0.2310
  540TMC3     O 8070   1.126   2.152  11.577 -0.5415 -0.3580  0.0546
  540TMC3     H 8071   0.934   2.140  11.400 -0.9311 -0.3797 -0.4169
  540TMC3    H1 8072   0.859   2.305  11.783  0.0577 -2.4831 -0.6849
  540TMC3    H2 8073   0.631   2.445  11.463 -1.9636 -2.3424  0.6999
  540TMC3    C7 8074   0.666   2.477  11.719  0.1466 -0.1487 -0.8096
  540TMC3    C8 8075   0.673   2.227  11.341 -0.3360 -0.1993  0.6366
  540TMC3    O1 8076   0.646   2.425  11.827 -0.2107 -0.2032 -0.3261
  540TMC3    O2 8077   0.563   2.232  11.399 -0.5121 -0.1923 -0.2655
  541MPD2     C 8078   4.222   3.125  13.270  0.5447 -0.9652  0.3757
  541MPD2    C1 8079   4.322   3.062  13.200 -0.0549 -0.7946 -0.3872
  541MPD2    C2 8080   4.377   3.117  13.085 -0.0369  0.4593 -0.4887
  541MPD2    C3 8081   4.337   3.247  13.055  0.0930  0.3593 -0.0453
  541MPD2    C4 8082   4.237   3.313  13.127 -0.5692 -1.2228 -0.0675
  541MPD2    C5 8083   4.173   3.247  13.233 -0.4783  0.2452  0.6664
  541MPD2     H 8084   4.448   3.059  13.025  0.0004 -1.4978  1.4651
  541MPD2    H1 8085   4.212   3.416  13.104  1.3321 -0.7283  0.0856
  541MPD2    H2 8086   4.185   3.089  13.365 -2.2235 -0.8105 -0.6488
  541MPD2    H3 8087   4.102   3.294  13.300 -0.4105 -1.5140  1.9611
  541MPD2     N 8088   4.394   3.312  12.945 -0.5033  0.1753 -0.1790
  541MPD2    H5 8089   4.381   3.412  12.936  3.9396  0.7067 -0.4530
  541MPD2    N1 8090   4.351   2.931  13.244 -0.3044  0.5918  0.1930
  541MPD2    H7 8091   4.288   2.896  13.315  2.1526 -0.7987  1.6926
  542TMC3    C1 8092   4.450   3.330  12.719  0.5068  0.3720 -0.1368
  542TMC3    C2 8093   4.507   3.275  12.606  0.4158  0.0653  0.5832
  542TMC3    C3 8094   4.466   3.324  12.485 -0.5556  0.0022  0.4699
  542TMC3    C4 8095   4.366   3.441  12.705 -0.0840  0.2649  0.1680
  542TMC3    C5 8096   4.338   3.492  12.580 -0.7019 -0.2485 -0.1398
  542TMC3    C6 8097   4.380   3.427  12.467  0.1750  0.2067  0.0657
  542TMC3     C 8098   4.457   3.252  12.846 -0.7245 -0.2628 -0.1377
  542TMC3     O 8099   4.488   3.136  12.829  0.3743 -0.0406 -0.2448
  542TMC3     H 8100   4.549   3.176  12.616  0.5270  0.0960  0.4063
  542TMC3    H1 8101   4.304   3.483  12.783 -0.8114 -0.7205  0.1180
  542TMC3    H2 8102   4.332   3.438  12.370 -2.1084 -0.5230  1.1173
  542TMC3    C7 8103   4.254   3.608  12.569  0.4387 -0.6569  0.7282
  542TMC3    C8 8104   4.487   3.253  12.364  0.3203  0.1411 -0.6117
  542TMC3    O1 8105   4.216   3.658  12.674 -0.1119  0.1329  0.3312
  542TMC3    O2 8106   4.501   3.323  12.262  0.3069  0.6335  0.2704
  543TMC3    C1 8107   3.755   4.532  17.195  0.3408 -0.7709  0.6166
  543TMC3    C2 8108   3.725   4.426  17.275 -0.5731 -0.0766  0.5013
  543TMC3    C3 8109   3.707   4.444  17.412 -0.7875  0.0405  0.1500
  543TMC3    C4 8110   3.774   4.659  17.250  0.0098 -0.5702  0.0853
  543TMC3    C5 8111   3.766   4.673  17.387 -0.5339  0.2060  0.3112
  543TMC3    C6 8112   3.733   4.565  17.471  0.0148  0.1355  0.1432
  543TMC3     C 8113   3.810   4.519  17.065 -0.2640  0.1236  0.2703
  543TMC3     O 8114   3.879   4.427  17.044 -0.3759 -0.3955 -0.2623
  543TMC3     H 8115   3.706   4.333  17.224  0.7614  1.9372 -3.6328
  543TMC3    H1 8116   3.816   0.005  17.196 -1.8199  0.6126  0.5294
  543TMC3    H2 8117   3.727   4.594  17.575  1.7742 -3.0404  1.1299
  543TMC3    C7 8118   3.793   0.056  17.454 -0.0649 -0.3163  0.1612
  543TMC3    C8 8119   3.692   4.326  17.496 -0.6782  0.8864 -0.0000
  543TMC3    O1 8120   3.730   0.071  17.558  1.0712  0.3256  0.3231
  543TMC3    O2 8121   3.655   4.226  17.441 -0.1024  0.5348  0.0833
  544MPD2     C 8122   3.726   4.042   0.173  0.2012 -0.9957 -0.0494
  544MPD2    C1 8123   3.725   4.007   0.045 -0.3669 -0.0684 -0.0658
  544MPD2    C2 8124   3.715   4.106  17.698 -0.0683  0.6416 -0.0492
  544MPD2    C3 8125   3.728   4.239  17.729 -1.1295 -1.1493 -0.2567
  544MPD2    C4 8126   3.732   4.273   0.110  0.1959 -0.8661  0.2505
  544MPD2    C5 8127   3.716   4.175   0.205 -0.0493  0.4164 -0.1412
  544MPD2     H 8128   3.702   4.076  17.595 -0.9879 -0.9223  0.5228
  544MPD2    H1 8129   3.730   4.374   0.149 -0.3333 -2.0137  3.1948
  544MPD2    H2 8130   3.747   3.974   0.255  1.7505  0.3415  0.6791
  544MPD2    H3 8131   3.707   4.207   0.308 -0.3511 -2.5119  0.7635
  544MPD2     N 8132   3.719   4.343  17.633 -0.0289 -0.1925 -0.2008
  544MPD2    H5 8133   3.744   4.437  17.662  0.4730 -1.6360  3.9084
  544MPD2    N1 8134   3.740   3.873  17.748 -0.9253 -0.6957 -0.1666
  544MPD2    H7 8135   3.754   3.799   0.065  1.7177 -1.6449 -1.7506
  545TMC3    C1 8136   3.814   3.693  17.601  0.5998 -1.1993  0.7531
  545TMC3    C2 8137   3.931   3.670  17.530  0.2232  0.1442  0.3107
  545TMC3    C3 8138   3.959   3.538  17.512  0.4713 -0.4242 -0.2197
  545TMC3    C4 8139   3.735   3.594  17.649  0.1590  0.3167  0.0263
  545TMC3    C5 8140   3.769   3.461  17.624  1.3441 -0.3145  1.0700
  545TMC3    C6 8141   3.884   3.435  17.560 -0.0121  0.3775  0.5268
  545TMC3     C 8142   3.773   3.836  17.619 -0.4466 -0.4558 -0.6811
  545TMC3     O 8143   3.787   3.898  17.517  0.5394 -0.2780  0.1858
  545TMC3     H 8144   4.000   3.750  17.505  1.5605 -0.7250  1.1909
  545TMC3    H1 8145   3.640   3.618  17.695  0.6196  2.3590 -0.0660
  545TMC3    H2 8146   3.921   3.333  17.554 -1.4687 -0.0153 -1.6753
  545TMC3    C7 8147   3.670   3.356  17.630 -0.7014 -0.8752 -0.2901
  545TMC3    C8 8148   4.082   3.499  17.445  0.0109 -0.3449  0.2418
  545TMC3    O1 8149   3.557   3.403  17.635 -0.2713 -0.5344 -0.2495
  545TMC3    O2 8150   4.112   3.381  17.450 -0.0833 -0.3181  0.0007
  546MPD2     C 8151   0.603   4.467  17.427  0.3467  0.3777  0.2681
  546MPD2    C1 8152   0.531   4.491  17.316 -0.1292 -0.5335  0.2370
  546MPD2    C2 8153   0.553   4.610  17.245 -0.1510 -0.5312 -0.0502
  546MPD2    C3 8154   0.649   4.700  17.295  0.0351  0.0567  0.3106
  546MPD2    C4 8155   0.708   4.674  17.412 -0.1026  0.0149 -0.5275
  546MPD2    C5 8156   0.699   4.554  17.467  0.4699 -0.0526 -0.5415
  546MPD2     H 8157   0.499   4.632  17.154  2.0636 -0.2790 -1.2832
  546MPD2    H1 8158   0.775   0.011  17.452 -1.3997  1.6376 -1.4171
  546MPD2    H2 8159   0.581   4.383  17.492  2.2693  0.6959  1.3287
  546MPD2    H3 8160   0.741   4.538  17.565  0.1407 -0.4195 -0.4647
  546MPD2     N 8161   0.663   0.091  17.245 -0.3870  0.1019 -0.4842
  546MPD2    H5 8162   0.702   0.151  17.316 -1.5240 -0.4127  0.5817
  546MPD2    N1 8163   0.444   4.393  17.273  0.4920  0.1202  0.0481
  546MPD2    H7 8164   0.429   4.323  17.344  2.0545 -1.0863 -0.8218
  547TMC3    C1 8165   0.272   4.277  17.163  0.7329  0.5310  0.0755
  547TMC3    C2 8166   0.204   4.243  17.043  1.0090 -0.1692 -0.2272
  547TMC3    C3 8167   0.116   4.135  17.050 -0.3815 -0.0141 -0.2584
  547TMC3    C4 8168   0.243   4.209  17.278  0.2575  0.0116  0.4730
  547TMC3    C5 8169   0.158   4.104  17.280 -0.0582 -0.2729  0.0310
  547TMC3    C6 8170   0.087   4.069  17.166  0.2003  0.5634 -0.9258
  547TMC3     C 8171   0.361   4.390  17.163 -0.3462 -0.3255  0.0075
  547TMC3     O 8172   0.350   4.464  17.065  0.4142 -0.2343 -0.0308
  547TMC3     H 8173   0.225   4.279  16.943  2.3496 -1.4776 -0.4168
  547TMC3    H1 8174   0.285   4.239  17.373  1.4138 -2.2471  0.6730
  547TMC3    H2 8175   0.015   3.987  17.168  0.4999  0.3231 -0.1673
  547TMC3    C7 8176   0.123   4.043  17.402  0.2944 -0.1567  0.1700
  547TMC3    C8 8177   0.028   4.113  16.939  0.3279 -0.5884  0.6718
  547TMC3    O1 8178   0.139   4.100  17.510  0.3348  0.0938  0.5170
  547TMC3    O2 8179   0.022   4.212  16.866  0.0298  0.1556  0.9635
  548MPD2     C 8180   0.050   0.372  13.073 -0.0785 -0.2513  0.1088
  548MPD2    C1 8181   0.005   0.260  13.008 -0.0365 -0.2208 -0.3104
  548MPD2    C2 8182   0.102   0.183  12.954 -0.1093 -0.0923 -0.0207
  548MPD2    C3 8183   0.235   0.218  12.962  0.5313 -0.0722 -0.0446
  548MPD2    C4 8184   0.271   0.337  13.024  0.5880  0.2918 -0.6889
  548MPD2    C5 8185   0.177   0.422  13.072  0.1168 -0.6253  0.1046
  548MPD2     H 8186   0.078   0.093  12.898  1.0660  1.0706 -2.3776
  548MPD2    H1 8187   0.373   0.373  13.032 -0.2980  2.4092  1.1705
  548MPD2    H2 8188   4.717   0.449  13.102  2.0198  1.1987  1.5129
  548MPD2    H3 8189   0.193   0.524  13.106  0.5809 -1.0387  1.1285
  548MPD2     N 8190   0.331   0.134  12.895 -0.0903  0.0105 -0.2936
  548MPD2    H5 8191   0.299   0.038  12.881 -0.4176  0.2098 -0.8831
  548MPD2    N1 8192   4.606   0.236  12.986 -0.7372  0.1408 -0.3737
  548MPD2    H7 8193   4.548   0.316  13.008 -1.1430 -0.4357  0.6759
  549TMC3    C1 8194   4.407   0.142  12.895 -0.2249 -0.2162  0.4292
  549TMC3    C2 8195   4.360   0.264  12.853 -0.4456 -0.8807 -0.2274
  549TMC3    C3 8196   4.242   0.285  12.790 -0.2127  0.4647 -0.4666
  549TMC3    C4 8197   4.332   0.027  12.871 -0.1222 -0.5447  0.2611
  549TMC3    C5 8198   4.206   0.052  12.818  0.4728 -0.1343  0.3094
  549TMC3    C6 8199   4.157   0.176  12.774  0.6565 -0.5335 -0.2416
  549TMC3     C 8200   4.548   0.126  12.922 -0.4025  0.5056  0.2940
  549TMC3     O 8201   4.593   0.013  12.903 -0.4291 -0.1971  0.4079
  549TMC3     H 8202   4.416   0.351  12.885  0.4856 -0.7767 -2.1543
  549TMC3    H1 8203   4.365   4.666  12.900 -0.9774 -1.7520 -2.9544
  549TMC3    H2 8204   4.065   0.181  12.717 -1.0107 -0.9353  2.3988
  549TMC3    C7 8205   4.127   4.677  12.769  0.6264  0.1627 -0.0357
  549TMC3    C8 8206   4.211   0.409  12.709 -0.3585  0.9504  0.3561
  549TMC3    O1 8207   4.009   4.708  12.772 -0.3580 -1.0676 -0.1705
  549TMC3    O2 8208   4.108   0.410  12.645  0.7144 -0.1426 -0.5009
  550TMC3    C1 8209   3.561   3.136  12.213 -0.7458 -0.1956 -0.0596
  550TMC3    C2 8210   3.497   3.194  12.321  0.2904 -0.1642  0.4083
  550TMC3    C3 8211   3.441   3.312  12.300 -0.2515  0.3937  0.7635
  550TMC3    C4 8212   3.532   3.180  12.087 -0.4074 -0.8706 -0.2244
  550TMC3    C5 8213   3.448   3.284  12.066  0.8847  0.1901 -0.0111
  550TMC3    C6 8214   3.409   3.355  12.178 -0.2976  0.2874 -0.8427
  550TMC3     C 8215   3.605   2.994  12.237  0.2668 -0.5688 -0.0033
  550TMC3     O 8216   3.555   2.939  12.332 -0.2090 -0.3671  0.1667
  550TMC3     H 8217   3.513   3.155  12.421  0.0782 -1.4644 -0.0717
  550TMC3    H1 8218   3.570   3.117  12.008  1.3059 -0.1216 -0.0024
  550TMC3    H2 8219   3.346   3.442  12.168 -1.7028 -0.7452 -1.0890
  550TMC3    C7 8220   3.331   3.240  11.994 -0.0300  0.2728  0.5708
  550TMC3    C8 8221   3.335   3.351  12.402 -1.1489  0.1220 -0.1157
  550TMC3    O1 8222   3.220   3.277  12.036 -0.3117  0.1508 -0.5097
  550TMC3    O2 8223   3.321   3.465  12.430  0.7541 -0.6894 -0.2462
  551TMC3    C1 8224   1.361   1.062  13.565  0.1562 -0.0996 -0.4111
  551TMC3    C2 8225   1.449   0.993  13.484 -0.4029  0.7406 -1.0697
  551TMC3    C3 8226   1.564   1.068  13.438 -0.1383  0.0535  0.7002
  551TMC3    C4 8227   1.395   1.184  13.625 -0.9840  0.4993  0.6686
  551TMC3    C5 8228   1.521   1.231  13.606  0.4428 -0.2572  0.5456
  551TMC3    C6 8229   1.596   1.189  13.500 -0.7546 -0.4785 -0.5199
  551TMC3     C 8230   1.221   1.059  13.522 -0.5752 -0.1524 -0.0167
  551TMC3     O 8231   1.185   0.952  13.473 -0.1996  0.1501  0.5089
  551TMC3     H 8232   1.412   0.900  13.443  1.0020  0.0744 -0.8246
  551TMC3    H1 8233   1.329   1.230  13.698 -3.1505  0.0799 -1.0310
  551TMC3    H2 8234   1.692   1.239  13.483 -0.5832 -0.6288 -0.0025
  551TMC3    C7 8235   1.555   1.359  13.671  0.4839 -0.2163 -0.6206
  551TMC3    C8 8236   1.681   0.992  13.395 -0.2703 -0.2404 -0.2897
  551TMC3    O1 8237   1.651   1.417  13.625  0.2069  0.5476  0.1095
  551TMC3    O2 8238   1.705   0.885  13.447  0.3257 -0.1936  0.4002
  552MPD2     C 8239   3.310   2.924  13.513 -0.0411  0.6334  0.5636
  552MPD2    C1 8240   3.225   2.849  13.596  0.2284 -0.0230 -0.5604
  552MPD2    C2 8241   3.282   2.806  13.720 -0.4060 -0.6453 -0.1197
  552MPD2    C3 8242   3.419   2.816  13.743  0.2497 -0.0857  0.3724
  552MPD2    C4 8243   3.503   2.879  13.650 -0.3562 -0.5239  0.0327
  552MPD2    C5 8244   3.439   2.943  13.546  0.0390  0.5701 -0.0484
  552MPD2     H 8245   3.228   2.762  13.802  1.0407 -1.6688  0.2836
  552MPD2    H1 8246   3.611   2.884  13.660 -0.1763 -3.1020 -0.4279
  552MPD2    H2 8247   3.275   2.948  13.413  1.0578 -1.5904 -0.3420
  552MPD2    H3 8248   3.504   2.994  13.476 -1.9604  1.9290 -0.9209
  552MPD2     N 8249   3.485   2.775  13.861  0.0653  0.3669  0.7401
  552MPD2    H5 8250   3.586   2.766  13.857 -0.1776 -1.1702 -1.6666
  552MPD2    N1 8251   3.096   2.808  13.560  0.4637 -0.9892 -0.6178
  552MPD2    H7 8252   3.039   2.770  13.635  0.5256 -0.1755 -0.1532
  553TMC3    C1 8253   2.888   2.812  13.447 -0.6184  0.7814  0.0415
  553TMC3    C2 8254   2.823   2.823  13.322 -0.2040 -0.0288 -0.4395
  553TMC3    C3 8255   2.726   2.729  13.285  0.4181  0.3687  0.1571
  553TMC3    C4 8256   2.837   2.725  13.536  0.1036 -0.8630 -0.3775
  553TMC3    C5 8257   2.733   2.645  13.498 -0.4475  0.4436 -0.1250
  553TMC3    C6 8258   2.669   2.639  13.374  0.3042 -0.0176  0.4934
  553TMC3     C 8259   3.031   2.849  13.451  0.6984 -0.6020 -0.4572
  553TMC3     O 8260   3.067   2.905  13.345  0.4428 -0.2044 -0.1713
  553TMC3     H 8261   2.876   2.869  13.239  0.8113  1.0630  0.8198
  553TMC3    H1 8262   2.877   2.715  13.636  1.1941 -0.3756 -0.7664
  553TMC3    H2 8263   2.600   2.558  13.351  0.1720  0.0722  0.5681
  553TMC3    C7 8264   2.726   2.520  13.569 -0.1185 -0.3093 -0.1806
  553TMC3    C8 8265   2.772   2.667  13.165 -0.4111 -0.1362  0.4680
  553TMC3    O1 8266   2.615   2.479  13.593 -0.3004 -0.7644 -0.1846
  553TMC3    O2 8267   2.894   2.669  13.142  0.2863  0.1091  0.1765
  554TMC3    C1 8268   4.473   1.843  11.600 -0.0034 -0.5244 -0.4501
  554TMC3    C2 8269   4.455   1.811  11.467 -0.2963  1.2109  0.2960
  554TMC3    C3 8270   4.523   1.881  11.370 -0.6562  0.2765 -0.3174
  554TMC3    C4 8271   4.556   1.952  11.629  0.5937  0.0615 -0.3827
  554TMC3    C5 8272   4.611   2.033  11.531 -0.3319 -0.1577 -0.2257
  554TMC3    C6 8273   4.596   1.997  11.401  0.4097  0.0845  0.3858
  554TMC3     C 8274   4.415   1.756  11.698 -0.0403  0.2395 -0.0342
  554TMC3     O 8275   4.348   1.659  11.659  0.4101 -0.5317 -0.4572
  554TMC3     H 8276   4.399   1.720  11.447  1.8842  0.1507 -1.0372
  554TMC3    H1 8277   4.569   1.996  11.727 -0.7574 -2.0715  0.7611
  554TMC3    H2 8278   4.618   2.068  11.322 -0.2640  2.6368  2.4695
  554TMC3    C7 8279   4.693   2.143  11.565 -0.2281 -0.2880  0.2194
  554TMC3    C8 8280   4.493   1.858  11.221  0.2306  0.4798  0.6036
  554TMC3    O1 8281   4.676   2.202  11.672  0.2250  0.4534  0.2408
  554TMC3    O2 8282   4.547   1.926  11.136 -0.2270 -0.5061  0.1594
  555TMC3    C1 8283   4.158   1.193  14.824  0.1381 -0.3884  0.5747
  555TMC3    C2 8284   4.162   1.260  14.944 -0.3851 -0.7069  0.4545
  555TMC3    C3 8285   4.219   1.195  15.056 -0.2632  0.7700  0.2024
  555TMC3    C4 8286   4.191   1.063  14.815 -0.4356 -0.1872 -0.2262
  555TMC3    C5 8287   4.236   0.998  14.930  0.4570 -0.2277 -0.1784
  555TMC3    C6 8288   4.257   1.065  15.046  0.7260  0.0444  0.0785
  555TMC3     C 8289   4.165   1.272  14.704 -0.4918  0.1760 -0.7103
  555TMC3     O 8290   4.237   1.225  14.610 -0.6528 -0.5107  0.2379
  555TMC3     H 8291   4.144   1.367  14.949 -2.2276 -0.9570 -0.5695
  555TMC3    H1 8292   4.170   1.014  14.721 -2.6965 -1.4577  0.9412
  555TMC3    H2 8293   4.309   1.023  15.131  1.2151  0.2495 -0.1155
  555TMC3    C7 8294   4.192   0.862  14.951  0.5378 -0.0169  0.0787
  555TMC3    C8 8295   4.261   1.278  15.164 -0.2337  0.0376  0.2879
  555TMC3    O1 8296   4.226   0.823  15.060  0.2535 -0.2177 -0.1325
  555TMC3    O2 8297   4.251   1.397  15.147 -0.1375 -0.4603 -0.3819
  556MPD2     C 8298   1.797   3.347  10.512  0.0830 -0.1943 -0.4052
  556MPD2    C1 8299   1.839   3.238  10.587  0.2883 -0.0252 -0.2479
  556MPD2    C2 8300   1.827   3.117  10.524  0.4838  0.4097 -0.4762
  556MPD2    C3 8301   1.812   3.097  10.386 -0.6210  0.7898 -0.1293
  556MPD2    C4 8302   1.782   3.215  10.312 -0.7447  0.2637 -0.5124
  556MPD2    C5 8303   1.776   3.338  10.375 -0.6597 -0.1752  0.5638
  556MPD2     H 8304   1.853   3.026  10.577  1.5863  1.2237  0.3690
  556MPD2    H1 8305   1.775   3.211  10.203 -0.6432  0.4023 -0.5239
  556MPD2    H2 8306   1.803   3.445  10.559  1.0945 -0.6005  0.3115
  556MPD2    H3 8307   1.755   3.427  10.317 -1.9767 -0.7969  0.0679
  556MPD2     N 8308   1.841   2.967  10.339  0.0023 -0.7782 -0.9630
  556MPD2    H5 8309   1.884   2.892  10.392  2.4689  0.5744 -1.0225
  556MPD2    N1 8310   1.869   3.236  10.725 -0.1782 -0.5236 -0.0761
  556MPD2    H7 8311   1.887   3.145  10.764 -0.7555  0.7175  3.1036
  557TMC3    C1 8312   1.853   2.776  10.209  0.3835  0.9225 -0.2670
  557TMC3    C2 8313   1.832   2.728  10.082 -0.5176 -0.4174  0.0307
  557TMC3    C3 8314   1.865   2.597  10.059  0.2233 -0.0154 -0.3362
  557TMC3    C4 8315   1.910   2.695  10.304  0.3120 -0.0267  0.1457
  557TMC3    C5 8316   1.960   2.564  10.276 -0.0789  0.6048 -0.0589
  557TMC3    C6 8317   1.931   2.515  10.150  0.8891 -0.1626 -0.3213
  557TMC3     C 8318   1.822   2.919  10.217  0.3693 -0.3842 -0.4119
  557TMC3     O 8319   1.785   2.988  10.122 -0.3794  0.6198  0.3386
  557TMC3     H 8320   1.780   2.787  10.007 -0.8277  0.7921  1.1961
  557TMC3    H1 8321   1.908   2.734  10.405 -1.0642 -0.2899  0.2169
  557TMC3    H2 8322   1.982   2.424  10.119  0.8923  0.3342 -1.7796
  557TMC3    C7 8323   1.971   2.468  10.385  0.6533  0.0050  0.3313
  557TMC3    C8 8324   1.816   2.542   9.928 -0.6471 -0.4923 -0.1786
  557TMC3    O1 8325   1.971   2.510  10.499  0.0861 -0.5877  0.0838
  557TMC3    O2 8326   1.712   2.587   9.887 -0.6902 -0.5516 -0.5438
  558TMC3    C1 8327   0.110   0.976  10.482  0.1644  0.3433  0.1518
  558TMC3    C2 8328   0.010   0.989  10.579 -0.5591 -0.2425 -0.2687
  558TMC3    C3 8329   4.636   1.056  10.540  0.9266  0.9581 -0.7234
  558TMC3    C4 8330   0.099   1.025  10.354  0.8931  1.1966 -0.4760
  558TMC3    C5 8331   4.731   1.106  10.332  0.4072 -0.4311  0.0839
  558TMC3    C6 8332   4.627   1.118  10.421 -0.2774  0.1382  0.1621
  558TMC3     C 8333   0.240   0.907  10.512 -0.2136  0.2457  0.2375
  558TMC3     O 8334   0.331   0.930  10.434  0.7784  0.0935 -0.2102
  558TMC3     H 8335   0.027   0.943  10.675 -3.5824 -2.1013 -0.6291
  558TMC3    H1 8336   0.172   1.000  10.278 -0.0880 -1.1420 -0.6440
  558TMC3    H2 8337   4.545   1.182  10.389  0.6382  2.2258  1.9210
  558TMC3    C7 8338   4.707   1.126  10.194  0.2408  0.1395  1.0243
  558TMC3    C8 8339   4.513   1.036  10.606 -1.0350  0.4093 -0.8371
  558TMC3    O1 8340   0.051   1.194  10.131 -0.1066  0.2207  0.4513
  558TMC3    O2 8341   4.419   1.051  10.533 -0.0871 -0.1899 -0.3364
  559MPD2     C 8342   4.664   1.395  10.545  0.5801 -0.5708 -0.1768
  559MPD2    C1 8343   4.606   1.392  10.670  0.0454 -0.6134  0.1531
  559MPD2    C2 8344   4.684   1.410  10.786 -0.8640  0.1724  0.1292
  559MPD2    C3 8345   0.078   1.427  10.770  0.4694 -0.1350 -0.1862
  559MPD2    C4 8346   0.134   1.410  10.647  0.0673 -0.9923 -0.5686
  559MPD2    C5 8347   0.060   1.399  10.535 -0.0419 -0.4623  0.3169
  559MPD2     H 8348   4.640   1.409  10.885 -0.2043  0.6992  0.4253
  559MPD2    H1 8349   0.241   1.417  10.637 -0.1043  0.1011 -1.5169
  559MPD2    H2 8350   4.604   1.396  10.454 -1.5385 -2.9917  1.1818
  559MPD2    H3 8351   0.102   1.404  10.435  0.8527 -0.2457  0.6954
  559MPD2     N 8352   0.148   1.442  10.889 -0.1092 -0.0228 -0.0351
  559MPD2    H5 8353   0.086   1.441  10.969  0.3594  0.0229  0.3281
  559MPD2    N1 8354   4.469   1.375  10.683  0.2481 -0.5251 -0.3473
  559MPD2    H7 8355   4.410   1.369  10.600  0.8527  1.8399 -0.9443
  560TMC3    C1 8356   0.329   1.457  11.032 -0.2897 -0.1206 -0.4595
  560TMC3    C2 8357   0.264   1.386  11.128 -0.9023 -0.1948  0.1244
  560TMC3    C3 8358   0.315   1.391  11.254  0.1651  0.1133 -0.4568
  560TMC3    C4 8359   0.442   1.528  11.064 -0.0940  0.2085  0.1247
  560TMC3    C5 8360   0.481   1.544  11.196  0.5425  0.2875  0.2905
  560TMC3    C6 8361   0.421   1.474  11.299  0.5233 -0.3348 -0.3568
  560TMC3     C 8362   0.283   1.465  10.895  0.4845 -0.1963 -0.4549
  560TMC3     O 8363   0.356   1.514  10.812  0.3441 -0.3002 -0.1239
  560TMC3     H 8364   0.170   1.333  11.114 -1.3267  0.2768  1.1528
  560TMC3    H1 8365   0.496   1.580  10.986 -2.7305  2.9279  0.1108
  560TMC3    H2 8366   0.478   1.455  11.389  1.5943 -1.1781 -1.2140
  560TMC3    C7 8367   0.620   1.567  11.218 -0.7788  0.2496  0.1261
  560TMC3    C8 8368   0.251   1.299  11.345  0.6183  0.5933 -0.2936
  560TMC3    O1 8369   0.701   1.538  11.129  0.3148  0.3572  0.5839
  560TMC3    O2 8370   0.179   1.210  11.291  0.0597 -0.5804 -0.0021
  561TMC3    C1 8371   2.259   0.517  11.571  0.5772  0.5828 -0.7911
  561TMC3    C2 8372   2.194   0.473  11.685 -0.7706  0.5315  1.2333
  561TMC3    C3 8373   2.186   0.566  11.786 -0.2289 -1.0315 -0.1946
  561TMC3    C4 8374   2.328   0.636  11.557  0.2304  0.9097  0.2482
  561TMC3    C5 8375   2.322   0.718  11.661  0.7141 -0.8054 -0.1065
  561TMC3    C6 8376   2.251   0.687  11.775  0.6160  0.0995 -0.2225
  561TMC3     C 8377   2.235   0.426  11.458 -0.4458  0.3970  0.5401
  561TMC3     O 8378   2.143   0.348  11.460  0.7712  0.2682  0.0493
  561TMC3     H 8379   2.148   0.376  11.698 -0.2302  0.2379  0.9594
  561TMC3    H1 8380   2.381   0.670  11.468  1.1320 -1.5455 -0.1392
  561TMC3    H2 8381   2.266   0.749  11.863 -0.7642 -0.3672  0.3384
  561TMC3    C7 8382   2.394   0.844  11.670 -0.1100 -0.8689 -0.3560
  561TMC3    C8 8383   2.170   0.514  11.919  0.2997  0.4643 -0.4132
  561TMC3    O1 8384   2.368   0.912  11.768  0.1206 -0.5449  0.4725
  561TMC3    O2 8385   2.200   0.397  11.939  1.0685 -0.1057 -0.0098
  562TMC3    C1 8386   4.068   1.650  15.513  0.7010  0.5316 -0.7721
  562TMC3    C2 8387   3.973   1.743  15.475  0.5255  0.0444  0.6298
  562TMC3    C3 8388   3.866   1.687  15.409 -0.5978 -0.4007  0.0229
  562TMC3    C4 8389   4.059   1.517  15.491 -0.6194  0.4432  0.3734
  562TMC3    C5 8390   3.951   1.472  15.410 -0.2457 -0.0248  0.5510
  562TMC3    C6 8391   3.856   1.559  15.365  1.0967 -0.3243  0.7049
  562TMC3     C 8392   4.187   1.695  15.574 -0.5832 -0.3426 -0.0428
  562TMC3     O 8393   4.228   1.611  15.653  0.3563 -0.4247  0.0158
  562TMC3     H 8394   3.964   1.838  15.525  0.0729 -0.1160  0.8583
  562TMC3    H1 8395   4.141   1.457  15.528  0.0348 -0.2750 -2.2064
  562TMC3    H2 8396   3.763   1.519  15.328  0.4222  0.9433  1.0277
  562TMC3    C7 8397   3.951   1.338  15.367  1.6182 -0.1792  0.6887
  562TMC3    C8 8398   3.742   1.757  15.422 -0.5344 -0.0186  0.0442
  562TMC3    O1 8399   3.889   1.306  15.267  0.1827 -0.1481  0.7584
  562TMC3    O2 8400   3.748   1.850  15.504 -0.0860  0.4214  0.4790
  563MPD2     C 8401   1.525   3.053  15.556 -0.3280  0.2700 -0.1193
  563MPD2    C1 8402   1.544   3.138  15.658  0.5279  0.1397  0.1572
  563MPD2    C2 8403   1.647   3.113  15.751 -0.3276  0.3657  0.7252
  563MPD2    C3 8404   1.740   3.014  15.729 -0.1350 -0.3577  0.6531
  563MPD2    C4 8405   1.723   2.938  15.609  0.4466 -0.2433 -0.1459
  563MPD2    C5 8406   1.608   2.947  15.534 -1.1035  0.4523  0.6313
  563MPD2     H 8407   1.659   3.171  15.842 -0.0044  0.1123  0.8467
  563MPD2    H1 8408   1.795   2.857  15.595  0.4731 -0.2186 -0.1530
  563MPD2    H2 8409   1.434   3.063  15.497 -1.6332 -1.7509  1.5458
  563MPD2    H3 8410   1.586   2.869  15.462 -0.8092 -0.1738  1.2242
  563MPD2     N 8411   1.835   2.988  15.825 -0.6192  0.0285  0.4592
  563MPD2    H5 8412   1.829   3.050  15.905  1.2078 -1.7162  1.9514
  563MPD2    N1 8413   1.439   3.230  15.687  0.5630 -0.5541  0.2239
  563MPD2    H7 8414   1.353   3.216  15.635 -0.7155 -1.1427  2.4676
  564TMC3    C1 8415   1.362   3.250  15.909 -0.6997  0.2397 -0.9239
  564TMC3    C2 8416   1.255   3.177  15.855  0.0905 -0.1041 -0.3014
  564TMC3    C3 8417   1.211   3.061  15.928  0.2955  0.4438  0.2083
  564TMC3    C4 8418   1.434   3.208  16.016  0.5214  0.8431 -0.1561
  564TMC3    C5 8419   1.393   3.095  16.080 -0.2901 -0.4065 -0.5226
  564TMC3    C6 8420   1.282   3.028  16.041  0.1965  0.6383  0.8120
  564TMC3     C 8421   1.445   3.311  15.803 -0.7938  0.1046  0.4854
  564TMC3     O 8422   1.542   3.380  15.835 -0.0681  0.5672 -0.0742
  564TMC3     H 8423   1.209   3.201  15.759 -1.6327 -0.8751  0.3274
  564TMC3    H1 8424   1.533   3.249  16.036  1.2678 -1.7784  1.5623
  564TMC3    H2 8425   1.241   2.940  16.089  1.5177 -0.6569 -0.4341
  564TMC3    C7 8426   1.491   2.997  16.116 -0.4028 -0.2327 -0.2905
  564TMC3    C8 8427   1.160   2.950  15.855 -0.3255  0.6136  0.8028
  564TMC3    O1 8428   1.564   3.015  16.211  0.1329 -0.4148  0.3939
  564TMC3    O2 8429   1.138   2.844  15.917 -0.4429 -0.0982  0.1500
  565TMC3    C1 8430   1.958   4.510  10.206 -0.6289 -0.0713 -0.1444
  565TMC3    C2 8431   1.947   4.508  10.341  0.6924  0.3732  0.1883
  565TMC3    C3 8432   1.852   4.436  10.398  0.5892 -0.0702  0.2323
  565TMC3    C4 8433   1.868   4.441  10.124  0.4883  0.4938 -0.4803
  565TMC3    C5 8434   1.773   4.364  10.193  0.4306  0.5880  0.0729
  565TMC3    C6 8435   1.766   4.353  10.329  0.2038 -0.0474 -0.3059
  565TMC3     C 8436   2.065   4.586  10.145 -0.5872 -0.6636 -0.0866
  565TMC3     O 8437   2.064   4.577  10.021  0.0040 -0.2404 -0.4108
  565TMC3     H 8438   2.004   4.571  10.408  2.2026 -0.1183 -0.6175
  565TMC3    H1 8439   1.873   4.451  10.016  0.8144 -3.4116 -0.8109
  565TMC3    H2 8440   1.680   4.306  10.374 -1.3008  1.8152 -1.2078
  565TMC3    C7 8441   1.686   4.287  10.112  0.4599  0.4297  0.0430
  565TMC3    C8 8442   1.862   4.424  10.535  1.1311  0.7800 -0.1477
  565TMC3    O1 8443   1.667   4.327   9.994 -0.0892  0.7051  0.1799
  565TMC3    O2 8444   1.879   4.523  10.605 -0.3867  0.6459 -0.4978
  566MPD2     C 8445   3.166   1.083  14.267 -0.1162 -0.1566 -0.0777
  566MPD2    C1 8446   3.246   1.166  14.198  0.0233  0.6519 -0.0163
  566MPD2    C2 8447   3.200   1.246  14.095 -0.1499  0.1820  0.1708
  566MPD2    C3 8448   3.069   1.231  14.047 -0.4701  0.6766  0.2652
  566MPD2    C4 8449   2.983   1.155  14.125  0.1608 -0.6145  0.2457
  566MPD2    C5 8450   3.035   1.082  14.233  0.3722 -0.0075  0.1116
  566MPD2     H 8451   3.265   1.315  14.041  1.2757 -2.4329 -1.4335
  566MPD2    H1 8452   2.881   1.138  14.094 -0.0521  2.1217 -0.5795
  566MPD2    H2 8453   3.200   1.023  14.350  1.2172 -1.3700 -1.4979
  566MPD2    H3 8454   2.969   1.010  14.279  0.0195 -0.2265 -0.7489
  566MPD2     N 8455   3.019   1.302  13.933 -0.6233 -0.1134  0.5258
  566MPD2    H5 8456   2.917   1.301  13.927 -0.8341 -0.2423  4.0396
  566MPD2    N1 8457   3.386   1.153  14.225  0.2396 -0.4338 -0.2455
  566MPD2    H7 8458   3.412   1.089  14.299  1.8792 -0.1127 -0.5372
  567TMC3    C1 8459   3.623   1.192  14.215  0.9108  0.5737 -0.1306
  567TMC3    C2 8460   3.719   1.259  14.145  0.1617 -0.5039  0.2376
  567TMC3    C3 8461   3.840   1.278  14.205 -0.1542 -0.4371 -0.5645
  567TMC3    C4 8462   3.638   1.159  14.345  0.1928  0.2596  0.0402
  567TMC3    C5 8463   3.766   1.184  14.401  0.2232 -0.0666  0.4369
  567TMC3    C6 8464   3.866   1.243  14.334  0.2118  0.0333  0.6988
  567TMC3     C 8465   3.490   1.220  14.165  0.0774 -0.3552  0.7235
  567TMC3     O 8466   3.481   1.320  14.092  0.2527 -0.2368  0.4816
  567TMC3     H 8467   3.712   1.282  14.040  2.8446  1.4797  0.4915
  567TMC3    H1 8468   3.560   1.115  14.407 -0.4249  0.4240 -0.6299
  567TMC3    H2 8469   3.953   1.282  14.387  0.1470  1.9178 -0.5883
  567TMC3    C7 8470   3.802   1.141  14.533 -0.7745  0.1948  0.0812
  567TMC3    C8 8471   3.917   1.379  14.138  0.8393 -0.2661  0.4390
  567TMC3    O1 8472   3.917   1.100  14.540 -0.7898 -0.1533 -0.6340
  567TMC3    O2 8473   3.852   1.461  14.074  0.4965  0.4629 -0.0107
  568MPD2     C 8474   1.143   1.618  16.112  0.4574  0.1482 -0.7534
  568MPD2    C1 8475   1.275   1.657  16.128  0.4917  0.1231 -0.0857
  568MPD2    C2 8476   1.321   1.768  16.053  0.0383 -0.0763  0.2811
  568MPD2    C3 8477   1.233   1.836  15.971 -1.2215 -0.0662 -0.1892
  568MPD2    C4 8478   1.102   1.793  15.953  0.0379  0.3295  0.0903
  568MPD2    C5 8479   1.059   1.681  16.026  0.2195 -0.3097  0.2511
  568MPD2     H 8480   1.419   1.813  16.068  0.4624 -1.2498  1.0403
  568MPD2    H1 8481   1.030   1.842  15.887 -1.6396 -0.0764  1.6357
  568MPD2    H2 8482   1.082   1.546  16.166  1.2335 -0.4684 -0.7090
  568MPD2    H3 8483   0.956   1.648  16.021 -0.3046  1.7166 -2.0618
  568MPD2     N 8484   1.282   1.956  15.922  0.2747 -0.1525 -0.0807
  568MPD2    H5 8485   1.380   1.982  15.927  0.0136  1.3337 -2.7729
  568MPD2    N1 8486   1.361   1.589  16.215 -0.2291  0.0813 -0.4445
  568MPD2    H7 8487   1.316   1.504  16.248 -0.1141  0.0462 -0.3767
  569TMC3    C1 8488   1.286   2.166  15.823  0.2981  0.1896 -0.8236
  569TMC3    C2 8489   1.344   2.232  15.925  0.3299  0.0676  0.3177
  569TMC3    C3 8490   1.413   2.345  15.886 -0.1924 -0.3812  0.0059
  569TMC3    C4 8491   1.297   2.203  15.688  0.1935  0.1850 -0.5367
  569TMC3    C5 8492   1.361   2.317  15.654 -0.5165 -0.1643  0.0183
  569TMC3    C6 8493   1.428   2.382  15.756  0.2633  0.7878  0.4825
  569TMC3     C 8494   1.210   2.051  15.853  0.5298  0.3680 -0.2159
  569TMC3     O 8495   1.097   2.046  15.804  0.2324 -0.4972  0.0293
  569TMC3     H 8496   1.335   2.219  16.032 -1.3572 -1.6764 -0.0378
  569TMC3    H1 8497   1.217   2.161  15.628  0.4602 -2.0103  0.6212
  569TMC3    H2 8498   1.498   2.461  15.730 -0.6595  1.2223 -0.6947
  569TMC3    C7 8499   1.281   2.405  15.571  0.0962  0.5461 -0.2182
  569TMC3    C8 8500   1.362   2.457  15.956  0.2018 -0.6032  0.7394
  569TMC3    O1 8501   1.243   2.365  15.462 -0.2421 -0.0225  0.0704
  569TMC3    O2 8502   1.280   2.519  15.892 -0.5339  0.1037  0.0171
  570TMC3    C1 8503   0.396   0.372  16.080  0.1887 -1.1184  0.0275
  570TMC3    C2 8504   0.445   0.411  15.956  0.6025  0.2524 -0.0452
  570TMC3    C3 8505   0.492   0.541  15.941  0.6213  0.1649  0.4528
  570TMC3    C4 8506   0.367   0.469  16.179 -0.3512  0.8721 -0.7277
  570TMC3    C5 8507   0.401   0.591  16.147 -0.9772  0.5183 -0.4030
  570TMC3    C6 8508   0.464   0.633  16.036 -0.1946 -0.1704 -0.0920
  570TMC3     C 8509   0.313   0.249  16.077 -0.4665 -0.5778  0.1777
  570TMC3     O 8510   0.274   0.201  15.971 -0.3213 -0.6833 -0.8337
  570TMC3     H 8511   0.453   0.335  15.878  2.3176  0.0942  0.2978
  570TMC3    H1 8512   0.300   0.450  16.262  1.0714 -0.2056  0.1886
  570TMC3    H2 8513   0.506   0.733  16.032  1.6971 -0.9639  0.0580
  570TMC3    C7 8514   0.355   0.697  16.231 -0.4772 -0.1057 -0.0399
  570TMC3    C8 8515   0.559   0.589  15.819  0.2112  0.9214 -0.1127
  570TMC3    O1 8516   0.352   0.673  16.352  0.2092 -0.3880  0.1962
  570TMC3    O2 8517   0.577   0.711  15.813  0.0499 -0.0126  0.2120
  571MPD2     C 8518   3.756   1.883  17.711  0.2299 -0.6964  0.2283
  571MPD2    C1 8519   3.645   1.957  17.702 -0.3992 -0.2970  0.1209
  571MPD2    C2 8520   3.634   2.071   0.036 -0.6296  0.7862  0.1155
  571MPD2    C3 8521   3.729   2.107   0.134  0.0953 -0.3779 -0.2958
  571MPD2    C4 8522   3.839   2.030   0.135  0.6130  0.0624  1.0963
  571MPD2    C5 8523   3.853   1.922   0.051 -0.6396  0.4870  0.4797
  571MPD2     H 8524   3.548   2.135   0.020 -0.1200  1.0956 -1.4652
  571MPD2    H1 8525   3.931   2.057   0.187  0.4405 -0.6857  1.7872
  571MPD2    H2 8526   3.778   1.794  17.653 -0.7554  0.0723 -1.3215
  571MPD2    H3 8527   3.938   1.855   0.049 -0.2037  1.0258  1.1005
  571MPD2     N 8528   3.736   2.215   0.228 -0.2635  0.0414  0.1584
  571MPD2    H5 8529   3.806   2.212   0.301  0.3206 -1.1206 -0.4601
  571MPD2    N1 8530   3.548   1.911  17.604 -0.3484  0.3404  0.2844
  571MPD2    H7 8531   3.565   1.829  17.547 -1.5096 -0.4949  1.1308
  572TMC3    C1 8532   3.675   2.406   0.345 -0.8337  0.7276  0.1398
  572TMC3    C2 8533   3.790   2.382   0.416 -0.2414 -0.3253  0.1764
  572TMC3    C3 8534   3.840   2.487   0.487  0.1062 -0.1640 -1.0367
  572TMC3    C4 8535   3.620   2.533   0.330  0.8851 -0.0571  0.1729
  572TMC3    C5 8536   3.684   2.636   0.397 -0.5405  0.0311 -0.2852
  572TMC3    C6 8537   3.795   2.611   0.470  0.4515  0.3877 -0.0591
  572TMC3     C 8538   3.639   2.309   0.244 -0.4298 -0.1253  0.2153
  572TMC3     O 8539   3.552   2.330   0.157  0.0593  0.1210  0.7067
  572TMC3     H 8540   3.809   2.279   0.444  0.5838  0.7247  3.5330
  572TMC3    H1 8541   3.522   2.544   0.285  0.2864  0.1173  1.4915
  572TMC3    H2 8542   3.856   2.691   0.511  2.2406 -1.5746  1.0942
  572TMC3    C7 8543   3.657   2.766   0.352  0.1905  0.1174  0.4676
  572TMC3    C8 8544   3.932   2.461   0.593  0.1761 -0.7542  0.0321
  572TMC3    O1 8545   3.539   2.795   0.329  0.0684  0.1060  0.2475
  572TMC3    O2 8546   3.957   2.562   0.652 -0.0019 -0.2303  0.0775
  573MPD2     C 8547   4.338   2.176   0.406 -0.1693  0.4969 -0.3392
  573MPD2    C1 8548   4.309   2.313   0.395  0.3105 -0.3660  0.0349
  573MPD2    C2 8549   4.213   2.356   0.307  0.8473 -0.4379 -0.2427
  573MPD2    C3 8550   4.154   2.258   0.221 -0.0128  0.4887  0.7971
  573MPD2    C4 8551   4.192   2.133   0.227  0.2674 -0.0762  0.0494
  573MPD2    C5 8552   4.281   2.090   0.317 -0.1356 -0.1732 -0.3950
  573MPD2     H 8553   4.188   2.459   0.287  3.5054 -0.0535 -1.5338
  573MPD2    H1 8554   4.152   2.054   0.165  1.6078  0.2851 -1.2752
  573MPD2    H2 8555   4.410   2.130   0.474 -0.1985  2.4277  0.9891
  573MPD2    H3 8556   4.317   1.988   0.318  0.8938  0.1961  0.7154
  573MPD2     N 8557   4.057   2.297   0.122  0.5919  0.0587  0.1953
  573MPD2    H5 8558   4.032   2.223   0.056 -0.3721  1.4277 -0.9777
  573MPD2    N1 8559   4.369   2.390   0.492  0.7139  0.8158  0.0512
  573MPD2    H7 8560   4.427   2.346   0.563  0.1982 -3.0287 -1.9594
  574TMC3    C1 8561   3.897   2.432   0.005  0.6352 -0.1201  0.1225
  574TMC3    C2 8562   3.807   2.537   0.026 -0.8353  0.1822  0.3386
  574TMC3    C3 8563   3.696   2.534  17.702 -0.8277  0.0377  0.1605
  574TMC3    C4 8564   3.870   2.329  17.672 -0.6721 -0.0752  0.3279
  574TMC3    C5 8565   3.753   2.326  17.599  0.4450 -0.6788 -0.9949
  574TMC3    C6 8566   3.664   2.434  17.618 -0.5388 -1.1087  0.6243
  574TMC3     C 8567   3.989   2.418   0.120  0.0346  0.6276 -0.2939
  574TMC3     O 8568   4.007   2.516   0.189  0.1613 -0.3600  0.0527
  574TMC3     H 8569   3.837   2.619   0.091  0.4722  0.7169 -0.9283
  574TMC3    H1 8570   3.936   2.248  17.641 -0.9993 -0.2173  0.0007
  574TMC3    H2 8571   3.575   2.443  17.557 -0.1466  0.7094  0.3132
  574TMC3    C7 8572   3.736   2.229  17.489  0.0886  0.2050  0.1513
  574TMC3    C8 8573   3.594   2.637  17.720 -0.2121  0.3620  0.0938
  574TMC3    O1 8574   3.831   2.154  17.474 -0.3742  0.4897  0.2090
  574TMC3    O2 8575   3.481   2.612  17.683  0.2907 -0.0095 -0.1817
  575TMC3    C1 8576   2.032   4.627  11.358 -0.3102 -0.0953 -0.0082
  575TMC3    C2 8577   2.070   4.530  11.446  0.2221  0.0834 -0.2603
  575TMC3    C3 8578   2.103   4.401  11.408 -0.6192 -0.3675  0.4419
  575TMC3    C4 8579   2.005   4.593  11.231 -0.6731  0.7604  0.6403
  575TMC3    C5 8580   2.038   4.461  11.197  0.4163  0.3414  0.0765
  575TMC3    C6 8581   2.089   4.367  11.274  0.5284 -0.2262 -0.4844
  575TMC3     C 8582   1.929   4.716  11.416 -0.2642 -1.1854 -0.1338
  575TMC3     O 8583   1.828   4.724  11.351  0.6616 -0.4959 -0.5879
  575TMC3     H 8584   2.066   4.560  11.550 -1.9020 -0.6896 -0.1143
  575TMC3    H1 8585   1.959   4.662  11.162  0.5298  1.1837  0.2521
  575TMC3    H2 8586   2.118   4.272  11.230 -0.3990  0.0724 -1.7527
  575TMC3    C7 8587   2.012   4.431  11.055 -0.3234 -0.3110  0.1599
  575TMC3    C8 8588   2.160   4.309  11.507 -0.1288  0.1841 -0.3180
  575TMC3    O1 8589   2.008   4.527  10.978 -0.0704  0.0601 -0.0785
  575TMC3    O2 8590   2.184   4.364  11.613  0.8903 -0.1240  0.2022
  576MPD2     C 8591   1.444   1.118  13.050 -0.4413  0.4807 -0.8460
  576MPD2    C1 8592   1.547   1.201  13.011  0.0627 -0.7699  1.0071
  576MPD2    C2 8593   1.558   1.323  13.078 -0.1234 -0.6124  0.3845
  576MPD2    C3 8594   1.474   1.347  13.182  0.0489 -0.1084 -0.2583
  576MPD2    C4 8595   1.360   1.275  13.207  0.2631 -0.0306  0.1315
  576MPD2    C5 8596   1.351   1.159  13.142 -0.0325 -0.2687 -0.2219
  576MPD2     H 8597   1.634   1.397  13.055  0.6060 -1.0657  1.3436
  576MPD2    H1 8598   1.288   1.304  13.283  0.8405  1.6199  0.0545
  576MPD2    H2 8599   1.416   1.024  13.005  0.4744  0.2661 -0.9619
  576MPD2    H3 8600   1.261   1.100  13.159 -1.1129  1.5230  0.1990
  576MPD2     N 8601   1.499   1.467  13.251  0.1132 -0.2075 -0.0631
  576MPD2    H5 8602   1.566   1.536  13.219 -0.7674  0.1673 -1.1176
  576MPD2    N1 8603   1.638   1.184  12.898 -0.3509 -0.0378 -0.2979
  576MPD2    H7 8604   1.711   1.252  12.878  1.5714 -2.0323 -0.0856
  577TMC3    C1 8605   1.742   1.069  12.724 -0.0450 -0.0281  0.4431
  577TMC3    C2 8606   1.796   0.945  12.686  0.3311 -0.3622 -0.3091
  577TMC3    C3 8607   1.871   0.936  12.576 -0.5345 -0.3804  0.8567
  577TMC3    C4 8608   1.782   1.184  12.666  0.0756  0.7192 -0.9901
  577TMC3    C5 8609   1.858   1.165  12.550 -0.3625 -0.0869  0.6676
  577TMC3    C6 8610   1.898   1.045  12.498  0.1410  0.3153 -0.2536
  577TMC3     C 8611   1.639   1.065  12.822 -0.0863 -0.4499 -0.0703
  577TMC3     O 8612   1.574   0.961  12.834  0.3549  0.2526  0.4724
  577TMC3     H 8613   1.760   0.854  12.733  1.5717  0.0175  1.3774
  577TMC3    H1 8614   1.742   1.282  12.687  1.6138  1.1632 -0.1744
  577TMC3    H2 8615   1.986   1.043  12.435 -0.7895 -1.3416 -1.4982
  577TMC3    C7 8616   1.928   1.279  12.491  0.4692 -0.0420  0.3461
  577TMC3    C8 8617   1.914   0.800  12.532  0.0506 -0.2920 -0.2926
  577TMC3    O1 8618   1.927   1.381  12.558  0.2831 -0.0423 -0.1593
  577TMC3    O2 8619   1.895   0.706  12.611  0.3492 -0.3397  0.2671
  578MPD2     C 8620   0.521   0.794   1.138 -0.1927 -0.1343 -0.8506
  578MPD2    C1 8621   0.515   0.739   1.017  1.2373  0.0030  0.0797
  578MPD2    C2 8622   0.598   0.633   0.988  0.3468  0.3160  0.6770
  578MPD2    C3 8623   0.685   0.589   1.082  0.3565  0.4706 -0.5088
  578MPD2    C4 8624   0.691   0.660   1.202  0.1756 -0.1122 -0.0129
  578MPD2    C5 8625   0.606   0.759   1.229 -0.9084 -0.1449  0.6491
  578MPD2     H 8626   0.600   0.586   0.890 -4.4072  0.5240  0.4967
  578MPD2    H1 8627   0.747   0.624   1.287  0.5469  0.7770  0.1208
  578MPD2    H2 8628   0.438   0.856   1.172  0.7277 -0.1920  1.5191
  578MPD2    H3 8629   0.599   0.805   1.327  0.9182  0.6467  0.4204
  578MPD2     N 8630   0.775   0.476   1.055 -0.1121 -0.1250  0.7012
  578MPD2    H5 8631   0.765   0.430   0.965 -0.2923  0.6366  0.3373
  578MPD2    N1 8632   0.410   0.785   0.930 -0.3448 -0.2762 -0.5219
  578MPD2    H7 8633   0.353   0.863   0.960 -1.1122 -1.1697  0.3881
  579TMC3    C1 8634   0.920   0.298   1.109 -0.1312 -0.4193  0.7302
  579TMC3    C2 8635   1.041   0.264   1.170 -0.1445 -0.7578 -0.1241
  579TMC3    C3 8636   1.090   0.133   1.151  0.3646 -1.1969 -0.1168
  579TMC3    C4 8637   0.843   0.207   1.039 -0.1461 -0.1042  0.4339
  579TMC3    C5 8638   0.894   0.083   1.026 -0.0522 -0.6754 -0.3867
  579TMC3    C6 8639   1.017   0.042   1.072  0.0464  0.7526 -0.0474
  579TMC3     C 8640   0.873   0.431   1.138 -0.5225 -0.2306  0.4205
  579TMC3     O 8641   0.934   0.490   1.227 -0.2504 -0.6998 -0.5195
  579TMC3     H 8642   1.085   0.337   1.236  0.5536 -2.7060  1.5582
  579TMC3    H1 8643   0.738   0.231   1.022  0.0825 -0.9201 -2.2066
  579TMC3    H2 8644   1.043   4.675   1.076 -2.1676  0.1454 -1.1487
  579TMC3    C7 8645   0.816   4.710   0.977 -0.1181 -0.1998  0.2366
  579TMC3    C8 8646   1.210   0.079   1.224 -0.2729 -0.0317 -0.1321
  579TMC3    O1 8647   0.873   4.602   0.970 -0.5674  0.2329  0.2872
  579TMC3    O2 8648   1.220   4.696   1.239  0.3850 -0.2262 -0.7949
  580TMC3    C1 8649   0.039   0.120  12.631  0.5896  0.2958 -0.1864
  580TMC3    C2 8650   0.149   0.174  12.569  0.1532 -0.2437  0.1064
  580TMC3    C3 8651   0.236   0.105  12.485 -0.3586  0.0996 -0.4354
  580TMC3    C4 8652   0.019   4.723  12.624  0.0749 -0.3998  0.7488
  580TMC3    C5 8653   0.103   4.656  12.544  0.3248  0.4078 -1.1669
  580TMC3    C6 8654   0.217   4.706  12.492  0.0687 -0.1426  0.1545
  580TMC3     C 8655   4.663   0.196  12.586 -0.6777 -0.2080  0.6138
  580TMC3     O 8656   4.688   0.310  12.549  0.3093  0.2939  0.2693
  580TMC3     H 8657   0.167   0.281  12.566  1.0908 -0.3771  1.2396
  580TMC3    H1 8658   4.673   4.664  12.659 -0.8293  0.6401  0.3371
  580TMC3    H2 8659   0.291   4.642  12.446  0.9292  1.2872 -0.4622
  580TMC3    C7 8660   0.072   4.518  12.527  0.0356 -0.7128  0.8961
  580TMC3    C8 8661   0.229   0.144  12.348  0.2136  0.8768 -0.0445
  580TMC3    O1 8662   0.014   4.458  12.615  0.7464 -0.1895 -0.4483
  580TMC3    O2 8663   0.162   0.073  12.276 -0.2331 -0.7409  0.2024
  581MPD2     C 8664   1.764   4.220  15.170 -0.1485  0.1201 -0.3334
  581MPD2    C1 8665   1.877   4.198  15.093  0.4846 -0.2680 -0.3639
  581MPD2    C2 8666   1.894   4.268  14.975  0.4781  0.2140  0.0078
  581MPD2    C3 8667   1.803   4.361  14.940 -0.4864  0.6432  0.0143
  581MPD2    C4 8668   1.697   4.394  15.020 -0.4167 -0.6993 -0.3891
  581MPD2    C5 8669   1.674   4.315  15.131 -0.3237  0.1819 -0.7325
  581MPD2     H 8670   1.975   4.238  14.910 -1.0343 -0.1322 -1.7026
  581MPD2    H1 8671   1.637   4.479  14.989  0.3344  0.2950  0.9184
  581MPD2    H2 8672   1.746   4.158  15.257  1.6157  1.1978  0.7935
  581MPD2    H3 8673   1.579   4.330  15.181 -0.1964 -1.0023 -0.1370
  581MPD2     N 8674   1.834   4.423  14.816 -0.4050 -0.2683 -0.5898
  581MPD2    H5 8675   1.922   4.396  14.773 -0.2455  0.8189 -0.9587
  581MPD2    N1 8676   1.970   4.108  15.141  0.1660 -0.4431  0.7985
  581MPD2    H7 8677   1.941   4.070  15.232 -1.4745 -0.2462  0.3642
  582TMC3    C1 8678   2.171   3.981  15.158 -0.4989  0.3599 -0.5387
  582TMC3    C2 8679   2.279   4.040  15.212  0.6254  0.2064 -0.2758
  582TMC3    C3 8680   2.307   3.990  15.332 -0.4009 -0.1892  0.1226
  582TMC3    C4 8681   2.086   3.891  15.223  0.1480  0.3020  0.0926
  582TMC3    C5 8682   2.108   3.869  15.354 -0.6594 -0.3545 -0.5667
  582TMC3    C6 8683   2.214   3.921  15.410 -0.0958 -0.3837  0.2112
  582TMC3     C 8684   2.095   4.081  15.084 -0.0241  0.0136  0.5769
  582TMC3     O 8685   2.157   4.138  14.994 -0.2886  0.2165 -0.0913
  582TMC3     H 8686   2.325   4.128  15.169  0.7756 -0.6515 -1.8949
  582TMC3    H1 8687   1.992   3.864  15.177 -0.2863  3.2385 -0.7656
  582TMC3    H2 8688   2.227   3.915  15.518  1.4338 -2.5349 -0.0958
  582TMC3    C7 8689   1.994   3.909  15.437 -0.0548  0.0619  0.4202
  582TMC3    C8 8690   2.348   4.091  15.429  0.9711 -0.1886 -0.1274
  582TMC3    O1 8691   1.884   3.852  15.423 -0.6439 -0.4715 -0.4849
  582TMC3    O2 8692   2.261   4.169  15.466 -0.1847 -0.2060 -0.0023
  583MPD2     C 8693   2.438   1.053  16.782 -0.6288  0.2142 -0.2708
  583MPD2    C1 8694   2.446   1.180  16.735  0.1197 -0.2431  0.1034
  583MPD2    C2 8695   2.384   1.277  16.809  0.0896 -0.1095  0.0770
  583MPD2    C3 8696   2.353   1.254  16.945  0.3086  0.6530  0.3356
  583MPD2    C4 8697   2.367   1.128  17.008  0.2753  0.0411 -0.3722
  583MPD2    C5 8698   2.407   1.031  16.914 -0.2929  0.0186 -0.1427
  583MPD2     H 8699   2.372   1.375  16.765 -1.7568  0.2672  1.4049
  583MPD2    H1 8700   2.352   1.116  17.114  0.2210 -1.4533 -0.5434
  583MPD2    H2 8701   2.467   0.964  16.727 -0.1671 -0.3562  0.9153
  583MPD2    H3 8702   2.405   0.928  16.946 -2.1142 -0.2839 -1.2160
  583MPD2     N 8703   2.295   1.361  17.016  1.1675 -0.7625  0.2259
  583MPD2    H5 8704   2.254   1.433  16.958  0.1664 -0.7234  0.9774
  583MPD2    N1 8705   2.494   1.218  16.607  0.0340 -0.0207  0.0848
  583MPD2    H7 8706   2.494   1.317  16.583  1.9830  0.4355  2.0028
  584TMC3    C1 8707   2.183   1.477  17.186  0.2407  0.1530 -0.0326
  584TMC3    C2 8708   2.218   1.591  17.116  0.1508 -0.1590  0.5727
  584TMC3    C3 8709   2.181   1.711  17.170 -0.4355  0.8037  0.0377
  584TMC3    C4 8710   2.132   1.491  17.310 -0.7136  0.1614 -0.3692
  584TMC3    C5 8711   2.089   1.614  17.358 -0.5836  0.3351 -0.5198
  584TMC3    C6 8712   2.117   1.729  17.288  0.3163 -0.4391  0.2490
  584TMC3     C 8713   2.257   1.363  17.155 -0.1564 -0.1660  0.0206
  584TMC3     O 8714   2.270   1.277  17.245  0.4505  0.3704 -0.0688
  584TMC3     H 8715   2.266   1.595  17.019 -0.2037 -0.9900  0.3654
  584TMC3    H1 8716   2.113   1.399  17.365 -0.6866  1.0584  1.1514
  584TMC3    H2 8717   2.081   1.826  17.322 -0.4344 -0.8115  0.5245
  584TMC3    C7 8718   2.053   1.608  17.498 -0.7335  0.2112  0.2265
  584TMC3    C8 8719   2.218   1.836  17.092 -0.0008  0.8874 -0.8187
  584TMC3    O1 8720   2.046   1.493  17.543 -0.1245  0.3110  0.1249
  584TMC3    O2 8721   2.220   1.826  16.967 -0.5571 -0.3575 -0.1212
  585MPD2     C 8722   1.625   0.279   0.121  0.1473  0.0646 -0.1397
  585MPD2    C1 8723   1.582   0.340   0.004  0.2995  0.2916 -0.6345
  585MPD2    C2 8724   1.624   0.291  17.630 -0.2714 -0.0276  0.2230
  585MPD2    C3 8725   1.706   0.181  17.618  0.3685  0.0891  0.3096
  585MPD2    C4 8726   1.725   0.106  17.735  0.0022 -0.6318 -0.0343
  585MPD2    C5 8727   1.684   0.155   0.106 -0.5751  0.7398 -0.8821
  585MPD2     H 8728   1.604   0.354  17.544 -0.2603  1.8622  1.6039
  585MPD2    H1 8729   1.770   0.007  17.729  1.5217  0.0279  0.4110
  585MPD2    H2 8730   1.598   0.318   0.218  1.6186 -0.8880  0.6550
  585MPD2    H3 8731   1.722   0.099   0.191  2.8875  1.6316 -1.8054
  585MPD2     N 8732   1.765   0.124  17.501 -0.0917  0.5287 -0.3476
  585MPD2    H5 8733   1.818   0.038  17.513 -0.7999 -0.1282 -2.0326
  585MPD2    N1 8734   1.507   0.456   0.019 -0.6194 -0.7637 -0.1033
  585MPD2    H7 8735   1.492   0.484   0.116 -0.1961 -0.2142 -0.1995
  586TMC3    C1 8736   1.798   0.084  17.268 -0.0445 -0.1590 -0.8645
  586TMC3    C2 8737   1.890   4.722  17.300 -0.1616  0.2119  0.2225
  586TMC3    C3 8738   1.894   4.605  17.231  0.3724  0.9446 -0.3455
  586TMC3    C4 8739   1.712   0.062  17.169 -0.3531 -0.4202  0.3601
  586TMC3    C5 8740   1.723   4.681  17.099 -0.2250 -0.3476 -0.4586
  586TMC3    C6 8741   1.809   4.581  17.131 -0.2252 -0.0215  0.9557
  586TMC3     C 8742   1.743   0.169  17.369 -0.3517  0.3334 -0.2941
  586TMC3     O 8743   1.684   0.270  17.331  0.3452 -0.1959 -0.1730
  586TMC3     H 8744   1.958   4.725  17.385 -2.3028 -0.9360  1.9950
  586TMC3    H1 8745   1.621   0.119  17.161 -1.4216 -1.9262  1.7469
  586TMC3    H2 8746   1.794   4.480  17.095  2.7638  0.1183 -0.7328
  586TMC3    C7 8747   1.594   4.643  17.030 -0.4064  0.5695  0.2966
  586TMC3    C8 8748   1.986   4.500  17.276  0.2674  0.2656  1.1622
  586TMC3    O1 8749   1.557   4.530  17.021 -0.2044 -0.3900 -0.1022
  586TMC3    O2 8750   2.023   4.509  17.392 -0.1768  0.3403  0.0933
  587TMC3    C1 8751   4.118   3.431  16.517  0.5815 -0.1005  0.9232
  587TMC3    C2 8752   4.080   3.540  16.447  0.0620 -0.3250  0.9840
  587TMC3    C3 8753   4.178   3.608  16.383  0.8512 -0.0240 -0.0091
  587TMC3    C4 8754   4.251   3.406  16.544  0.5367  0.0213  0.1397
  587TMC3    C5 8755   4.345   3.486  16.490 -0.9257 -0.4747  0.1656
  587TMC3    C6 8756   4.312   3.592  16.412  0.3370  0.0055  0.5300
  587TMC3     C 8757   4.015   3.362  16.582  0.6612 -0.0959 -0.1631
  587TMC3     O 8758   4.042   3.302  16.683 -0.2460  0.6818 -0.1255
  587TMC3     H 8759   3.979   3.550  16.409  0.0434  2.1759  1.7361
  587TMC3    H1 8760   4.268   3.307  16.586 -1.2557 -0.5034 -0.3994
  587TMC3    H2 8761   4.377   3.660  16.358  2.4837 -2.0231  0.5689
  587TMC3    C7 8762   4.484   3.469  16.543  0.2233 -0.9456  0.1029
  587TMC3    C8 8763   4.144   3.719  16.298  0.3817  0.4275  0.6102
  587TMC3    O1 8764   4.572   3.544  16.502 -0.1094  0.0108 -0.0761
  587TMC3    O2 8765   4.217   3.744  16.203 -0.3310 -0.2565  0.6850
  588TMC3    C1 8766   1.363   1.555   9.668 -1.0897  0.9348  0.3920
  588TMC3    C2 8767   1.326   1.420   9.659 -0.7890 -0.2980  0.7525
  588TMC3    C3 8768   1.428   1.327   9.682 -0.2374  0.4311 -0.3153
  588TMC3    C4 8769   1.489   1.599   9.689 -0.2834 -0.2034  0.2676
  588TMC3    C5 8770   1.585   1.504   9.714  0.8414  0.6121  0.6545
  588TMC3    C6 8771   1.556   1.370   9.707 -0.0249 -0.3167  0.5844
  588TMC3     C 8772   1.261   1.648   9.678 -0.9485 -0.3123  0.6695
  588TMC3     O 8773   1.169   1.645   9.597 -0.4236 -0.6968 -0.6559
  588TMC3     H 8774   1.226   1.379   9.659 -0.6039 -0.7699  0.1348
  588TMC3    H1 8775   1.509   1.705   9.674 -0.4799 -0.8664 -4.7467
  588TMC3    H2 8776   1.638   1.303   9.731 -1.5293 -2.0802  0.7832
  588TMC3    C7 8777   1.711   1.545   9.780 -0.5521  0.1181 -0.1529
  588TMC3    C8 8778   1.395   1.187   9.682  0.4425  0.6289 -0.4697
  588TMC3    O1 8779   1.818   1.495   9.746 -0.4326  0.0927 -0.6534
  588TMC3    O2 8780   1.298   1.150   9.615 -0.3553 -0.5199  0.1200
  589TMC3    C1 8781   0.389   3.372   1.017  0.2859 -0.1765 -0.5272
  589TMC3    C2 8782   0.494   3.355   1.103 -0.0977  0.4072 -0.3413
  589TMC3    C3 8783   0.568   3.238   1.087  0.2683  0.1284  0.3216
  589TMC3    C4 8784   0.370   3.285   0.916 -0.0524 -0.1992 -0.0038
  589TMC3    C5 8785   0.444   3.166   0.908  0.2459  0.1454  0.3350
  589TMC3    C6 8786   0.547   3.144   0.996 -0.4655  0.5593  0.6544
  589TMC3     C 8787   0.344   3.508   0.990 -0.3101 -0.4820 -0.4757
  589TMC3     O 8788   0.271   3.531   0.893 -0.0370 -0.0966 -0.1024
  589TMC3     H 8789   0.523   3.427   1.179 -0.1062  0.7864 -0.6953
  589TMC3    H1 8790   0.318   3.322   0.829  0.6090  2.1993  0.6364
  589TMC3    H2 8791   0.607   3.055   0.981 -0.7910  0.2494  1.2135
  589TMC3    C7 8792   0.418   3.084   0.790  0.3089  0.4410 -0.5285
  589TMC3    C8 8793   0.684   3.212   1.170  0.1565 -0.8520 -0.0306
  589TMC3    O1 8794   0.514   3.017   0.765  0.2133 -0.1986  0.2132
  589TMC3    O2 8795   0.679   3.249   1.285  0.1864 -0.0145 -0.0174
  590MPD2     C 8796   0.377   1.913  16.576  0.5271  0.1636  0.5688
  590MPD2    C1 8797   0.325   2.010  16.491  0.1352 -0.6276  0.1114
  590MPD2    C2 8798   0.399   2.118  16.455 -0.1541 -1.0434 -0.4190
  590MPD2    C3 8799   0.527   2.127  16.508 -0.1431  0.3743 -0.3157
  590MPD2    C4 8800   0.578   2.026  16.594 -0.2516 -0.4034 -0.3190
  590MPD2    C5 8801   0.504   1.914  16.618 -0.1625 -0.2370  0.2787
  590MPD2     H 8802   0.374   2.203  16.391  1.3771  0.5125  1.0620
  590MPD2    H1 8803   0.675   2.036  16.641  0.1056  5.0025 -2.2191
  590MPD2    H2 8804   0.312   1.833  16.611  0.1767  0.8056  1.3875
  590MPD2    H3 8805   0.530   1.853  16.705  0.8749  2.2155  1.6909
  590MPD2     N 8806   0.610   2.238  16.478  0.9267 -0.2983 -0.6770
  590MPD2    H5 8807   0.562   2.307  16.421 -4.1022 -1.5052  2.1240
  590MPD2    N1 8808   0.194   1.987  16.454  0.8608  0.7532 -0.1808
  590MPD2    H7 8809   0.148   1.906  16.494 -1.2793  2.6198  1.1432
  591TMC3    C1 8810   0.798   2.358  16.416 -0.3170 -0.0468 -0.4589
  591TMC3    C2 8811   0.890   2.336  16.314 -0.4156 -0.1113  0.9417
  591TMC3    C3 8812   0.915   2.438  16.226  0.7406  0.3026 -0.0182
  591TMC3    C4 8813   0.735   2.478  16.435 -0.1119  0.2894  0.1665
  591TMC3    C5 8814   0.766   2.576  16.349 -0.3285 -0.2145 -0.5709
  591TMC3    C6 8815   0.864   2.566  16.246  0.0879 -0.8443 -0.1927
  591TMC3     C 8816   0.750   2.238  16.482 -0.2656 -0.2480  0.3774
  591TMC3     O 8817   0.824   2.146  16.507  0.1902 -0.1329 -0.2886
  591TMC3     H 8818   0.916   2.234  16.287 -0.8736 -0.9656  3.7754
  591TMC3    H1 8819   0.667   2.502  16.516 -0.9479  0.7865 -0.6751
  591TMC3    H2 8820   0.897   2.642  16.176  2.1895 -0.9006  0.7325
  591TMC3    C7 8821   0.657   2.677  16.336  0.2855  0.3663 -0.1142
  591TMC3    C8 8822   0.946   2.396  16.084  0.0631  0.0032 -0.3221
  591TMC3    O1 8823   0.568   2.673  16.420  0.0751  0.0431 -0.1106
  591TMC3    O2 8824   0.982   2.282  16.068  0.2843 -0.1095 -0.1083
  592MPD2     C 8825   0.612   4.548  11.746  0.0004  0.1241 -0.3374
  592MPD2    C1 8826   0.564   4.572  11.872  0.0799 -0.4879  0.0071
  592MPD2    C2 8827   0.484   4.480  11.936  0.4568  0.1674  0.2063
  592MPD2    C3 8828   0.445   4.368  11.862 -0.6950 -0.1453  0.2334
  592MPD2    C4 8829   0.492   4.353  11.735  0.5232 -0.7859 -0.2925
  592MPD2    C5 8830   0.577   4.440  11.669 -0.1149 -0.4807  0.1579
  592MPD2     H 8831   0.443   4.494  12.035 -2.7025  0.3705 -1.1300
  592MPD2    H1 8832   0.477   4.264  11.674 -2.1313  0.1041 -0.9418
  592MPD2    H2 8833   0.693   4.611  11.712 -1.2728  1.2241 -1.3442
  592MPD2    H3 8834   0.618   4.415  11.572 -2.1035 -2.2392 -0.2214
  592MPD2     N 8835   0.361   4.280  11.929 -0.6175 -0.6081  0.4060
  592MPD2    H5 8836   0.342   4.307  12.026 -0.8824 -0.7376  0.3882
  592MPD2    N1 8837   0.611   4.695  11.927 -0.4058 -0.2088  0.3876
  592MPD2    H7 8838   0.681   0.014  11.882 -2.2616  0.8491 -1.1394
  593TMC3    C1 8839   0.609   0.142  12.073 -0.2935  0.0256 -0.1733
  593TMC3    C2 8840   0.621   0.173  12.211 -0.1234 -0.7769  0.3875
  593TMC3    C3 8841   0.676   0.296  12.244 -0.6904 -0.3609 -0.8497
  593TMC3    C4 8842   0.646   0.239  11.977  0.6229 -0.3485 -0.8841
  593TMC3    C5 8843   0.702   0.357  12.017 -0.1227  0.8704  0.2434
  593TMC3    C6 8844   0.715   0.386  12.150 -0.3055 -0.5949  0.3439
  593TMC3     C 8845   0.558   0.012  12.038  0.3986 -0.6213 -0.3555
  593TMC3     O 8846   0.478   4.703  12.113  0.4902 -0.0974  0.1356
  593TMC3     H 8847   0.578   0.111  12.289  1.9717 -3.6665 -0.7188
  593TMC3    H1 8848   0.656   0.217  11.872 -0.1764  1.4769 -1.3437
  593TMC3    H2 8849   0.742   0.489  12.170  0.3957 -0.7042 -0.0327
  593TMC3    C7 8850   0.780   0.432  11.926 -0.0032  0.0217 -0.1702
  593TMC3    C8 8851   0.691   0.320  12.390 -0.1858  0.1519  0.2674
  593TMC3    O1 8852   0.887   0.479  11.972  0.4596 -0.0426 -0.8314
  593TMC3    O2 8853   0.597   0.296  12.460  0.0552  0.1756  0.2919
  594MPD2     C 8854   4.185   2.517  14.305 -0.1161  0.3969 -0.0579
  594MPD2    C1 8855   4.103   2.604  14.241 -0.3543 -0.1409  0.2295
  594MPD2    C2 8856   4.149   2.738  14.231  0.9510  0.1713  0.6756
  594MPD2    C3 8857   4.279   2.770  14.253 -0.6785  0.0118 -0.2563
  594MPD2    C4 8858   4.363   2.679  14.314 -0.5046  0.3207  0.4633
  594MPD2    C5 8859   4.320   2.556  14.339 -0.2513  0.0782 -0.8127
  594MPD2     H 8860   4.085   2.820  14.203 -1.1773 -1.1360  1.6887
  594MPD2    H1 8861   4.464   2.694  14.349 -0.2782 -0.8282  0.3132
  594MPD2    H2 8862   4.152   2.415  14.322  0.7538  0.0660 -0.3434
  594MPD2    H3 8863   4.387   2.488  14.390  2.2771 -0.3227 -4.7101
  594MPD2     N 8864   4.319   2.906  14.248  0.2433  0.0877  0.0436
  594MPD2    H5 8865   4.241   2.969  14.232 -0.7797 -1.1385  0.2514
  594MPD2    N1 8866   3.965   2.580  14.218  0.5944  0.0746  0.0540
  594MPD2    H7 8867   3.928   2.503  14.274  5.1674 -0.8866  1.8149
  595TMC3    C1 8868   4.562   3.277  14.211 -0.1411  0.1202 -0.9388
  595TMC3    C2 8869   4.568   3.144  14.242  0.3384 -0.1675  0.3845
  595TMC3    C3 8870   4.452   3.092  14.301  0.3682 -0.1095 -0.0633
  595TMC3    C4 8871   4.448   3.347  14.221 -0.3515  0.3437  0.1612
  595TMC3    C5 8872   4.340   3.290  14.281  0.1499 -0.3492 -0.3873
  595TMC3    C6 8873   4.336   3.161  14.325 -0.0249 -0.0389 -0.2234
  595TMC3     C 8874   4.662   3.359  14.267  0.5296 -0.2174 -0.2649
  595TMC3     O 8875   4.619   3.454  14.323  0.0612 -0.4591 -0.4838
  595TMC3     H 8876   4.663   3.094  14.225 -0.0408 -1.3882  1.9021
  595TMC3    H1 8877   4.449   3.450  14.187 -1.3060 -0.0581 -1.0719
  595TMC3    H2 8878   4.252   3.127  14.384 -0.9819  1.6831 -0.5769
  595TMC3    C7 8879   4.260   3.389  14.360  0.3325  0.2654  0.5790
  595TMC3    C8 8880   4.440   2.956  14.283 -0.5166 -0.1347 -0.7605
  595TMC3    O1 8881   4.148   3.357  14.390 -0.2991 -0.4251 -0.3741
  595TMC3    O2 8882   4.548   2.899  14.291  0.1742 -0.6703 -0.3059
  596MPD2     C 8883   3.328   0.800  16.750  0.2764 -0.6075  0.1994
  596MPD2    C1 8884   3.377   0.926  16.726 -0.0312  0.6964  0.2740
  596MPD2    C2 8885   3.430   0.952  16.604  0.5350  0.0481 -0.3387
  596MPD2    C3 8886   3.434   0.854  16.504 -0.2599 -0.1490 -0.5444
  596MPD2    C4 8887   3.375   0.731  16.527 -0.2263  0.2420  0.3616
  596MPD2    C5 8888   3.315   0.712  16.648 -0.0442 -0.0511  0.5718
  596MPD2     H 8889   3.470   1.052  16.590 -0.7566  0.8148  1.4826
  596MPD2    H1 8890   3.362   0.652  16.454  0.9449  1.2060 -0.8940
  596MPD2    H2 8891   3.269   0.775  16.837  0.7507 -1.0775  0.3893
  596MPD2    H3 8892   3.252   0.627  16.669  1.2342 -1.2659 -0.5041
  596MPD2     N 8893   3.473   0.891  16.371 -0.5772 -0.3261 -0.0481
  596MPD2    H5 8894   3.493   0.817  16.305 -2.0209 -2.4750  1.9188
  596MPD2    N1 8895   3.378   1.033  16.823 -0.5798  0.0658 -0.1047
  596MPD2    H7 8896   3.405   1.127  16.796 -1.4579  0.3981  0.1581
  597TMC3    C1 8897   3.300   1.154  17.009  0.0404 -0.2899 -0.3769
  597TMC3    C2 8898   3.393   1.246  16.960  0.2465 -0.7673  0.4206
  597TMC3    C3 8899   3.351   1.375  16.976 -0.4303 -0.1952  0.1521
  597TMC3    C4 8900   3.180   1.180  17.060 -0.2342 -0.5440 -0.6316
  597TMC3    C5 8901   3.147   1.313  17.063 -0.0106 -0.2955  0.3964
  597TMC3    C6 8902   3.231   1.417  17.023 -0.3014  0.5092 -0.6486
  597TMC3     C 8903   3.312   1.028  16.946 -0.4639  0.8306 -0.1993
  597TMC3     O 8904   3.240   0.938  16.992  0.4520  0.5022  0.7261
  597TMC3     H 8905   3.497   1.222  16.942  0.0849  0.3525 -2.0629
  597TMC3    H1 8906   3.105   1.115  17.104 -2.2928  1.7186 -0.7924
  597TMC3    H2 8907   3.212   1.523  17.034 -1.0378  0.1469  1.4195
  597TMC3    C7 8908   3.013   1.343  17.102 -0.6414  0.1473  0.0876
  597TMC3    C8 8909   3.446   1.479  16.938 -0.4291 -0.0217 -0.5746
  597TMC3    O1 8910   2.953   1.274  17.184 -0.2364 -0.7753  0.6301
  597TMC3    O2 8911   3.444   1.578  17.006 -0.9059  0.1494 -0.2372
  598TMC3    C1 8912   1.361   2.733  15.154 -0.2019 -0.3671  0.0014
  598TMC3    C2 8913   1.288   2.632  15.099  0.3974 -0.1952 -0.2007
  598TMC3    C3 8914   1.205   2.666  14.998 -0.6525 -0.3593 -0.0304
  598TMC3    C4 8915   1.338   2.867  15.124  0.3996  0.1637 -0.6972
  598TMC3    C5 8916   1.256   2.895  15.019  0.0944  0.6222 -0.1445
  598TMC3    C6 8917   1.186   2.795  14.960  0.3784 -0.1909  0.6341
  598TMC3     C 8918   1.472   2.711  15.237 -0.2546  0.6077 -0.2273
  598TMC3     O 8919   1.554   2.801  15.248  0.5628 -0.1658 -0.3698
  598TMC3     H 8920   1.319   2.530  15.114 -0.2332 -1.1941 -5.6782
  598TMC3    H1 8921   1.409   2.939  15.164 -0.2129 -1.6145  3.5594
  598TMC3    H2 8922   1.125   2.818  14.873  0.8860 -1.8580 -0.1625
  598TMC3    C7 8923   1.292   2.997  14.926 -0.4506  0.1644  0.2105
  598TMC3    C8 8924   1.166   2.573  14.892 -0.6580 -0.8747 -0.6453
  598TMC3    O1 8925   1.264   2.981  14.805 -0.0648  0.6298  0.4388
  598TMC3    O2 8926   1.164   2.618  14.780  0.1275 -0.2725  0.2954
  599MPD2     C 8927   1.233   0.357  15.621  0.3022 -0.3208  0.2816
  599MPD2    C1 8928   1.233   0.229  15.672  0.2631  0.1382 -0.0980
  599MPD2    C2 8929   1.128   0.187  15.752  0.2995  0.5008  0.1073
  599MPD2    C3 8930   1.012   0.262  15.756 -0.2431 -0.7845  0.3324
  599MPD2    C4 8931   1.007   0.382  15.691 -0.0296  0.8871 -0.7323
  599MPD2    C5 8932   1.117   0.423  15.623 -0.0343 -0.4614 -0.0947
  599MPD2     H 8933   1.143   0.100  15.816  0.8586  0.3940 -0.1702
  599MPD2    H1 8934   0.911   0.430  15.675  0.3740  1.4111 -1.5535
  599MPD2    H2 8935   1.313   0.405  15.565  0.3893 -0.0471  0.6365
  599MPD2    H3 8936   1.110   0.516  15.568 -0.2429  0.4645  1.4757
  599MPD2     N 8937   0.895   0.234  15.837 -0.0695 -0.0107 -0.3787
  599MPD2    H5 8938   0.829   0.311  15.833 -1.2945 -0.9862  1.0484
  599MPD2    N1 8939   1.354   0.156  15.659 -0.1291  0.4184 -0.4651
  599MPD2    H7 8940   1.438   0.210  15.645 -1.7024  2.6413 -1.3525
  600TMC3    C1 8941   0.776   0.149  16.015  0.0199  0.3862  0.0686
  600TMC3    C2 8942   0.720   0.037  16.069  0.7314 -0.1086 -0.7966
  600TMC3    C3 8943   0.677   0.061  16.196 -0.5268 -0.8506 -0.0484
  600TMC3    C4 8944   0.783   0.273  16.082  0.2803  0.0466 -0.2261
  600TMC3    C5 8945   0.729   0.278  16.208  0.1940  0.7603 -0.6458
  600TMC3    C6 8946   0.671   0.174  16.262  0.2937 -0.4043 -0.7431
  600TMC3     C 8947   0.885   0.127  15.923 -0.3213 -0.3354  0.0354
  600TMC3     O 8948   0.946   0.021  15.937  0.2964 -0.0546 -0.5721
  600TMC3     H 8949   0.728   4.674  16.030 -2.9987 -1.1590  1.1073
  600TMC3    H1 8950   0.855   0.348  16.053 -2.0556  1.6699 -1.8786
  600TMC3    H2 8951   0.628   0.181  16.361  0.7152 -1.1662 -0.5104
  600TMC3    C7 8952   0.716   0.404  16.273  0.2255  0.6176  0.2779
  600TMC3    C8 8953   0.639   4.680  16.273 -0.2222 -0.2681  0.3848
  600TMC3    O1 8954   0.655   0.394  16.381 -0.0175  0.2295  0.2784
  600TMC3    O2 8955   0.653   4.664  16.390  0.1896  1.1948 -0.5423
  601MPD2     C 8956   3.811   3.240   0.239  0.7339 -0.2353  0.1748
  601MPD2    C1 8957   3.683   3.181   0.254 -0.0089 -0.3042  0.4776
  601MPD2    C2 8958   3.672   3.052   0.287  0.3302  0.1317  0.7102
  601MPD2    C3 8959   3.782   2.975   0.299  0.2501  0.1771 -0.2473
  601MPD2    C4 8960   3.905   3.034   0.286  1.2699 -0.4724  0.3847
  601MPD2    C5 8961   3.917   3.162   0.260  0.8580  0.1076 -0.6389
  601MPD2     H 8962   3.574   3.006   0.283 -0.6297  2.2525 -0.3856
  601MPD2    H1 8963   3.999   2.985   0.303  0.5850 -1.9587 -0.1462
  601MPD2    H2 8964   3.835   3.344   0.218 -0.3480  0.0824  0.5187
  601MPD2    H3 8965   4.022   3.188   0.262  1.1122 -0.9324 -0.3509
  601MPD2     N 8966   3.775   2.835   0.328 -1.1198 -0.2137  0.1533
  601MPD2    H5 8967   3.862   2.784   0.335 -0.7701 -0.0914 -3.4697
  601MPD2    N1 8968   3.561   3.246   0.218 -0.2744  0.0536  0.1547
  601MPD2    H7 8969   3.488   3.176   0.224 -1.4672  1.3896  1.1202
  602TMC3    C1 8970   3.414   3.429   0.144  0.2438 -0.2441  0.2505
  602TMC3    C2 8971   3.418   3.555   0.094 -0.0893  0.2277  0.5368
  602TMC3    C3 8972   3.342   3.583  17.740 -0.0400 -0.1522 -0.7556
  602TMC3    C4 8973   3.325   3.328   0.098 -0.2288 -0.2364 -0.1656
  602TMC3    C5 8974   3.242   3.374  17.747  0.2031 -0.3089 -0.4935
  602TMC3    C6 8975   3.246   3.499  17.692  0.1003 -0.6271  0.6389
  602TMC3     C 8976   3.546   3.382   0.197 -0.8587 -0.1859 -0.5091
  602TMC3     O 8977   3.633   3.470   0.197  0.5628 -0.1972  0.0347
  602TMC3     H 8978   3.467   3.633   0.151  0.6666 -0.1642  0.4201
  602TMC3    H1 8979   3.334   3.225   0.131  1.2160  0.7651  2.5233
  602TMC3    H2 8980   3.181   3.545  17.619 -1.8637 -2.4338  1.2473
  602TMC3    C7 8981   3.149   3.283  17.680 -0.2296 -0.4134  0.2659
  602TMC3    C8 8982   3.372   3.706  17.673 -0.2455  0.1165  0.1645
  602TMC3    O1 8983   3.121   3.176  17.720 -0.5965 -0.2189 -0.3811
  602TMC3    O2 8984   3.415   3.802  17.733 -0.3791  0.3397  0.2124
  603TMC3    C1 8985   1.459   3.811  11.023  0.9248 -0.1103 -0.2073
  603TMC3    C2 8986   1.445   3.788  11.159 -0.5998  0.3352 -0.2894
  603TMC3    C3 8987   1.444   3.896  11.246 -0.5886  0.0016  0.1082
  603TMC3    C4 8988   1.477   3.941  10.973  0.0919 -0.7620 -0.2504
  603TMC3    C5 8989   1.458   4.042  11.064 -0.1111  0.5213  0.0904
  603TMC3    C6 8990   1.456   4.024  11.200 -0.8916  0.5489 -0.2785
  603TMC3     C 8991   1.478   3.706  10.924 -0.1772 -0.6941  0.0614
  603TMC3     O 8992   1.484   3.741  10.804  0.0125  0.0727 -0.1775
  603TMC3     H 8993   1.429   3.689  11.199 -1.6848  0.1155 -1.2672
  603TMC3    H1 8994   1.493   3.957  10.867 -0.9002 -0.8516 -0.4174
  603TMC3    H2 8995   1.439   4.115  11.257 -1.1053  1.2325 -1.4453
  603TMC3    C7 8996   1.470   4.178  11.021 -0.1010  0.5494  0.1110
  603TMC3    C8 8997   1.401   3.871  11.384 -0.3143  0.4280  0.0811
  603TMC3    O1 8998   1.540   4.249  11.096 -0.2683 -0.3658  0.5521
  603TMC3    O2 8999   1.319   3.782  11.394 -0.7284  0.0808  0.2678
  604MPD2     C 9000   2.307   1.875  16.309 -0.1440  0.1105  0.1373
  604MPD2    C1 9001   2.250   1.966  16.226 -0.0996 -0.4842  0.0892
  604MPD2    C2 9002   2.291   1.960  16.093  0.8417  0.3630  0.6340
  604MPD2    C3 9003   2.392   1.874  16.041  0.6757 -0.0645 -0.0247
  604MPD2    C4 9004   2.444   1.784  16.135  0.4065 -0.1652 -0.2342
  604MPD2    C5 9005   2.405   1.794  16.272 -0.6758 -0.0105 -0.0689
  604MPD2     H 9006   2.245   2.027  16.021 -0.3926 -0.4168  0.7039
  604MPD2    H1 9007   2.528   1.719  16.113 -1.2503 -2.1411 -0.6556
  604MPD2    H2 9008   2.281   1.867  16.414  1.5650  1.2925  0.6505
  604MPD2    H3 9009   2.452   1.732  16.347 -1.4044 -0.1890  0.2307
  604MPD2     N 9010   2.413   1.865  15.903 -0.6900 -0.3223  0.5419
  604MPD2    H5 9011   2.345   1.905  15.839 -2.9603 -3.6281  0.8718
  604MPD2    N1 9012   2.173   2.066  16.283  0.3330 -0.2052 -0.2192
  604MPD2    H7 9013   2.155   2.065  16.383 -0.3846  0.6245 -0.3391
  605TMC3    C1 9014   2.050   2.269  16.315 -0.0142  0.0495  0.0399
  605TMC3    C2 9015   2.148   2.318  16.399 -0.4642 -0.4033  0.5555
  605TMC3    C3 9016   2.135   2.450  16.435 -0.0568  0.3734  0.0452
  605TMC3    C4 9017   1.949   2.347  16.268  0.6701  0.7325 -0.3861
  605TMC3    C5 9018   1.939   2.478  16.308  0.1407 -0.1125 -0.0129
  605TMC3    C6 9019   2.032   2.529  16.397 -0.0902 -0.0401  0.3765
  605TMC3     C 9020   2.108   2.172  16.223  0.0806  0.6080  0.0533
  605TMC3     O 9021   2.081   2.186  16.104  0.0797  0.0578 -0.6153
  605TMC3     H 9022   2.237   2.265  16.430  0.7974 -0.4284 -3.1127
  605TMC3    H1 9023   1.871   2.303  16.205  1.1606 -0.0001 -0.4806
  605TMC3    H2 9024   2.015   2.626  16.441  0.8971 -0.3263  1.3915
  605TMC3    C7 9025   1.847   2.576  16.258 -0.9333 -0.5102  0.4026
  605TMC3    C8 9026   2.263   2.511  16.499  0.6451 -0.1786 -0.9825
  605TMC3    O1 9027   1.808   2.674  16.323 -0.4442 -0.3880 -0.0886
  605TMC3    O2 9028   2.353   2.434  16.531  0.1916  0.1043 -0.2300
  606TMC3    C1 9029   3.686   0.912  17.054  0.2211 -0.1678  0.1032
  606TMC3    C2 9030   3.745   0.898  17.176  0.0302 -0.5999  0.3096
  606TMC3    C3 9031   3.708   0.797  17.256  0.3352  0.0913  1.0074
  606TMC3    C4 9032   3.603   0.821  17.000 -0.7540  0.7845 -0.0422
  606TMC3    C5 9033   3.576   0.718  17.082 -1.3170  0.5664  0.2372
  606TMC3    C6 9034   3.625   0.699  17.211  0.1365  0.2238 -0.5262
  606TMC3     C 9035   3.738   1.022  16.972 -0.2427 -0.8545 -0.3095
  606TMC3     O 9036   3.756   1.129  17.035  0.1511  0.0079 -0.1143
  606TMC3     H 9037   3.808   0.979  17.211 -0.8320 -0.6887  2.0627
  606TMC3    H1 9038   3.559   0.833  16.901 -2.6016 -0.4185  0.6497
  606TMC3    H2 9039   3.610   0.610  17.271  0.5071 -0.3495 -1.2948
  606TMC3    C7 9040   3.478   0.625  17.040  0.2250  0.3980 -0.1892
  606TMC3    C8 9041   3.773   0.805  17.390  0.6971  0.0018  0.7464
  606TMC3    O1 9042   3.477   0.592  16.922  0.0395 -0.6096 -0.0202
  606TMC3    O2 9043   3.856   0.894  17.402 -0.1518  0.1378  0.3233
  607MPD2     C 9044   0.513   3.624  11.167 -0.8737 -0.2535 -0.9162
  607MPD2    C1 9045   0.468   3.697  11.272 -0.3437  0.2488 -0.7709
  607MPD2    C2 9046   0.392   3.642  11.368 -0.1214 -0.8825  0.1758
  607MPD2    C3 9047   0.357   3.510  11.362  0.3129  0.2932 -0.2935
  607MPD2    C4 9048   0.403   3.431  11.258  0.4374 -0.1582  0.2603
  607MPD2    C5 9049   0.469   3.494  11.156  0.1832  0.1930  0.3598
  607MPD2     H 9050   0.360   3.690  11.460 -0.6011  0.5290 -0.7301
  607MPD2    H1 9051   0.373   3.329  11.237 -1.3320  0.7044 -1.5024
  607MPD2    H2 9052   0.573   3.664  11.086  0.5320  1.5746  0.9979
  607MPD2    H3 9053   0.483   3.441  11.062 -2.2503  1.7680 -0.9122
  607MPD2     N 9054   0.278   3.469  11.477 -0.6224 -0.4951 -0.5703
  607MPD2    H5 9055   0.240   3.539  11.540 -1.0970 -3.1299  2.1083
  607MPD2    N1 9056   0.512   3.828  11.302 -0.5527 -0.7930 -0.2601
  607MPD2    H7 9057   0.468   3.879  11.378  0.1699 -2.1960  1.1029
  608TMC3    C1 9058   0.678   3.978  11.343  0.3381  0.4363  0.5043
  608TMC3    C2 9059   0.661   3.958  11.471  0.4141 -0.2384 -0.0816
  608TMC3    C3 9060   0.702   4.057  11.559 -0.5351  0.4700 -0.1365
  608TMC3    C4 9061   0.766   4.076  11.302  0.2140 -0.0921 -0.1877
  608TMC3    C5 9062   0.821   4.159  11.393  0.3202 -0.4311 -0.6544
  608TMC3    C6 9063   0.787   4.155  11.521 -0.2730  0.3088  0.2430
  608TMC3     C 9064   0.616   3.896  11.243 -0.1517  0.3744 -0.7525
  608TMC3     O 9065   0.673   3.874  11.140  0.4774 -0.3603 -0.0509
  608TMC3     H 9066   0.623   3.863  11.506 -1.8846  0.8778  0.4584
  608TMC3    H1 9067   0.781   4.087  11.195  2.0568  1.0217  0.1891
  608TMC3    H2 9068   0.820   4.219  11.603  2.8664  0.5614 -1.2088
  608TMC3    C7 9069   0.932   4.242  11.352  0.1100 -0.0946  0.4314
  608TMC3    C8 9070   0.689   4.043  11.701 -0.2346  0.1839 -0.6921
  608TMC3    O1 9071   0.928   4.277  11.235 -0.0768 -0.0579  0.7813
  608TMC3    O2 9072   0.777   4.076  11.777 -0.0862 -0.8316 -0.3963
  609TMC3    C1 9073   3.093   4.036   9.588 -0.2135  0.0282 -1.1900
  609TMC3    C2 9074   3.105   4.180   9.591 -0.4341  0.4612 -0.4472
  609TMC3    C3 9075   3.224   4.239   9.570 -0.1680  0.2035 -0.1960
  609TMC3    C4 9076   3.203   3.956   9.567  0.2886  1.0256  0.0089
  609TMC3    C5 9077   3.321   4.020   9.553  0.6840  0.5332 -0.3500
  609TMC3    C6 9078   3.336   4.155   9.559  0.5031 -0.4935 -0.0254
  609TMC3     C 9079   2.959   3.986   9.620  0.2621  0.2298  0.3994
  609TMC3     O 9080   2.878   4.058   9.681  0.1494 -0.4243 -0.3979
  609TMC3     H 9081   3.010   4.231   9.597 -1.4434 -1.2732 -1.7296
  609TMC3    H1 9082   3.197   3.851   9.591  1.9293  0.8367 -0.3859
  609TMC3    H2 9083   3.431   4.203   9.542  0.7369 -1.7641 -2.4336
  609TMC3    C7 9084   3.437   3.940   9.537  0.1719  0.4454 -0.6427
  609TMC3    C8 9085   3.244   4.380   9.555 -0.1119  1.1719  0.1099
  609TMC3    O1 9086   3.544   3.984   9.573 -0.4382 -0.2760 -0.5913
  609TMC3    O2 9087   3.350   4.419   9.501  0.0748 -0.5188  0.0106
  610TMC3    C1 9088   1.124   4.325  12.584  0.0082  0.5931  0.3337
  610TMC3    C2 9089   1.212   4.410  12.519 -0.7839 -0.8456 -0.6081
  610TMC3    C3 9090   1.342   4.393  12.540  0.1145  0.0119  0.0188
  610TMC3    C4 9091   1.167   4.219  12.654 -0.0897 -0.1226 -0.9512
  610TMC3    C5 9092   1.296   4.221  12.685  0.2537  0.4304 -0.0944
  610TMC3    C6 9093   1.388   4.307  12.640 -0.0172  0.0291  0.1015
  610TMC3     C 9094   0.987   4.309  12.535  0.1121  0.0755 -1.6463
  610TMC3     O 9095   0.904   4.271  12.616  0.4738 -0.4701  0.5790
  610TMC3     H 9096   1.182   4.508  12.483 -1.1136 -0.5142  0.5771
  610TMC3    H1 9097   1.105   4.134  12.680  0.5475 -0.8715 -1.8727
  610TMC3    H2 9098   1.493   4.298  12.666 -0.5858  1.4306  2.8812
  610TMC3    C7 9099   1.339   4.118  12.788  0.0320 -0.5671  0.2963
  610TMC3    C8 9100   1.426   4.501  12.482 -0.2548 -0.0665  0.1411
  610TMC3    O1 9101   1.457   4.102  12.792  0.2665  0.3630  0.3321
  610TMC3    O2 9102   1.377   4.572  12.398  0.1675  0.1505 -0.3250
  611MPD2     C 9103   0.871   3.721  10.350  0.5598  0.1851 -0.2091
  611MPD2    C1 9104   0.805   3.810  10.270  0.3518 -0.6052  0.7051
  611MPD2    C2 9105   0.870   3.923  10.222  0.0055  0.4035 -0.1084
  611MPD2    C3 9106   1.001   3.942  10.250  0.1995 -0.8562  0.3243
  611MPD2    C4 9107   1.066   3.845  10.331  0.3712 -0.7473 -0.6240
  611MPD2    C5 9108   1.000   3.739  10.381 -0.5910 -0.1058 -0.0764
  611MPD2     H 9109   0.820   3.996  10.160 -1.5207 -1.0175 -0.5383
  611MPD2    H1 9110   1.173   3.837  10.343  0.2218  1.3128  1.8337
  611MPD2    H2 9111   0.825   3.632  10.390  0.7588 -0.4014 -1.2856
  611MPD2    H3 9112   1.056   3.656  10.424 -0.3996  2.2966  4.3257
  611MPD2     N 9113   1.085   4.050  10.208  0.0344 -0.1518 -0.1704
  611MPD2    H5 9114   1.184   4.044  10.231 -0.2901 -0.9230  1.0332
  611MPD2    N1 9115   0.667   3.790  10.255 -0.7434 -0.2908 -0.1573
  611MPD2    H7 9116   0.631   3.709  10.303 -1.7653  0.2471 -0.0061
  612TMC3    C1 9117   1.141   4.254  10.109  0.3887  0.3906  0.3948
  612TMC3    C2 9118   1.218   4.278  10.215 -1.0096  1.2566  0.1287
  612TMC3    C3 9119   1.292   4.394  10.220  0.0436 -0.3775 -0.4372
  612TMC3    C4 9120   1.134   4.338  10.002  0.5174 -0.6283  0.4103
  612TMC3    C5 9121   1.222   4.446   9.999  0.1704 -0.6040  0.0669
  612TMC3    C6 9122   1.291   4.485  10.112 -0.3957 -0.0218 -0.2299
  612TMC3     C 9123   1.051   4.146  10.119  0.4960  0.0524 -0.2862
  612TMC3     O 9124   0.953   4.146  10.044  0.1740  0.2595  0.2099
  612TMC3     H 9125   1.209   4.215  10.303  0.3819 -0.0264 -0.6611
  612TMC3    H1 9126   1.076   4.311   9.915  0.7375  0.3244 -0.0405
  612TMC3    H2 9127   1.336   4.583  10.125 -1.5867  0.3630  0.9549
  612TMC3    C7 9128   1.200   4.550   9.894 -0.1307 -0.0570 -0.1907
  612TMC3    C8 9129   1.370   4.435  10.336 -0.5387 -0.2666  1.4022
  612TMC3    O1 9130   1.099   4.545   9.827  0.0200  0.0309  0.0357
  612TMC3    O2 9131   1.443   4.531  10.317 -0.6027 -0.6145  0.5270
  613MPD2     C 9132   4.532   0.846  16.512  0.5275 -0.2681 -0.4117
  613MPD2    C1 9133   4.490   0.925  16.411 -0.2761 -0.1751 -0.4125
  613MPD2    C2 9134   4.403   0.875  16.310  0.2287 -0.0088  0.0016
  613MPD2    C3 9135   4.355   0.745  16.323  0.1832  0.1627 -0.3764
  613MPD2    C4 9136   4.382   0.671  16.436 -0.3138 -0.1231  0.1988
  613MPD2    C5 9137   4.487   0.714  16.521 -0.2863  0.0917 -0.1917
  613MPD2     H 9138   4.358   0.942  16.237  2.8580  1.2478 -0.4956
  613MPD2    H1 9139   4.344   0.571  16.449  0.2744 -0.0615  2.4053
  613MPD2    H2 9140   4.595   0.873  16.596  0.2932  0.6845 -0.5433
  613MPD2    H3 9141   4.529   0.645  16.593 -1.3276  1.2150  1.5231
  613MPD2     N 9142   4.278   0.685  16.220 -0.2259  0.0741 -1.0899
  613MPD2    H5 9143   4.242   0.591  16.237  0.4871  0.0943  0.5848
  613MPD2    N1 9144   4.535   1.059  16.408 -0.1080  0.7160 -0.1181
  613MPD2    H7 9145   4.567   1.099  16.496 -2.5537  1.9705  0.2051
  614TMC3    C1 9146   4.549   1.086  16.164 -0.3735  0.8843 -0.3025
  614TMC3    C2 9147   4.618   0.968  16.135  0.1424 -0.0854  0.1956
  614TMC3    C3 9148   4.638   0.926  16.005  0.0189 -0.1611  0.3002
  614TMC3    C4 9149   4.523   1.174  16.062  0.1010 -0.1507 -0.8124
  614TMC3    C5 9150   4.563   1.137  15.938  0.1781 -0.2485 -0.1462
  614TMC3    C6 9151   4.603   1.005  15.903  0.0198 -0.0354 -0.5076
  614TMC3     C 9152   4.540   1.143  16.295 -0.5421  0.1735 -0.3435
  614TMC3     O 9153   4.543   1.265  16.299  0.2879  0.1432  0.4518
  614TMC3     H 9154   4.641   0.904  16.219  1.1258 -2.3491 -1.8116
  614TMC3    H1 9155   4.496   1.278  16.079  3.5856  0.7413 -0.5752
  614TMC3    H2 9156   4.631   0.976  15.803 -0.3415 -0.0170 -0.6151
  614TMC3    C7 9157   4.553   1.238  15.837  0.1741 -0.5927  0.2211
  614TMC3    C8 9158   4.649   0.777  15.979 -0.1367 -0.4953  0.9097
  614TMC3    O1 9159   4.561   1.357  15.868  0.4423  0.6265  0.0792
  614TMC3    O2 9160   4.620   0.738  15.865  0.0350 -0.4333 -0.2973
  615MPD2     C 9161   3.974   2.239  16.046 -0.2639  0.3132  0.4271
  615MPD2    C1 9162   3.991   2.371  16.089 -0.5640  0.3085  0.0918
  615MPD2    C2 9163   3.898   2.465  16.048 -0.7483 -0.1565  0.0926
  615MPD2    C3 9164   3.789   2.432  15.968 -0.6139  0.1896 -0.6123
  615MPD2    C4 9165   3.764   2.295  15.946  0.2666 -0.2061 -0.5468
  615MPD2    C5 9166   3.859   2.204  15.978 -0.2126  0.0086  0.2607
  615MPD2     H 9167   3.918   2.570  16.066  0.9573 -0.3401 -0.6905
  615MPD2    H1 9168   3.677   2.270  15.886  0.8524 -0.9842 -1.0614
  615MPD2    H2 9169   4.047   2.161  16.062  1.7468  1.8599 -1.2086
  615MPD2    H3 9170   3.852   2.099  15.950  0.5878  0.2617 -0.9047
  615MPD2     N 9171   3.715   2.527  15.897 -0.1683  0.1734  0.1726
  615MPD2    H5 9172   3.645   2.481  15.840  1.7697 -2.8117  0.1664
  615MPD2    N1 9173   4.101   2.414  16.169  0.3999  0.3129  0.4161
  615MPD2    H7 9174   4.107   2.514  16.184  2.2057  0.5253 -1.7094
  616TMC3    C1 9175   4.289   2.400  16.304 -0.3167 -0.1362  0.4182
  616TMC3    C2 9176   4.327   2.527  16.282 -0.0621  0.1367  0.8432
  616TMC3    C3 9177   4.423   2.576  16.360 -0.8129  0.1937 -0.1719
  616TMC3    C4 9178   4.361   2.323  16.399 -0.5614  0.4769  1.5154
  616TMC3    C5 9179   4.467   2.378  16.462 -0.2467 -0.4152  0.6648
  616TMC3    C6 9180   4.492   2.510  16.454 -0.0349 -0.0305  0.8418
  616TMC3     C 9181   4.181   2.331  16.235 -0.4676 -0.0059  0.4175
  616TMC3     O 9182   4.180   2.210  16.250 -0.6297 -0.1908  0.5030
  616TMC3     H 9183   4.269   2.587  16.213 -1.8244 -0.5602  1.7276
  616TMC3    H1 9184   4.328   2.221  16.416  2.2258 -0.4231  1.3996
  616TMC3    H2 9185   4.548   2.569  16.526  0.4472 -1.0368  1.2915
  616TMC3    C7 9186   4.519   2.311  16.576  0.3645  0.1144 -0.7438
  616TMC3    C8 9187   4.457   2.715  16.341  0.0235 -0.1096  0.1381
  616TMC3    O1 9188   4.463   2.217  16.630 -0.3524 -0.3217 -0.1430
  616TMC3    O2 9189   4.369   2.777  16.280  0.2115 -0.1372 -0.6312
  617MPD2     C 9190   2.230   1.092  13.613  0.1269 -0.2448  0.0252
  617MPD2    C1 9191   2.220   1.054  13.750  0.5861 -0.2546 -0.1446
  617MPD2    C2 9192   2.101   1.013  13.794  0.5772 -0.5844  0.0187
  617MPD2    C3 9193   1.990   0.999  13.709  0.0956  0.1197  0.2856
  617MPD2    C4 9194   1.997   1.058  13.587  0.1132 -0.0996  0.6325
  617MPD2    C5 9195   2.122   1.093  13.536  0.2987  0.1664  0.0666
  617MPD2     H 9196   2.094   0.978  13.897 -1.5269  0.5424  0.2597
  617MPD2    H1 9197   1.909   1.040  13.526  0.5614  0.5610 -0.2018
  617MPD2    H2 9198   2.324   1.112  13.563 -1.3046  0.9036 -2.2046
  617MPD2    H3 9199   2.141   1.114  13.431  1.4958 -1.5801 -0.0536
  617MPD2     N 9200   1.874   0.922  13.738  0.1218 -0.5206 -0.6511
  617MPD2    H5 9201   1.808   0.914  13.661 -0.7042  1.0181 -0.1053
  617MPD2    N1 9202   2.344   1.043  13.810  0.1266 -1.0493  0.4461
  617MPD2    H7 9203   2.415   1.054  13.738 -0.3862  0.5349  0.1731
  618TMC3    C1 9204   2.504   0.937  13.947  0.0252 -0.1279  0.5116
  618TMC3    C2 9205   2.517   0.803  13.948  0.9065  0.4756  0.1332
  618TMC3    C3 9206   2.638   0.750  13.910  0.1508 -0.0067  0.0229
  618TMC3    C4 9207   2.599   1.021  13.901  0.5789  0.5072 -0.3268
  618TMC3    C5 9208   2.717   0.959  13.864  0.0812 -0.0489  0.2706
  618TMC3    C6 9209   2.746   0.827  13.864 -0.0096  0.8121 -0.5994
  618TMC3     C 9210   2.369   0.996  13.941  0.7379 -0.8046 -0.0851
  618TMC3     O 9211   2.290   0.962  14.030  0.5191  0.3759 -0.3407
  618TMC3     H 9212   2.433   0.749  13.989  0.7592  0.9813  0.4975
  618TMC3    H1 9213   2.582   1.128  13.892  0.3775  0.3139 -2.2497
  618TMC3    H2 9214   2.840   0.781  13.838 -0.3248 -0.3599  0.3274
  618TMC3    C7 9215   2.772   1.010  13.739 -0.0386 -0.0385  0.5675
  618TMC3    C8 9216   2.623   0.616  13.874  0.2526  0.4082  0.1722
  618TMC3    O1 9217   2.823   0.924  13.666 -0.2229  0.2656  0.8453
  618TMC3    O2 9218   2.516   0.565  13.907 -0.3934  0.2114  0.5427
  619MPD2     C 9219   3.218   1.906  13.269 -0.0057 -0.4918  1.4842
  619MPD2    C1 9220   3.152   2.018  13.220 -0.0513  0.1080 -0.5284
  619MPD2    C2 9221   3.032   2.055  13.280  0.4026 -0.2945 -0.0819
  619MPD2    C3 9222   2.975   1.976  13.376 -0.3303  0.1243  0.8646
  619MPD2    C4 9223   3.040   1.871  13.431  0.0276 -0.1948 -0.0663
  619MPD2    C5 9224   3.159   1.844  13.377  0.3714 -0.2171 -0.4720
  619MPD2     H 9225   2.995   2.153  13.255  0.9228  0.0618  0.5627
  619MPD2    H1 9226   3.000   1.808  13.509  0.0579 -0.1302  0.0007
  619MPD2    H2 9227   3.312   1.870  13.228 -0.0931 -0.2821  1.0906
  619MPD2    H3 9228   3.214   1.756  13.410 -2.1306 -1.5148  0.3057
  619MPD2     N 9229   2.844   2.011  13.427  0.6448  0.2371  0.1669
  619MPD2    H5 9230   2.804   1.951  13.498  1.4456 -0.6600 -0.1348
  619MPD2    N1 9231   3.192   2.093  13.100  0.1507  0.4015 -0.3714
  619MPD2    H7 9232   3.136   2.174  13.077  1.2856  1.5924  1.0356
  620TMC3    C1 9233   3.282   2.149  12.895  0.0125 -0.4435  0.0553
  620TMC3    C2 9234   3.165   2.198  12.846 -0.4539 -0.5173  0.2388
  620TMC3    C3 9235   3.160   2.311  12.762 -0.0278 -0.3701 -0.6560
  620TMC3    C4 9236   3.401   2.196  12.863 -0.4572 -0.0822  1.4219
  620TMC3    C5 9237   3.392   2.314  12.796  0.7220 -0.3316  0.3845
  620TMC3    C6 9238   3.279   2.375  12.745 -0.6803  0.0997 -0.3155
  620TMC3     C 9239   3.287   2.060  13.012 -0.4145  0.1318 -0.3908
  620TMC3     O 9240   3.381   1.982  13.015  0.2828 -0.2057  0.4743
  620TMC3     H 9241   3.067   2.168  12.883 -0.9540 -0.3728 -0.9631
  620TMC3    H1 9242   3.494   2.172  12.912  0.6214  1.5812  0.1872
  620TMC3    H2 9243   3.282   2.477  12.708  0.3210  0.7556  1.5511
  620TMC3    C7 9244   3.506   2.400  12.848 -0.0314 -0.1321 -1.2533
  620TMC3    C8 9245   3.058   2.412  12.792  0.4091 -0.1431 -0.2019
  620TMC3    O1 9246   3.619   2.359  12.857  0.4877  0.3167  0.0084
  620TMC3    O2 9247   3.099   2.509  12.850 -0.3011 -0.5455 -0.3901
  621MPD2     C 9248   3.010   2.696  10.191  0.1034 -0.1775  0.0575
  621MPD2    C1 9249   3.145   2.706  10.239  0.4012 -0.2774 -0.0577
  621MPD2    C2 9250   3.246   2.750  10.152  0.4233  0.0511 -0.4388
  621MPD2    C3 9251   3.210   2.795  10.027  0.6696 -0.0740  0.0626
  621MPD2    C4 9252   3.078   2.784   9.970 -0.0097 -0.0079  0.3685
  621MPD2    C5 9253   2.985   2.735  10.061 -0.3105  0.2025 -0.1663
  621MPD2     H 9254   3.349   2.738  10.183 -0.0140 -0.4297  0.8035
  621MPD2    H1 9255   3.062   2.820   9.869  0.0741 -0.6670  0.1220
  621MPD2    H2 9256   2.929   2.660  10.253  0.1960 -0.4147  0.0403
  621MPD2    H3 9257   2.885   2.732  10.021 -0.1360 -1.2022 -0.4807
  621MPD2     N 9258   3.324   2.839   9.950 -0.0877  0.7942 -0.4770
  621MPD2    H5 9259   3.414   2.837   9.997 -0.8576 -0.6855  0.9615
  621MPD2    N1 9260   3.186   2.683  10.373 -0.2811  0.1265  0.3979
  621MPD2    H7 9261   3.283   2.700  10.397  0.0001 -0.8261 -0.0614
  622TMC3    C1 9262   3.164   2.636  10.603  0.2791 -0.0519  0.0768
  622TMC3    C2 9263   3.093   2.677  10.713 -0.2489 -0.3419  0.7952
  622TMC3    C3 9264   3.153   2.645  10.835 -0.4551  0.0181  0.2953
  622TMC3    C4 9265   3.274   2.554  10.592 -0.0106 -0.3197 -0.3504
  622TMC3    C5 9266   3.325   2.520  10.714 -0.1949 -0.2430  0.7549
  622TMC3    C6 9267   3.263   2.559  10.837 -0.1934  0.0432  0.1846
  622TMC3     C 9268   3.098   2.660  10.477 -0.1228  0.0228 -0.7345
  622TMC3     O 9269   2.976   2.654  10.480 -0.0752 -0.4991 -0.1049
  622TMC3     H 9270   3.025   2.761  10.704  1.2485  0.9108  1.1747
  622TMC3    H1 9271   3.328   2.541  10.499  1.6656 -0.0935  0.5922
  622TMC3    H2 9272   3.306   2.522  10.929  1.9432 -0.3045 -0.9779
  622TMC3    C7 9273   3.425   2.407  10.711 -1.1456  0.9443  0.3743
  622TMC3    C8 9274   3.061   2.638  10.945 -0.1595 -0.4903 -0.8025
  622TMC3    O1 9275   3.502   2.396  10.809 -1.0293 -0.2005  0.2794
  622TMC3    O2 9276   3.096   2.641  11.063  0.0793  0.0543  0.3215
  623MPD2     C 9277   2.543   2.612  15.777 -0.6811  0.0502 -0.5233
  623MPD2    C1 9278   2.488   2.618  15.909 -0.1112 -0.5413  0.0953
  623MPD2    C2 9279   2.576   2.574  16.012 -0.7653  0.3706 -0.3224
  623MPD2    C3 9280   2.703   2.543  15.985 -0.4998 -0.1945 -0.5492
  623MPD2    C4 9281   2.751   2.544  15.856 -0.0451  0.1860  0.5691
  623MPD2    C5 9282   2.669   2.585  15.750  0.2250  0.0921 -0.0768
  623MPD2     H 9283   2.543   2.578  16.115  0.5212 -0.1247  0.1113
  623MPD2    H1 9284   2.849   2.505  15.833  0.4323  0.2961  2.3932
  623MPD2    H2 9285   2.472   2.644  15.703 -0.5687  1.4393 -0.0304
  623MPD2    H3 9286   2.692   2.572  15.645  3.1364  1.4812  0.3756
  623MPD2     N 9287   2.781   2.508  16.091 -0.6244  0.4487 -0.2419
  623MPD2    H5 9288   2.729   2.501  16.178  1.3819  0.4785  0.9552
  623MPD2    N1 9289   2.352   2.642  15.927 -0.1594 -0.2774 -0.1054
  623MPD2    H7 9290   2.300   2.667  15.842 -0.3732 -2.0369 -0.4807
  624TMC3    C1 9291   3.092   2.454  16.411  0.0949  0.2152 -0.6798
  624TMC3    C2 9292   3.003   2.511  16.502 -0.0050  0.0270  0.9423
  624TMC3    C3 9293   2.902   2.581  16.461 -0.7685 -0.1604  0.1537
  624TMC3    C4 9294   3.071   2.452  16.279 -0.5927  0.7658  0.3842
  624TMC3    C5 9295   2.952   2.506  16.243 -0.3655 -0.0214 -0.5169
  624TMC3    C6 9296   2.860   2.566  16.330 -0.3690 -0.4242 -0.1630
  624TMC3     C 9297   3.210   2.395  16.473  0.0038 -0.8243 -0.2230
  624TMC3     O 9298   3.226   2.418  16.590 -0.3977 -0.8392  0.0717
  624TMC3     H 9299   3.007   2.494  16.609 -0.2650  0.6592  1.0488
  624TMC3    H1 9300   3.135   2.411  16.201  0.6531 -0.1424  1.8731
  624TMC3    H2 9301   2.764   2.609  16.301  1.2777  0.7376 -3.9761
  624TMC3    C7 9302   2.914   2.500  16.105 -0.4554  0.0370  0.6660
  624TMC3    C8 9303   2.790   2.600  16.554 -0.6734 -0.2795  0.4893
  624TMC3    O1 9304   2.988   2.465  16.016 -0.0036 -0.1262 -0.1012
  624TMC3    O2 9305   2.721   2.506  16.581  0.1397  0.1885  0.0821
  625MPD2     C 9306   3.118   3.543   0.430  0.1498  0.1214  0.2241
  625MPD2    C1 9307   3.145   3.676   0.474 -0.2952  0.6668  0.2762
  625MPD2    C2 9308   3.281   3.710   0.510 -0.7181  0.6063  0.3221
  625MPD2    C3 9309   3.377   3.608   0.497  0.2012  0.0371  0.0454
  625MPD2    C4 9310   3.341   3.480   0.461 -0.0482 -0.6731  0.7092
  625MPD2    C5 9311   3.212   3.445   0.430 -0.4314 -0.0946  0.4476
  625MPD2     H 9312   3.298   3.810   0.548 -1.2852  1.3678 -1.3926
  625MPD2    H1 9313   3.416   3.403   0.449  0.1305  0.0141 -2.5758
  625MPD2    H2 9314   3.019   3.516   0.394  1.0256 -3.6864  0.6672
  625MPD2    H3 9315   3.174   3.345   0.416 -2.9438  0.4610  3.2042
  625MPD2     N 9316   3.508   3.644   0.527  0.0921 -0.5861  0.0639
  625MPD2    H5 9317   3.525   3.744   0.529  2.3886 -0.9826  1.0284
  625MPD2    N1 9318   3.052   3.782   0.474  0.0735  0.7482 -0.3682
  625MPD2    H7 9319   3.087   3.871   0.508  0.3814 -0.6548  3.0140
  626TMC3    C1 9320   2.886   3.912   0.392  0.3525 -0.2814 -1.0872
  626TMC3    C2 9321   2.830   3.953   0.272 -0.1328  0.3280  0.0123
  626TMC3    C3 9322   2.767   4.077   0.270  0.2627  0.8910 -0.3076
  626TMC3    C4 9323   2.874   3.980   0.511  1.4045 -0.2059 -0.5830
  626TMC3    C5 9324   2.823   4.108   0.489 -0.6259  0.1318  0.0166
  626TMC3    C6 9325   2.773   4.160   0.374  0.3316 -0.3150  0.2154
  626TMC3     C 9326   2.935   3.776   0.402 -0.3773  0.3499  0.1500
  626TMC3     O 9327   2.877   3.689   0.342  0.0603 -0.3589 -0.1377
  626TMC3     H 9328   2.850   3.899   0.180  1.7563  0.1125  0.5409
  626TMC3    H1 9329   2.900   3.948   0.612 -1.6824  0.8061  0.5075
  626TMC3    H2 9330   2.750   4.265   0.362  0.9599 -0.2585 -0.5514
  626TMC3    C7 9331   2.803   4.193   0.607 -0.7652 -0.3024 -0.2050
  626TMC3    C8 9332   2.716   4.123   0.144  0.3709 -0.0190 -0.4124
  626TMC3    O1 9333   2.873   4.171   0.703 -0.0131  0.3995  0.1644
  626TMC3    O2 9334   2.763   4.068   0.043  0.2363  0.7415 -0.3438
  627MPD2     C 9335   1.345   4.596  14.133  0.3152  0.0648 -0.1693
  627MPD2    C1 9336   1.382   4.501  14.225 -0.3856  0.1246  0.2941
  627MPD2    C2 9337   1.295   4.400  14.251 -0.1612  0.4875 -0.6492
  627MPD2    C3 9338   1.167   4.391  14.194 -0.0880  0.1986 -0.4511
  627MPD2    C4 9339   1.124   4.485  14.104  0.2077  0.3376 -0.2634
  627MPD2    C5 9340   1.222   4.585  14.068  1.1079 -0.2529  0.3924
  627MPD2     H 9341   1.332   4.325  14.320 -3.7216 -2.9475 -2.4924
  627MPD2    H1 9342   1.033   4.489  14.046 -0.2235 -1.6995  0.2822
  627MPD2    H2 9343   1.408   4.681  14.112  1.1206 -0.3129  0.7190
  627MPD2    H3 9344   1.195   4.659  13.994  0.6926 -0.8477 -0.0462
  627MPD2     N 9345   1.090   4.283  14.227 -0.0682  0.3332 -0.0225
  627MPD2    H5 9346   1.128   4.218  14.296 -0.4193  0.9386  0.7376
  627MPD2    N1 9347   1.500   4.499  14.302  0.2925  0.1138  0.3053
  627MPD2    H7 9348   1.525   4.422  14.362  1.3728 -1.1881 -1.8349
  628TMC3    C1 9349   1.688   4.581  14.404  0.1498  0.1769 -0.5574
  628TMC3    C2 9350   1.682   4.505  14.511  0.4696 -0.5179 -0.2605
  628TMC3    C3 9351   1.785   4.504  14.602 -0.3622 -0.3936  0.3028
  628TMC3    C4 9352   1.799   4.661  14.385  0.4570  0.7644 -0.4351
  628TMC3    C5 9353   1.896   4.681  14.486  0.3848  0.1753 -0.7143
  628TMC3    C6 9354   1.899   4.590  14.590  0.2003 -0.1090  0.1003
  628TMC3     C 9355   1.584   4.604  14.310  0.0153  0.7529  0.3927
  628TMC3     O 9356   1.587   4.706  14.240  0.2212 -0.1110  0.3186
  628TMC3     H 9357   1.602   4.432  14.523  0.2800 -0.2542  0.0698
  628TMC3    H1 9358   1.807   4.713  14.291  0.9651  1.7237  0.1393
  628TMC3    H2 9359   1.947   4.618  14.683  1.6896 -0.2758 -0.6280
  628TMC3    C7 9360   1.927   0.078  14.525  0.0779 -0.2501 -0.1105
  628TMC3    C8 9361   1.738   4.478  14.729  0.9024 -0.7166 -0.0495
  628TMC3    O1 9362   1.965   0.101  14.635  0.0548  0.1326  0.1033
  628TMC3    O2 9363   1.621   4.492  14.749 -0.5480  0.7483  0.1198
  629MPD2     C 9364   4.732   3.135  16.426 -0.3526  0.4025  0.4154
  629MPD2    C1 9365   0.076   3.026  16.447  0.5613  0.6200  0.1244
  629MPD2    C2 9366   0.020   2.900  16.440  0.7012  1.1212  0.4844
  629MPD2    C3 9367   4.625   2.883  16.395 -0.3324 -0.3847 -0.1771
  629MPD2    C4 9368   4.545   3.002  16.377  0.1060 -0.1398  0.2238
  629MPD2    C5 9369   4.599   3.126  16.392  0.0960 -0.7615  0.0609
  629MPD2     H 9370   0.081   2.811  16.457 -0.5135  0.2096  0.0860
  629MPD2    H1 9371   4.442   2.981  16.351  0.8020 -1.6719 -1.3043
  629MPD2    H2 9372   0.029   3.237  16.429  0.0248  0.3163 -1.2739
  629MPD2    H3 9373   4.537   3.213  16.378 -1.4309 -1.8072  0.2585
  629MPD2     N 9374   4.584   2.750  16.377 -0.3051 -0.3897  0.2561
  629MPD2    H5 9375   4.650   2.681  16.410  0.4175  0.4587  0.6139
  629MPD2    N1 9376   0.212   3.052  16.475  0.6880  0.4319  0.4462
  629MPD2    H7 9377   0.240   3.149  16.474 -2.1187  1.2842  2.9987
  630TMC3    C1 9378   0.438   3.006  16.526 -0.5080 -0.0398  0.0664
  630TMC3    C2 9379   0.486   3.103  16.439 -0.3453 -0.8706 -0.2401
  630TMC3    C3 9380   0.614   3.146  16.462  0.2575 -0.3091 -0.7349
  630TMC3    C4 9381   0.520   2.939  16.608 -0.0293  0.8095 -0.6605
  630TMC3    C5 9382   0.642   2.991  16.630  0.6354  0.0457  0.1452
  630TMC3    C6 9383   0.696   3.094  16.558  0.3720  0.9715  1.1187
  630TMC3     C 9384   0.303   2.964  16.517  0.3474 -0.3721 -0.2928
  630TMC3     O 9385   0.279   2.842  16.529 -0.0095  0.3852  0.6877
  630TMC3     H 9386   0.414   3.141  16.367  1.2860  0.1752 -1.3229
  630TMC3    H1 9387   0.483   2.875  16.688  0.2582  2.7809  1.0438
  630TMC3    H2 9388   0.800   3.123  16.561  0.9192 -0.3143 -4.4175
  630TMC3    C7 9389   0.704   2.951  16.759  0.2981 -0.0576  0.4524
  630TMC3    C8 9390   0.680   3.244  16.375  0.8535 -0.1865 -0.0135
  630TMC3    O1 9391   0.697   2.831  16.795  0.1693 -0.0188  0.3407
  630TMC3    O2 9392   0.747   3.324  16.440 -0.4762 -0.3841 -0.4040
  631MPD2     C 9393   3.632   3.469  15.381 -0.0330  0.2894 -0.1172
  631MPD2    C1 9394   3.504   3.428  15.390  0.3059 -0.0006  0.0834
  631MPD2    C2 9395   3.463   3.314  15.460 -0.1009  0.5770  0.2425
  631MPD2    C3 9396   3.569   3.239  15.517 -0.3373 -0.1123 -0.3799
  631MPD2    C4 9397   3.701   3.277  15.506 -0.0630  0.3479  0.2212
  631MPD2    C5 9398   3.732   3.388  15.436 -0.0597  0.2408 -0.3623
  631MPD2     H 9399   3.366   3.267  15.470  0.9142 -1.5168  0.2361
  631MPD2    H1 9400   3.779   3.228  15.563  1.0067  1.8470  0.0496
  631MPD2    H2 9401   3.664   3.563  15.339  0.0945  0.3315  0.0744
  631MPD2    H3 9402   3.836   3.418  15.427 -0.6979  2.3600 -0.5466
  631MPD2     N 9403   3.524   3.128  15.585 -0.1284 -0.0460 -0.2292
  631MPD2    H5 9404   3.432   3.095  15.558 -0.9663  1.6536  0.5299
  631MPD2    N1 9405   3.416   3.529  15.352 -0.4373 -0.4194 -0.0611
  631MPD2    H7 9406   3.462   3.608  15.310  0.1219 -1.0652 -0.6668
  632TMC3    C1 9407   3.226   3.658  15.328  0.4606 -0.0713  0.2504
  632TMC3    C2 9408   3.125   3.714  15.403 -0.0183  0.3247 -0.5228
  632TMC3    C3 9409   3.030   3.790  15.343  1.0915  0.4780 -0.1179
  632TMC3    C4 9410   3.248   3.700  15.197  0.3826  0.7437  0.5060
  632TMC3    C5 9411   3.153   3.787  15.138  1.2008 -0.2544 -0.5402
  632TMC3    C6 9412   3.043   3.820  15.210  0.6977  0.1800  0.0674
  632TMC3     C 9413   3.287   3.532  15.373  0.3590 -0.6378  0.6206
  632TMC3     O 9414   3.223   3.457  15.443  0.2557  0.0798  0.8113
  632TMC3     H 9415   3.113   3.676  15.504  0.6836  1.8620  0.1434
  632TMC3    H1 9416   3.336   3.669  15.142 -0.7344 -1.2094 -0.2058
  632TMC3    H2 9417   2.959   3.868  15.160 -1.0728 -1.2232  1.6781
  632TMC3    C7 9418   3.147   3.772  14.994 -0.2124  0.3035  0.1692
  632TMC3    C8 9419   2.896   3.769  15.399 -0.4055  0.6273  0.5374
  632TMC3    O1 9420   3.229   3.695  14.942  0.5236  0.4856  0.2472
  632TMC3    O2 9421   2.882   3.676  15.479  0.0865 -0.3165  0.5949
  633MPD2     C 9422   2.681   1.044  17.549 -0.3324 -0.0030 -0.0009
  633MPD2    C1 9423   2.668   0.954  17.447 -0.7924 -0.4266 -0.2850
  633MPD2    C2 9424   2.672   0.819  17.474 -0.6663  0.7870 -0.2318
  633MPD2    C3 9425   2.691   0.777  17.605 -0.2270  0.0543 -0.1335
  633MPD2    C4 9426   2.698   0.865  17.704  0.6669  0.0118  1.0556
  633MPD2    C5 9427   2.685   0.997  17.681 -0.4458 -0.5311  0.5879
  633MPD2     H 9428   2.669   0.752  17.389 -1.5176  1.3534 -0.6473
  633MPD2    H1 9429   2.720   0.840   0.057 -1.6693  1.1070  1.8165
  633MPD2    H2 9430   2.682   1.151  17.532 -1.5103  0.3871  2.3302
  633MPD2    H3 9431   2.670   1.060   0.017  1.6879  0.2360  0.4014
  633MPD2     N 9432   2.728   0.647  17.628  0.3822 -0.6760 -1.0507
  633MPD2    H5 9433   2.780   0.628  17.713 -1.9080 -1.4600  0.1828
  633MPD2    N1 9434   2.666   0.983  17.310  0.2987  0.2535 -0.2828
  633MPD2    H7 9435   2.659   0.905  17.245 -1.1113 -1.3791  1.8152
  634TMC3    C1 9436   2.695   1.102  17.108 -0.0071  0.1086 -0.1992
  634TMC3    C2 9437   2.769   0.997  17.055 -0.4234  0.5586 -0.1108
  634TMC3    C3 9438   2.811   0.999  16.926  0.5793  0.2934  0.2556
  634TMC3    C4 9439   2.691   1.220  17.037  0.0899 -0.5827  0.2715
  634TMC3    C5 9440   2.743   1.222  16.904 -0.1867  0.2702 -0.0191
  634TMC3    C6 9441   2.797   1.112  16.840  0.7498  0.3410 -0.7695
  634TMC3     C 9442   2.666   1.110  17.252 -0.2887 -0.1742 -0.5012
  634TMC3     O 9443   2.646   1.221  17.306 -0.1426 -0.3405  0.1780
  634TMC3     H 9444   2.778   0.902  17.105 -0.6683  0.6088  0.0304
  634TMC3    H1 9445   2.637   1.307  17.075 -1.1022 -1.6254  0.9693
  634TMC3    H2 9446   2.836   1.123  16.740  0.6322  2.8110 -0.5539
  634TMC3    C7 9447   2.727   1.335  16.816  0.6767  0.4252  0.4246
  634TMC3    C8 9448   2.828   0.864  16.871  0.6377  0.9167 -0.3314
  634TMC3    O1 9449   2.800   1.338  16.720 -0.7317 -0.3169 -0.2317
  634TMC3    O2 9450   2.837   0.762  16.943 -0.2224 -0.1163  0.2175
  635TMC3    C1 9451   3.344   1.912  17.480  0.5889 -1.0319  0.0059
  635TMC3    C2 9452   3.260   1.984  17.400  0.6040 -0.4287  0.2018
  635TMC3    C3 9453   3.201   1.921  17.297  0.0943  0.2004  0.7467
  635TMC3    C4 9454   3.378   1.779  17.446  0.0073 -0.8728 -0.5720
  635TMC3    C5 9455   3.309   1.724  17.344 -0.2150  0.1834  0.6971
  635TMC3    C6 9456   3.229   1.789  17.259 -0.4157  0.1895  0.0675
  635TMC3     C 9457   3.427   1.981  17.572  0.2009 -0.1999  0.6938
  635TMC3     O 9458   3.399   2.100  17.578 -0.1753 -0.1766  0.4740
  635TMC3     H 9459   3.249   2.092  17.410 -0.0432 -0.8367  3.7924
  635TMC3    H1 9460   3.427   1.716  17.518 -1.8800 -2.7517 -0.9314
  635TMC3    H2 9461   3.178   1.740  17.178  0.4835 -0.3117 -0.2032
  635TMC3    C7 9462   3.305   1.577  17.339  0.4796  0.6116  0.4200
  635TMC3    C8 9463   3.101   1.998  17.223  0.5643  0.8657  0.4168
  635TMC3    O1 9464   3.201   1.529  17.294  0.0821 -0.3011 -0.1456
  635TMC3    O2 9465   3.061   2.099  17.274 -0.0842 -0.2325 -0.0172
  636MPD2     C 9466   3.984   1.035  15.320 -0.4210 -0.6333  0.0915
  636MPD2    C1 9467   4.025   1.105  15.433 -0.6325 -0.0313  0.0591
  636MPD2    C2 9468   4.058   1.024  15.539 -0.6302 -0.2866  0.3707
  636MPD2    C3 9469   4.063   0.884  15.535  0.2286  0.3405  0.1841
  636MPD2    C4 9470   4.021   0.822  15.421 -0.2442 -0.0806  1.0984
  636MPD2    C5 9471   3.982   0.897  15.322  0.2676  0.4036 -0.6639
  636MPD2     H 9472   4.085   1.073  15.632 -1.9296 -0.6287  0.9211
  636MPD2    H1 9473   3.997   0.717  15.411  0.5906 -0.2068  0.4057
  636MPD2    H2 9474   3.968   1.074  15.220  2.2977 -0.8008 -0.4085
  636MPD2    H3 9475   3.972   0.841  15.230  0.9399  1.6813 -1.5095
  636MPD2     N 9476   4.103   0.812  15.649  0.7249  0.1733  0.0559
  636MPD2    H5 9477   4.139   0.864  15.729 -2.8897  0.2600  1.6274
  636MPD2    N1 9478   4.011   1.246  15.458  1.0962  0.0876  0.4628
  636MPD2    H7 9479   4.051   1.291  15.540  1.1917 -0.9418  0.9864
  637TMC3    C1 9480   4.205   0.644  15.766  0.3891 -0.3211  0.1913
  637TMC3    C2 9481   4.164   0.700  15.889 -0.0071 -0.5811  0.0929
  637TMC3    C3 9482   4.211   0.633  16.001  0.4879 -0.2901  0.0891
  637TMC3    C4 9483   4.275   0.526  15.765 -0.2175 -0.3675  0.5360
  637TMC3    C5 9484   4.313   0.465  15.882 -0.9907  0.2385 -0.1713
  637TMC3    C6 9485   4.282   0.516  16.003  0.3726  0.5222  0.5329
  637TMC3     C 9486   4.147   0.683  15.644  0.8306 -0.0030  0.7450
  637TMC3     O 9487   4.152   0.605  15.550  0.5598 -0.3410  0.4101
  637TMC3     H 9488   4.095   0.783  15.894 -0.1671 -0.8436  1.9789
  637TMC3    H1 9489   4.315   0.495  15.669  0.2772 -0.3477  0.7388
  637TMC3    H2 9490   4.324   0.475  16.094 -0.6045 -0.5953  0.4769
  637TMC3    C7 9491   4.370   0.335  15.875 -0.0601 -0.9779  0.5052
  637TMC3    C8 9492   4.251   0.733  16.092 -0.9632 -0.4662 -0.1166
  637TMC3    O1 9493   4.313   0.257  15.799  0.2726  0.0192  0.0133
  637TMC3    O2 9494   4.275   0.846  16.041 -0.2505  0.3141 -0.5424
  638MPD2     C 9495   4.064   0.217  14.708 -0.5653 -0.3180  0.0584
  638MPD2    C1 9496   3.964   0.141  14.653  0.0010  0.5549  0.8569
  638MPD2    C2 9497   3.878   0.066  14.737  0.4653 -0.2581  1.1882
  638MPD2    C3 9498   3.906   0.056  14.873 -0.2198  0.4124 -0.7120
  638MPD2    C4 9499   4.000   0.141  14.926 -0.2628  0.4429 -0.6815
  638MPD2    C5 9500   4.071   0.223  14.844  0.1582  0.3518 -0.4543
  638MPD2     H 9501   3.803   4.736  14.698  0.3680  0.5222  0.0522
  638MPD2    H1 9502   4.018   0.140  15.033  1.6690  0.0410 -1.0090
  638MPD2    H2 9503   4.127   0.281  14.648  0.7188 -1.4711  0.1788
  638MPD2    H3 9504   4.150   0.288  14.881  0.6766  0.5321 -1.8353
  638MPD2     N 9505   3.840   4.693  14.942 -0.1519 -0.5784 -0.5720
  638MPD2    H5 9506   3.763   4.657  14.887  0.8915 -1.3908 -1.5075
  638MPD2    N1 9507   3.976   0.119  14.513  0.5718  0.0944 -0.3755
  638MPD2    H7 9508   4.050   0.165  14.460 -2.3187  3.3497 -1.5952
  639TMC3    C1 9509   3.810   4.499  15.091 -0.6330 -0.4509  0.2991
  639TMC3    C2 9510   3.690   4.466  15.042  0.7365 -0.0940  1.0192
  639TMC3    C3 9511   3.642   4.339  15.067  0.4876 -0.0070  0.1813
  639TMC3    C4 9512   3.881   4.408  15.164 -0.3510 -0.2854 -0.0485
  639TMC3    C5 9513   3.835   4.285  15.194  0.0324 -0.4345 -0.7348
  639TMC3    C6 9514   3.717   4.244  15.142 -0.0693 -0.6736  0.3682
  639TMC3     C 9515   3.875   4.632  15.063 -0.1717  0.0739 -0.4201
  639TMC3     O 9516   3.966   4.668  15.131 -0.1308  0.6701 -0.3070
  639TMC3     H 9517   3.654   4.524  14.958 -0.6452 -0.2833  1.4754
  639TMC3    H1 9518   3.958   4.444  15.231  0.3194 -0.1317 -0.9185
  639TMC3    H2 9519   3.693   4.140  15.164 -1.0572 -0.1578  1.6994
  639TMC3    C7 9520   3.948   4.195  15.178 -0.5138  0.0313  0.0512
  639TMC3    C8 9521   3.522   4.284  14.998 -0.9483  0.2742 -0.4544
  639TMC3    O1 9522   3.917   4.078  15.197  0.5017 -0.2011 -0.3425
  639TMC3    O2 9523   3.533   4.161  14.985 -0.2746  0.6398 -0.0030
  640MPD2     C 9524   3.743   0.189  10.557 -0.8035 -0.2713  0.4102
  640MPD2    C1 9525   3.811   0.123  10.464 -0.7977  0.8428 -0.2934
  640MPD2    C2 9526   3.881   0.195  10.366  0.1519  0.3300 -0.5804
  640MPD2    C3 9527   3.861   0.332  10.359  0.4208 -0.5241  0.7819
  640MPD2    C4 9528   3.799   0.395  10.463  0.0701  0.8229 -1.6761
  640MPD2    C5 9529   3.739   0.324  10.563  0.7669 -0.4940 -0.4020
  640MPD2     H 9530   3.935   0.139  10.291  0.0986  1.5116 -1.4883
  640MPD2    H1 9531   3.784   0.502  10.473  0.7811  0.7572  0.1337
  640MPD2    H2 9532   3.692   0.140  10.639 -0.2898 -0.4646  0.6111
  640MPD2    H3 9533   3.683   0.374  10.641 -0.3868  0.1702 -1.6629
  640MPD2     N 9534   3.907   0.409  10.250  0.1843 -0.1584 -0.4727
  640MPD2    H5 9535   3.924   0.509  10.248  0.3098 -0.1975 -1.5990
  640MPD2    N1 9536   3.799   4.727  10.472 -0.5761  0.4052 -0.1718
  640MPD2    H7 9537   3.733   4.683  10.536 -1.3285  0.8299 -0.6622
  641TMC3    C1 9538   3.838   4.506  10.417  0.3022  0.0619  0.3765
  641TMC3    C2 9539   3.905   4.412  10.343 -0.4387  0.1700 -0.0450
  641TMC3    C3 9540   3.862   4.288  10.340 -0.0359  0.1758  0.2582
  641TMC3    C4 9541   3.725   4.465  10.478  0.8188 -0.0951 -0.5219
  641TMC3    C5 9542   3.693   4.329  10.478  0.0713  1.3909 -0.3398
  641TMC3    C6 9543   3.754   4.234  10.403  0.4727 -0.2769 -0.3840
  641TMC3     C 9544   3.883   4.639  10.411 -0.2292  0.0900 -0.1740
  641TMC3     O 9545   3.985   4.659  10.348  0.1600 -0.0199  0.0822
  641TMC3     H 9546   3.981   4.451  10.276  0.4560 -1.9118 -0.2038
  641TMC3    H1 9547   3.674   4.532  10.547  2.3263  1.1705 -0.6481
  641TMC3    H2 9548   3.738   4.128  10.394  1.7049 -0.3231 -2.0815
  641TMC3    C7 9549   3.575   4.290  10.566 -0.4057 -0.3314 -0.6699
  641TMC3    C8 9550   3.939   4.198  10.265 -0.3172 -0.1509  0.7837
  641TMC3    O1 9551   3.531   4.378  10.643 -0.1325  0.1655 -0.3334
  641TMC3    O2 9552   3.871   4.128  10.191 -0.2837 -0.3132 -0.0505
  642TMC3    C1 9553   0.543   0.071  12.807 -0.3039  0.0074 -0.1059
  642TMC3    C2 9554   0.673   0.093  12.788  0.4398 -0.3984 -0.8763
  642TMC3    C3 9555   0.753   4.729  12.744 -0.7100 -0.3891  0.0428
  642TMC3    C4 9556   0.488   4.685  12.780  0.0973  0.0047  0.0164
  642TMC3    C5 9557   0.560   4.582  12.729 -0.4374  1.2871 -0.6388
  642TMC3    C6 9558   0.694   4.605  12.715  0.1508  0.1077 -0.3735
  642TMC3     C 9559   0.456   0.176  12.847 -0.0298  0.0564  0.4916
  642TMC3     O 9560   0.502   0.293  12.854 -0.3346 -0.1306  0.2973
  642TMC3     H 9561   0.705   0.197  12.798 -2.5563  0.1439  3.1667
  642TMC3    H1 9562   0.380   4.676  12.782  0.0091  1.1862  0.8563
  642TMC3    H2 9563   0.751   4.523  12.671  2.1234  1.6532 -0.6740
  642TMC3    C7 9564   0.492   4.459  12.689 -0.5849  0.4578  0.0321
  642TMC3    C8 9565   0.886   0.019  12.690  0.0864  0.0951  0.2400
  642TMC3    O1 9566   0.373   4.464  12.700  0.6218  0.0389 -0.8616
  642TMC3    O2 9567   0.932   4.668  12.619  0.2298  0.4336  0.3581
  643TMC3    C1 9568   4.351   3.913   0.376 -0.2988  0.4282  0.7803
  643TMC3    C2 9569   4.272   4.023   0.384  0.5549 -0.5368 -0.0892
  643TMC3    C3 9570   4.288   4.112   0.281  0.6878 -0.7371 -0.2531
  643TMC3    C4 9571   4.443   3.895   0.280 -0.4415  0.0354 -0.4521
  643TMC3    C5 9572   4.452   3.983   0.176  0.1960  0.0616 -0.1444
  643TMC3    C6 9573   4.387   4.105   0.186  0.5821 -0.5168 -0.9429
  643TMC3     C 9574   4.363   3.833   0.503  0.3084 -0.9027  0.6493
  643TMC3     O 9575   4.305   3.880   0.600 -0.3296 -0.3114  0.3458
  643TMC3     H 9576   4.204   4.048   0.464  0.1732 -2.0496  0.0613
  643TMC3    H1 9577   4.523   3.821   0.276  0.7509  1.3214 -0.3989
  643TMC3    H2 9578   4.400   4.183   0.112  3.0257  0.1146  0.1752
  643TMC3    C7 9579   4.546   3.972   0.071 -0.0061  0.5513  0.0878
  643TMC3    C8 9580   4.212   4.229   0.292  0.0126 -0.5011  0.2798
  643TMC3    O1 9581   4.577   4.077   0.016  0.6667 -0.3270  0.2551
  643TMC3    O2 9582   4.094   4.221   0.317 -0.4203  0.4430 -0.2852
  644MPD2     C 9583   0.017   4.368  10.089  0.2048  0.3366 -0.1469
  644MPD2    C1 9584   4.664   4.303  10.011  0.2463  0.1715  0.2993
  644MPD2    C2 9585   4.540   4.367   9.985 -0.2516  0.0728 -0.1549
  644MPD2    C3 9586   4.517   4.492  10.039  0.2334  0.5754 -0.2790
  644MPD2    C4 9587   4.611   4.541  10.124  0.0962 -0.4358  0.3439
  644MPD2    C5 9588   4.729   4.483  10.155 -0.0711 -0.3967  0.0690
  644MPD2     H 9589   4.462   4.319   9.927  0.1004 -1.2066  0.4368
  644MPD2    H1 9590   4.593   4.633  10.179  0.0342 -0.5921  0.5857
  644MPD2    H2 9591   0.115   4.325  10.108  0.9275  0.8589 -2.6808
  644MPD2    H3 9592   0.061   4.520  10.229 -1.7166 -1.9743  2.4086
  644MPD2     N 9593   4.398   4.557  10.006  0.1483  0.0115 -0.1755
  644MPD2    H5 9594   4.329   4.499   9.959 -0.7951  0.1171  1.0787
  644MPD2    N1 9595   4.704   4.179   9.957  0.4076  0.1644  0.3670
  644MPD2    H7 9596   0.054   4.149   9.997  0.0268 -2.4843 -0.7832
  645TMC3    C1 9597   4.235   4.734   9.980 -0.2944  0.1445 -0.4888
  645TMC3    C2 9598   4.225   0.109   9.908 -0.4990  0.2830 -0.6144
  645TMC3    C3 9599   4.105   0.141   9.862 -0.2441  0.5999 -0.6879
  645TMC3    C4 9600   4.131   4.645   9.999 -0.4666  0.2814 -0.0191
  645TMC3    C5 9601   4.011   4.695   9.955 -0.3588 -0.0211  0.1164
  645TMC3    C6 9602   3.997   0.071   9.891  0.3209 -0.1993 -0.0293
  645TMC3     C 9603   4.371   4.691  10.028  0.1197 -0.1536  0.3696
  645TMC3     O 9604   4.452   0.037  10.060  0.3058  0.2028 -0.2029
  645TMC3     H 9605   4.320   0.159   9.891 -1.3020  1.8881 -0.3832
  645TMC3    H1 9606   4.146   4.559  10.064  0.8248 -0.6031 -1.4705
  645TMC3    H2 9607   3.900   0.105   9.857 -1.0419 -2.0131  2.0168
  645TMC3    C7 9608   3.883   4.629   9.999  0.3615  0.5799  0.0767
  645TMC3    C8 9609   4.111   0.233   9.748  0.3711  0.6148 -0.0969
  645TMC3    O1 9610   3.887   4.504   9.996 -0.0545 -0.3497  0.2845
  645TMC3    O2 9611   4.219   0.286   9.727 -0.0951  0.1788 -0.4446
  646MPD2     C 9612   3.834   3.288  14.444  0.4153 -0.4410  0.0131
  646MPD2    C1 9613   3.801   3.362  14.557  0.1168 -0.6681  0.4611
  646MPD2    C2 9614   3.697   3.448  14.541  0.2765 -0.7495 -0.5275
  646MPD2    C3 9615   3.637   3.476  14.420 -0.1600 -0.1891 -0.2896
  646MPD2    C4 9616   3.675   3.397  14.310 -0.7537 -0.2600 -0.0917
  646MPD2    C5 9617   3.775   3.312  14.322  0.2757 -0.1766 -0.3413
  646MPD2     H 9618   3.667   3.505  14.628  0.4716 -0.2794 -0.7665
  646MPD2    H1 9619   3.623   3.407  14.216 -1.0390 -0.7333  0.0113
  646MPD2    H2 9620   3.908   3.210  14.453  1.3772  0.5579  0.7414
  646MPD2    H3 9621   3.812   3.242  14.248  0.5430  0.8403 -1.1566
  646MPD2     N 9622   3.520   3.553  14.407 -0.1774 -0.6767  0.2800
  646MPD2    H5 9623   3.487   3.579  14.314  1.3055  0.7072  0.1337
  646MPD2    N1 9624   3.884   3.348  14.676 -0.7109 -0.4494 -0.0019
  646MPD2    H7 9625   3.973   3.299  14.670  0.0842  1.0569 -0.3415
  647TMC3    C1 9626   3.929   3.363  14.904  0.3480 -0.3681 -0.7911
  647TMC3    C2 9627   3.869   3.361  15.026 -0.6401 -0.5032  0.3730
  647TMC3    C3 9628   3.956   3.345  15.131 -0.2735  0.3803 -0.2322
  647TMC3    C4 9629   4.066   3.355  14.881 -0.1323 -0.1098 -0.0710
  647TMC3    C5 9630   4.144   3.348  14.996 -0.2572 -0.4630 -0.4218
  647TMC3    C6 9631   4.088   3.367  15.115 -0.8619  0.4268 -0.0926
  647TMC3     C 9632   3.839   3.393  14.792 -0.1787 -0.2269  0.4567
  647TMC3     O 9633   3.729   3.440  14.826 -0.3877  0.1766  0.1289
  647TMC3     H 9634   3.763   3.362  15.049 -0.7537 -0.6012 -0.1502
  647TMC3    H1 9635   4.108   3.380  14.784 -1.4633  1.9998 -0.0968
  647TMC3    H2 9636   4.149   3.375  15.205 -1.8574 -0.1377  0.6419
  647TMC3    C7 9637   4.284   3.322  14.993  0.4773  0.6920  0.4726
  647TMC3    C8 9638   3.927   3.231  15.215  0.1034  0.2539 -0.8222
  647TMC3    O1 9639   4.347   3.336  15.100  0.2138 -0.1771 -0.2372
  647TMC3    O2 9640   4.002   3.207  15.306 -0.2282 -0.2106 -0.0816
  648TMC3    C1 9641   3.511   1.025  16.180 -0.2189  0.9272  0.2075
  648TMC3    C2 9642   3.591   0.933  16.121  0.1530 -0.4666  0.3776
  648TMC3    C3 9643   3.625   0.956  15.994  0.4094  0.5007  0.1284
  648TMC3    C4 9644   3.459   1.128  16.116 -0.3382  0.2088 -0.5479
  648TMC3    C5 9645   3.489   1.142  15.982 -0.7218 -0.5823 -0.6217
  648TMC3    C6 9646   3.579   1.058  15.922  0.3800 -0.5832  0.2380
  648TMC3     C 9647   3.482   1.019  16.323 -0.6031  0.5180 -0.5737
  648TMC3     O 9648   3.425   1.118  16.372 -0.3022 -0.2233 -0.5599
  648TMC3     H 9649   3.639   0.858  16.183  0.2141 -1.8169 -1.2827
  648TMC3    H1 9650   3.386   1.191  16.165  0.1768  0.2892  0.1156
  648TMC3    H2 9651   3.580   1.061  15.814  2.9008 -1.5496  0.2255
  648TMC3    C7 9652   3.410   1.231  15.899 -0.5868  0.0745 -0.0193
  648TMC3    C8 9653   3.702   0.861  15.924  0.1275 -0.1781 -0.9443
  648TMC3    O1 9654   3.420   1.205  15.780 -0.3418 -0.3792  0.4759
  648TMC3    O2 9655   3.700   0.873  15.801  0.3591 -0.2421  0.1779
  649TMC3    C1 9656   1.547   2.414  12.666  0.4637 -0.5658 -0.3069
  649TMC3    C2 9657   1.599   2.322  12.579  0.7384 -0.4649  0.4040
  649TMC3    C3 9658   1.701   2.236  12.619 -0.1737 -0.0386 -0.1649
  649TMC3    C4 9659   1.581   2.419  12.794  0.2382  0.0784  0.2866
  649TMC3    C5 9660   1.691   2.335  12.828 -0.1254  0.4213 -0.6224
  649TMC3    C6 9661   1.750   2.245  12.747  0.1239 -0.2612 -0.4419
  649TMC3     C 9662   1.465   2.519  12.615 -0.3353 -0.4341 -0.1219
  649TMC3     O 9663   1.413   2.592  12.692  0.4543 -0.3836  0.0288
  649TMC3     H 9664   1.579   2.320  12.473  0.5511  3.5578  0.3830
  649TMC3    H1 9665   1.540   2.487  12.867  0.7867 -0.7771  1.3924
  649TMC3    H2 9666   1.848   2.205  12.767 -0.2259 -0.8424  0.1246
  649TMC3    C7 9667   1.734   2.354  12.966 -0.1530  0.1051 -0.9165
  649TMC3    C8 9668   1.760   2.136  12.539  0.2548 -0.1424 -0.4059
  649TMC3    O1 9669   1.695   2.451  13.027 -0.1745  0.0647  0.1634
  649TMC3    O2 9670   1.864   2.076  12.569 -0.7666  0.0717  0.4264
  650TMC3    C1 9671   4.547   3.830  12.699 -0.4564 -0.6343 -0.1603
  650TMC3    C2 9672   4.435   3.897  12.741  0.6087  0.4615  0.2482
  650TMC3    C3 9673   4.354   3.941  12.644 -0.3680 -0.6730 -1.0006
  650TMC3    C4 9674   4.593   3.816  12.568  0.1069  0.5846 -0.5662
  650TMC3    C5 9675   4.509   3.863  12.469  0.0786  0.1077  0.2953
  650TMC3    C6 9676   4.387   3.918  12.511 -0.5308  0.4930 -0.4427
  650TMC3     C 9677   4.614   3.738  12.785  0.3916 -0.4261  0.0716
  650TMC3     O 9678   4.609   3.750  12.906 -0.1714  0.8510 -0.6370
  650TMC3     H 9679   4.409   3.905  12.846  2.0603 -1.1057  0.7382
  650TMC3    H1 9680   4.688   3.766  12.550 -0.7191 -1.1896 -0.0510
  650TMC3    H2 9681   4.345   3.974  12.429 -2.7075  0.1589  0.4525
  650TMC3    C7 9682   4.561   3.933  12.363  0.4290 -0.4026 -0.1931
  650TMC3    C8 9683   4.288   4.061  12.682 -0.1477 -0.0121 -0.4545
  650TMC3    O1 9684   4.508   3.904  12.256  0.4132 -0.0775 -0.2789
  650TMC3    O2 9685   4.305   4.102  12.794 -0.4624 -0.4640  0.8092
  651MPD2     C 9686   3.554   1.056  11.249 -0.2898 -1.0974 -0.0720
  651MPD2    C1 9687   3.520   1.150  11.154 -0.0306  0.0844  0.1161
  651MPD2    C2 9688   3.618   1.205  11.073  0.1994 -0.0791 -0.6804
  651MPD2    C3 9689   3.753   1.164  11.088  0.3597  0.8162  0.1246
  651MPD2    C4 9690   3.784   1.068  11.183  0.4228  0.1258  0.3486
  651MPD2    C5 9691   3.683   1.011  11.261  0.2758 -0.1739 -0.7604
  651MPD2     H 9692   3.598   1.276  10.994  1.5372  0.6160 -0.3868
  651MPD2    H1 9693   3.881   1.022  11.197 -0.4912 -1.4399  1.4632
  651MPD2    H2 9694   3.485   1.016  11.323 -0.0869  0.4404  0.9444
  651MPD2    H3 9695   3.706   0.927  11.326 -2.8255  0.9709  1.7684
  651MPD2     N 9696   3.857   1.213  11.002 -0.0329  0.2448  0.1214
  651MPD2    H5 9697   3.829   1.274  10.926 -0.1494  2.0427  1.5835
  651MPD2    N1 9698   3.387   1.183  11.121  0.2809 -0.9970 -0.4304
  651MPD2    H7 9699   3.375   1.247  11.043  1.2155  0.5777  0.7500
  652TMC3    C1 9700   4.263   1.307  10.786  0.6399 -0.1737 -0.9291
  652TMC3    C2 9701   4.202   1.265  10.906  0.1584 -0.0491 -0.0517
  652TMC3    C3 9702   4.066   1.256  10.904 -0.3649 -0.2215  0.1491
  652TMC3    C4 9703   4.197   1.328  10.666  0.1232  0.5251 -0.1971
  652TMC3    C5 9704   4.062   1.311  10.670 -0.3408  0.4440 -0.3713
  652TMC3    C6 9705   3.998   1.271  10.783 -0.2585 -0.1355  0.4450
  652TMC3     C 9706   4.408   1.320  10.794 -0.3002  0.1263  0.1654
  652TMC3     O 9707   4.465   1.280  10.894 -0.0983  0.0042 -0.4771
  652TMC3     H 9708   4.257   1.255  10.999  0.2438 -0.7230 -0.1808
  652TMC3    H1 9709   4.245   1.348  10.571 -0.0696 -1.0076 -0.6013
  652TMC3    H2 9710   3.893   1.245  10.780  0.1102 -1.4831 -0.7265
  652TMC3    C7 9711   3.975   1.350  10.561  0.1929  0.0175 -0.5819
  652TMC3    C8 9712   3.994   1.209  11.016  0.5403  0.0575  0.0754
  652TMC3    O1 9713   3.865   1.299  10.557 -0.2789  0.3325  0.4233
  652TMC3    O2 9714   4.065   1.193  11.111  0.6164  0.3956  0.0041
  653MPD2     C 9715   2.353   0.899  17.584  0.1557  0.1791  0.8833
  653MPD2    C1 9716   2.300   1.000  17.498  0.0575 -0.0207  0.1225
  653MPD2    C2 9717   2.242   0.963  17.378  0.3997 -0.1882 -0.0365
  653MPD2    C3 9718   2.254   0.833  17.327  0.1832  0.5714 -0.2169
  653MPD2    C4 9719   2.312   0.746  17.407 -0.2018  0.7367 -0.4892
  653MPD2    C5 9720   2.359   0.774  17.528  0.2716 -0.1507 -0.5389
  653MPD2     H 9721   2.205   1.050  17.325  1.7722 -1.0387 -2.3572
  653MPD2    H1 9722   2.331   0.643  17.379 -0.6553  0.0133  1.9060
  653MPD2    H2 9723   2.409   0.913  17.676  2.7796  1.0925 -0.8743
  653MPD2    H3 9724   2.405   0.692  17.584 -1.4910  0.1294  1.3102
  653MPD2     N 9725   2.181   0.796  17.209 -0.1805  0.2998  0.4551
  653MPD2    H5 9726   2.123   0.866  17.165  0.4147 -0.7541 -1.9921
  653MPD2    N1 9727   2.314   1.144  17.517  0.0411  0.0300  0.1767
  653MPD2    H7 9728   2.297   1.202  17.436 -0.6170 -0.8532 -0.3205
  654TMC3    C1 9729   2.060   0.650  17.059 -0.0587  0.5015 -0.2666
  654TMC3    C2 9730   2.043   0.746  16.959 -0.1721  0.2211  0.8171
  654TMC3    C3 9731   1.981   0.714  16.849  0.4904 -0.7714  0.5231
  654TMC3    C4 9732   2.022   0.518  17.032  0.6651  0.1528  0.1454
  654TMC3    C5 9733   1.972   0.493  16.911  0.4207 -0.6773 -0.4208
  654TMC3    C6 9734   1.940   0.588  16.819 -0.5872 -0.5942 -0.1335
  654TMC3     C 9735   2.157   0.664  17.170  0.0689 -0.0852 -0.3870
  654TMC3     O 9736   2.224   0.564  17.190  0.3451  0.1431  0.3104
  654TMC3     H 9737   2.075   0.848  16.977  2.4025 -0.3800 -0.2373
  654TMC3    H1 9738   2.036   0.437  17.102 -0.8788 -0.2907 -0.0560
  654TMC3    H2 9739   1.904   0.553  16.723  2.4770  0.7060 -1.7420
  654TMC3    C7 9740   1.963   0.359  16.857  0.0773 -0.3186 -0.5328
  654TMC3    C8 9741   1.948   0.820  16.756  0.9235 -0.4594 -0.3911
  654TMC3    O1 9742   1.944   0.344  16.734 -0.1624  0.2446  0.7892
  654TMC3    O2 9743   1.830   0.843  16.731  0.0889 -0.2418 -0.9368
  655MPD2     C 9744   3.834   1.548  15.859  0.0095  0.3909  0.3577
  655MPD2    C1 9745   3.719   1.621  15.847  0.3429  0.7624  0.0487
  655MPD2    C2 9746   3.638   1.593  15.739  0.4364 -0.5735 -0.4478
  655MPD2    C3 9747   3.658   1.475  15.663  0.4750  0.0686  1.1743
  655MPD2    C4 9748   3.771   1.396  15.686 -0.0806  0.5801 -0.3704
  655MPD2    C5 9749   3.857   1.436  15.782  0.5831 -0.0651  0.8292
  655MPD2     H 9750   3.553   1.657  15.719  0.2987 -0.6354 -0.0545
  655MPD2    H1 9751   3.803   1.309  15.630  2.3295  0.1538  1.6665
  655MPD2    H2 9752   3.896   1.561  15.947 -1.0325  0.7237  1.0468
  655MPD2    H3 9753   3.956   1.393  15.789  0.7757  0.1667 -0.4405
  655MPD2     N 9754   3.567   1.428  15.562  0.3060 -0.3508 -0.0202
  655MPD2    H5 9755   3.585   1.342  15.511 -0.3328  0.3291 -1.4022
  655MPD2    N1 9756   3.675   1.723  15.936  0.0419 -0.0962  0.1787
  655MPD2    H7 9757   3.578   1.747  15.918  0.3452  1.1023  0.1504
  656TMC3    C1 9758   3.622   1.843  16.131 -0.0661 -0.4127 -0.2281
  656TMC3    C2 9759   3.534   1.785  16.211 -0.2721  0.0103 -0.7151
  656TMC3    C3 9760   3.401   1.805  16.191 -0.5521  0.3589 -0.0059
  656TMC3    C4 9761   3.579   1.941  16.048  0.2275  0.3448  0.2136
  656TMC3    C5 9762   3.446   1.967  16.026 -0.2204 -0.5704 -0.2207
  656TMC3    C6 9763   3.350   1.898  16.099  0.0618  0.3089 -0.6873
  656TMC3     C 9764   3.722   1.750  16.065 -0.5729  0.3889 -0.0621
  656TMC3     O 9765   3.816   1.713  16.131  0.1925 -0.4043  0.7242
  656TMC3     H 9766   3.564   1.712  16.285  2.5274 -1.6267 -3.5246
  656TMC3    H1 9767   3.653   1.994  15.990  2.6813 -2.5516  0.6608
  656TMC3    H2 9768   3.243   1.913  16.090 -0.3121 -1.8357  0.0329
  656TMC3    C7 9769   3.398   2.057  15.921 -0.1963 -0.0378  0.2893
  656TMC3    C8 9770   3.294   1.745  16.276  0.8615 -0.5226  0.2287
  656TMC3    O1 9771   3.455   2.167  15.909 -0.1259  0.4455 -0.1788
  656TMC3    O2 9772   3.177   1.754  16.238  0.3448 -0.0807 -0.0591
  657TMC3    C1 9773   2.467   0.756  14.744  0.2803  0.1227  0.6099
  657TMC3    C2 9774   2.453   0.790  14.872  0.1065 -0.7027 -0.1000
  657TMC3    C3 9775   2.371   0.900  14.901 -0.3184 -0.3682 -0.8395
  657TMC3    C4 9776   2.400   0.825  14.648  0.0675 -0.0352 -0.5471
  657TMC3    C5 9777   2.325   0.939  14.682 -0.6273  0.7226 -0.3835
  657TMC3    C6 9778   2.306   0.977  14.810  0.0195  0.7334 -0.1426
  657TMC3     C 9779   2.518   0.621  14.716  0.3612  0.4719 -0.9319
  657TMC3     O 9780   2.466   0.563  14.623 -0.0563 -0.6411 -0.9744
  657TMC3     H 9781   2.499   0.734  14.953 -0.6706 -2.1894 -0.6984
  657TMC3    H1 9782   2.401   0.789  14.545  0.2582 -0.5285 -0.3729
  657TMC3    H2 9783   2.241   1.061  14.833  1.8219  1.8197  1.0118
  657TMC3    C7 9784   2.234   0.979  14.582  0.1856  0.1798 -0.0754
  657TMC3    C8 9785   2.345   0.942  15.040 -0.0857  0.1499 -0.2593
  657TMC3    O1 9786   2.188   0.901  14.496  0.5024  0.7191  0.1661
  657TMC3    O2 9787   2.311   1.057  15.058  0.2366 -0.1905  0.1145
  658MPD2     C 9788   3.729   1.103  15.041  0.3661  0.1977  0.6649
  658MPD2    C1 9789   3.634   1.191  14.997 -0.6239 -0.3059  0.2457
  658MPD2    C2 9790   3.634   1.211  14.859 -0.5714 -0.3358  1.2792
  658MPD2    C3 9791   3.718   1.146  14.769 -0.2011  0.5034  0.2939
  658MPD2    C4 9792   3.810   1.059  14.819  0.3293 -0.2947  0.3566
  658MPD2    C5 9793   3.813   1.035  14.958 -0.6276  0.4448 -0.4865
  658MPD2     H 9794   3.556   1.278  14.824  1.4200  0.0834 -2.3534
  658MPD2    H1 9795   3.886   1.015  14.755  1.0325  0.3326  0.7558
  658MPD2    H2 9796   3.732   1.079  15.147  1.8847  0.0566  0.5979
  658MPD2    H3 9797   3.883   0.962  14.997 -1.3059  0.5196  0.8626
  658MPD2     N 9798   3.707   1.171  14.630  0.2725 -0.0275 -0.7065
  658MPD2    H5 9799   3.617   1.213  14.606 -0.4565 -0.2402  1.6540
  658MPD2    N1 9800   3.547   1.242  15.095  0.3430  0.1545  0.2075
  658MPD2    H7 9801   3.554   1.210  15.191  2.3840 -2.8343 -0.9423
  659TMC3    C1 9802   3.384   1.387  15.192  0.2225  0.5995  0.7398
  659TMC3    C2 9803   3.450   1.398  15.307  0.1953 -0.4165 -0.3444
  659TMC3    C3 9804   3.381   1.440  15.421 -0.3166  0.2240  0.7457
  659TMC3    C4 9805   3.252   1.413  15.171 -0.2336  0.5904  0.1316
  659TMC3    C5 9806   3.188   1.461  15.287  0.0800  0.3635 -0.3590
  659TMC3    C6 9807   3.251   1.475  15.409 -1.3126 -0.8301  0.2454
  659TMC3     C 9808   3.451   1.342  15.074 -0.8107 -0.0930  0.1137
  659TMC3     O 9809   3.415   1.387  14.964  0.5210  0.1129  0.1610
  659TMC3     H 9810   3.557   1.383  15.317  0.5063  1.6597 -0.6764
  659TMC3    H1 9811   3.204   1.401  15.075 -1.7982 -3.6812  1.4256
  659TMC3    H2 9812   3.196   1.511  15.494  0.6672  0.1293  1.1252
  659TMC3    C7 9813   3.047   1.447  15.300 -0.3599  0.4567  0.5493
  659TMC3    C8 9814   3.438   1.479  15.546 -0.2364  0.1245  0.3793
  659TMC3    O1 9815   2.996   1.519  15.381  0.6873 -0.3801  0.0063
  659TMC3    O2 9816   3.384   1.571  15.607 -0.0219  0.4287 -0.3854
  660MPD2     C 9817   1.720   0.236  12.668  0.5194 -0.2052 -0.3402
  660MPD2    C1 9818   1.639   0.299  12.763  0.0757  0.1402  0.2776
  660MPD2    C2 9819   1.556   0.208  12.837 -0.0152 -0.4069  0.8020
  660MPD2    C3 9820   1.559   0.069  12.816 -0.7243 -0.0129  0.7282
  660MPD2    C4 9821   1.649   0.016  12.727 -0.1898 -0.5280 -0.3882
  660MPD2    C5 9822   1.731   0.101  12.660 -0.2976 -0.0673 -0.2936
  660MPD2     H 9823   1.479   0.241  12.905  2.6576  2.5899  2.4120
  660MPD2    H1 9824   1.666   4.650  12.704 -0.8348 -0.8189  0.4643
  660MPD2    H2 9825   1.775   0.306  12.605 -1.4878  0.9807 -0.7936
  660MPD2    H3 9826   1.815   0.057  12.607 -1.3556 -1.9696 -0.3905
  660MPD2     N 9827   1.462   4.727  12.877  0.1335  0.0849  0.2595
  660MPD2    H5 9828   1.394   0.038  12.934  1.0206  0.8099  0.6857
  660MPD2    N1 9829   1.643   0.437  12.774 -0.2283 -0.1895 -0.5374
  660MPD2    H7 9830   1.706   0.485  12.710 -0.1598  1.3289  0.6621
  661TMC3    C1 9831   1.518   0.628  12.768  0.6816 -0.5648  0.4856
  661TMC3    C2 9832   1.557   0.646  12.638 -0.3602  0.5843 -0.4550
  661TMC3    C3 9833   1.488   0.736  12.563  0.0040 -0.0537  1.0539
  661TMC3    C4 9834   1.394   0.677  12.813  0.5635  0.7527  0.4205
  661TMC3    C5 9835   1.326   0.765  12.738  0.2353 -0.4123  0.3049
  661TMC3    C6 9836   1.372   0.798  12.615  0.3549 -1.0319 -0.6704
  661TMC3     C 9837   1.556   0.512  12.848  0.7017  0.4309 -0.0496
  661TMC3     O 9838   1.478   0.476  12.932  0.5439 -0.6520 -0.1446
  661TMC3     H 9839   1.656   0.612  12.608 -0.9526 -1.0953 -0.5096
  661TMC3    H1 9840   1.347   0.646  12.906 -1.3985 -0.0256 -0.8399
  661TMC3    H2 9841   1.310   0.868  12.560  1.7060  1.5031  1.0378
  661TMC3    C7 9842   1.182   0.740  12.756 -0.5455  0.1905 -0.1222
  661TMC3    C8 9843   1.551   0.789  12.444  1.5472 -0.2126 -0.2189
  661TMC3    O1 9844   1.150   0.749  12.872  0.0578  0.2027 -0.2367
  661TMC3    O2 9845   1.663   0.756  12.411 -0.2440 -0.3349 -0.0596
  662MPD2     C 9846   2.273   4.090  17.210  0.0995 -0.2263  0.4909
  662MPD2    C1 9847   2.223   4.142  17.325 -0.0827  0.4167  0.3168
  662MPD2    C2 9848   2.150   4.257  17.319 -1.0498 -0.7380 -0.3030
  662MPD2    C3 9849   2.121   4.312  17.192  0.1432  0.1026  0.4172
  662MPD2    C4 9850   2.170   4.256  17.086  0.2213  0.4494  0.2574
  662MPD2    C5 9851   2.243   4.143  17.090  0.8515  0.4079  0.1251
  662MPD2     H 9852   2.119   4.298  17.414  0.7468  3.0279 -1.3344
  662MPD2    H1 9853   2.140   4.278  16.984  0.5404  0.4399  0.1639
  662MPD2    H2 9854   2.332   4.000  17.205  1.4022  0.6270  0.5730
  662MPD2    H3 9855   2.272   4.090  17.000 -0.2816 -0.0187  0.0122
  662MPD2     N 9856   2.032   4.421  17.173  0.3630  0.2298 -0.3038
  662MPD2    H5 9857   1.998   4.437  17.079  2.2589  1.3052 -0.8022
  662MPD2    N1 9858   2.236   4.084  17.450 -0.0862  0.2770  0.0134
  662MPD2    H7 9859   2.169   4.127  17.512  0.9944  2.6267 -0.4373
  663TMC3    C1 9860   2.284   3.949  17.615 -1.3644  0.9417 -0.5866
  663TMC3    C2 9861   2.255   4.056  17.694  0.3379 -0.2249 -0.3672
  663TMC3    C3 9862   2.150   4.045   0.036 -0.2233  0.4509 -0.1279
  663TMC3    C4 9863   2.222   3.828  17.626 -0.1607  0.3936 -0.1910
  663TMC3    C5 9864   2.117   3.811  17.714 -0.3298  0.2487  0.2439
  663TMC3    C6 9865   2.095   3.918   0.050 -0.4246 -0.2661  0.0445
  663TMC3     C 9866   2.320   3.985  17.484  1.1163 -0.0011 -0.0746
  663TMC3     O 9867   2.396   3.923  17.409  0.2259 -0.3632  0.1233
  663TMC3     H 9868   2.300   4.147  17.656 -0.3523 -0.2170 -1.1670
  663TMC3    H1 9869   2.236   3.754  17.548 -0.0476  1.1736 -0.9202
  663TMC3    H2 9870   2.003   3.914   0.107 -0.1624  0.8453  0.5549
  663TMC3    C7 9871   1.999   3.748  17.666 -0.0207 -0.1493  0.0710
  663TMC3    C8 9872   2.051   4.139  17.734  0.5357 -0.2708 -0.6781
  663TMC3    O1 9873   1.894   3.800  17.690  0.1560  1.0016  0.2864
  663TMC3    O2 9874   2.090   4.213  17.650  0.5226 -0.3725 -0.8218
  664MPD2     C 9875   0.404   2.233  17.302  0.5283 -0.0297 -0.3820
  664MPD2    C1 9876   0.397   2.356  17.364  0.7542  0.3941 -1.0037
  664MPD2    C2 9877   0.311   2.377  17.467  0.3216  0.0449  0.0505
  664MPD2    C3 9878   0.206   2.283  17.497  0.2359  0.8348 -0.1285
  664MPD2    C4 9879   0.217   2.169  17.421 -0.7718 -0.2906  0.4940
  664MPD2    C5 9880   0.310   2.145  17.327  0.1939  0.6467  0.2813
  664MPD2     H 9881   0.302   2.474  17.514  0.8711 -1.1163  2.5465
  664MPD2    H1 9882   0.148   2.087  17.433 -0.6717 -0.7000 -1.7047
  664MPD2    H2 9883   0.481   2.203  17.232  0.6739  0.2231 -0.3286
  664MPD2    H3 9884   0.328   2.047  17.284  0.1155  0.5859  0.3868
  664MPD2     N 9885   0.126   2.311  17.612  0.1808  0.6104 -0.1549
  664MPD2    H5 9886   0.146   2.400  17.657  1.1364 -0.4787  1.5777
  664MPD2    N1 9887   0.489   2.459  17.345  0.2664 -0.0469 -0.1229
  664MPD2    H7 9888   0.476   2.549  17.389 -1.0140 -0.0776 -0.4197
  665TMC3    C1 9889   4.717   2.271   0.050 -0.0356  0.8035 -0.2724
  665TMC3    C2 9890   4.704   2.175   0.149 -0.1670 -0.0714  0.0960
  665TMC3    C3 9891   4.682   2.220   0.280 -0.8912  0.1369  0.8726
  665TMC3    C4 9892   4.707   2.403   0.074 -0.5127  0.2000 -0.5755
  665TMC3    C5 9893   4.667   2.438   0.198 -0.5117 -0.6956 -0.7508
  665TMC3    C6 9894   4.650   2.349   0.305 -0.2609 -0.3254  0.4665
  665TMC3     C 9895   0.039   2.225  17.674 -0.4545  0.0150  0.4230
  665TMC3     O 9896   0.022   2.112  17.641  0.4094 -0.7296 -0.3732
  665TMC3     H 9897   4.725   2.071   0.127  0.2365 -0.3647  1.8301
  665TMC3    H1 9898   4.728   2.467  17.740  0.7300 -0.2705 -0.6293
  665TMC3    H2 9899   4.613   2.376   0.403 -0.1567 -0.7211  0.6156
  665TMC3    C7 9900   4.661   2.576   0.237 -0.3380  0.4558 -0.3827
  665TMC3    C8 9901   4.697   2.140   0.399  0.3073 -0.0172 -0.5306
  665TMC3    O1 9902   4.624   2.657   0.153  0.5946  0.0145 -0.5129
  665TMC3    O2 9903   4.707   2.203   0.505 -0.1069  0.3116  0.0037
  666TMC3    C1 9904   3.446   2.964   9.797  0.0503  1.0323 -0.2701
  666TMC3    C2 9905   3.554   2.878   9.799  0.0693 -0.7896  0.3300
  666TMC3    C3 9906   3.682   2.925   9.786  0.1048 -0.8007 -0.2956
  666TMC3    C4 9907   3.465   3.095   9.767  0.1843  0.1098 -0.3439
  666TMC3    C5 9908   3.598   3.130   9.737  0.0153  0.2100  0.2700
  666TMC3    C6 9909   3.708   3.054   9.754  0.2303  0.1086 -0.3799
  666TMC3     C 9910   3.318   2.929   9.855 -0.0550 -0.4256  0.5265
  666TMC3     O 9911   3.224   3.003   9.829  0.8548 -0.1148 -0.0550
  666TMC3     H 9912   3.533   2.773   9.816  2.5638 -1.5006 -0.8824
  666TMC3    H1 9913   3.385   3.168   9.775 -0.5022 -0.5618 -1.1148
  666TMC3    H2 9914   3.802   3.095   9.720 -0.3264  2.2063  0.6273
  666TMC3    C7 9915   3.643   3.263   9.787  0.5089  0.1155  0.8314
  666TMC3    C8 9916   3.784   2.830   9.827 -0.5039 -0.2683 -0.0984
  666TMC3    O1 9917   3.757   3.258   9.832 -0.1337 -0.5287 -0.5994
  666TMC3    O2 9918   3.755   2.743   9.912  0.3513 -0.5038  0.8865
  667MPD2     C 9919   0.445   3.174  14.531  0.6356  0.3262 -0.0272
  667MPD2    C1 9920   0.450   3.080  14.636  0.1659  0.4810  0.0685
  667MPD2    C2 9921   0.338   3.024  14.685 -0.2960  0.4449  0.5441
  667MPD2    C3 9922   0.210   3.053  14.631 -0.0858  0.6074 -0.7281
  667MPD2    C4 9923   0.216   3.140  14.524 -0.0793 -0.9148 -0.2497
  667MPD2    C5 9924   0.328   3.193  14.469 -0.3176 -0.3579 -0.5683
  667MPD2     H 9925   0.336   2.948  14.762 -2.9570  2.0503  2.0285
  667MPD2    H1 9926   0.119   3.162  14.482 -0.6288 -3.9306 -0.6137
  667MPD2    H2 9927   0.534   3.221  14.491 -0.4536  2.3188 -0.1161
  667MPD2    H3 9928   0.332   3.259  14.383 -2.0750  2.8723  1.8177
  667MPD2     N 9929   0.090   3.008  14.687  0.1926 -0.5704 -0.0171
  667MPD2    H5 9930   0.012   3.044  14.633 -0.1696 -1.0761  0.1690
  667MPD2    N1 9931   0.578   3.049  14.693 -0.1924 -0.2675  0.3526
  667MPD2    H7 9932   0.574   2.980  14.767  0.0430  0.7492  1.3067
  668TMC3    C1 9933   0.809   3.078  14.763 -0.8601 -0.7171 -0.7209
  668TMC3    C2 9934   0.907   3.169  14.776 -0.0952 -0.8240 -0.1403
  668TMC3    C3 9935   0.986   3.172  14.882 -0.3126  0.4996 -0.3951
  668TMC3    C4 9936   0.784   2.992  14.860  0.6370  0.3317  0.1034
  668TMC3    C5 9937   0.859   3.001  14.971 -0.3937 -0.4894 -0.6065
  668TMC3    C6 9938   0.966   3.080  14.985 -0.7124  0.8842 -0.1793
  668TMC3     C 9939   0.702   3.110  14.663  0.0209  0.3372 -0.0531
  668TMC3     O 9940   0.726   3.210  14.595  0.0483  0.2985 -0.2238
  668TMC3     H 9941   0.926   3.228  14.688 -0.7090 -0.5820 -0.1107
  668TMC3    H1 9942   0.699   2.925  14.853  0.6043  0.0901  2.8143
  668TMC3    H2 9943   1.020   3.078  15.078 -1.7047  0.7344  0.3943
  668TMC3    C7 9944   0.837   2.907  15.082 -0.2243  0.2262 -0.0759
  668TMC3    C8 9945   1.059   3.288  14.922 -0.1764  0.1190  0.1353
  668TMC3    O1 9946   0.851   2.948  15.197  0.5054  0.5882  0.2286
  668TMC3    O2 9947   1.064   3.309  15.045 -0.4835  0.2273 -0.1297
  669TMC3    C1 9948   3.564   2.511  14.245  0.6759  0.2533  0.1487
  669TMC3    C2 9949   3.476   2.572  14.158 -0.2125 -0.0341 -0.5614
  669TMC3    C3 9950   3.526   2.647  14.057 -0.1309 -0.1459 -0.2211
  669TMC3    C4 9951   3.700   2.536  14.232  0.0192  0.0675  0.1127
  669TMC3    C5 9952   3.749   2.621  14.137  0.0824  0.3533 -0.2160
  669TMC3    C6 9953   3.666   2.670  14.043 -0.3871 -0.4886  0.4473
  669TMC3     C 9954   3.511   2.405  14.333  0.1343  0.3646  0.1131
  669TMC3     O 9955   3.392   2.409  14.360 -0.0397  0.4424  0.0503
  669TMC3     H 9956   3.370   2.546  14.156  0.2251 -1.8670 -0.1025
  669TMC3    H1 9957   3.765   2.496  14.309 -1.2203 -2.7294 -0.2728
  669TMC3    H2 9958   3.700   2.734  13.962 -0.0162 -0.7037  0.4347
  669TMC3    C7 9959   3.892   2.643  14.123  0.2885  0.6962 -0.1896
  669TMC3    C8 9960   3.430   2.703  13.962 -0.1761 -0.1083 -0.0071
  669TMC3    O1 9961   3.945   2.713  14.030  0.3828 -0.1155 -0.4942
  669TMC3    O2 9962   3.313   2.697  13.996 -0.2977  0.0502 -0.3378
  670MPD2     C 9963   2.198   0.457  13.097  0.4746  0.8284 -0.5077
  670MPD2    C1 9964   2.260   0.553  13.172  0.2296  0.1221  0.8442
  670MPD2    C2 9965   2.222   0.562  13.306 -0.8053 -0.2604 -0.4603
  670MPD2    C3 9966   2.131   0.472  13.363  0.4287 -0.1286  0.1441
  670MPD2    C4 9967   2.074   0.376  13.283  0.9435 -0.5240  0.9730
  670MPD2    C5 9968   2.112   0.367  13.155  0.5486  0.0300  0.0893
  670MPD2     H 9969   2.259   0.650  13.357 -2.1171  0.8213 -1.3637
  670MPD2    H1 9970   1.996   0.312  13.324  0.8446  0.4739  2.3543
  670MPD2    H2 9971   2.221   0.436  12.993  0.0420  1.6800 -0.7778
  670MPD2    H3 9972   2.066   0.294  13.089  0.6940 -0.7888  0.9014
  670MPD2     N 9973   2.114   0.471  13.504 -0.2480  0.1505 -0.0783
  670MPD2    H5 9974   2.044   0.408  13.542 -1.7509  1.9867  0.1741
  670MPD2    N1 9975   2.341   0.656  13.123 -0.1296 -0.7510 -0.0431
  670MPD2    H7 9976   2.367   0.729  13.188 -1.7142  0.0857 -0.3493
  671TMC3    C1 9977   2.128   0.514  13.720  0.3614 -0.3606  0.0619
  671TMC3    C2 9978   2.212   0.474  13.821  0.1839 -0.0583  0.3764
  671TMC3    C3 9979   2.167   0.376  13.908 -0.3710 -0.2368  0.2340
  671TMC3    C4 9980   1.999   0.470  13.714 -0.6127  0.5313  0.1996
  671TMC3    C5 9981   1.952   0.384  13.808 -0.1392 -0.8857  0.1859
  671TMC3    C6 9982   2.038   0.332  13.901  0.0691 -0.0886 -0.1231
  671TMC3     C 9983   2.184   0.543  13.598 -0.7877  0.3441  0.0493
  671TMC3     O 9984   2.289   0.608  13.596  0.4230  0.2160 -0.9103
  671TMC3     H 9985   2.317   0.501  13.816  0.1418  0.1746  0.7613
  671TMC3    H1 9986   1.929   0.506  13.640 -0.9466  0.2362  0.3709
  671TMC3    H2 9987   2.008   0.246  13.960  0.1192  0.1032  0.1782
  671TMC3    C7 9988   1.866   0.277  13.744  0.2188  0.1807 -0.2713
  671TMC3    C8 9989   2.255   0.280  13.968  0.2176  0.2743 -0.2971
  671TMC3    O1 9990   1.867   0.251  13.625 -0.3005  0.3059  0.6131
  671TMC3    O2 9991   2.197   0.194  14.040 -0.3087  0.6095 -0.5597
  672MPD2     C 9992   2.455   0.736   0.791  0.2764 -0.3542  0.0565
  672MPD2    C1 9993   2.531   0.665   0.703  0.0421  0.7444  0.3920
  672MPD2    C2 9994   2.659   0.702   0.677 -0.1090 -0.8836 -0.5507
  672MPD2    C3 9995   2.715   0.811   0.743 -0.0655 -0.9220 -0.3390
  672MPD2    C4 9996   2.638   0.879   0.840  0.3675 -0.3996 -0.0766
  672MPD2    C5 9997   2.507   0.839   0.862  0.3093 -0.4531  0.2032
  672MPD2     H 9998   2.717   0.655   0.598 -0.6711 -1.5136 -0.5833
  672MPD2    H1 9999   2.673   0.964   0.897  1.1284  0.0050 -1.1346
  672MPD2    H210000   2.352   0.712   0.815  0.7645 -1.8263  0.6781
  672MPD2    H310001   2.447   0.894   0.933 -1.4497 -1.8494 -0.1926
  672MPD2     N10002   2.843   0.861   0.703  0.0638 -0.4064  0.4396
  672MPD2    H510003   2.873   0.950   0.741  2.3370 -0.3542 -1.4269
  672MPD2    N110004   2.481   0.568   0.617 -0.7120 -0.3970  0.3744
  672MPD2    H710005   2.551   0.515   0.566 -1.2815 -0.0650 -0.7432
  673TMC3    C110006   2.315   0.435   0.507 -0.2317 -0.0464 -1.0540
  673TMC3    C210007   2.406   0.348   0.464  0.3287  0.0280  0.2116
  673TMC3    C310008   2.365   0.258   0.369 -0.3518  0.6821 -0.8823
  673TMC3    C410009   2.189   0.444   0.459 -0.6781 -0.2833  0.1503
  673TMC3    C510010   2.147   0.358   0.363  0.1406 -0.0690  0.2819
  673TMC3    C610011   2.237   0.264   0.317 -0.0231 -0.8014 -0.0895
  673TMC3     C10012   2.347   0.543   0.602 -0.3778  0.5837  0.5558
  673TMC3     O10013   2.253   0.607   0.641  0.0457  0.7277  0.0807
  673TMC3     H10014   2.511   0.345   0.492 -0.0150 -1.8336  1.2677
  673TMC3    H110015   2.121   0.516   0.505 -0.5011 -0.8575  1.3246
  673TMC3    H210016   2.209   0.202   0.233  0.5440  0.1003 -0.9471
  673TMC3    C710017   2.043   0.405   0.269  0.1692  0.2382 -0.0137
  673TMC3    C810018   2.448   0.142   0.335 -0.8694 -0.2104 -0.1933
  673TMC3    O110019   2.022   0.336   0.168  0.1400  0.2038  0.3255
  673TMC3    O210020   2.398   0.076   0.242  0.5564 -0.4928  0.3945
  674MPD2     C10021   1.917   0.985  17.465 -0.3290 -0.0354 -0.5835
  674MPD2    C110022   1.874   0.853  17.461 -0.0836  0.4397  0.2776
  674MPD2    C210023   1.740   0.820  17.460  0.2620 -0.3987  0.9644
  674MPD2    C310024   1.648   0.921  17.482 -0.7188 -0.1045 -0.0965
  674MPD2    C410025   1.690   1.055  17.487 -0.1349 -0.3003 -0.2788
  674MPD2    C510026   1.826   1.086  17.482 -0.1074  0.0410 -0.7151
  674MPD2     H10027   1.714   0.715  17.464  0.7588 -0.5854 -0.7946
  674MPD2    H110028   1.623   1.138  17.509  1.2645  0.8057 -0.2464
  674MPD2    H210029   2.020   1.017  17.473 -0.5885  1.2594 -2.4277
  674MPD2    H310030   1.865   1.187  17.491 -0.1491  0.1936 -2.1935
  674MPD2     N10031   1.514   0.869  17.508 -0.3547  0.6474  0.7330
  674MPD2    H510032   1.484   0.774  17.488  1.4074  0.6895 -2.1477
  674MPD2    N110033   1.978   0.752  17.478 -0.1485 -0.7014  0.5046
  674MPD2    H710034   2.068   0.783  17.514 -0.8073  1.5000  0.2872
  675TMC3    C110035   2.071   0.550  17.539  0.5885  0.6851  0.3204
  675TMC3    C210036   2.084   0.416  17.512  0.2516  0.0708 -0.0009
  675TMC3    C310037   2.157   0.345  17.591  0.0150  1.4830 -0.4042
  675TMC3    C410038   2.132   0.608  17.648 -0.1476 -0.6075 -0.3636
  675TMC3    C510039   2.225   0.530  17.708 -0.2741  0.1409 -0.8908
  675TMC3    C610040   2.238   0.396  17.690 -0.0032  0.3004  0.7536
  675TMC3     C10041   1.968   0.617  17.466 -0.8150 -0.0628  0.5740
  675TMC3     O10042   1.885   0.553  17.404  0.2088 -0.5288 -0.0572
  675TMC3     H10043   2.006   0.372  17.450  1.9965 -1.2198 -1.2599
  675TMC3    H110044   2.120   0.713  17.673  2.1824 -0.7268  1.2687
  675TMC3    H210045   2.293   0.332   0.008  1.3537 -1.0198 -1.5705
  675TMC3    C710046   2.300   0.582   0.066  0.3775 -0.0210  0.0596
  675TMC3    C810047   2.139   0.201  17.592  0.4313  0.0210 -0.3832
  675TMC3    O110048   2.398   0.519   0.105 -0.0886 -0.0879 -0.0152
  675TMC3    O210049   2.126   0.149  17.483 -0.0461  0.2076  0.8134
  676MPD2     C10050   0.090   3.717  11.126 -0.5949 -0.3389 -0.1969
  676MPD2    C110051   0.009   3.631  11.187 -0.9762  0.2978 -0.3266
  676MPD2    C210052   0.008   3.502  11.152 -0.5642  0.0743 -0.3553
  676MPD2    C310053   0.072   3.463  11.039 -0.1450  0.6858  0.2210
  676MPD2    C410054   0.149   3.552  10.963  0.2189 -0.6841  0.2129
  676MPD2    C510055   0.162   3.678  11.019 -0.1521  0.6028  0.3627
  676MPD2     H10056   4.670   3.437  11.192  1.5695  0.2541  4.0948
  676MPD2    H110057   0.199   3.523  10.872  0.4601 -0.3145  0.2275
  676MPD2    H210058   0.104   3.818  11.164 -0.5690 -0.7493  0.8970
  676MPD2    H310059   0.228   3.750  10.973  1.5025 -1.7641 -0.9411
  676MPD2     N10060   0.066   3.331  10.983 -0.3506  0.1381 -0.2694
  676MPD2    H510061   0.134   3.320  10.909  2.2391  1.0328  1.9779
  676MPD2    N110062   4.655   3.679  11.280 -0.1627  0.5195 -0.1920
  676MPD2    H710063   4.595   3.608  11.322  1.2653 -0.2053  0.6411
  677TMC3    C110064   4.533   3.826  11.417  0.1545 -0.0585  0.2127
  677TMC3    C210065   4.453   3.722  11.461  0.3190  0.8088 -0.0486
  677TMC3    C310066   4.384   3.736  11.575 -0.0942  0.9240 -0.5331
  677TMC3    C410067   4.531   3.944  11.485 -0.0769  0.1418  0.0409
  677TMC3    C510068   4.449   3.960  11.591  0.3346  0.5070  0.2876
  677TMC3    C610069   4.369   3.858  11.632  0.2745 -0.4378  0.2102
  677TMC3     C10070   4.624   3.809  11.302 -0.2783  0.0840 -0.8580
  677TMC3     O10071   4.649   3.917  11.249  0.4081  0.3966  0.3020
  677TMC3     H10072   4.446   3.630  11.403 -1.7427 -0.3532  2.0681
  677TMC3    H110073   4.571   4.035  11.442 -1.8797  1.3058  0.8284
  677TMC3    H210074   4.290   3.872  11.705 -0.8586 -0.0216 -1.0927
  677TMC3    C710075   4.469   4.074  11.677  0.1862 -0.3228 -0.0632
  677TMC3    C810076   4.293   3.620  11.597  0.0813  0.2246  0.3178
  677TMC3    O110077   4.396   4.078  11.772  1.0962  0.2351 -0.7299
  677TMC3    O210078   4.222   3.589  11.498  0.0180 -1.1364 -0.0384
  678MPD2     C10079   1.185   3.163   1.209  0.7228 -0.1682 -0.0290
  678MPD2    C110080   1.155   3.137   1.075 -0.5316  0.5784 -0.2746
  678MPD2    C210081   1.017   3.147   1.043  0.7937  0.0415 -0.7059
  678MPD2    C310082   0.921   3.165   1.130 -0.4670  0.0150  0.1989
  678MPD2    C410083   0.961   3.179   1.264 -0.2610  1.1973  0.5191
  678MPD2    C510084   1.088   3.174   1.303 -0.0001 -0.2857 -0.1247
  678MPD2     H10085   0.997   3.150   0.937 -2.9763 -3.9218 -0.1183
  678MPD2    H110086   0.891   3.202   1.343 -3.2364  1.8847 -2.3086
  678MPD2    H210087   1.285   3.166   1.251  1.0563  0.2408 -0.8538
  678MPD2    H310088   1.106   3.210   1.404  0.8127 -1.5081  0.1541
  678MPD2     N10089   0.792   3.175   1.087 -0.4799 -0.2886  0.4654
  678MPD2    H510090   0.771   3.176   0.988  0.7237  2.1821  0.2541
  678MPD2    N110091   1.248   3.126   0.969  0.2027  0.1134  0.1067
  678MPD2    H710092   1.224   3.103   0.873 -1.3235  0.6566  0.3585
  679TMC3    C110093   1.691   3.169   0.824 -0.1708 -0.5393 -0.0263
  679TMC3    C210094   1.597   3.097   0.885 -0.6084  0.3597 -0.4163
  679TMC3    C310095   1.464   3.128   0.866  0.7495  0.0657  0.2961
  679TMC3    C410096   1.661   3.253   0.718  0.2346 -0.1495 -0.9774
  679TMC3    C510097   1.525   3.272   0.691 -0.9145  0.1290  0.0649
  679TMC3    C610098   1.425   3.216   0.768  0.5422 -0.0718 -0.0039
  679TMC3     C10099   1.831   3.130   0.832  0.4146  0.5392  0.0214
  679TMC3     O10100   1.858   3.013   0.853  0.5129  0.3193  0.0436
  679TMC3     H10101   1.615   3.029   0.967  0.3158 -0.5701 -1.3877
  679TMC3    H110102   1.743   3.305   0.671 -0.9805  2.1457 -0.5667
  679TMC3    H210103   1.320   3.213   0.739  0.5780  0.9985 -0.2475
  679TMC3    C710104   1.492   3.338   0.575  1.0355 -0.2111  0.1912
  679TMC3    C810105   1.386   3.132   0.987  0.0681 -0.6700  0.1067
  679TMC3    O110106   1.372   3.361   0.558  0.1056  0.6071  0.1863
  679TMC3    O210107   1.445   3.155   1.091 -0.1125 -0.0445 -0.1814
  680MPD2     C10108   1.369   2.853  13.698  0.5338 -0.1944 -0.2504
  680MPD2    C110109   1.448   2.781  13.786 -0.2557 -0.0449  0.5786
  680MPD2    C210110   1.538   2.850  13.863 -0.5307  0.8729  0.3965
  680MPD2    C310111   1.551   2.990  13.858  0.3689  0.2240 -0.3563
  680MPD2    C410112   1.469   3.053  13.767  0.5747  0.5544 -0.3793
  680MPD2    C510113   1.383   2.987  13.687  0.0541 -0.2692  0.2367
  680MPD2     H10114   1.595   2.786  13.929  0.2457  2.7256  1.5179
  680MPD2    H110115   1.482   3.160  13.755 -2.0661  0.7485 -1.4936
  680MPD2    H210116   1.302   2.802  13.629  0.2349 -0.1065 -0.0213
  680MPD2    H310117   1.317   3.037  13.618  0.8920  1.7814  0.9109
  680MPD2     N10118   1.651   3.063  13.928 -0.1655 -0.2034  0.2037
  680MPD2    H510119   1.672   3.157  13.895  1.0836 -0.8093 -0.7126
  680MPD2    N110120   1.445   2.642  13.801  0.7474  0.0626 -0.3158
  680MPD2    H710121   1.496   2.595  13.874  0.3270 -0.1376 -0.1540
  681TMC3    C110122   1.458   2.426  13.752  0.7038  0.3299  0.2909
  681TMC3    C210123   1.438   2.373  13.874  0.1306 -0.6751 -0.8644
  681TMC3    C310124   1.523   2.287  13.924 -0.2924 -0.1102 -0.1505
  681TMC3    C410125   1.554   2.385  13.663 -0.9691  0.0335 -0.3890
  681TMC3    C510126   1.635   2.279  13.708  0.5093 -0.0816 -0.7036
  681TMC3    C610127   1.627   2.239  13.839 -0.1529 -0.2715  0.3376
  681TMC3     C10128   1.398   2.548  13.710  0.1900  0.3492 -0.6876
  681TMC3     O10129   1.342   2.553  13.602  0.6297 -0.3997  0.6139
  681TMC3     H10130   1.362   2.423  13.932 -1.8111 -1.6402 -2.5873
  681TMC3    H110131   1.563   2.426  13.563 -3.7480  0.9086 -0.2686
  681TMC3    H210132   1.697   2.165  13.878 -0.7007 -0.8483  0.2179
  681TMC3    C710133   1.725   2.218  13.617  0.8603  0.3892 -0.3487
  681TMC3    C810134   1.509   2.266  14.068  0.5736 -0.5074 -0.1759
  681TMC3    O110135   1.815   2.151  13.673  0.1614 -1.5290  0.1523
  681TMC3    O210136   1.391   2.249  14.099 -0.3963 -0.4102 -0.4078
  682MPD2     C10137   3.868   4.095  10.868 -0.5979  0.4241 -0.1570
  682MPD2    C110138   3.848   3.960  10.876 -0.2052  0.2233  0.4541
  682MPD2    C210139   3.842   3.891  10.993  0.4609  0.4539  0.3925
  682MPD2    C310140   3.858   3.957  11.114 -0.3138 -0.0772 -0.3415
  682MPD2    C410141   3.867   4.097  11.105 -0.4806  0.5621 -0.2024
  682MPD2    C510142   3.876   4.160  10.987 -0.2065  0.3761 -0.2816
  682MPD2     H10143   3.831   3.784  10.988 -0.8408  0.6776 -1.7328
  682MPD2    H110144   3.873   4.153  11.198 -0.6348  1.7844 -0.9304
  682MPD2    H210145   3.870   4.159  10.781 -1.0923  0.6527  0.0011
  682MPD2    H310146   3.900   4.265  10.987  0.8916  0.1391 -2.9923
  682MPD2     N10147   3.845   3.896  11.243 -0.0832 -0.2422  1.0501
  682MPD2    H510148   3.827   3.962  11.319  1.0926  3.0514 -1.5308
  682MPD2    N110149   3.842   3.881  10.759 -0.2538 -0.5688  0.6286
  682MPD2    H710150   3.805   3.789  10.780 -0.4705 -0.5330  0.3973
  683TMC3    C110151   3.693   3.741  11.597  0.2276 -0.7200  0.1170
  683TMC3    C210152   3.674   3.604  11.603 -0.0793 -0.3250 -0.2293
  683TMC3    C310153   3.741   3.524  11.514  0.0430 -1.0414  0.6152
  683TMC3    C410154   3.762   3.792  11.490 -0.2131 -0.0295  0.6246
  683TMC3    C510155   3.806   3.707  11.395 -0.5797  0.0248  0.1897
  683TMC3    C610156   3.801   3.568  11.399 -0.0870  1.0472 -0.7045
  683TMC3     C10157   3.673   3.824  11.715 -0.1706 -0.5813 -0.4391
  683TMC3     O10158   3.712   3.942  11.714  0.0903 -0.2270  0.2300
  683TMC3     H10159   3.600   3.564  11.670 -0.0466 -0.0614 -0.0343
  683TMC3    H110160   3.775   3.899  11.473 -1.1803 -0.2650 -1.5511
  683TMC3    H210161   3.852   3.497  11.335  0.7125 -1.7559  3.0381
  683TMC3    C710162   3.849   3.758  11.265  0.5172  0.1768  0.2028
  683TMC3    C810163   3.679   3.392  11.500 -0.2623 -0.0881  0.0794
  683TMC3    O110164   3.862   3.673  11.181 -0.2253 -0.0672  0.0388
  683TMC3    O210165   3.566   3.376  11.538 -0.3043  0.0358 -0.2986
  684MPD2     C10166   2.117   3.176  16.434  0.1473  0.4391 -0.0696
  684MPD2    C110167   2.089   3.178  16.300  0.8096  0.0383  0.0745
  684MPD2    C210168   2.117   3.286  16.227 -0.3652 -0.3983  0.4144
  684MPD2    C310169   2.169   3.399  16.288 -0.9481  0.3878 -0.0245
  684MPD2    C410170   2.192   3.402  16.422  0.1987 -0.3140 -0.3837
  684MPD2    C510171   2.170   3.281  16.493  0.6214  0.3645  0.5830
  684MPD2     H10172   2.099   3.280  16.121  1.1950 -1.4516  0.2068
  684MPD2    H110173   2.215   3.495  16.472  1.5167 -0.0826 -1.4190
  684MPD2    H210174   2.094   3.091  16.497 -1.8994 -0.3331 -1.8279
  684MPD2    H310175   2.187   3.277  16.600 -0.2429  0.4916  0.7206
  684MPD2     N10176   2.201   3.524  16.226  0.0576  0.2405  0.5461
  684MPD2    H510177   2.217   3.600  16.291  0.0754  0.6932  0.0073
  684MPD2    N110178   2.052   3.064  16.227 -0.1260  0.2372 -0.8061
  684MPD2    H710179   2.028   3.091  16.133  1.6239  0.7886 -1.0914
  685TMC3    C110180   2.013   2.847  16.171  0.0142  0.1943 -0.0191
  685TMC3    C210181   1.947   2.902  16.066 -0.0322 -0.4219  0.4856
  685TMC3    C310182   2.016   2.884  15.947  0.5376  0.0531 -0.9591
  685TMC3    C410183   2.119   2.759  16.167  0.4180 -0.1128  0.6239
  685TMC3    C510184   2.172   2.735  16.050  0.5806 -0.1627 -0.0223
  685TMC3    C610185   2.122   2.800  15.943 -0.6745 -0.6865 -0.3955
  685TMC3     C10186   2.029   2.934  16.279 -0.2089  0.2976  0.5281
  685TMC3     O10187   2.053   2.885  16.389 -0.3209  0.1724 -0.2701
  685TMC3     H10188   1.847   2.940  16.082  0.2966  0.6291  0.0625
  685TMC3    H110189   2.159   2.724  16.262  1.6573 -1.1441 -0.2841
  685TMC3    H210190   2.173   2.777  15.851 -2.3500 -1.2545 -1.1825
  685TMC3    C710191   2.279   2.639  16.046 -0.6393 -1.3864  0.4837
  685TMC3    C810192   1.937   2.885  15.822  0.1393 -0.8663 -0.5229
  685TMC3    O110193   2.310   2.587  16.150  0.5019  0.1215 -0.2794
  685TMC3    O210194   1.956   2.796  15.739  0.0289  0.7546  0.8504
  686MPD2     C10195   3.227   2.269  15.251 -0.4998  0.6384 -0.4325
  686MPD2    C110196   3.163   2.380  15.300 -0.4527  0.0834 -0.1786
  686MPD2    C210197   3.232   2.479  15.372  0.6134 -0.6242  0.3251
  686MPD2    C310198   3.364   2.452  15.401 -0.4795 -0.3968 -0.2453
  686MPD2    C410199   3.427   2.342  15.354 -0.3850 -0.3471 -0.2803
  686MPD2    C510200   3.360   2.252  15.272  0.2877 -0.5345 -0.2190
  686MPD2     H10201   3.184   2.568  15.411  0.1064 -0.5951 -0.3666
  686MPD2    H110202   3.532   2.325  15.377  0.1404  2.5052 -0.5287
  686MPD2    H210203   3.182   2.188  15.194 -0.9685 -0.0666  0.9440
  686MPD2    H310204   3.409   2.163  15.235  1.9686  0.6625 -0.8570
  686MPD2     N10205   3.443   2.542  15.477  0.9640  0.2638  0.7560
  686MPD2    H510206   3.544   2.528  15.472  1.1630  0.8668  2.9646
  686MPD2    N110207   3.027   2.389  15.268  0.0407 -0.5502 -0.1357
  686MPD2    H710208   2.985   2.333  15.195  0.7093  0.2760 -1.1518
  687TMC3    C110209   3.494   2.723  15.618  0.0969  0.0169  1.2715
  687TMC3    C210210   3.506   2.858  15.603 -0.5972 -0.2640 -0.4535
  687TMC3    C310211   3.566   2.922  15.701 -0.2517 -0.4422  0.1479
  687TMC3    C410212   3.566   2.653  15.708 -0.0792 -0.2285 -0.3462
  687TMC3    C510213   3.641   2.725  15.798 -0.2458  0.3986  0.4164
  687TMC3    C610214   3.630   2.863  15.803 -0.1681 -0.9370 -0.0910
  687TMC3     C10215   3.394   2.652  15.542 -1.3555 -0.2268  0.8275
  687TMC3     O10216   3.295   2.721  15.505 -0.2355  0.5449 -0.3059
  687TMC3     H10217   3.454   2.900  15.519  1.2195  1.2285 -0.8220
  687TMC3    H110218   3.545   2.550  15.734  0.2275  0.0990  1.1820
  687TMC3    H210219   3.670   2.923  15.884 -2.3411 -0.2341  0.4741
  687TMC3    C710220   3.735   2.663  15.889 -0.3023  0.7189  0.0698
  687TMC3    C810221   3.606   3.055  15.665  0.5618 -0.4970  0.0811
  687TMC3    O110222   3.814   2.738  15.949  0.6524  0.6257  0.0187
  687TMC3    O210223   3.695   3.097  15.736  0.1769  0.6163 -0.0102
  688MPD2     C10224   2.653   1.703  17.184  0.7304  0.2080 -0.3836
  688MPD2    C110225   2.668   1.583  17.242  0.1155 -0.5306 -0.3286
  688MPD2    C210226   2.769   1.503  17.198  0.5235 -0.3123  0.5394
  688MPD2    C310227   2.869   1.544  17.109  0.1682  0.1911  0.3025
  688MPD2    C410228   2.865   1.677  17.060  0.3080  0.2473  0.0574
  688MPD2    C510229   2.756   1.747  17.103 -0.0565  0.7922 -0.2994
  688MPD2     H10230   2.786   1.407  17.246  4.0291  0.5421  1.0145
  688MPD2    H110231   2.939   1.723  16.997  0.5022 -0.0311  0.0809
  688MPD2    H210232   2.583   1.784  17.207  1.2471  0.6608 -0.4110
  688MPD2    H310233   2.762   1.847  17.062 -0.9626  1.5424  1.4021
  688MPD2     N10234   2.977   1.467  17.058 -0.6737  0.3029  0.4594
  688MPD2    H510235   3.033   1.526  16.997 -0.3166 -1.4531 -0.8860
  688MPD2    N110236   2.574   1.537  17.337  0.6558  0.5151  0.1923
  688MPD2    H710237   2.595   1.443  17.371  0.9582 -0.2138 -2.0323
  689TMC3    C110238   2.413   1.536  17.502 -0.3323  0.2320 -0.6258
  689TMC3    C210239   2.394   1.619  17.613 -0.6269 -0.1796 -0.0364
  689TMC3    C310240   2.368   1.544  17.727 -0.2204 -0.9220 -0.3742
  689TMC3    C410241   2.407   1.398  17.504  0.2684 -0.0411 -0.0769
  689TMC3    C510242   2.374   1.340  17.620 -0.1423 -0.0009  0.3999
  689TMC3    C610243   2.343   1.412  17.735  1.0365  0.0540  0.3146
  689TMC3     C10244   2.470   1.605  17.390  0.1678 -0.0969 -0.1388
  689TMC3     O10245   2.433   1.717  17.375 -0.1079 -0.0292 -0.5156
  689TMC3     H10246   2.412   1.725  17.604  0.4578 -0.3547  0.0471
  689TMC3    H110247   2.426   1.344  17.412  1.3095 -0.2451  0.2719
  689TMC3    H210248   2.320   1.350   0.070  0.1813 -1.9741 -1.3710
  689TMC3    C710249   2.344   1.198  17.633 -0.3565  0.2572  0.2566
  689TMC3    C810250   2.402   1.602   0.102  0.1360  0.4296 -0.7027
  689TMC3    O110251   2.360   1.142  17.742  0.7662  0.8183  0.1285
  689TMC3    O210252   2.436   1.524   0.191  0.5848 -0.3022 -0.0275
  690MPD2     C10253   0.450   3.710  15.665 -0.2913  0.2074  0.2361
  690MPD2    C110254   0.368   3.701  15.553 -0.0774 -0.4341  0.3180
  690MPD2    C210255   0.405   3.760  15.438 -0.1395 -0.4970 -0.0485
  690MPD2    C310256   0.516   3.834  15.426  0.4208  0.2566  0.2376
  690MPD2    C410257   0.583   3.871  15.543 -0.0215 -0.1802  0.2782
  690MPD2    C510258   0.549   3.802  15.656 -0.1685  0.0680  1.1935
  690MPD2     H10259   0.336   3.764  15.354 -1.1316  0.5286  0.8205
  690MPD2    H110260   0.659   3.948  15.546  0.0382 -0.2600  0.8748
  690MPD2    H210261   0.429   3.669  15.763  0.1926 -2.0475 -0.6027
  690MPD2    H310262   0.615   3.824  15.740  0.1591  0.7923  0.7430
  690MPD2     N10263   0.549   3.891  15.304  0.1291 -0.1970 -0.2015
  690MPD2    H510264   0.489   3.873  15.223  1.3548 -1.7366 -0.7728
  690MPD2    N110265   0.234   3.648  15.553 -0.7752  0.1490 -0.2950
  690MPD2    H710266   0.186   3.652  15.464  0.2505  1.3741 -0.7934
  691TMC3    C110267   0.043   3.523  15.645  0.6158  0.1995 -0.8166
  691TMC3    C210268   4.711   3.552  15.539  0.4840 -0.5826 -0.5499
  691TMC3    C310269   4.596   3.479  15.525 -0.0231 -0.0176 -0.8286
  691TMC3    C410270   0.007   3.424  15.738 -0.2833  0.2929  0.3373
  691TMC3    C510271   4.624   3.359  15.716  0.1380  0.5244  0.1474
  691TMC3    C610272   4.548   3.385  15.603 -0.1887  0.2817  0.6886
  691TMC3     C10273   0.188   3.573  15.659 -0.0714 -0.7820  0.5968
  691TMC3     O10274   0.255   3.522  15.749  0.1059 -0.3615  0.1098
  691TMC3     H10275   4.727   3.629  15.465 -0.1099  1.3332  1.3226
  691TMC3    H110276   0.059   3.422  15.834  0.3240 -2.5308 -0.0406
  691TMC3    H210277   4.450   3.342  15.586 -1.6041  3.9008 -0.3183
  691TMC3    C710278   4.569   3.279  15.820  0.6907 -0.4916  0.8435
  691TMC3    C810279   4.503   3.534  15.430  0.3695 -0.6684  0.0087
  691TMC3    O110280   4.622   3.273  15.930 -0.0390  0.2016  0.2361
  691TMC3    O210281   4.544   3.591  15.332  0.3680 -0.1957  0.6932
  692TMC3    C110282   1.480   4.702  15.674 -0.7546 -0.4810 -0.1664
  692TMC3    C210283   1.592   0.043  15.681 -1.0189 -0.1647  0.2349
  692TMC3    C310284   1.713   4.712  15.707 -0.0082 -0.0722 -0.1041
  692TMC3    C410285   1.476   4.567  15.711  0.3274  0.1879 -0.2125
  692TMC3    C510286   1.595   4.509  15.742 -0.9523 -0.1508 -0.0212
  692TMC3    C610287   1.712   4.574  15.740 -0.1689 -0.4221  0.5789
  692TMC3     C10288   1.352   0.018  15.655 -0.3458  0.0287  0.5920
  692TMC3     O10289   1.254   4.684  15.658 -0.2240 -0.5944 -0.5607
  692TMC3     H10290   1.588   0.136  15.627 -2.3856 -0.1592  0.3471
  692TMC3    H110291   1.385   4.509  15.717  0.5473 -0.0342  0.9149
  692TMC3    H210292   1.798   4.525  15.784 -0.2203 -0.1875  0.9365
  692TMC3    C710293   1.575   4.369  15.797  0.3910  0.3248  0.9718
  692TMC3    C810294   1.805   0.052  15.796 -0.8664 -0.3531  0.0973
  692TMC3    O110295   1.465   4.314  15.771  0.1997 -0.0607  0.1920
  692TMC3    O210296   1.875   4.723  15.868 -0.1428  0.6476  0.2046
  693MPD2     C10297   1.046   2.472  11.244 -0.5700  0.1323  0.6699
  693MPD2    C110298   1.046   2.415  11.113  1.0831 -0.5377  0.4877
  693MPD2    C210299   1.162   2.354  11.072  0.3463 -0.2846 -0.0144
  693MPD2    C310300   1.275   2.345  11.153  0.2920  0.2943  0.3902
  693MPD2    C410301   1.273   2.414  11.273 -0.5447  0.0275 -0.8753
  693MPD2    C510302   1.159   2.477  11.319 -0.2431 -0.0820  0.1663
  693MPD2     H10303   1.153   2.297  10.980 -0.2748 -0.6179  0.2529
  693MPD2    H110304   1.356   2.407  11.343 -0.2305  1.5689 -1.1183
  693MPD2    H210305   0.962   2.533  11.275 -1.1573 -0.3684  0.0532
  693MPD2    H310306   1.155   2.533  11.412 -1.9818  0.4853 -0.2619
  693MPD2     N10307   1.385   2.273  11.125  0.5486  0.6625  0.0088
  693MPD2    H510308   1.463   2.277  11.190  1.7328  1.4396 -1.4435
  693MPD2    N110309   0.919   2.410  11.054 -0.7046 -0.3526  0.4202
  693MPD2    H710310   0.847   2.464  11.101  1.5155 -0.1415  3.5871
  694TMC3    C110311   0.727   2.329  10.941  0.2823 -0.1361  0.2593
  694TMC3    C210312   0.673   2.237  10.856  0.0340 -0.1989  0.1848
  694TMC3    C310313   0.533   2.218  10.856  0.0866  0.2308  0.5466
  694TMC3    C410314   0.650   2.420  11.011  0.2170 -1.1352 -0.0045
  694TMC3    C510315   0.513   2.400  11.006 -0.3469 -0.7109 -0.1368
  694TMC3    C610316   0.451   2.297  10.938  0.2759  0.4783 -0.4663
  694TMC3     C10317   0.873   2.334  10.941 -0.1246  0.0503 -0.6154
  694TMC3     O10318   0.943   2.267  10.862  0.1166  0.5509  0.1525
  694TMC3     H10319   0.743   2.174  10.802  0.4089 -2.0250  2.8039
  694TMC3    H110320   0.686   2.500  11.074  1.5666 -0.3215 -1.8186
  694TMC3    H210321   0.343   2.289  10.939  0.4650 -2.2257 -2.4340
  694TMC3    C710322   0.451   2.439  11.132 -0.9936 -0.9896 -0.7171
  694TMC3    C810323   0.464   2.126  10.768 -0.5326  0.4133 -0.1820
  694TMC3    O110324   0.504   2.531  11.195  0.2367 -0.2214 -0.3678
  694TMC3    O210325   0.349   2.155  10.729 -0.7390  0.5133 -0.3135
  695MPD2     C10326   2.281   4.301  13.213  0.3774 -0.3542  0.6441
  695MPD2    C110327   2.218   4.310  13.340  0.2728 -0.3914 -0.0241
  695MPD2    C210328   2.083   4.341  13.353  0.6199  0.8319  0.0619
  695MPD2    C310329   2.014   4.371  13.240 -0.3499  0.7771 -0.3983
  695MPD2    C410330   2.067   4.349  13.116  0.1541  0.0811  0.1182
  695MPD2    C510331   2.199   4.315  13.098 -0.0196 -0.0121 -0.8543
  695MPD2     H10332   2.046   4.342  13.455  1.3180  0.7417  0.3219
  695MPD2    H110333   2.001   4.336  13.030  0.8937 -2.1837 -0.1005
  695MPD2    H210334   2.385   4.277  13.191  0.7748  0.6737  1.4258
  695MPD2    H310335   2.234   4.279  13.002 -0.5306 -1.3071 -0.5406
  695MPD2     N10336   1.882   4.421  13.253  0.2077 -0.4249  0.1384
  695MPD2    H510337   1.848   4.436  13.347  1.0741 -3.1940  0.8712
  695MPD2    N110338   2.285   4.289  13.465  0.3892 -0.0011  0.1142
  695MPD2    H710339   2.225   4.312  13.544  0.0410 -1.0077  0.1427
  696TMC3    C110340   1.687   4.534  13.202 -0.8743 -0.6647  0.5780
  696TMC3    C210341   1.620   4.468  13.298 -0.0603 -0.2770 -0.4022
  696TMC3    C310342   1.512   4.528  13.347  0.5286 -0.0838 -0.4828
  696TMC3    C410343   1.646   4.659  13.154 -0.8699  1.1551  0.5539
  696TMC3    C510344   1.547   4.722  13.221  0.5576  0.6687  0.0151
  696TMC3    C610345   1.467   4.651  13.314  0.1968  0.3398  0.0804
  696TMC3     C10346   1.810   4.483  13.152  0.0426  0.5421  0.7293
  696TMC3     O10347   1.845   4.516  13.037  0.3107  0.2944  0.2632
  696TMC3     H10348   1.636   4.367  13.333 -0.8362 -0.0879  0.4957
  696TMC3    H110349   1.706   4.706  13.077  1.5100 -1.8362  0.6041
  696TMC3    H210350   1.374   4.687  13.355 -0.0491  0.2524 -0.3974
  696TMC3    C710351   1.555   0.123  13.257  0.9681  0.0132 -0.9975
  696TMC3    C810352   1.514   4.530  13.494  0.0135 -0.1363  0.2009
  696TMC3    O110353   1.491   0.163  13.356  0.0320  0.1443  0.9095
  696TMC3    O210354   1.559   4.436  13.555 -0.5026  0.4722 -0.4739
  697MPD2     C10355   1.280   1.562  15.599  0.2341  0.6195  0.3068
  697MPD2    C110356   1.280   1.516  15.470 -0.2595  0.4880  0.7984
  697MPD2    C210357   1.336   1.600  15.373  0.7173  0.3212 -0.2348
  697MPD2    C310358   1.375   1.724  15.401 -0.3070  0.1061  0.0932
  697MPD2    C410359   1.379   1.768  15.530  0.1979  0.2623  0.2074
  697MPD2    C510360   1.333   1.686  15.630 -0.2803 -0.0167  0.1718
  697MPD2     H10361   1.325   1.566  15.270  0.4718  0.4193 -0.2408
  697MPD2    H110362   1.418   1.865  15.557 -1.1430  0.4039  1.6674
  697MPD2    H210363   1.219   1.519  15.678  0.7048 -0.3829  0.1180
  697MPD2    H310364   1.338   1.724  15.731  0.8647 -2.4073  1.0019
  697MPD2     N10365   1.409   1.806  15.287  0.0445  0.2284 -0.1151
  697MPD2    H510366   1.396   1.764  15.195 -0.7968 -2.2148  1.1322
  697MPD2    N110367   1.212   1.393  15.432  0.1859  0.2848  0.6621
  697MPD2    H710368   1.206   1.363  15.336 -0.8276 -0.9055  1.0906
  698TMC3    C110369   1.472   1.994  15.158 -0.0906  0.2112  0.1249
  698TMC3    C210370   1.490   2.127  15.166  0.9385 -0.0834  0.2638
  698TMC3    C310371   1.564   2.192  15.076  0.0255  0.4869 -0.3191
  698TMC3    C410372   1.540   1.916  15.065 -0.1765 -0.5771  0.2437
  698TMC3    C510373   1.625   1.984  14.980 -0.3697 -0.2791 -0.7493
  698TMC3    C610374   1.630   2.122  14.982  0.1464  0.0190  0.2542
  698TMC3     C10375   1.455   1.936  15.293 -0.8166  0.0942 -0.1967
  698TMC3     O10376   1.465   2.010  15.388  0.4663  0.2162  0.2715
  698TMC3     H10377   1.443   2.180  15.248  0.4952  1.9941 -1.3487
  698TMC3    H110378   1.537   1.808  15.062  1.0097 -0.6087  0.2929
  698TMC3    H210379   1.693   2.181  14.916  2.5409 -1.9088  0.8050
  698TMC3    C710380   1.623   1.939  14.843  0.3410 -0.0306  0.5752
  698TMC3    C810381   1.530   2.322  15.029  0.0704  0.4852  0.0597
  698TMC3    O110382   1.539   1.857  14.814 -0.5022  0.0090 -0.2747
  698TMC3    O210383   1.422   2.344  14.978 -0.5219 -0.0768  0.6436
  699TMC3    C110384   1.353   4.527  12.953  0.7715 -0.3507 -0.2395
  699TMC3    C210385   1.385   4.417  13.022  0.2215 -0.3701 -0.1241
  699TMC3    C310386   1.282   4.348  13.092  0.0894 -0.1873  0.1638
  699TMC3    C410387   1.226   4.583  12.958  0.0492 -0.2969 -0.0004
  699TMC3    C510388   1.125   4.505  13.011  0.2102 -0.6298 -0.5717
  699TMC3    C610389   1.155   4.392  13.081 -0.5778  0.3396  0.4528
  699TMC3     C10390   1.464   4.589  12.879 -0.2290  1.0599 -0.0484
  699TMC3     O10391   1.537   4.510  12.821 -0.5307  0.2973  0.0742
  699TMC3     H10392   1.491   4.400  13.036  0.3613  1.3461  0.8583
  699TMC3    H110393   1.193   4.667  12.899 -0.3791 -0.0212  0.6451
  699TMC3    H210394   1.082   4.338  13.140  0.7705 -0.2239  1.5854
  699TMC3    C710395   0.992   4.551  13.016 -0.4636  0.4398  0.5473
  699TMC3    C810396   1.317   4.268  13.204  0.8213 -0.2872 -0.1006
  699TMC3    O110397   0.967   4.672  13.028  0.3236 -0.2169 -0.0944
  699TMC3    O210398   1.233   4.271  13.298  0.0385 -0.2251 -0.1196
  700TMC3    C110399   0.645   1.907  17.044  0.4340 -0.1310 -0.3926
  700TMC3    C210400   0.762   1.876  16.970  0.0958  0.1101 -0.2119
  700TMC3    C310401   0.866   1.810  17.033  0.0759  0.2752 -0.4290
  700TMC3    C410402   0.641   1.876  17.178 -0.4841 -0.1823  0.1197
  700TMC3    C510403   0.753   1.823  17.231 -1.1920  0.0092  0.3739
  700TMC3    C610404   0.868   1.789  17.169  0.0950 -0.0908 -0.6010
  700TMC3     C10405   0.567   2.026  17.015 -0.2780  0.2469 -0.6528
  700TMC3     O10406   0.445   2.011  17.028  0.2754 -0.2911 -0.2632
  700TMC3     H10407   0.747   1.894  16.864 -1.8752 -2.6942 -0.3963
  700TMC3    H110408   0.555   1.918  17.230  0.7766  2.5066  0.0709
  700TMC3    H210409   0.952   1.752  17.226 -1.3338 -1.0473  0.8741
  700TMC3    C710410   0.776   1.853  17.371 -0.7736 -0.1599 -0.5377
  700TMC3    C810411   0.983   1.791  16.955 -1.0011 -0.4965  0.2285
  700TMC3    O110412   0.893   1.855  17.414 -0.6099  0.6628  0.2143
  700TMC3    O210413   0.963   1.785  16.835 -0.1386  0.3100 -0.3902
  701TMC3    C110414   0.369   0.980  15.224 -0.0915  0.0428  0.3286
  701TMC3    C210415   0.431   0.918  15.114  0.6319 -0.2159  0.1897
  701TMC3    C310416   0.567   0.906  15.121  0.1558 -0.3241 -0.0452
  701TMC3    C410417   0.443   1.030  15.326 -0.7733 -0.1579 -0.3887
  701TMC3    C510418   0.581   1.012  15.328 -0.4908 -0.2593 -0.0779
  701TMC3    C610419   0.642   0.948  15.225 -0.0633 -0.5643 -0.0608
  701TMC3     C10420   0.258   1.066  15.195  0.0190  0.6452  0.7432
  701TMC3     O10421   0.269   1.178  15.249  0.5414 -0.7663  0.5157
  701TMC3     H10422   0.380   0.904  15.019  1.0418 -0.5397  0.0180
  701TMC3    H110423   0.394   1.067  15.415 -2.0077  0.2037 -1.2068
  701TMC3    H210424   0.747   0.929  15.241  0.1593 -0.6233 -1.5571
  701TMC3    C710425   0.675   1.102  15.397  0.1228 -0.6393 -0.1795
  701TMC3    C810426   0.634   0.848  15.007  0.7055  0.0838 -0.5945
  701TMC3    O110427   0.790   1.108  15.354 -0.2188  0.2420  0.0436
  701TMC3    O210428   0.754   0.862  15.007 -0.0862  0.2899  0.6307
  702MPD2     C10429   0.367   3.047  10.438 -0.0808  1.4776 -0.1035
  702MPD2    C110430   0.257   3.128  10.469  0.2859  0.8853  0.8924
  702MPD2    C210431   0.245   3.259  10.416 -0.0248  0.1508  0.5186
  702MPD2    C310432   0.343   3.310  10.336 -0.3285 -0.6748 -0.5359
  702MPD2    C410433   0.449   3.228  10.302 -0.6948  0.3938  0.8442
  702MPD2    C510434   0.458   3.102  10.353 -0.2251 -0.3771  0.3778
  702MPD2     H10435   0.163   3.325  10.442 -0.1040 -0.1754  1.0894
  702MPD2    H110436   0.533   3.258  10.241 -0.1412 -0.7249  1.0586
  702MPD2    H210437   0.383   2.951  10.485  0.7183  1.6830  0.0254
  702MPD2    H310438   0.544   3.049  10.313 -0.3069  0.9729 -1.6326
  702MPD2     N10439   0.342   3.439  10.285  0.2831  0.1842 -0.1866
  702MPD2    H510440   0.427   3.464  10.235 -0.0395 -0.9645 -1.3126
  702MPD2    N110441   0.168   3.101  10.578  0.1791 -0.0773  1.2534
  702MPD2    H710442   0.089   3.163  10.595  0.0953  0.3505 -0.6483
  703TMC3    C110443   0.285   3.661  10.266  0.3320  0.5683  0.6293
  703TMC3    C210444   0.182   3.754  10.278  0.7423 -0.7009 -0.7133
  703TMC3    C310445   0.209   3.885  10.258  0.0068  0.1071  0.2460
  703TMC3    C410446   0.415   3.697  10.231  0.2806  0.0016  0.6769
  703TMC3    C510447   0.438   3.832  10.215 -0.7387  0.6904  0.1639
  703TMC3    C610448   0.339   3.928  10.222  1.1244 -0.1409 -0.1663
  703TMC3     C10449   0.237   3.527  10.297 -0.4281  0.1801 -0.2191
  703TMC3     O10450   0.116   3.512  10.320 -0.6589  0.2789 -0.6736
  703TMC3     H10451   0.080   3.720  10.293  0.4113  0.8200  0.4834
  703TMC3    H110452   0.488   3.618  10.219 -0.2273 -0.0728 -2.0051
  703TMC3    H210453   0.356   4.035  10.222 -0.2512  0.0756 -0.0224
  703TMC3    C710454   0.576   3.874  10.192 -0.8903 -0.0285 -0.0653
  703TMC3    C810455   0.122   3.999  10.287  1.1760  0.4091  0.6671
  703TMC3    O110456   0.594   3.985  10.145 -0.0163  0.6203 -1.0410
  703TMC3    O210457   0.149   4.100  10.226  0.2448  0.6157 -0.2225
  704TMC3    C110458   2.865   1.210  12.229  0.3012 -0.7353 -0.0538
  704TMC3    C210459   2.862   1.131  12.123  0.2265  0.4874 -0.4558
  704TMC3    C310460   2.911   1.004  12.135  0.7040 -0.1735 -0.4362
  704TMC3    C410461   2.906   1.163  12.355  0.0450  0.4050  0.7761
  704TMC3    C510462   2.943   1.030  12.363  0.3831 -1.2357  0.0937
  704TMC3    C610463   2.955   0.957  12.252  0.1607 -0.2344  0.1790
  704TMC3     C10464   2.785   1.331  12.233 -0.3233 -0.3866  0.8116
  704TMC3     O10465   2.736   1.355  12.343 -0.0493  0.1810  0.1748
  704TMC3     H10466   2.823   1.167  12.028 -0.2858 -0.2236 -0.5078
  704TMC3    H110467   2.872   1.210  12.446 -0.2670  0.3496  0.6869
  704TMC3    H210468   2.969   0.849  12.257 -1.4263 -0.4485 -0.0382
  704TMC3    C710469   2.918   0.955  12.479  0.7566  0.2949  0.2514
  704TMC3    C810470   2.850   0.906  12.053 -0.7188 -0.0245  0.0939
  704TMC3    O110471   2.852   0.852  12.475 -0.0647 -0.0426  0.1961
  704TMC3    O210472   2.794   0.823  12.120 -0.1074  0.1549 -0.6186
  705MPD2     C10473   1.884   4.414  16.582  0.3139 -0.6235  0.5438
  705MPD2    C110474   1.894   4.518  16.491 -0.2690 -0.3655  0.2487
  705MPD2    C210475   1.789   4.608  16.483  0.4608 -0.5719  0.0308
  705MPD2    C310476   1.673   4.595  16.560  0.1497 -0.2132 -0.6504
  705MPD2    C410477   1.664   4.492  16.651  0.2070 -0.4416  0.0098
  705MPD2    C510478   1.771   4.403  16.667  0.5374 -0.1798  0.2258
  705MPD2     H10479   1.797   4.695  16.419 -0.1497 -0.7222 -0.2518
  705MPD2    H110480   1.574   4.480  16.710  0.4812  0.0465  0.5287
  705MPD2    H210481   1.964   4.347  16.611  0.9551 -0.1389 -0.1040
  705MPD2    H310482   1.760   4.314  16.729 -1.9608 -0.4333 -0.5799
  705MPD2     N10483   1.550   4.670  16.540 -0.2313 -0.2193  0.1431
  705MPD2    H510484   1.464   4.640  16.585  0.1721 -1.9015 -0.2418
  705MPD2    N110485   2.007   4.535  16.407 -0.0243 -0.5902 -0.7261
  705MPD2    H710486   2.011   4.617  16.346  1.2715 -0.0120  0.1300
  706TMC3    C110487   2.312   4.368  16.109 -0.6938  0.0281 -0.3364
  706TMC3    C210488   2.306   4.485  16.037 -0.5536 -0.5267 -0.1444
  706TMC3    C310489   2.253   4.599  16.098 -0.1258  0.1970 -0.1598
  706TMC3    C410490   2.254   4.361  16.233  0.9385 -0.4017  0.2781
  706TMC3    C510491   2.192   4.473  16.281 -0.3654  0.0550  0.6805
  706TMC3    C610492   2.183   4.593  16.212  0.1840 -0.6778 -0.5164
  706TMC3     C10493   2.403   4.264  16.064  0.1243 -0.8376  0.1985
  706TMC3     O10494   2.462   4.201  16.148 -0.2852  0.0382  0.0969
  706TMC3     H10495   2.366   4.499  15.948 -0.5328 -3.6729 -0.6323
  706TMC3    H110496   2.277   4.272  16.291  2.0230  0.0429  0.5255
  706TMC3    H210497   2.149   4.682  16.264 -0.2250 -0.7640 -0.6346
  706TMC3    C710498   2.116   4.456  16.403  0.4408  0.6870  0.1738
  706TMC3    C810499   2.252   4.715  16.016 -0.1714  0.2524 -0.4293
  706TMC3    O110500   2.144   4.350  16.465  0.2491  0.1708  0.7433
  706TMC3    O210501   2.274   4.706  15.896  0.6506 -0.1876  0.0221
  707TMC3    C110502   4.121   2.975   1.330 -0.3627 -0.8173  0.4668
  707TMC3    C210503   4.210   2.917   1.418 -0.5410 -0.8680 -0.2326
  707TMC3    C310504   4.227   2.780   1.408  0.1503  0.2440  0.2656
  707TMC3    C410505   4.047   2.896   1.248 -0.3241 -0.4016  0.0025
  707TMC3    C510506   4.065   2.758   1.247 -0.4093  0.1547  0.2337
  707TMC3    C610507   4.161   2.698   1.321  0.1338 -0.3318  0.1311
  707TMC3     C10508   4.138   3.116   1.320  0.6557  0.7471  0.0653
  707TMC3     O10509   4.167   3.164   1.429 -0.1986 -0.3939 -0.0357
  707TMC3     H10510   4.272   2.976   1.485  2.2142 -2.4163 -1.4502
  707TMC3    H110511   3.990   2.940   1.167 -1.1090  0.9054  1.2512
  707TMC3    H210512   4.171   2.591   1.327 -0.9555 -0.4668 -0.4081
  707TMC3    C710513   4.004   2.672   1.144 -0.4757 -0.2902  0.0563
  707TMC3    C810514   4.341   2.736   1.492 -0.4355 -0.1233  0.4310
  707TMC3    O110515   4.061   2.565   1.136  0.0200 -0.2745  0.5376
  707TMC3    O210516   4.371   2.806   1.589 -0.0873  0.0834  0.3092
  708MPD2     C10517   0.591   3.209  13.431  0.0157 -0.0164 -0.1139
  708MPD2    C110518   0.541   3.104  13.503  0.0960  0.5950 -0.4622
  708MPD2    C210519   0.606   3.064  13.613 -0.3023  0.2725  0.1388
  708MPD2    C310520   0.726   3.110  13.654 -0.0736 -0.0491 -0.0641
  708MPD2    C410521   0.776   3.213  13.574  1.0520 -0.0708  0.5673
  708MPD2    C510522   0.716   3.260  13.462 -0.3644  0.2332  0.1345
  708MPD2     H10523   0.557   2.985  13.669  2.3478 -1.2693  0.2959
  708MPD2    H110524   0.861   3.270  13.611  1.5925  0.8733 -2.1608
  708MPD2    H210525   0.530   3.245  13.349  0.2057  0.9792  0.1876
  708MPD2    H310526   0.752   3.351  13.415 -0.9217  0.4180  0.0640
  708MPD2     N10527   0.785   3.095  13.780  1.3030 -0.0887 -0.0099
  708MPD2    H510528   0.873   3.141  13.800  0.3763  1.5808  0.2579
  708MPD2    N110529   0.413   3.067  13.466  0.1311 -0.0414 -0.2008
  708MPD2    H710530   0.375   3.087  13.374 -0.4021  1.5430  0.3644
  709TMC3    C110531   0.183   2.976  13.498 -0.6729 -0.2180 -0.1875
  709TMC3    C210532   0.170   2.902  13.385 -0.2082  0.4188  0.2890
  709TMC3    C310533   0.081   2.795  13.388  0.3773 -0.1837  0.9029
  709TMC3    C410534   0.098   2.959  13.603  0.0368  0.3715 -0.6034
  709TMC3    C510535   0.019   2.852  13.609  0.0568  0.1611 -0.1049
  709TMC3    C610536   0.006   2.770  13.497  0.7741  0.0094  0.1686
  709TMC3     C10537   0.321   3.009  13.550 -0.2267  0.0280 -0.7478
  709TMC3     O10538   0.328   3.002  13.669 -0.7137  0.3783 -0.3383
  709TMC3     H10539   0.259   2.909  13.323  0.3244  2.8366  1.3235
  709TMC3    H110540   0.097   3.027  13.687  1.5057 -1.0245  0.5595
  709TMC3    H210541   4.684   2.680  13.503  2.0438 -0.9155 -1.1076
  709TMC3    C710542   0.045   2.769  13.727  0.2571 -0.2956  0.2921
  709TMC3    C810543   0.107   2.684  13.300  0.2420 -1.1293 -0.3740
  709TMC3    O110544   4.715   2.674  13.748  0.5047  0.3576  0.0646
  709TMC3    O210545   0.072   2.575  13.340  0.0392  0.3142  0.1444
  710TMC3    C110546   1.091   3.925   0.224  0.8053  0.8103 -0.2030
  710TMC3    C210547   1.179   4.017   0.170 -0.3999 -0.1521 -0.2891
  710TMC3    C310548   1.281   3.957   0.093 -0.2083  0.2005  0.5943
  710TMC3    C410549   1.093   3.787   0.190  0.3371 -0.8059 -0.6401
  710TMC3    C510550   1.199   3.736   0.121  0.3887 -0.1000 -0.7548
  710TMC3    C610551   1.286   3.827   0.060  0.0692 -0.3281  0.4458
  710TMC3     C10552   1.005   3.953   0.335  0.5579 -1.1018  0.3687
  710TMC3     O10553   0.915   3.874   0.363  0.6015 -0.3964 -0.3488
  710TMC3     H10554   1.175   4.122   0.194 -2.3413 -0.0882 -0.9074
  710TMC3    H110555   1.036   3.709   0.239 -0.9717  0.2149 -0.5367
  710TMC3    H210556   1.369   3.798  17.748  0.7288  1.7167  0.3734
  710TMC3    C710557   1.259   3.623   0.190 -0.0914  0.5110  0.2049
  710TMC3    C810558   1.408   4.031   0.085 -0.1752  0.4716  0.0047
  710TMC3    O110559   1.225   3.594   0.305  0.0657 -0.5642 -0.3057
  710TMC3    O210560   1.460   4.040   0.194 -0.1450 -0.5305 -0.4513
  711TMC3    C110561   1.106   0.538  14.735  0.2856  0.1900  0.4772
  711TMC3    C210562   1.052   0.541  14.858 -0.2453 -0.1679  0.6731
  711TMC3    C310563   1.131   0.592  14.951  0.1295 -0.0845  0.6854
  711TMC3    C410564   1.233   0.565  14.708  0.1163  0.3288 -0.3819
  711TMC3    C510565   1.304   0.627  14.797 -0.6710 -0.7040 -0.0129
  711TMC3    C610566   1.250   0.646  14.924  0.1742 -0.6697  0.0576
  711TMC3     C10567   1.029   0.476  14.636 -0.0143 -0.4405 -0.6475
  711TMC3     O10568   0.940   0.396  14.669 -0.2950 -0.6661 -0.6202
  711TMC3     H10569   0.949   0.510  14.873  0.3895 -2.2535  0.7142
  711TMC3    H110570   1.260   0.553  14.603 -0.4092  2.4463 -0.7650
  711TMC3    H210571   1.305   0.701  14.998 -1.8786 -0.5928  1.5113
  711TMC3    C710572   1.431   0.558  14.801 -0.2265 -0.1282 -0.2961
  711TMC3    C810573   1.134   0.494  15.056  0.1616 -0.4769 -0.1598
  711TMC3    O110574   1.503   0.590  14.895 -0.2398 -0.3759  0.0996
  711TMC3    O210575   1.075   0.390  15.032  0.6310  0.1598  0.0377
  712MPD2     C10576   2.347   1.444  13.764 -0.2612  0.5089 -0.6447
  712MPD2    C110577   2.283   1.471  13.641 -0.6420 -0.3232 -0.4189
  712MPD2    C210578   2.325   1.587  13.575 -0.3876  0.7098  1.2017
  712MPD2    C310579   2.425   1.670  13.613 -0.1269 -0.0575  0.2622
  712MPD2    C410580   2.493   1.636  13.723  0.4916 -0.4305 -0.0528
  712MPD2    C510581   2.454   1.527  13.800 -0.0111 -0.3764 -0.6062
  712MPD2     H10582   2.272   1.616  13.485 -0.9694 -0.4392  1.1725
  712MPD2    H110583   2.572   1.693  13.773  1.6043 -2.7348  0.8029
  712MPD2    H210584   2.324   1.355  13.821 -0.7104  0.5709 -0.7270
  712MPD2    H310585   2.525   1.502  13.878  1.7788  0.7036 -1.9037
  712MPD2     N10586   2.462   1.790  13.549  0.3125 -0.2386  0.4734
  712MPD2    H510587   2.545   1.832  13.591  0.1113 -1.1691  1.7988
  712MPD2    N110588   2.172   1.399  13.602 -0.0109 -0.5877  0.3270
  712MPD2    H710589   2.116   1.370  13.682  0.4381 -0.2463  0.7650
  713TMC3    C110590   2.453   1.982  13.415 -0.5254 -0.3224  0.1119
  713TMC3    C210591   2.583   1.989  13.446 -0.0859  0.3707  0.2095
  713TMC3    C310592   2.634   2.117  13.439  0.0071 -0.6678  0.2561
  713TMC3    C410593   2.375   2.088  13.388  0.8276  0.0593  0.7942
  713TMC3    C510594   2.425   2.210  13.387 -0.8225  0.5090  0.9551
  713TMC3    C610595   2.557   2.225  13.406  0.1377 -0.6568  0.1759
  713TMC3     C10596   2.388   1.855  13.455 -0.4569 -0.4709 -0.2980
  713TMC3     O10597   2.275   1.831  13.419  0.4382  0.3616 -0.0415
  713TMC3     H10598   2.640   1.897  13.440  0.7716  0.8778  0.6390
  713TMC3    H110599   2.269   2.081  13.367  0.7970 -0.8515  1.2332
  713TMC3    H210600   2.607   2.321  13.400 -0.3153 -0.3005  2.1749
  713TMC3    C710601   2.336   2.323  13.380  0.0471 -0.3455  0.5234
  713TMC3    C810602   2.765   2.114  13.379  0.2676 -0.3627 -0.5459
  713TMC3    O110603   2.222   2.308  13.334 -0.5518 -0.0245  0.0616
  713TMC3    O210604   2.778   2.193  13.285 -0.3631 -0.2441 -0.1864
  714MPD2     C10605   0.710   0.012   1.342  0.5515 -0.1160 -0.5869
  714MPD2    C110606   0.633   4.674   1.265 -0.4587  0.0580 -0.0115
  714MPD2    C210607   0.525   4.733   1.203  0.5864 -0.7154 -0.1398
  714MPD2    C310608   0.486   0.132   1.210  0.3428 -0.0468  0.5580
  714MPD2    C410609   0.571   0.202   1.280 -0.3221 -0.5928 -0.3666
  714MPD2    C510610   0.678   0.144   1.353  0.2477  0.0663 -0.1713
  714MPD2     H10611   0.469   4.672   1.133  1.2981  0.5248 -1.7930
  714MPD2    H110612   0.569   0.310   1.282  1.0480 -0.5887  1.1513
  714MPD2    H210613   0.796   4.715   1.397  0.1134 -0.9855 -0.4613
  714MPD2    H310614   0.743   0.208   1.411 -0.3436 -1.2194  1.8966
  714MPD2     N10615   0.372   0.178   1.147  0.2509  0.0478  0.0823
  714MPD2    H510616   0.310   0.112   1.102  0.8457 -1.5048  1.5438
  714MPD2    N110617   0.667   4.541   1.257 -0.0578  0.0141 -0.2214
  714MPD2    H710618   0.756   4.517   1.300  0.1731  0.5785 -0.3849
  715TMC3    C110619   0.706   4.336   1.144  0.5195 -0.2073  0.4938
  715TMC3    C210620   0.652   4.225   1.089  0.1063  0.3038 -0.1029
  715TMC3    C310621   0.744   4.122   1.059 -0.9867 -0.0458  0.3965
  715TMC3    C410622   0.839   4.343   1.185  0.6292  0.0704  0.1877
  715TMC3    C510623   0.912   4.229   1.185 -0.3078 -0.4619 -0.1057
  715TMC3    C610624   0.869   4.116   1.119 -0.5603 -1.1765 -0.4929
  715TMC3     C10625   0.613   4.446   1.169 -0.3835 -0.6820  0.5105
  715TMC3     O10626   0.496   4.434   1.128  0.2564 -0.8535 -0.3150
  715TMC3     H10627   0.551   4.216   1.053  0.8313 -0.6096 -1.9192
  715TMC3    H110628   0.873   4.428   1.243 -0.4023 -1.6045  3.2066
  715TMC3    H210629   0.940   4.046   1.077 -1.1100 -1.3133 -1.1983
  715TMC3    C710630   1.041   4.229   1.256 -0.3345  0.4264 -0.9811
  715TMC3    C810631   0.691   4.000   1.008  0.7398  0.4604 -0.2332
  715TMC3    O110632   1.105   4.333   1.267  0.0290 -0.1958 -0.3754
  715TMC3    O210633   0.602   4.009   0.927  0.5444  0.5286 -0.4026
  716MPD2     C10634   4.297   4.187  10.224  0.0298  0.6942 -0.7937
  716MPD2    C110635   4.162   4.165  10.197 -0.1956  0.4169 -0.3721
  716MPD2    C210636   4.136   4.063  10.110 -0.2148 -0.3417  0.0399
  716MPD2    C310637   4.227   3.969  10.073  0.4729  1.0143  0.2224
  716MPD2    C410638   4.365   3.987  10.104  0.5663 -0.0690  0.7140
  716MPD2    C510639   4.391   4.102  10.176 -0.2424 -0.3643  0.4234
  716MPD2     H10640   4.033   4.046  10.081 -0.6648  1.4485  0.6281
  716MPD2    H110641   4.449   3.924  10.078 -0.3753 -1.0234 -0.0516
  716MPD2    H210642   4.334   4.265  10.289  0.4068 -0.0160 -0.1552
  716MPD2    H310643   4.493   4.126  10.201 -0.0322 -0.0549 -0.6952
  716MPD2     N10644   4.174   3.856  10.008  0.1697 -0.8979  0.6484
  716MPD2    H510645   4.073   3.856   9.995  0.1003 -2.8125  1.2002
  716MPD2    N110646   4.071   4.238  10.263 -0.3442 -0.7622  0.2675
  716MPD2    H710647   4.105   4.310  10.325 -1.3604  2.0547 -2.4281
  717TMC3    C110648   4.180   3.663   9.881 -0.0688  0.5508 -0.6133
  717TMC3    C210649   4.074   3.712   9.811  0.1856  0.5900 -0.1364
  717TMC3    C310650   3.991   3.614   9.758  0.4489  0.0429 -0.2448
  717TMC3    C410651   4.217   3.534   9.889  0.5495 -0.8825 -0.0812
  717TMC3    C510652   4.125   3.443   9.838  0.7102 -0.1243 -0.0372
  717TMC3    C610653   4.017   3.481   9.767  0.1478 -0.5444  0.3322
  717TMC3     C10654   4.248   3.743   9.977 -0.0603 -0.3077 -0.0916
  717TMC3     O10655   4.360   3.713  10.009  0.7400 -0.0963  0.1756
  717TMC3     H10656   4.057   3.818   9.795 -2.0767  0.5834  2.2681
  717TMC3    H110657   4.303   3.503   9.946 -0.7060 -0.9529  1.7635
  717TMC3    H210658   3.933   3.414   9.756 -0.6867  0.8755 -1.8930
  717TMC3    C710659   4.129   3.314   9.893 -0.3446 -0.9949  0.3402
  717TMC3    C810660   3.892   3.674   9.676  0.5999 -0.5501 -0.8142
  717TMC3    O110661   4.068   3.227   9.835 -0.0424  0.0156  0.1862
  717TMC3    O210662   3.862   3.791   9.696  0.0936  0.5038  0.0441
  718MPD2     C10663   4.028   1.687  13.001  0.6187  0.2089 -0.5462
  718MPD2    C110664   3.920   1.720  12.919  0.2886  0.1060  0.2309
  718MPD2    C210665   3.827   1.616  12.897 -0.9549  0.7673  0.2272
  718MPD2    C310666   3.842   1.491  12.954  0.1289 -0.0268 -0.0759
  718MPD2    C410667   3.949   1.464  13.038  0.0876 -0.0194 -0.5932
  718MPD2    C510668   4.043   1.562  13.061 -0.0278 -0.2195  0.3901
  718MPD2     H10669   3.747   1.634  12.825 -1.9280 -2.7911  0.4225
  718MPD2    H110670   3.968   1.368  13.086 -0.0404  0.4668  0.4241
  718MPD2    H210671   4.106   1.759  13.022 -0.6075  0.4982  2.9661
  718MPD2    H310672   4.132   1.548  13.121 -0.6028  1.4130  1.6214
  718MPD2     N10673   3.746   1.391  12.928  0.3743 -0.0309 -0.0237
  718MPD2    H510674   3.667   1.419  12.872  0.3436  0.2402  0.1575
  718MPD2    N110675   3.915   1.844  12.852 -0.5689 -0.4084  0.3135
  718MPD2    H710676   3.995   1.905  12.862  0.0144 -1.2894  1.0148
  719TMC3    C110677   3.836   1.995  12.686 -0.0062 -0.3959 -0.1855
  719TMC3    C210678   3.728   2.005  12.598  0.0895  0.4075 -0.0679
  719TMC3    C310679   3.751   2.005  12.465  1.0209  0.4284 -0.0921
  719TMC3    C410680   3.965   2.005  12.637 -0.7948 -0.2936  0.1252
  719TMC3    C510681   3.985   1.997  12.503 -0.1460 -0.2382  0.1477
  719TMC3    C610682   3.879   2.001  12.417 -0.5289 -0.4868  0.2297
  719TMC3     C10683   3.807   1.895  12.784  0.1568  0.1608  0.0634
  719TMC3     O10684   3.696   1.847  12.768  0.5101 -0.4243 -0.7513
  719TMC3     H10685   3.625   2.007  12.633  0.4099 -2.1085  1.0474
  719TMC3    H110686   4.044   2.018  12.711  0.4546 -0.8547 -1.1132
  719TMC3    H210687   3.891   2.004  12.310  0.7116  0.4315  0.4003
  719TMC3    C710688   4.100   2.057  12.447 -0.8409 -0.5317  0.0327
  719TMC3    C810689   3.668   1.911  12.396 -0.3669  0.0210 -0.2632
  719TMC3    O110690   4.093   2.102  12.332 -0.1316 -0.2914  0.1414
  719TMC3    O210691   3.661   1.915  12.272  0.2419  0.3355 -0.6311
  720MPD2     C10692   2.399   3.034  13.876 -0.4779  0.1501 -0.0841
  720MPD2    C110693   2.440   3.164  13.853  0.2974  0.9230  0.0111
  720MPD2    C210694   2.536   3.218  13.938  0.3487 -0.1450 -0.0126
  720MPD2    C310695   2.589   3.144  14.040  0.0454  0.1836 -0.2591
  720MPD2    C410696   2.551   3.018  14.061 -0.8686 -0.5883  0.1395
  720MPD2    C510697   2.443   2.966  13.992 -0.3108 -0.0889  0.5720
  720MPD2     H10698   2.568   3.321  13.920  1.0581  0.0129  2.0890
  720MPD2    H110699   2.588   2.945  14.131 -2.0432 -1.0619  0.2694
  720MPD2    H210700   2.338   2.984  13.801 -0.3622  1.9166 -1.3593
  720MPD2    H310701   2.419   2.860  13.994 -0.7320  0.0068  0.6184
  720MPD2     N10702   2.695   3.212  14.111  0.4693 -1.1305  0.3252
  720MPD2    H510703   2.727   3.306  14.088  1.0748 -1.2862  0.5437
  720MPD2    N110704   2.397   3.246  13.743 -0.1936 -0.2444 -0.3316
  720MPD2    H710705   2.423   3.344  13.741  2.5234 -0.9555  0.7941
  721TMC3    C110706   2.872   3.229  14.266 -0.5935 -0.3258 -0.5809
  721TMC3    C210707   2.834   3.353  14.314 -0.0257  0.0639  0.4543
  721TMC3    C310708   2.926   3.430  14.374  0.9124  0.0833 -0.3472
  721TMC3    C410709   2.995   3.181  14.286 -0.1258  0.6328 -0.5424
  721TMC3    C510710   3.090   3.261  14.343  0.1461 -0.0004  0.3453
  721TMC3    C610711   3.058   3.390  14.380  0.5719 -0.0662 -0.2519
  721TMC3     C10712   2.772   3.145  14.203  0.1351  0.5111 -0.0566
  721TMC3     O10713   2.798   3.025  14.219 -0.2128 -0.2841 -0.3370
  721TMC3     H10714   2.739   3.397  14.288 -1.4721 -1.4498  3.2053
  721TMC3    H110715   3.022   3.086  14.243 -2.0554 -0.1738  0.0125
  721TMC3    H210716   3.141   3.456  14.402  1.2295 -0.6928 -0.8600
  721TMC3    C710717   3.234   3.235  14.343  0.1388  0.2175  0.8305
  721TMC3    C810718   2.892   3.571  14.412 -0.2313  0.4899 -0.0605
  721TMC3    O110719   3.310   3.319  14.301 -0.1102 -0.3487 -0.2341
  721TMC3    O210720   2.783   3.617  14.381 -0.1397 -0.4526 -0.1250
  722MPD2     C10721   1.284   2.337  13.132  0.3876 -0.0810  0.5250
  722MPD2    C110722   1.316   2.460  13.077 -0.7948  0.0288  0.2242
  722MPD2    C210723   1.267   2.482  12.951 -0.7082  0.1685 -0.8514
  722MPD2    C310724   1.215   2.378  12.874  0.3160 -0.0749  0.2957
  722MPD2    C410725   1.189   2.255  12.932 -0.2070  0.2153 -1.0369
  722MPD2    C510726   1.213   2.238  13.063 -0.3815  1.2315  0.1244
  722MPD2     H10727   1.286   2.577  12.902 -2.4551  1.3101  0.7023
  722MPD2    H110728   1.138   2.175  12.879  1.4832 -0.8823 -0.9915
  722MPD2    H210729   1.316   2.321  13.234  0.6290  0.7306  0.5741
  722MPD2    H310730   1.194   2.140  13.105  0.9170  0.6590 -0.6409
  722MPD2     N10731   1.174   2.405  12.742 -0.2118 -0.1487 -0.5354
  722MPD2    H510732   1.187   2.501  12.710 -1.2559  0.4790  0.9314
  722MPD2    N110733   1.388   2.561  13.150  0.6617 -0.1501 -0.0982
  722MPD2    H710734   1.405   2.649  13.102 -3.1015  0.5011 -0.2268
  723TMC3    C110735   1.084   2.364  12.532  0.0792  0.1194 -0.1098
  723TMC3    C210736   1.048   2.264  12.443 -0.0383 -0.6367  0.3268
  723TMC3    C310737   0.969   2.299  12.337  0.6679  0.2257  0.6093
  723TMC3    C410738   1.029   2.492  12.527  0.0295  0.0367  0.2603
  723TMC3    C510739   0.939   2.513  12.421 -0.1149  0.5258  0.2577
  723TMC3    C610740   0.914   2.420  12.321 -0.4844 -0.3102  0.0422
  723TMC3     C10741   1.153   2.307  12.649 -0.6154 -0.3652  0.5305
  723TMC3     O10742   1.190   2.190  12.651 -0.2436  1.6226 -0.5132
  723TMC3     H10743   1.084   2.161  12.447 -0.9459 -0.9311  0.9026
  723TMC3    H110744   1.054   2.567  12.602 -2.3922 -0.7240  1.8388
  723TMC3    H210745   0.849   2.427  12.233 -3.3182 -3.8176  1.8606
  723TMC3    C710746   0.869   2.639  12.392 -0.4507 -0.4672 -0.0990
  723TMC3    C810747   0.876   2.198  12.299 -0.1969  0.3038 -0.6225
  723TMC3    O110748   0.819   2.655  12.279 -0.0436  0.1369 -0.0592
  723TMC3    O210749   0.826   2.202  12.188  0.4577  0.0495 -0.3283
  724TMC3    C110750   2.261   0.339  10.060  0.8380 -0.2746  0.1073
  724TMC3    C210751   2.206   0.337   9.933 -0.7976 -0.0681  0.4377
  724TMC3    C310752   2.274   0.414   9.839  0.5008  0.0059  0.4267
  724TMC3    C410753   2.374   0.402  10.096 -0.3110  0.1951  0.3225
  724TMC3    C510754   2.440   0.470   9.994 -0.4163  0.4344 -1.0064
  724TMC3    C610755   2.388   0.478   9.868  0.6983 -0.1669 -0.1905
  724TMC3     C10756   2.177   0.293  10.171  0.0319 -0.1210  0.1982
  724TMC3     O10757   2.207   0.333  10.280 -0.0543 -0.3300  0.5396
  724TMC3     H10758   2.102   0.315   9.915 -0.8371  0.9270 -0.5590
  724TMC3    H110759   2.421   0.376  10.190 -0.4193  0.6725  0.5114
  724TMC3    H210760   2.447   0.524   9.789 -0.4454 -0.4910 -1.2365
  724TMC3    C710761   2.556   0.548  10.020 -0.9006  0.2534  0.1000
  724TMC3    C810762   2.182   0.479   9.754 -0.2826  0.3375 -0.1665
  724TMC3    O110763   2.634   0.554   9.930 -0.3579  0.3965  0.2834
  724TMC3    O210764   2.106   0.413   9.686  0.0589  0.0154 -0.0663
  725TMC3    C110765   3.207   3.794  12.540 -0.3341 -0.0713 -0.7261
  725TMC3    C210766   3.217   3.778  12.409 -0.5755 -0.2052 -0.3018
  725TMC3    C310767   3.116   3.713  12.336  0.0099  0.4304  0.7468
  725TMC3    C410768   3.106   3.733  12.612 -0.1223 -0.5223 -0.3507
  725TMC3    C510769   3.021   3.667  12.537  0.0047  0.2714 -0.1891
  725TMC3    C610770   3.018   3.651  12.398  0.6174 -0.0640  0.2395
  725TMC3     C10771   3.331   3.825  12.605 -0.5684 -0.4690  0.0405
  725TMC3     O10772   3.330   3.922  12.675  0.1426  0.6510  0.3006
  725TMC3     H10773   3.303   3.820  12.358  1.1135 -1.4698  1.5173
  725TMC3    H110774   3.095   3.749  12.718 -2.3417  0.3179 -0.7089
  725TMC3    H210775   2.935   3.600  12.351  0.0495 -1.0685  2.3630
  725TMC3    C710776   2.899   3.629  12.601 -0.0086 -0.2560  0.8270
  725TMC3    C810777   3.142   3.669  12.204  0.2421 -0.8047 -0.1085
  725TMC3    O110778   2.841   3.724  12.653 -0.0441 -0.2466 -0.2044
  725TMC3    O210779   3.108   3.556  12.167 -0.5956  0.1729  0.2050
  726MPD2     C10780   1.303   0.490  10.420 -0.1790  1.1414  0.1351
  726MPD2    C110781   1.204   0.559  10.349  0.8685  0.6847  0.5103
  726MPD2    C210782   1.072   0.523  10.360  0.1229 -0.3216 -0.2259
  726MPD2    C310783   1.037   0.423  10.449 -0.5212  0.4006 -0.2714
  726MPD2    C410784   1.135   0.363  10.531  0.5210  0.3797  0.1410
  726MPD2    C510785   1.272   0.390  10.511 -0.0973 -0.1725  0.0935
  726MPD2     H10786   1.004   0.579  10.297  1.5047 -1.2271 -2.4994
  726MPD2    H110787   1.106   0.287  10.601  0.2602  0.1715 -0.1919
  726MPD2    H210788   1.404   0.516  10.389  0.6166 -1.9886  0.0988
  726MPD2    H310789   1.347   0.324  10.552  0.7786  0.4417 -0.5374
  726MPD2     N10790   0.903   0.390  10.467 -0.0472 -0.2285  0.4535
  726MPD2    H510791   0.886   0.309  10.525  2.5957 -0.5049  0.8402
  726MPD2    N110792   1.246   0.663  10.254 -0.3504  0.1581  0.1484
  726MPD2    H710793   1.341   0.695  10.241  0.2236 -1.2116  0.9847
  727TMC3    C110794   1.223   0.861  10.119  0.5887 -0.6526 -0.3413
  727TMC3    C210795   1.315   0.930  10.202  0.3147  0.2638  0.2464
  727TMC3    C310796   1.344   1.053  10.170 -0.1585  0.1294  1.3448
  727TMC3    C410797   1.153   0.926  10.024  0.2623  0.4149  0.3596
  727TMC3    C510798   1.191   1.051   9.994 -0.1349  0.1998 -0.0091
  727TMC3    C610799   1.280   1.123  10.069  0.5480 -0.0886 -0.3460
  727TMC3     C10800   1.163   0.734  10.171  0.5995 -0.3065 -0.2201
  727TMC3     O10801   1.054   0.703  10.125  0.2720  0.0260 -0.4330
  727TMC3     H10802   1.366   0.872  10.277 -0.1609  0.0258  0.3891
  727TMC3    H110803   1.065   0.882   9.979  2.3778 -0.1000 -3.2620
  727TMC3    H210804   1.316   1.220  10.039 -0.0114  0.1415 -0.2629
  727TMC3    C710805   1.095   1.142   9.929  0.2139 -0.5060 -0.0010
  727TMC3    C810806   1.424   1.123  10.266 -0.3134  0.8766  0.3692
  727TMC3    O110807   1.114   1.260   9.952 -0.1804  0.5733  0.3185
  727TMC3    O210808   1.494   1.064  10.345 -0.2113 -0.3950 -0.4617
  728TMC3    C110809   0.680   4.019  15.143 -0.7795  0.3527  0.2647
  728TMC3    C210810   0.805   4.045  15.095 -0.0313 -0.1934  0.0639
  728TMC3    C310811   0.810   4.113  14.976  0.1210  0.4307  0.2397
  728TMC3    C410812   0.564   4.050  15.075 -0.2932  0.6340 -0.3372
  728TMC3    C510813   0.578   4.115  14.954  0.5678 -0.2848 -0.1230
  728TMC3    C610814   0.697   4.157  14.904 -0.2982  0.2038  0.7300
  728TMC3     C10815   0.666   3.969  15.279 -0.4602  0.4850  0.5733
  728TMC3     O10816   0.766   3.991  15.347 -0.2644 -0.1413  0.2881
  728TMC3     H10817   0.895   4.016  15.148 -0.8097 -0.1509  1.3973
  728TMC3    H110818   0.464   4.042  15.115 -0.3901 -0.1616 -0.7394
  728TMC3    H210819   0.716   4.175  14.799  1.1879 -1.9409  0.6356
  728TMC3    C710820   0.462   4.111  14.865 -0.0977  0.4155 -0.2146
  728TMC3    C810821   0.933   4.188  14.951  0.0922 -0.1747 -0.0480
  728TMC3    O110822   0.357   4.067  14.909  0.1989  0.2196  0.2393
  728TMC3    O210823   1.031   4.142  15.007  0.1500 -0.4398  0.5015
  729MPD2     C10824   2.599   0.093  16.928 -0.4263  0.2474 -0.2674
  729MPD2    C110825   2.723   0.051  16.981  0.1095 -0.1457  0.3340
  729MPD2    C210826   2.743   0.049  17.118 -0.2532 -0.0045 -0.4186
  729MPD2    C310827   2.647   0.099  17.203  0.7008  0.1330  0.4810
  729MPD2    C410828   2.534   0.147  17.148 -0.4249  0.3779 -0.1383
  729MPD2    C510829   2.502   0.138  17.016  0.1045 -0.2893  0.0934
  729MPD2     H10830   2.844   0.021  17.144 -1.2070 -1.6673  1.4664
  729MPD2    H110831   2.451   0.171  17.213 -0.5502 -3.1932  1.0070
  729MPD2    H210832   2.588   0.112  16.822 -1.3980  1.9456  0.1377
  729MPD2    H310833   2.404   0.173  16.983 -0.2821 -1.5422 -0.1068
  729MPD2     N10834   2.667   0.127  17.341  0.2542  0.2411 -0.2268
  729MPD2    H510835   2.585   0.165  17.386  0.5723  1.9242 -1.0342
  729MPD2    N110836   2.826   0.023  16.885 -0.0544 -0.0773  0.7617
  729MPD2    H710837   2.792   0.038  16.791 -0.5249 -0.2161  0.9099
  730TMC3    C110838   2.801   0.204  17.517 -0.3528  0.7176  0.0516
  730TMC3    C210839   2.930   0.216  17.558 -0.5614  0.0981  0.0461
  730TMC3    C310840   2.981   0.338  17.587 -0.5509  0.4356  0.0369
  730TMC3    C410841   2.717   0.311  17.533  0.6908  0.1600  0.4895
  730TMC3    C510842   2.769   0.425  17.587 -0.1040 -0.0831 -0.3566
  730TMC3    C610843   2.906   0.448  17.618  0.5637  0.1374  0.2083
  730TMC3     C10844   2.789   0.124  17.396  0.6829  0.4073 -0.5564
  730TMC3     O10845   2.897   0.092  17.350  0.0917 -0.2877 -0.2736
  730TMC3     H10846   3.001   0.136  17.543 -1.2617 -0.6660  0.8148
  730TMC3    H110847   2.611   0.300  17.517  0.7612  1.1589 -0.6913
  730TMC3    H210848   2.954   0.543  17.636  1.3203 -0.4104  1.1495
  730TMC3    C710849   2.703   0.551  17.542 -0.4274 -0.0334  0.5070
  730TMC3    C810850   3.087   0.380  17.497 -0.8222  0.4779 -0.3519
  730TMC3    O110851   2.622   0.540  17.450  0.2585 -0.1846 -0.0180
  730TMC3    O210852   3.158   0.471  17.528 -0.2619  0.0997 -0.4755
  731MPD2     C10853   2.558   3.232  12.274  0.0178  0.0306  0.6223
  731MPD2    C110854   2.560   3.101  12.303 -0.3724 -0.6413  0.3548
  731MPD2    C210855   2.505   3.061  12.423  0.0283 -0.1117  1.0088
  731MPD2    C310856   2.453   3.151  12.515  0.8256  0.6248  0.7254
  731MPD2    C410857   2.453   3.282  12.483 -0.2739  0.3629 -0.0688
  731MPD2    C510858   2.512   3.322  12.364  0.3278  0.1463 -0.2363
  731MPD2     H10859   2.506   2.957  12.454 -2.4396  0.2912  2.3885
  731MPD2    H110860   2.409   3.366  12.535 -1.2502 -0.4123  0.3493
  731MPD2    H210861   2.598   3.281  12.186  0.0053 -0.5918  0.2756
  731MPD2    H310862   2.527   3.427  12.345 -3.5811  1.0017  1.3916
  731MPD2     N10863   2.395   3.095  12.632  0.2783  0.2005 -0.2194
  731MPD2    H510864   2.416   2.997  12.648  1.1333  0.3301 -0.5485
  731MPD2    N110865   2.621   3.012  12.203 -0.1549  0.8198 -0.2128
  731MPD2    H710866   2.676   3.055  12.129  0.7837  1.6805  0.9811
  732TMC3    C110867   2.634   2.810  12.080  0.6056  0.0467 -0.2526
  732TMC3    C210868   2.549   2.714  12.038  0.5942 -0.4473 -0.1976
  732TMC3    C310869   2.558   2.676  11.904 -0.7747  0.7629  0.5629
  732TMC3    C410870   2.727   2.858  11.996 -0.0244 -0.5735  0.7922
  732TMC3    C510871   2.729   2.816  11.867  0.0383 -1.3799 -0.3400
  732TMC3    C610872   2.645   2.724  11.813  0.1536  0.6831 -0.1452
  732TMC3     C10873   2.593   2.879  12.201 -0.0757  0.0012  0.0591
  732TMC3     O10874   2.512   2.821  12.275 -0.1927  0.0070  0.3552
  732TMC3     H10875   2.485   2.667  12.111 -1.0552  1.9644 -0.1313
  732TMC3    H110876   2.793   2.938  12.028 -1.6817  0.7493  0.8963
  732TMC3    H210877   2.650   2.685  11.712  0.9125  1.4825 -0.4106
  732TMC3    C710878   2.840   2.865  11.784  0.0943 -0.1718 -0.2892
  732TMC3    C810879   2.454   2.597  11.849 -0.2546  0.6116 -0.1628
  732TMC3    O110880   2.828   2.841  11.659 -0.7396 -0.8449 -0.4562
  732TMC3    O210881   2.462   2.569  11.732  0.5722  0.6969  0.2222
  733TMC3    C110882   3.401   1.153  12.934 -0.0002  0.2823  0.4917
  733TMC3    C210883   3.517   1.164  13.002  0.8681 -0.4763 -0.3862
  733TMC3    C310884   3.626   1.197  12.921  0.0150  0.6244 -0.1530
  733TMC3    C410885   3.395   1.165  12.795  0.5377 -0.4062 -0.1745
  733TMC3    C510886   3.505   1.174  12.726  0.1631  0.2375 -1.3824
  733TMC3    C610887   3.628   1.204  12.786  0.1758  0.3476 -0.8133
  733TMC3     C10888   3.284   1.227  12.995  0.4945  0.4878  0.1902
  733TMC3     O10889   3.227   1.301  12.918  0.0438 -0.3399  0.4187
  733TMC3     H10890   3.522   1.184  13.108 -2.8167 -0.6984 -0.1663
  733TMC3    H110891   3.300   1.139  12.749 -0.0964  2.8658 -0.7282
  733TMC3    H210892   3.708   1.244  12.724 -1.0199  3.4852 -0.3220
  733TMC3    C710893   3.480   1.238  12.599 -0.4854 -0.4461  1.1853
  733TMC3    C810894   3.737   1.263  12.979 -0.2383 -0.5469  0.2302
  733TMC3    O110895   3.416   1.170  12.516 -0.5104 -0.2470 -0.2976
  733TMC3    O210896   3.773   1.223  13.087  0.0840 -0.1595 -0.1237
  734MPD2     C10897   0.450   3.752  12.051  0.2548 -0.0502 -0.5577
  734MPD2    C110898   0.381   3.738  11.932  0.0572  0.0499  0.2597
  734MPD2    C210899   0.424   3.818  11.832 -0.0631  0.0428  0.4099
  734MPD2    C310900   0.534   3.896  11.840  0.1503 -0.1457 -0.0205
  734MPD2    C410901   0.593   3.920  11.962  0.4375 -0.5535 -0.1858
  734MPD2    C510902   0.553   3.838  12.069  0.3209  0.0826 -0.6144
  734MPD2     H10903   0.364   3.814  11.741  1.3718  0.5518 -0.5558
  734MPD2    H110904   0.686   3.976  11.969 -0.4475  0.7788  0.8799
  734MPD2    H210905   0.420   3.695  12.138 -0.7628 -0.2385 -1.0253
  734MPD2    H310906   0.603   3.848  12.164 -0.4420  0.1498 -0.2223
  734MPD2     N10907   0.572   3.966  11.720  0.0901  0.3270  0.3416
  734MPD2    H510908   0.512   3.945  11.641  0.2315 -3.8330  1.3605
  734MPD2    N110909   0.274   3.646  11.926 -0.4742  0.4448  0.5149
  734MPD2    H710910   0.262   3.588  12.008  0.0636  0.6939  0.7757
  735TMC3    C110911   0.161   3.464  11.826 -0.6449  0.2115 -0.1303
  735TMC3    C210912   0.128   3.429  11.693 -0.0607  0.0221 -0.3230
  735TMC3    C310913   0.186   3.322  11.630  0.3364 -0.3296  0.5025
  735TMC3    C410914   0.237   3.378  11.901  0.0439  0.5108 -0.8119
  735TMC3    C510915   0.285   3.266  11.840 -0.5763  0.5169 -0.4431
  735TMC3    C610916   0.259   3.234  11.713 -0.1543 -0.9721  0.0135
  735TMC3     C10917   0.215   3.599  11.811  0.0195 -0.2007  0.6026
  735TMC3     O10918   0.221   3.642  11.698 -0.5315 -0.2173 -0.3910
  735TMC3     H10919   0.059   3.487  11.632 -1.4491 -3.6291 -2.1824
  735TMC3    H110920   0.262   3.394  12.006  0.2247  0.9108 -0.9118
  735TMC3    H210921   0.319   3.163  11.657  0.9004  0.6735 -0.9364
  735TMC3    C710922   0.428   3.255  11.873 -0.4987  0.0420 -0.1955
  735TMC3    C810923   0.236   3.337  11.495 -0.0691  0.5964 -0.1764
  735TMC3    O110924   0.490   3.356  11.905  0.1291 -0.0061 -0.1405
  735TMC3    O210925   0.254   3.240  11.419  0.3210 -0.1169  0.2273
  736MPD2     C10926   0.589   2.936  11.940 -0.1633 -0.2566 -0.4889
  736MPD2    C110927   0.582   3.071  11.925 -0.2966 -0.1558 -0.4335
  736MPD2    C210928   0.697   3.144  11.950 -0.1745  0.9055  0.3255
  736MPD2    C310929   0.820   3.080  11.990  0.4294  0.0969 -0.5331
  736MPD2    C410930   0.822   2.940  12.016 -0.5708  0.4329  0.3953
  736MPD2    C510931   0.702   2.876  11.993 -0.0944  0.4962 -0.1508
  736MPD2     H10932   0.704   3.252  11.944 -1.9739  1.0880  1.3294
  736MPD2    H110933   0.910   2.886  12.048 -2.0516 -0.8681  2.3558
  736MPD2    H210934   0.504   2.871  11.927  1.3280 -2.2253 -0.4148
  736MPD2    H310935   0.701   2.767  11.991  0.9700  0.5460 -3.2733
  736MPD2     N10936   0.949   3.142  11.998  0.3638 -0.5143  0.2443
  736MPD2    H510937   1.031   3.086  12.019  0.8529  0.2040  0.2293
  736MPD2    N110938   0.458   3.126  11.877  0.6143 -0.2268  0.5024
  736MPD2    H710939   0.378   3.064  11.869  1.0046 -0.7502  0.6203
  737TMC3    C110940   1.112   3.296  11.971 -0.0336  0.6028 -0.2934
  737TMC3    C210941   1.159   3.418  12.005  0.1242  0.5403  0.2149
  737TMC3    C310942   1.280   3.454  11.952  0.4955 -0.1927 -0.3346
  737TMC3    C410943   1.172   3.223  11.880 -0.1401  0.7703  0.5155
  737TMC3    C510944   1.289   3.264  11.815  0.5099  0.3517  0.5304
  737TMC3    C610945   1.351   3.380  11.857 -0.0910  0.8437  0.1532
  737TMC3     C10946   0.971   3.278  11.991 -0.0990 -1.0706 -0.0261
  737TMC3     O10947   0.896   3.371  11.966 -0.0975  0.0132 -0.5120
  737TMC3     H10948   1.106   3.484  12.073 -0.3358 -1.0408  1.3917
  737TMC3    H110949   1.132   3.130  11.842 -0.6698  1.0504  0.3943
  737TMC3    H210950   1.434   3.419  11.800  0.7061  1.9621  2.1021
  737TMC3    C710951   1.368   3.163  11.743 -0.0986  0.6621 -0.1412
  737TMC3    C810952   1.308   3.596  11.949 -0.2902 -0.0682 -0.5381
  737TMC3    O110953   1.334   3.046  11.750  0.1749 -0.4410 -0.1185
  737TMC3    O210954   1.291   3.664  12.051  0.5911 -0.0559  0.0100
  738MPD2     C10955   1.546   2.583  14.904 -0.0334  0.0279 -0.0422
  738MPD2    C110956   1.642   2.529  14.988 -0.6008 -0.0132  0.1550
  738MPD2    C210957   1.738   2.614  15.041 -0.2338 -0.4489  0.1949
  738MPD2    C310958   1.741   2.752  15.012 -0.2541  0.1186  0.6235
  738MPD2    C410959   1.655   2.795  14.910  0.4002  0.0867  0.2896
  738MPD2    C510960   1.557   2.713  14.864 -0.0480  0.1377 -0.1021
  738MPD2     H10961   1.810   2.575  15.112 -1.5783 -0.3966  1.5888
  738MPD2    H110962   1.661   2.888  14.855 -2.1003 -0.0914 -0.2596
  738MPD2    H210963   1.469   2.528  14.852 -0.8052  0.4227  0.6856
  738MPD2    H310964   1.485   2.741  14.788  0.2411 -0.4754 -0.5996
  738MPD2     N10965   1.839   2.842  15.045  0.2242  0.5779 -0.4288
  738MPD2    H510966   1.843   2.934  15.003 -2.4028  1.6910  1.7564
  738MPD2    N110967   1.639   2.402  15.038 -0.2929 -0.0384 -0.2544
  738MPD2    H710968   1.720   2.376  15.094 -0.7077  0.5437  0.6091
  739TMC3    C110969   2.048   2.901  15.105 -0.0543 -0.4414 -0.3762
  739TMC3    C210970   2.071   2.939  14.972  0.0453  0.2813  1.0548
  739TMC3    C310971   2.175   3.021  14.943  0.4880 -0.2099 -0.1709
  739TMC3    C410972   2.127   2.952  15.209 -0.5386 -0.7257 -0.2244
  739TMC3    C510973   2.215   3.057  15.168  0.3834 -0.4882 -0.1939
  739TMC3    C610974   2.235   3.089  15.038 -0.3663  0.1352  0.0210
  739TMC3     C10975   1.941   2.814  15.134  0.1934 -0.1787 -1.1408
  739TMC3     O10976   1.954   2.725  15.219  0.0341 -0.1418  0.3081
  739TMC3     H10977   2.028   2.878  14.893  3.5367 -1.0344  0.2065
  739TMC3    H110978   2.106   2.929  15.313  1.1632 -2.0285 -0.1707
  739TMC3    H210979   2.311   3.162  15.013  0.8281 -1.0101  0.2689
  739TMC3    C710980   2.298   3.115  15.270  0.4444  0.1651  0.0964
  739TMC3    C810981   2.217   3.035  14.805  0.3632 -0.6686 -0.3481
  739TMC3    O110982   2.374   3.201  15.232 -0.7182 -0.0778  0.0693
  739TMC3    O210983   2.135   2.989  14.724  0.9849  0.1321 -0.6679
  740TMC3    C110984   2.052   4.180  14.282 -0.0797 -0.2685 -0.5189
  740TMC3    C210985   2.172   4.231  14.293 -0.2032  0.5579 -1.1519
  740TMC3    C310986   2.248   4.228  14.183  0.1669 -0.2362 -0.2043
  740TMC3    C410987   2.003   4.126  14.165  0.0836  0.3725 -0.8878
  740TMC3    C510988   2.086   4.115  14.061  0.4107 -1.0071  0.2462
  740TMC3    C610989   2.208   4.175  14.063 -0.1590 -0.0132  0.9077
  740TMC3     C10990   1.967   4.195  14.407  0.5864  0.4063  0.3225
  740TMC3     O10991   2.029   4.202  14.512 -0.4575  0.4692 -0.4858
  740TMC3     H10992   2.209   4.256  14.391 -0.1473 -0.0628 -1.0174
  740TMC3    H110993   1.902   4.090  14.150 -0.2736  0.1423  2.0613
  740TMC3    H210994   2.280   4.189  13.984 -1.5393  0.4018 -0.2651
  740TMC3    C710995   2.019   4.095  13.931  0.6891 -0.0887 -0.3760
  740TMC3    C810996   2.383   4.280  14.194  0.3882  0.0611  0.1649
  740TMC3    O110997   1.899   4.117  13.923 -0.1220  0.3062  0.1520
  740TMC3    O210998   2.477   4.221  14.135 -0.0159  0.4183 -0.4622
  741TMC3    C110999   2.150   3.525  14.387 -0.0127 -0.3791  0.6696
  741TMC3    C211000   2.035   3.451  14.391  0.3281 -0.6133 -0.1360
  741TMC3    C311001   1.995   3.393  14.510 -0.8566  0.0956  0.4377
  741TMC3    C411002   2.229   3.537  14.498  0.0823  0.9120 -0.2093
  741TMC3    C511003   2.192   3.457  14.609 -0.2869 -0.7280 -0.0996
  741TMC3    C611004   2.080   3.382  14.616  0.2557  0.4198  0.5966
  741TMC3     C11005   2.199   3.565  14.260 -0.0628  0.2531 -0.3016
  741TMC3     O11006   2.116   3.585  14.178 -0.2469 -0.0863  0.2360
  741TMC3     H11007   1.979   3.437  14.299  0.0147  0.3881 -0.0934
  741TMC3    H111008   2.306   3.613  14.497  1.3119 -0.3464 -0.2281
  741TMC3    H211009   2.039   3.335  14.705  1.6123 -0.8564  0.5500
  741TMC3    C711010   2.281   3.455  14.722  0.5469  0.1696  0.0956
  741TMC3    C811011   1.869   3.322  14.503  0.3621 -0.9704 -0.4299
  741TMC3    O111012   2.232   3.398  14.820 -0.2870  0.0999  0.2404
  741TMC3    O211013   1.780   3.359  14.424  0.1417 -0.1420  0.0360
  742TMC3    C111014   1.659   1.466  15.715 -0.0494 -0.1745  1.2278
  742TMC3    C211015   1.650   1.457  15.581  0.2032  0.7811 -0.8607
  742TMC3    C311016   1.727   1.533  15.503 -0.3714 -0.2823 -0.5137
  742TMC3    C411017   1.771   1.519  15.771 -1.0972  0.0443  0.5575
  742TMC3    C511018   1.866   1.579  15.684  0.2581 -0.0029  0.0434
  742TMC3    C611019   1.849   1.589  15.546  0.7817 -0.2954  0.1092
  742TMC3     C11020   1.575   1.385  15.808  0.8801 -0.0863 -0.0918
  742TMC3     O11021   1.569   1.408  15.930 -0.4547  0.4149  0.2249
  742TMC3     H11022   1.556   1.434  15.532 -1.1545 -0.5586  2.3528
  742TMC3    H111023   1.793   1.491  15.874  0.7644  0.0031  0.1626
  742TMC3    H211024   1.926   1.635  15.486 -2.0764  2.1846 -1.7015
  742TMC3    C711025   2.001   1.585  15.733  1.0077  0.0389  0.1022
  742TMC3    C811026   1.699   1.548  15.360  0.4517  0.7067 -0.0973
  742TMC3    O111027   2.094   1.590  15.649 -0.0167  0.1937  0.0071
  742TMC3    O211028   1.627   1.466  15.310  0.6145 -0.3050 -0.4672
  743MPD2     C11029   0.450   1.579   1.176  0.2470 -1.0705  0.3821
  743MPD2    C111030   0.451   1.716   1.175  0.6340  0.0066 -0.7696
  743MPD2    C211031   0.577   1.789   1.167 -0.4841 -0.1641  0.3443
  743MPD2    C311032   0.694   1.719   1.170 -0.1544  0.1023  0.1804
  743MPD2    C411033   0.688   1.579   1.157  0.5970 -0.2076 -0.1308
  743MPD2    C511034   0.565   1.512   1.169  0.1553  0.1240  0.0303
  743MPD2     H11035   0.577   1.897   1.165 -1.1029 -0.1379  2.0634
  743MPD2    H111036   0.778   1.520   1.141  1.9365  1.9582 -0.5903
  743MPD2    H211037   0.355   1.529   1.184 -0.1579 -0.8927 -3.2185
  743MPD2    H311038   0.563   1.403   1.163  0.8860  0.0078  1.9150
  743MPD2     N11039   0.817   1.790   1.170  0.2465 -0.1625 -0.0643
  743MPD2    H511040   0.799   1.890   1.168 -0.6878 -0.3451 -0.9538
  743MPD2    N111041   0.329   1.781   1.186  0.3711 -0.4343 -0.5615
  743MPD2    H711042   0.239   1.734   1.176  0.7149 -1.3910  0.9302
  744TMC3    C111043   0.182   1.969   1.183 -0.1147 -0.6989 -0.2717
  744TMC3    C211044   0.127   2.070   1.262 -0.1981 -0.0061  0.0302
  744TMC3    C311045   4.735   2.103   1.226 -0.6463 -0.3059 -0.4898
  744TMC3    C411046   0.137   1.920   1.066  0.3400 -0.0253 -0.0738
  744TMC3    C511047   0.012   1.961   1.031 -0.2772 -0.5888  0.0288
  744TMC3    C611048   4.684   2.049   1.115  0.5102 -0.2148 -1.0727
  744TMC3     C11049   0.314   1.916   1.221  0.1014  0.4255  1.2075
  744TMC3     O11050   0.391   1.991   1.280 -0.3646 -0.5885 -0.0237
  744TMC3     H11051   0.181   2.107   1.348 -0.7786 -1.0081  0.8328
  744TMC3    H111052   0.206   1.870   1.000 -0.8956 -1.9309  0.0919
  744TMC3    H211053   4.597   2.098   1.074 -0.4362  0.5063  1.8167
  744TMC3    C711054   4.689   1.942   0.898 -0.0300  0.0178  0.4290
  744TMC3    C811055   4.652   2.201   1.295 -0.4208 -0.1726  0.2601
  744TMC3    O111056   4.611   2.028   0.856 -0.7710 -0.4577  0.0202
  744TMC3    O211057   4.543   2.218   1.247  0.1044  0.1197 -0.0203
  745TMC3    C111058   1.968   1.412  13.481  0.2116  0.2185  0.3292
  745TMC3    C211059   1.927   1.490  13.583  0.7612 -0.2790 -0.2961
  745TMC3    C311060   1.874   1.611  13.557 -0.3955 -0.3364 -0.3075
  745TMC3    C411061   1.910   1.430  13.360 -0.2360 -0.6319 -0.2656
  745TMC3    C511062   1.830   1.535  13.339  0.0142  0.3285 -0.0641
  745TMC3    C611063   1.824   1.631  13.432 -0.2630  0.4316  0.3938
  745TMC3     C11064   2.112   1.418  13.480  0.2469  0.0550  0.1088
  745TMC3     O11065   2.162   1.462  13.378  0.3807  0.4948 -0.1006
  745TMC3     H11066   1.936   1.461  13.687  1.5521 -1.7639 -0.7930
  745TMC3    H111067   1.949   1.371  13.278  0.4729  0.0054 -0.3851
  745TMC3    H211068   1.772   1.721  13.404  0.1880  0.1790 -1.2260
  745TMC3    C711069   1.847   1.606  13.218 -0.0119  0.6982 -0.8984
  745TMC3    C811070   1.869   1.719  13.651 -0.5406 -0.4231  1.2707
  745TMC3    O111071   1.746   1.650  13.166 -0.1264 -0.2092 -0.0085
  745TMC3    O211072   1.810   1.817  13.616  0.0006 -0.3938 -0.2628
  746TMC3    C111073   4.733   3.113  10.951 -0.0878  0.1259 -0.2990
  746TMC3    C211074   0.089   3.098  10.851 -0.0623  0.3783 -0.5326
  746TMC3    C311075   0.086   2.989  10.773 -0.5426 -0.0837 -0.8467
  746TMC3    C411076   4.639   3.018  10.966  0.4677  0.0251  0.1205
  746TMC3    C511077   4.644   2.903  10.893 -0.7018  0.1261 -0.0013
  746TMC3    C611078   4.737   2.890  10.795 -0.2252  0.3831  0.0674
  746TMC3     C11079   4.722   3.230  11.031 -0.5695 -0.0639 -0.8806
  746TMC3     O11080   4.634   3.228  11.119 -0.4518 -0.4019 -0.3413
  746TMC3     H11081   0.177   3.160  10.850  0.4199 -0.2979  0.8272
  746TMC3    H111082   4.562   3.030  11.042  0.5592 -1.0953  0.3919
  746TMC3    H211083   0.004   2.803  10.731  0.7843  2.4720 -2.7068
  746TMC3    C711084   4.529   2.808  10.893 -0.0999  0.2840 -0.6306
  746TMC3    C811085   0.175   2.984  10.658 -0.2771  0.3170 -0.3999
  746TMC3    O111086   4.518   2.751  10.785  0.2793 -0.1760 -0.4430
  746TMC3    O211087   0.227   2.880  10.634 -0.1592  0.8020  0.3789
  747TMC3    C111088   1.907   3.288  10.947 -0.1238  0.2873 -0.6733
  747TMC3    C211089   1.830   3.315  11.057  0.1332 -0.1870  0.2831
  747TMC3    C311090   1.880   3.290  11.182  0.6827 -0.0415  0.7417
  747TMC3    C411091   2.035   3.240  10.964  0.3303 -0.1390  0.1938
  747TMC3    C511092   2.087   3.237  11.092 -0.8402  0.0257  0.0987
  747TMC3    C611093   2.008   3.253  11.201  0.1072  0.1577  0.5340
  747TMC3     C11094   1.871   3.335  10.814  0.5818  0.8883 -0.5004
  747TMC3     O11095   1.863   3.454  10.794 -0.3824 -0.4485  0.3785
  747TMC3     H11096   1.728   3.352  11.048  0.7364  0.7854 -2.5331
  747TMC3    H111097   2.099   3.224  10.878 -1.8453  1.1030 -1.6254
  747TMC3    H211098   2.038   3.249  11.306  0.2500 -1.7524  0.4111
  747TMC3    C711099   2.234   3.219  11.107  0.0611  0.3851 -0.1623
  747TMC3    C811100   1.781   3.239  11.274 -0.2146 -0.3917 -0.0278
  747TMC3    O111101   2.269   3.239  11.224  0.0323 -0.7741  0.2125
  747TMC3    O211102   1.664   3.252  11.236  0.1497 -0.3997  0.0769
  748MPD2     C11103   3.905   3.422   1.301 -0.8910 -0.1531  0.2926
  748MPD2    C111104   3.989   3.453   1.404  0.1407 -0.2697 -0.3913
  748MPD2    C211105   4.104   3.525   1.374  0.3006  0.1178  0.4928
  748MPD2    C311106   4.119   3.578   1.246 -0.0157  0.0130  0.0586
  748MPD2    C411107   4.020   3.563   1.156  0.2785 -0.5639 -0.3026
  748MPD2    C511108   3.914   3.480   1.180  0.3745 -0.6141 -0.9090
  748MPD2     H11109   4.178   3.554   1.449 -0.1890 -0.8682  1.3497
  748MPD2    H111110   4.018   3.617   1.062 -0.6801 -0.3587 -0.1658
  748MPD2    H211111   3.819   3.362   1.330 -1.2789 -0.6774 -1.9467
  748MPD2    H311112   3.842   3.452   1.105 -1.5324  2.2293 -0.1718
  748MPD2     N11113   4.232   3.662   1.226 -0.1894 -0.2441  0.1088
  748MPD2    H511114   4.290   3.696   1.303  1.8780 -1.2193 -1.0116
  748MPD2    N111115   3.977   3.387   1.531 -0.3822  0.3591 -0.0223
  748MPD2    H711116   3.904   3.319   1.546 -2.4268  2.1502 -1.8567
  749TMC3    C111117   4.382   3.786   1.124  0.2031 -1.1323  0.0887
  749TMC3    C211118   4.502   3.727   1.158  0.2975 -0.0354 -0.3185
  749TMC3    C311119   4.614   3.803   1.170 -0.2686  0.9380  0.6107
  749TMC3    C411120   4.384   3.915   1.068  0.3218  0.2084 -0.2791
  749TMC3    C511121   4.503   3.992   1.072  0.0658 -0.3573 -0.5123
  749TMC3    C611122   4.616   3.936   1.133 -0.6737  0.5068 -0.7992
  749TMC3     C11123   4.273   3.708   1.107 -0.0818  0.5564  0.1598
  749TMC3     O11124   4.238   3.682   0.993 -0.1232 -0.1479  0.6230
  749TMC3     H11125   4.488   3.627   1.197  0.4656  0.3575  0.7578
  749TMC3    H111126   4.288   3.946   1.027  1.4479  0.0174 -3.0574
  749TMC3    H211127   4.713   3.984   1.126  0.7439 -2.5907 -2.0941
  749TMC3    C711128   4.518   4.109   0.990 -0.1771 -0.2916  0.4951
  749TMC3    C811129   4.736   3.756   1.235  0.3137  0.0550 -0.8536
  749TMC3    O111130   4.628   4.163   0.981  0.5686 -0.4817  0.2695
  749TMC3    O211131   0.076   3.833   1.293 -0.0101 -0.7806 -0.4427
  750MPD2     C11132   0.212   0.504  11.518  0.4346 -0.2625 -0.2677
  750MPD2    C111133   0.105   0.428  11.567  0.2492 -0.2687 -0.1987
  750MPD2    C211134   0.080   0.309  11.499  0.9598 -0.1448  0.6670
  750MPD2    C311135   0.159   0.263  11.398  0.1848 -0.4092  0.2364
  750MPD2    C411136   0.273   0.335  11.369  0.0134 -0.0553 -0.3341
  750MPD2    C511137   0.296   0.454  11.422 -0.5610 -0.7124 -0.0801
  750MPD2     H11138   4.732   0.250  11.526  0.8822  0.3343  1.4622
  750MPD2    H111139   0.343   0.296  11.296 -0.6066 -2.5567  0.4262
  750MPD2    H211140   0.241   0.593  11.574  0.8539 -0.4418 -0.1998
  750MPD2    H311141   0.385   0.514  11.405 -0.5041 -0.7298  0.1508
  750MPD2     N11142   0.136   0.145  11.323  0.5849 -0.8683 -0.0082
  750MPD2    H511143   0.196   0.132  11.242  2.2978 -1.3256  1.3509
  750MPD2    N111144   0.039   0.486  11.682 -0.5108 -0.3888  0.6621
  750MPD2    H711145   0.058   0.584  11.701  0.4941 -0.3016 -0.8403
  751TMC3    C111146   0.044   4.668  11.294 -0.0059  0.1467  0.4773
  751TMC3    C211147   4.697   4.571  11.342  0.2447 -0.4814 -0.2222
  751TMC3    C311148   4.712   4.443  11.313 -0.1749  0.0797  0.2946
  751TMC3    C411149   0.129   4.644  11.190 -0.2194 -0.5117  0.0831
  751TMC3    C511150   0.141   4.509  11.155  0.3608  0.4997 -0.2222
  751TMC3    C611151   0.072   4.405  11.223  0.4448  0.3022 -0.3446
  751TMC3     C11152   0.057   0.047  11.371  0.0618  0.6020  0.2430
  751TMC3     O11153   0.006   0.042  11.479 -0.2461 -0.1078 -0.5117
  751TMC3     H11154   4.633   4.604  11.423 -0.8266  0.6849 -1.5423
  751TMC3    H111155   0.193   4.719  11.146 -2.1919  0.4276 -1.1746
  751TMC3    H211156   0.085   4.300  11.201  1.0702  0.7479 -2.1261
  751TMC3    C711157   0.223   4.462  11.042  0.7296  0.6536  0.4707
  751TMC3    C811158   4.606   4.341  11.327 -0.1268  0.0068  0.2523
  751TMC3    O111159   0.218   4.515  10.935 -0.3904 -0.8101  0.2414
  751TMC3    O211160   4.635   4.230  11.285 -0.0419 -0.1425 -0.0132
  752TMC3    C111161   3.466   0.263  17.585  0.0955  0.0701 -0.0828
  752TMC3    C211162   3.442   0.127  17.608  0.3711 -0.3402  0.1293
  752TMC3    C311163   3.373   0.090  17.718 -0.3085 -0.8854 -0.2818
  752TMC3    C411164   3.433   0.356  17.682  0.4104 -0.4151  0.5522
  752TMC3    C511165   3.353   0.315   0.038  0.0207  0.0534  0.3812
  752TMC3    C611166   3.322   0.182   0.056  0.4866  0.1606  0.8558
  752TMC3     C11167   3.515   0.309  17.455  0.6361  0.0056 -0.0757
  752TMC3     O11168   3.555   0.423  17.443  0.8354  0.6890  0.5647
  752TMC3     H11169   3.484   0.049  17.544  0.2288  1.6847 -2.4606
  752TMC3    H111170   3.432   0.458  17.645  0.1744  0.0356  1.8097
  752TMC3    H211171   3.262   0.136   0.134  0.2362  1.0226  1.1670
  752TMC3    C711172   3.272   0.413   0.102  0.2426 -0.2713  0.7477
  752TMC3    C811173   3.395   4.688   0.017  0.1162  0.1062 -0.3559
  752TMC3    O111174   3.324   0.524   0.123  0.0321 -1.0409  0.2359
  752TMC3    O211175   3.406   4.672   0.135  0.6525 -0.7199 -0.3542
  753TMC3    C111176   0.547   1.373  13.504 -0.9907  0.2898 -0.7579
  753TMC3    C211177   0.664   1.368  13.582  0.5290 -0.3287 -0.3374
  753TMC3    C311178   0.704   1.243  13.615  0.0224  0.1129  0.2384
  753TMC3    C411179   0.474   1.259  13.465  0.0215  0.1904  0.3175
  753TMC3    C511180   0.520   1.140  13.512  0.0858  0.4071 -0.6660
  753TMC3    C611181   0.632   1.128  13.586  0.4562 -0.3540 -0.0307
  753TMC3     C11182   0.501   1.499  13.445  0.2018 -0.0811 -0.3418
  753TMC3     O11183   0.403   1.502  13.370  0.2628 -0.2362 -0.1698
  753TMC3     H11184   0.729   1.451  13.602  0.2485 -0.9104  2.8679
  753TMC3    H111185   0.384   1.274  13.406  0.6033  2.3213 -0.0259
  753TMC3    H211186   0.673   1.032  13.617  1.1912 -0.6325 -1.8490
  753TMC3    C711187   0.439   1.024  13.462  0.2973 -0.1712  0.5394
  753TMC3    C811188   0.807   1.226  13.719  0.5841  0.1910  0.5478
  753TMC3    O111189   0.376   1.039  13.356 -0.0468 -0.4489 -0.4581
  753TMC3    O211190   0.818   1.115  13.764 -0.5045  0.2539  0.0493
  754MPD2     C11191   4.165   3.753  13.369 -0.2146 -0.2848 -0.0577
  754MPD2    C111192   4.119   3.877  13.405  0.0545 -0.6771 -0.3173
  754MPD2    C211193   4.129   3.983  13.314 -0.4952  0.0753 -0.2120
  754MPD2    C311194   4.185   3.964  13.189 -0.3232  0.3013 -0.7935
  754MPD2    C411195   4.235   3.843  13.154  0.0947 -0.3504  0.6134
  754MPD2    C511196   4.228   3.742  13.250 -0.1216  0.4959 -0.0095
  754MPD2     H11197   4.063   4.069  13.321 -0.2717  0.3379 -1.2629
  754MPD2    H111198   4.269   3.813  13.055 -0.2457  0.0020  0.3893
  754MPD2    H211199   4.162   3.668  13.436  2.5697 -1.1271 -1.0188
  754MPD2    H311200   4.276   3.647  13.228 -1.6193  0.0663 -1.4578
  754MPD2     N11201   4.166   4.054  13.085 -0.2071 -0.3473  0.3257
  754MPD2    H511202   4.182   4.024  12.990  1.6431  0.5443  0.3503
  754MPD2    N111203   4.040   3.890  13.523  0.6465  0.0767 -0.4957
  754MPD2    H711204   4.025   3.800  13.569 -1.1663  0.9199  0.5687
  755MPD2     C11205   3.772   0.161  13.300  0.0737  0.2197 -0.5017
  755MPD2    C111206   3.685   0.055  13.281 -0.1347 -0.1289 -0.8447
  755MPD2    C211207   3.719   4.689  13.200  0.5201  0.1825 -0.0893
  755MPD2    C311208   3.839   4.696  13.131  0.3115  0.2068  0.1567
  755MPD2    C411209   3.923   0.062  13.157 -0.3119 -0.1314  0.0998
  755MPD2    C511210   3.893   0.164  13.236  0.0204 -0.1978 -0.5642
  755MPD2     H11211   3.667   4.594  13.200  0.2778  0.3152  1.0283
  755MPD2    H111212   4.022   0.062  13.111 -0.2532  0.3543  0.2284
  755MPD2    H211213   3.750   0.227  13.384 -0.2226 -0.2984 -0.1754
  755MPD2    H311214   3.971   0.238  13.246 -1.8220  1.7011 -0.2359
  755MPD2     N11215   3.887   4.607  13.037  0.6392 -0.1564 -0.3452
  755MPD2    H511216   3.981   4.621  13.001  1.9260 -0.1259  2.9524
  755MPD2    N111217   3.557   0.045  13.343  0.2916 -0.0852  0.1220
  755MPD2    H711218   3.494   4.705  13.329  1.5029 -0.5614 -2.6140
  756MPD2     C11219   4.570   1.178   9.933 -0.0973 -0.3073  0.0491
  756MPD2    C111220   4.507   1.124  10.039  0.3385 -0.6935  0.0977
  756MPD2    C211221   4.371   1.089  10.021 -0.7977  0.3030 -0.2971
  756MPD2    C311222   4.296   1.116   9.913  0.4889  0.0786  0.3678
  756MPD2    C411223   4.366   1.185   9.809 -0.3773  0.3418  0.1718
  756MPD2    C511224   4.496   1.218   9.826  0.7974  0.3583 -0.3307
  756MPD2     H11225   4.332   1.029  10.102 -1.0567 -0.5417 -1.0410
  756MPD2    H111226   4.315   1.236   9.728  1.0633 -0.2385 -1.0907
  756MPD2    H211227   4.674   1.207   9.925 -0.4691  1.3843  1.3310
  756MPD2    H311228   4.540   1.289   9.757  0.6618  0.7653 -0.0005
  756MPD2     N11229   4.160   1.083   9.907 -0.5919  0.1771 -0.1464
  756MPD2    H511230   4.124   1.038   9.990 -1.0160 -0.0638 -0.4601
  756MPD2    N111231   4.570   1.101  10.164 -0.2196  0.4114  0.2142
  756MPD2    H711232   4.524   1.044  10.234  2.6237 -0.5059  1.3289
  757MPD2     C11233   3.460   0.517  10.285  0.4593  0.6783  0.6677
  757MPD2    C111234   3.450   0.488  10.154 -0.2203 -0.5263  0.1244
  757MPD2    C211235   3.528   0.564  10.068 -0.2085  0.2844 -0.2753
  757MPD2    C311236   3.611   0.663  10.116  0.2113 -1.0604  0.6719
  757MPD2    C411237   3.612   0.692  10.256 -0.2259  0.0173 -0.0574
  757MPD2    C511238   3.536   0.617  10.342 -1.0302  0.1701 -0.3643
  757MPD2     H11239   3.529   0.553   9.960  0.9991 -1.4578 -0.0905
  757MPD2    H111240   3.668   0.770  10.307  0.2568  1.1874 -2.3564
  757MPD2    H211241   3.386   0.475  10.353 -0.6458  1.0041 -0.3217
  757MPD2    H311242   3.530   0.652  10.444  0.7812 -1.4045  0.2866
  757MPD2     N11243   3.673   0.750  10.025  0.3294  0.2392 -0.3197
  757MPD2    H511244   3.651   0.743   9.926  1.2120  0.8620 -0.5631
  757MPD2    N111245   3.373   0.380  10.108 -0.3656 -0.1771  0.2466
  757MPD2    H711246   3.317   0.324  10.173  0.4617 -0.5710  0.6205
  758MPD2     C11247   4.282   4.183  15.635 -0.1410 -0.2180  0.5778
  758MPD2    C111248   4.348   4.108  15.725 -0.5430 -0.3942 -0.4806
  758MPD2    C211249   4.307   4.113  15.860  0.6088  0.3866  0.2734
  758MPD2    C311250   4.206   4.195  15.903 -0.4482 -0.1122 -0.0302
  758MPD2    C411251   4.139   4.257  15.807  0.4993  0.1856  0.5827
  758MPD2    C511252   4.172   4.260  15.673 -0.3500 -0.1797  0.0709
  758MPD2     H11253   4.368   4.054  15.928  0.0696 -0.4305  0.0424
  758MPD2    H111254   4.055   4.319  15.836 -0.9450 -1.8849  0.8046
  758MPD2    H211255   4.317   4.191  15.532  0.0209  0.0904  0.6595
  758MPD2    H311256   4.136   4.323  15.593 -1.1266  0.1089  0.6461
  758MPD2     N11257   4.168   4.208  16.041 -0.5793  0.1999 -0.2925
  758MPD2    H511258   4.106   4.284  16.068  0.7198  1.2948 -0.4242
  758MPD2    N111259   4.452   4.036  15.675 -0.1486 -0.0485 -0.0105
  758MPD2    H711260   4.475   4.044  15.576  0.4333  3.4591  0.4203
  759MPD2     C11261   2.127   3.453  10.537  0.4871  0.7616  0.4796
  759MPD2    C111262   2.149   3.357  10.435  0.4032  0.8826 -0.3777
  759MPD2    C211263   2.121   3.396  10.303  0.8458  0.0838  0.3877
  759MPD2    C311264   2.115   3.530  10.271 -0.1204 -0.1208  0.5910
  759MPD2    C411265   2.113   3.627  10.371  0.3702  1.0782 -0.1904
  759MPD2    C511266   2.119   3.590  10.501  0.2926 -0.1199  0.6966
  759MPD2     H11267   2.110   3.324  10.223  2.3733 -0.2765  0.4856
  759MPD2    H111268   2.118   3.733  10.349 -0.3159  1.0623 -0.4221
  759MPD2    H211269   2.127   3.431  10.643  0.5495 -0.9252  0.1161
  759MPD2    H311270   2.111   3.659  10.584 -1.3203  0.8988 -0.3113
  759MPD2     N11271   2.110   3.571  10.131 -0.6089  0.2199 -0.3986
  759MPD2    H511272   2.150   3.498  10.072 -1.4688  0.4819 -1.3091
  759MPD2    N111273   2.171   3.221  10.465 -0.0146 -0.1214  0.5967
  759MPD2    H711274   2.169   3.159  10.384 -0.9373 -0.4548  0.8751
  760MPD2     C11275   3.021   4.653  12.046  0.3333 -0.0149  0.0147
  760MPD2    C111276   3.035   4.714  11.919 -0.1172  0.5560  0.1269
  760MPD2    C211277   3.102   4.644  11.818  0.2765 -0.3506  0.1066
  760MPD2    C311278   3.158   4.518  11.843 -0.1193 -0.5306  0.7435
  760MPD2    C411279   3.130   4.454  11.963  0.9012 -0.6714 -0.1927
  760MPD2    C511280   3.068   4.525  12.061  0.0580  0.6054 -0.2315
  760MPD2     H11281   3.113   4.683  11.718 -0.3519  0.5056  0.3706
  760MPD2    H111282   3.170   4.355  11.984 -1.5686 -1.0990  2.3838
  760MPD2    H211283   2.987   4.709  12.133 -0.6602  1.6555 -1.4517
  760MPD2    H311284   3.058   4.477  12.158 -1.0522  0.6786 -0.3145
  760MPD2     N11285   3.232   4.440  11.756 -0.1498 -0.7045 -0.1790
  760MPD2    H511286   3.259   4.347  11.787  0.8407  0.0148  1.1634
  760MPD2    N111287   3.003   0.108  11.887 -0.2140  0.1340  0.3398
  760MPD2    H711288   3.057   0.145  11.810 -0.8736  0.1309 -0.1257
  761MPD2     C11289   4.168   4.129  11.425 -0.1077 -0.0325 -0.3426
  761MPD2    C111290   4.244   4.127  11.311  0.3153 -0.2939  0.0794
  761MPD2    C211291   4.355   4.209  11.307 -0.6708  0.7317 -0.4247
  761MPD2    C311292   4.376   4.303  11.412 -0.0174 -0.2943  0.3989
  761MPD2    C411293   4.280   4.318  11.508  0.3062 -0.4659  0.1253
  761MPD2    C511294   4.184   4.229  11.514  0.9146 -0.3778  0.2387
  761MPD2     H11295   4.429   4.206  11.227  1.4786 -1.9082  1.6204
  761MPD2    H111296   4.291   4.394  11.584 -2.3375  0.9240 -0.9222
  761MPD2    H211297   4.077   4.071  11.420  0.0811 -0.4295  1.0337
  761MPD2    H311298   4.114   4.235  11.596 -0.2962  3.1290 -1.0615
  761MPD2     N11299   4.493   4.383  11.404 -0.0992 -0.3748 -0.1051
  761MPD2    H511300   4.490   4.466  11.462  0.3685  0.0389 -0.6645
  761MPD2    N111301   4.221   4.038  11.200  0.9431  0.0810 -0.4220
  761MPD2    H711302   4.160   3.958  11.216  2.4988 -1.2371 -1.1357
  762MPD2     C11303   4.462   4.216  10.515 -0.3101 -0.0080 -0.4194
  762MPD2    C111304   4.454   4.079  10.534 -0.1655 -0.3202 -0.1489
  762MPD2    C211305   4.550   3.998  10.480  0.7058 -0.8336  0.0828
  762MPD2    C311306   4.655   4.051  10.413 -0.2297 -0.4776 -0.0066
  762MPD2    C411307   4.677   4.184  10.405  0.1096  0.1551  0.3926
  762MPD2    C511308   4.577   4.268  10.457  0.3057 -0.0526 -0.7811
  762MPD2     H11309   4.540   3.891  10.474 -1.3361 -0.6486  0.1134
  762MPD2    H111310   0.026   4.237  10.369 -1.6219  2.7567  0.0513
  762MPD2    H211311   4.387   4.283  10.557  0.7299 -0.2008  1.7379
  762MPD2    H311312   4.578   4.376  10.460  2.4201 -0.1662  2.7455
  762MPD2     N11313   0.008   3.962  10.355 -0.2825  0.1290 -0.0354
  762MPD2    H511314   4.717   3.867  10.373 -1.1270  0.3207 -0.3397
  762MPD2    N111315   4.344   4.026  10.603  0.6029  0.5034  0.1424
  762MPD2    H711316   4.276   4.086  10.649  0.7823  0.5488  0.3466
  763MPD2     C11317   1.451   4.720  16.063  0.3127  0.4272 -0.0158
  763MPD2    C111318   1.319   0.009  16.033  0.0214  0.2337 -0.0327
  763MPD2    C211319   1.268   0.138  16.033  0.8916  0.2313 -0.1535
  763MPD2    C311320   1.361   0.243  16.039  0.4015  0.2685 -0.0493
  763MPD2    C411321   1.492   0.218  16.064  0.0208 -0.5081  0.4987
  763MPD2    C511322   1.538   0.088  16.068 -0.1164  0.1025  0.1395
  763MPD2     H11323   1.160   0.152  16.028  1.2960  2.5072 -2.0923
  763MPD2    H111324   1.562   0.297  16.087 -0.1664 -0.2541  0.2030
  763MPD2    H211325   1.498   4.624  16.078 -2.7469 -0.7756  1.8533
  763MPD2    H311326   1.633   0.068  16.117  0.8519  3.0545 -0.5176
  763MPD2     N11327   1.330   0.374  16.019  0.6892 -0.2270  0.5776
  763MPD2    H511328   1.407   0.441  16.012 -0.5605  1.3299  1.7046
  763MPD2    N111329   1.229   4.646  16.004 -0.4257 -0.1143 -0.0858
  763MPD2    H711330   1.134   4.674  15.982 -0.6187 -0.4809  0.2848
  764MPD2     C11331   4.497   1.262  17.303 -0.9004  0.5292 -0.6715
  764MPD2    C111332   4.376   1.189  17.320 -0.6370 -0.6813  0.2267
  764MPD2    C211333   4.336   1.150  17.449 -0.1081  0.1536  0.3715
  764MPD2    C311334   4.422   1.170  17.561  0.1436  0.4052  0.6311
  764MPD2    C411335   4.539   1.230  17.544 -0.2352  0.0072  0.0144
  764MPD2    C511336   4.576   1.266  17.415 -0.5251  0.0384 -0.2426
  764MPD2     H11337   4.245   1.091  17.459 -0.2103  0.3010  0.3213
  764MPD2    H111338   4.600   1.263  17.627 -0.5604  0.2027  0.1765
  764MPD2    H211339   4.533   1.297  17.206 -2.2161 -0.7918 -1.6362
  764MPD2    H311340   4.678   1.303  17.410 -1.0507  1.2681 -1.6052
  764MPD2     N11341   4.380   1.117  17.685 -0.4685 -0.4867  0.8968
  764MPD2    H511342   4.287   1.076  17.694 -1.2744  1.0425 -0.3113
  764MPD2    N111343   4.290   1.166  17.207 -0.2559  0.6630 -0.2204
  764MPD2    H711344   4.217   1.095  17.216 -0.9326  1.6420  2.0320
  765MPD2     C11345   4.069   3.791  15.360 -0.6807 -0.3382  0.5009
  765MPD2    C111346   4.072   3.754  15.495  0.2590 -0.2080 -0.5786
  765MPD2    C211347   4.170   3.663  15.535 -0.3106  0.2771 -0.2655
  765MPD2    C311348   4.273   3.619  15.448 -0.6803  0.2486  0.4550
  765MPD2    C411349   4.260   3.654  15.310 -0.1722 -0.9923  0.5511
  765MPD2    C511350   4.154   3.731  15.268  0.2418  0.1509  0.0188
  765MPD2     H11351   4.162   3.636  15.640 -0.0168  1.5671  0.0880
  765MPD2    H111352   4.332   3.623  15.236 -1.0268  0.5565 -0.9407
  765MPD2    H211353   3.994   3.860  15.324  0.3436 -0.5912 -2.0863
  765MPD2    H311354   4.146   3.757  15.163  0.8140  2.1536  0.4660
  765MPD2     N11355   4.383   3.550  15.497  0.6220 -0.3766 -0.3843
  765MPD2    H511356   4.390   3.524  15.595  1.6612  1.9019  0.1486
  765MPD2    N111357   3.967   3.809  15.572  0.0264  0.0577 -0.1133
  765MPD2    H711358   3.903   3.876  15.530  0.1476  0.1456 -0.1572
  766MPD2     C11359   3.256   4.024  15.447 -0.2206  0.3674 -0.2444
  766MPD2    C111360   3.371   3.954  15.470  0.0249  0.9991 -0.1559
  766MPD2    C211361   3.452   3.915  15.362 -0.0391 -0.5707 -0.2413
  766MPD2    C311362   3.428   3.963  15.235  0.1305 -0.0237 -0.6846
  766MPD2    C411363   3.317   4.042  15.211 -0.6876 -0.7048 -0.0739
  766MPD2    C511364   3.233   4.068  15.317  0.5919 -0.0285  0.2096
  766MPD2     H11365   3.545   3.863  15.378  1.9454  2.5759 -1.3934
  766MPD2    H111366   3.298   4.078  15.111  0.8816  0.2929 -0.0001
  766MPD2    H211367   3.183   4.039  15.526 -1.7976  0.8213 -1.7759
  766MPD2    H311368   3.146   4.129  15.300  0.7583 -0.1989 -1.2142
  766MPD2     N11369   3.519   3.941  15.132 -0.3121  0.1876  0.7382
  766MPD2    H511370   3.512   3.985  15.040 -1.7247  1.7124  1.5837
  766MPD2    N111371   3.403   3.911  15.604  0.1190  0.3762  0.6500
  766MPD2    H711372   3.361   3.972  15.673  0.8805  0.1800  1.2840
  767MPD2     C11373   3.261   4.424  14.790 -0.1129  0.0914 -0.5628
  767MPD2    C111374   3.352   4.330  14.826 -0.7453 -0.4945 -0.7002
  767MPD2    C211375   3.354   4.205  14.763  0.6169  0.2831  0.2399
  767MPD2    C311376   3.258   4.180  14.673  0.5320 -0.6971  0.5905
  767MPD2    C411377   3.158   4.269  14.644  0.2591 -0.2806  0.5853
  767MPD2    C511378   3.168   4.391  14.701 -0.1204  0.5673 -0.3016
  767MPD2     H11379   3.435   4.135  14.778 -0.1358 -0.3817  1.1961
  767MPD2    H111380   3.071   4.248  14.583  1.3318 -0.1667 -0.9825
  767MPD2    H211381   3.254   4.521  14.837  2.4668  1.0574 -2.1601
  767MPD2    H311382   3.083   4.458  14.694 -0.2059  0.4928  0.0513
  767MPD2     N11383   3.254   4.048  14.607 -0.1469 -0.1599 -0.2891
  767MPD2    H511384   3.339   3.995  14.620 -0.8191 -1.4039 -0.9933
  767MPD2    N111385   3.445   4.375  14.930  0.2107  0.4955  0.3167
  767MPD2    H711386   3.450   4.471  14.963  2.5055  0.2815  0.5678
  768MPD2     C11387   4.219   2.557  10.301  0.0855 -0.8850 -0.3450
  768MPD2    C111388   4.185   2.506  10.422 -0.5342 -0.2948 -0.4302
  768MPD2    C211389   4.280   2.476  10.520  0.5416 -0.1244  0.1061
  768MPD2    C311390   4.412   2.491  10.498  0.0554  0.3730 -0.2231
  768MPD2    C411391   4.437   2.547  10.376  1.6012 -0.4571  0.6611
  768MPD2    C511392   4.350   2.566  10.280  0.0353  0.0327  0.0825
  768MPD2     H11393   4.245   2.449  10.619 -0.2482  1.6309  0.3133
  768MPD2    H111394   4.539   2.582  10.360  1.4665 -0.8679 -1.0972
  768MPD2    H211395   4.156   2.581  10.217  0.2335 -0.9656 -0.4799
  768MPD2    H311396   4.382   2.613  10.188  1.2856 -0.5863  0.1998
  768MPD2     N11397   4.512   2.472  10.600 -0.3873  0.3023  0.7260
  768MPD2    H511398   4.602   2.520  10.597 -1.1183  1.5240 -2.0404
  768MPD2    N111399   4.056   2.496  10.466 -0.8350  0.6146  0.4329
  768MPD2    H711400   4.043   2.459  10.559 -0.3081 -2.5766 -0.7440
  769MPD2     C11401   0.632   0.671  14.538 -0.4181 -0.7053 -0.1743
  769MPD2    C111402   0.510   0.665  14.585 -0.2601 -0.0407 -0.8213
  769MPD2    C211403   0.481   0.690  14.718 -0.2987  1.0160  0.3224
  769MPD2    C311404   0.581   0.742  14.802 -0.1961 -0.3318 -0.4897
  769MPD2    C411405   0.704   0.752  14.747  0.0833 -0.4471 -0.1028
  769MPD2    C511406   0.733   0.711  14.616  0.2280 -0.1631 -0.2003
  769MPD2     H11407   0.383   0.690  14.765 -1.3498  0.7944 -1.9051
  769MPD2    H111408   0.792   0.771  14.807  1.3056 -0.6187 -1.8385
  769MPD2    H211409   0.657   0.643  14.437 -2.3740  2.5158 -1.5349
  769MPD2    H311410   0.834   0.707  14.576 -1.5030 -1.2153 -4.4687
  769MPD2     N11411   0.548   0.781  14.928 -0.0877  0.5904  0.7166
  769MPD2    H511412   0.454   0.750  14.949 -0.8799  1.1634 -2.0318
  769MPD2    N111413   0.407   0.641  14.486  0.3139 -0.4280  0.2728
  769MPD2    H711414   0.447   0.611  14.398  0.6323  1.8562 -0.3365
  770MPD2     C11415   4.412   0.251  14.812 -0.0564 -0.4300  0.6855
  770MPD2    C111416   4.519   0.191  14.761  0.7956 -0.0228 -0.4162
  770MPD2    C211417   4.592   0.254  14.661  0.2268  0.2104 -0.1475
  770MPD2    C311418   4.544   0.367  14.603 -0.1763 -0.0512 -0.2837
  770MPD2    C411419   4.428   0.423  14.648 -0.7113 -1.0510  0.0263
  770MPD2    C511420   4.367   0.368  14.754 -0.0065 -0.0048  0.1643
  770MPD2     H11421   4.688   0.226  14.621  0.3079  1.6627 -0.9870
  770MPD2    H111422   4.389   0.510  14.596 -2.5117 -1.7556  0.2019
  770MPD2    H211423   4.367   0.199  14.896 -1.0718 -1.6516 -0.6180
  770MPD2    H311424   4.276   0.415  14.792  1.3984  2.1089  0.8996
  770MPD2     N11425   4.608   0.420  14.492  0.1867  0.3182 -0.4559
  770MPD2    H511426   4.678   0.363  14.447  0.3060  1.1056 -1.2379
  770MPD2    N111427   4.569   0.067  14.823  0.2890  0.1391  1.3010
  770MPD2    H711428   4.504   0.013  14.878 -1.5185  3.2934  2.2464
  771MPD2     C11429   1.187   3.312  13.547 -0.1461  0.4397  0.4854
  771MPD2    C111430   1.129   3.433  13.530  0.3458  0.2451  0.1187
  771MPD2    C211431   1.047   3.451  13.419  0.2823  0.5146 -0.5358
  771MPD2    C311432   1.026   3.356  13.320 -0.0748  0.1993  0.0932
  771MPD2    C411433   1.098   3.242  13.336 -0.5594 -0.4652 -0.2816
  771MPD2    C511434   1.175   3.215  13.448  0.1283 -0.3355  0.1781
  771MPD2     H11435   0.980   3.536  13.421  0.1743  0.4380 -0.9979
  771MPD2    H111436   1.104   3.169  13.256 -0.8395  0.2750 -0.9747
  771MPD2    H211437   1.244   3.287  13.636  0.5688 -3.1184 -0.9745
  771MPD2    H311438   1.234   3.124  13.445 -2.0438 -1.5561 -5.0413
  771MPD2     N11439   0.933   3.375  13.222 -0.2528 -0.0975 -0.0740
  771MPD2    H511440   0.885   3.464  13.212 -0.7601 -0.5186 -1.4237
  771MPD2    N111441   1.131   3.529  13.634  1.6356  0.0151 -0.3981
  771MPD2    H711442   1.062   3.603  13.635 -0.3476 -1.8394 -0.1487
  772MPD2     C11443   0.703   4.052  13.861 -0.1220 -0.0770 -0.4574
  772MPD2    C111444   0.724   3.923  13.824 -0.3709 -0.5441 -0.0318
  772MPD2    C211445   0.620   3.829  13.828  0.1061  0.0657 -0.3177
  772MPD2    C311446   0.497   3.869  13.870  0.1154 -0.0440  0.4715
  772MPD2    C411447   0.479   3.999  13.916 -0.0945  0.1536  0.6205
  772MPD2    C511448   0.579   4.092  13.900 -0.3249  0.6222 -0.9096
  772MPD2     H11449   0.631   3.727  13.792 -0.2260  1.1928 -3.6015
  772MPD2    H111450   0.393   4.030  13.973  1.1662  0.8394  2.1723
  772MPD2    H211451   0.775   4.132  13.858 -1.3780  1.0441 -0.4754
  772MPD2    H311452   0.572   4.195  13.931  0.0767 -0.1918  1.8842
  772MPD2     N11453   0.382   3.794  13.876  0.3426  0.2797 -0.0925
  772MPD2    H511454   0.307   3.844  13.922 -0.1629 -0.3476 -0.2339
  772MPD2    N111455   0.850   3.871  13.797 -0.3020 -0.4168 -0.0467
  772MPD2    H711456   0.857   3.776  13.763 -1.6554 -0.2950 -0.6606
  773MPD2     C11457   0.382   0.251   0.426  0.7609 -0.1287  0.2445
  773MPD2    C111458   0.331   0.154   0.346 -0.0891  0.3585 -0.0873
  773MPD2    C211459   0.397   0.030   0.346 -0.3995  0.5926  0.6871
  773MPD2    C311460   0.515   0.010   0.412  0.3125  1.0655 -0.9767
  773MPD2    C411461   0.570   0.109   0.494 -0.2269 -0.5702 -0.2942
  773MPD2    C511462   0.498   0.225   0.499 -0.0575 -0.5791  1.2367
  773MPD2     H11463   0.344   4.688   0.295  1.7382  0.0948 -0.7398
  773MPD2    H111464   0.661   0.097   0.553  1.2414 -1.5454 -2.7762
  773MPD2    H211465   0.334   0.348   0.430 -0.0545 -0.5134 -0.1074
  773MPD2    H311466   0.548   0.305   0.553  0.4692  0.3703 -0.6501
  773MPD2     N11467   0.573   4.619   0.404 -0.4856 -0.2615  0.9852
  773MPD2    H511468   0.528   4.552   0.343  1.2840  1.5729 -2.3076
  773MPD2    N111469   0.215   0.176   0.265  0.4323  0.4074  0.4037
  773MPD2    H711470   0.182   0.096   0.212 -1.2493  1.3881 -0.0384
  774MPD2     C11471   3.403   3.390  13.680  0.2142  0.0204  0.2476
  774MPD2    C111472   3.534   3.373  13.646  0.0181  0.4352 -0.5286
  774MPD2    C211473   3.600   3.479  13.588 -0.3413 -0.1424 -0.5614
  774MPD2    C311474   3.524   3.590  13.557 -0.1852  0.0040 -0.4643
  774MPD2    C411475   3.387   3.597  13.579  0.3071 -0.2430 -0.2870
  774MPD2    C511476   3.331   3.497  13.644 -0.0882 -0.1799  0.0420
  774MPD2     H11477   3.708   3.481  13.585 -0.3487 -0.8833 -1.5263
  774MPD2    H111478   3.328   3.682  13.546 -0.0264  0.1497  1.2867
  774MPD2    H211479   3.354   3.319  13.746 -0.7357  0.1515 -0.3161
  774MPD2    H311480   3.227   3.516  13.666 -0.4766 -2.6753  0.4182
  774MPD2     N11481   3.597   3.706  13.527 -0.5357  0.1359 -0.6370
  774MPD2    H511482   3.697   3.692  13.519 -0.1763  3.1044 -1.1595
  774MPD2    N111483   3.598   3.265  13.700 -0.3523 -0.5088 -1.0294
  774MPD2    H711484   3.539   3.216  13.767  0.4872  0.9389  0.7349
  775MPD2     C11485   0.687   0.421  15.531 -0.0140  0.3393  0.3491
  775MPD2    C111486   0.673   0.528  15.614  0.3951  0.7834 -0.6626
  775MPD2    C211487   0.741   0.653  15.594 -0.4017  0.2657 -0.4065
  775MPD2    C311488   0.826   0.665  15.485 -0.1244 -0.2788 -0.0250
  775MPD2    C411489   0.840   0.554  15.399  0.1754  0.6720 -0.3214
  775MPD2    C511490   0.774   0.436  15.427  0.4164  0.5259 -0.0142
  775MPD2     H11491   0.739   0.737  15.663  1.3634 -0.0441  0.0329
  775MPD2    H111492   0.898   0.557  15.307 -0.5629 -0.7023 -0.8418
  775MPD2    H211493   0.640   0.324  15.542 -0.3542  0.4929  0.2503
  775MPD2    H311494   0.779   0.354  15.357 -0.0137 -1.4484  2.2792
  775MPD2     N11495   0.911   0.782  15.463 -0.1879  0.6899  0.0622
  775MPD2    H511496   0.956   0.786  15.372 -0.9809 -0.2300 -0.3725
  775MPD2    N111497   0.597   0.497  15.722 -0.1747  0.1168  0.1162
  775MPD2    H711498   0.563   0.402  15.732  0.8852 -0.2896 -0.1374
  776MPD2     C11499   4.133   1.005  11.790  0.3892 -0.3779 -0.3781
  776MPD2    C111500   4.265   0.989  11.777 -0.7424  0.2370 -0.4371
  776MPD2    C211501   4.336   1.089  11.729 -0.0907  0.5449 -0.0720
  776MPD2    C311502   4.272   1.195  11.681  0.6877  0.1344  0.6947
  776MPD2    C411503   4.135   1.214  11.689  0.4951  0.5959  0.3846
  776MPD2    C511504   4.064   1.118  11.752 -0.3271  0.4460  0.2693
  776MPD2     H11505   4.443   1.079  11.714 -0.2494 -1.0477 -0.1368
  776MPD2    H111506   4.077   1.295  11.648  2.5091  1.7535 -0.1822
  776MPD2    H211507   4.068   0.924  11.824  0.2018  0.2447  0.7220
  776MPD2    H311508   3.957   1.114  11.737 -0.2033  0.2679 -0.5814
  776MPD2     N11509   4.343   1.299  11.607 -0.7033 -0.4574  1.4260
  776MPD2    H511510   4.293   1.365  11.550  3.4191  1.0337 -0.4582
  776MPD2    N111511   4.303   0.862  11.812 -0.1085 -0.0849  0.6207
  776MPD2    H711512   4.230   0.798  11.842 -0.2514 -0.1870  0.0475
  777MPD2     C11513   4.640   2.922   0.613 -0.6159 -0.5776  0.0925
  777MPD2    C111514   4.711   2.818   0.653  0.3754 -0.1699  0.0174
  777MPD2    C211515   4.734   2.707   0.569 -0.2301  0.6162 -0.0750
  777MPD2    C311516   4.673   2.703   0.446 -0.0461 -0.5696  0.4468
  777MPD2    C411517   4.587   2.805   0.416  0.7762 -0.5801 -0.4532
  777MPD2    C511518   4.577   2.913   0.492  0.1569 -0.3236 -0.3709
  777MPD2     H11519   0.076   2.641   0.602 -0.3439  0.7942  0.5611
  777MPD2    H111520   4.535   2.802   0.320  2.6844  1.3130 -1.5541
  777MPD2    H211521   4.628   3.013   0.670 -1.3301 -0.3052 -0.4986
  777MPD2    H311522   4.509   2.993   0.464 -0.7576 -0.7059  0.7788
  777MPD2     N11523   4.702   2.596   0.364  0.0076 -0.0839  0.5935
  777MPD2    H511524   0.013   2.518   0.407  0.8176 -0.1200 -0.4062
  777MPD2    N111525   0.029   2.836   0.782  0.3744  0.7685 -0.3370
  777MPD2    H711526   0.024   2.926   0.829  1.0628  1.7377 -2.0907
  778MPD2     C11527   1.225   3.528  14.948  0.4796 -0.2699  0.4560
  778MPD2    C111528   1.206   3.465  14.830  0.1583 -0.9725 -0.6398
  778MPD2    C211529   1.283   3.496  14.720  0.8379  0.6747  0.7694
  778MPD2    C311530   1.382   3.594  14.730 -0.2741 -0.5155  0.4337
  778MPD2    C411531   1.389   3.660  14.848 -0.7604 -0.0582  1.0099
  778MPD2    C511532   1.316   3.627  14.956 -0.1515 -0.3563 -0.5565
  778MPD2     H11533   1.279   3.445  14.624  2.4684  0.8499  0.6178
  778MPD2    H111534   1.464   3.737  14.867  0.3331 -1.2139  1.3810
  778MPD2    H211535   1.154   3.520  15.029  0.7581  0.1009  0.7368
  778MPD2    H311536   1.319   3.691  15.043  0.1799 -2.4429  0.9505
  778MPD2     N11537   1.462   3.621  14.618  0.4395 -0.1912 -0.1819
  778MPD2    H511538   1.443   3.575  14.530 -0.9483 -0.5096  0.2840
  778MPD2    N111539   1.113   3.360  14.819  0.2765  0.0618 -0.2659
  778MPD2    H711540   1.110   3.329  14.722  1.1831 -0.0878 -0.2426
  779MPD2     C11541   0.931   2.363  14.211  0.2213  0.6481  0.7485
  779MPD2    C111542   1.068   2.341  14.205 -0.7514  0.0690 -0.9132
  779MPD2    C211543   1.151   2.454  14.177 -0.8857 -0.1512 -0.5651
  779MPD2    C311544   1.094   2.573  14.152 -0.3194 -0.2801 -1.0584
  779MPD2    C411545   0.956   2.593  14.170  0.5252  0.3508 -0.4796
  779MPD2    C511546   0.875   2.484  14.202  0.0944 -0.1002  0.1236
  779MPD2     H11547   1.256   2.428  14.180 -0.7262  0.6206  0.3053
  779MPD2    H111548   0.907   2.690  14.167 -0.1474  0.0065 -0.7490
  779MPD2    H211549   0.859   2.285  14.231  0.3979  0.8941  2.3813
  779MPD2    H311550   0.769   2.506  14.210 -0.1174 -1.2850  0.6389
  779MPD2     N11551   1.184   2.676  14.115 -0.1504 -0.0564  1.3334
  779MPD2    H511552   1.284   2.663  14.127  0.1822 -0.3204 -1.8272
  779MPD2    N111553   1.129   2.216  14.191  0.2815 -0.7353 -0.0323
  779MPD2    H711554   1.230   2.211  14.178  0.6310  0.0483  2.2437
  780MPD2     C11555   1.526   1.951   0.685  0.1587 -0.1815  0.4726
  780MPD2    C111556   1.405   1.909   0.630 -0.2776 -0.8886 -0.1380
  780MPD2    C211557   1.363   1.971   0.513 -0.3823 -0.3527 -0.4071
  780MPD2    C311558   1.432   2.081   0.461 -0.3374  0.1727 -0.5331
  780MPD2    C411559   1.551   2.125   0.515 -0.4570  0.4520  0.2444
  780MPD2    C511560   1.593   2.056   0.631 -0.2139  0.3251  0.0286
  780MPD2     H11561   1.278   1.933   0.458 -2.1907  2.2750  0.5585
  780MPD2    H111562   1.608   2.212   0.486 -0.2225  0.8934  2.0725
  780MPD2    H211563   1.566   1.911   0.778 -1.0684 -1.8001  0.2924
  780MPD2    H311564   1.666   2.093   0.702  0.4429 -0.1638 -0.3916
  780MPD2     N11565   1.381   2.133   0.343 -0.3252  0.1637  0.0456
  780MPD2    H511566   1.301   2.085   0.303  1.5362 -1.4618 -1.6650
  780MPD2    N111567   1.338   1.801   0.697  0.2824 -0.8834 -0.2647
  780MPD2    H711568   1.383   1.767   0.781 -1.9011 -1.1375  0.7959
  781MPD2     C11569   2.257   3.050  11.982 -0.1997 -0.3667  0.4734
  781MPD2    C111570   2.321   3.170  11.989  0.0141  0.0170 -0.3921
  781MPD2    C211571   2.428   3.194  11.914  0.2001 -0.0663 -0.5175
  781MPD2    C311572   2.467   3.097  11.813 -0.5056 -0.5818  0.8298
  781MPD2    C411573   2.403   2.977  11.814  0.0542  0.5570  0.3252
  781MPD2    C511574   2.303   2.952  11.898 -0.2493  0.9400  0.3775
  781MPD2     H11575   2.466   3.295  11.912 -0.3018  0.1142 -0.8583
  781MPD2    H111576   2.442   2.896  11.752 -0.6132  0.7319 -0.3187
  781MPD2    H211577   2.173   3.022  12.045 -1.2708  3.1681  0.6301
  781MPD2    H311578   2.257   2.854  11.906 -0.0604  0.9092  1.0940
  781MPD2     N11579   2.583   3.100  11.725  0.2844  0.3463 -0.3476
  781MPD2    H511580   2.572   3.024  11.659  0.1686 -1.4891  1.7780
  781MPD2    N111581   2.267   3.285  12.058 -0.9871 -0.2135  0.6209
  781MPD2    H711582   2.317   3.373  12.061 -0.4789 -0.5380  1.4397
  782MPD2     C11583   0.260   4.722  10.044 -0.0011  0.2548  0.4457
  782MPD2    C111584   0.300   4.672  10.169 -0.3330 -0.0578 -0.7381
  782MPD2    C211585   0.296   0.014  10.282 -0.1571  1.1494 -0.3960
  782MPD2    C311586   0.281   0.148  10.262  0.0979  0.1056  0.2132
  782MPD2    C411587   0.245   0.202  10.140  0.0102 -0.4353 -0.1354
  782MPD2    C511588   0.225   0.119  10.035 -0.3779  0.0684 -0.4022
  782MPD2     H11589   0.330   4.719  10.379  1.0886  2.2182 -0.4581
  782MPD2    H111590   0.230   0.309  10.138  1.2638 -0.2711 -0.3005
  782MPD2    H211591   0.262   4.666   9.951  0.1474  0.7315  0.1575
  782MPD2    H311592   0.199   0.158   9.937  1.0681  0.1121 -0.7721
  782MPD2     N11593   0.325   0.233  10.366  0.3802 -0.5029  0.3189
  782MPD2    H511594   0.374   0.186  10.441  2.5350 -1.7381 -1.8626
  782MPD2    N111595   0.345   4.540  10.182 -0.1844 -0.5376  0.0074
  782MPD2    H711596   0.368   4.490  10.096 -1.9541 -1.2571 -0.0407
  783MPD2     C11597   0.334   4.112  11.030  0.6420 -0.1994 -0.5576
  783MPD2    C111598   0.329   4.238  10.984 -0.1370 -0.2021  0.3116
  783MPD2    C211599   0.362   4.263  10.849 -0.6736 -0.3029 -0.0548
  783MPD2    C311600   0.396   4.158  10.766  0.6044  0.4134 -0.4822
  783MPD2    C411601   0.422   4.037  10.824  0.0998  0.6179  0.4022
  783MPD2    C511602   0.390   4.014  10.954 -1.1234  0.2785 -0.0862
  783MPD2     H11603   0.348   4.363  10.810  0.9015 -0.5295 -1.2108
  783MPD2    H111604   0.466   3.953  10.772  0.0769 -0.0992  1.5235
  783MPD2    H211605   0.310   4.076  11.129  1.8972  1.2237  0.2824
  783MPD2    H311606   0.408   3.922  11.009  0.8513  0.7474  0.0656
  783MPD2     N11607   0.414   4.190  10.628  0.5762 -0.5065  0.5097
  783MPD2    H511608   0.389   4.284  10.600 -1.5536 -0.6722  1.7736
  783MPD2    N111609   0.272   4.337  11.068  0.0652  0.2259  1.0006
  783MPD2    H711610   0.262   4.308  11.165  0.9255 -1.5253  0.5680
  784MPD2     C11611   2.805   4.544   0.442 -0.2313 -0.5498  0.2318
  784MPD2    C111612   2.820   4.654   0.531  0.3703  0.0480 -0.0624
  784MPD2    C211613   2.745   0.029   0.503 -0.0157 -0.2927  0.1219
  784MPD2    C311614   2.658   0.027   0.399 -0.4507 -0.0658  0.0886
  784MPD2    C411615   2.651   4.660   0.316  0.9393 -0.1649 -0.8521
  784MPD2    C511616   2.721   4.549   0.339  0.0614 -0.0053  0.5114
  784MPD2     H11617   2.754   0.120   0.561 -0.7127 -1.4419  2.0224
  784MPD2    H111618   2.594   4.670   0.225 -0.8533 -0.4358  0.2467
  784MPD2    H211619   2.864   4.454   0.453 -0.0833 -0.6899 -1.7559
  784MPD2    H311620   2.716   4.464   0.271  0.1043 -0.1515  0.6886
  784MPD2     N11621   2.568   0.129   0.401  0.0835  0.0243  0.0840
  784MPD2    H511622   2.584   0.209   0.461  2.1458  0.2249 -0.7338
  784MPD2    N111623   2.902   4.659   0.644  0.1041 -0.3000  0.3937
  784MPD2    H711624   2.899   0.001   0.707  3.0000 -0.6088  0.8949
  785MPD2     C11625   3.188   3.833  11.265 -0.0746 -0.8222  0.7702
  785MPD2    C111626   3.098   3.764  11.343  0.1975 -0.7553 -0.1982
  785MPD2    C211627   3.035   3.651  11.289 -0.5468  0.3613  0.2884
  785MPD2    C311628   3.061   3.610  11.156 -0.2802 -0.1120 -0.3137
  785MPD2    C411629   3.164   3.677  11.087 -0.2146  0.3162  0.3677
  785MPD2    C511630   3.220   3.789  11.139  0.0152 -1.3912  0.1028
  785MPD2     H11631   2.966   3.596  11.351  0.1502 -1.1839 -0.3096
  785MPD2    H111632   3.184   3.646  10.985  1.0607  2.9658 -0.1972
  785MPD2    H211633   3.230   3.928  11.296  0.5959 -1.0721  0.6120
  785MPD2    H311634   3.288   3.852  11.083  0.7485 -3.2057 -1.0439
  785MPD2     N11635   2.977   3.515  11.105 -0.4320 -0.1223 -0.7680
  785MPD2    H511636   2.912   3.463  11.163 -0.8338  1.9045  0.6165
  785MPD2    N111637   3.053   3.807  11.470  0.1521  0.0708  0.8844
  785MPD2    H711638   2.987   3.748  11.520 -1.4751  1.1907  0.0977
  786MPD2     C11639   1.902   1.719  14.922 -0.2165  0.1069 -0.2083
  786MPD2    C111640   1.815   1.613  14.946  0.0990 -0.1882  0.1004
  786MPD2    C211641   1.773   1.595  15.074  0.9153 -0.5633 -0.4741
  786MPD2    C311642   1.818   1.676  15.179  0.7665  0.4136  0.2440
  786MPD2    C411643   1.903   1.781  15.155 -0.6701 -0.0765 -0.1400
  786MPD2    C511644   1.944   1.800  15.024  0.3393 -0.7651 -0.5482
  786MPD2     H11645   1.701   1.517  15.094  0.7008 -0.1939  0.1615
  786MPD2    H111646   1.954   1.838  15.232  1.7601 -0.4220 -1.4787
  786MPD2    H211647   1.943   1.736  14.823  0.4129  0.2348  0.0760
  786MPD2    H311648   2.009   1.884  15.006 -1.8638  1.4167  1.5681
  786MPD2     N11649   1.779   1.654  15.315 -0.7475 -0.3650 -0.0050
  786MPD2    H511650   1.803   1.720  15.388  2.1577  0.2778 -1.5208
  786MPD2    N111651   1.786   1.519  14.850 -0.0637  0.5217  0.2498
  786MPD2    H711652   1.737   1.437  14.884  1.6938 -1.0948 -1.1401
  787MPD2     C11653   1.963   0.904  14.912 -0.0983 -0.2169  0.3728
  787MPD2    C111654   1.898   0.909  14.795 -0.6556  0.2061  0.5121
  787MPD2    C211655   1.930   0.812  14.696 -0.1549 -0.2414  1.0901
  787MPD2    C311656   2.017   0.713  14.718  0.0961  0.1351 -0.1070
  787MPD2    C411657   2.085   0.707  14.838  0.0790  0.0368  0.0864
  787MPD2    C511658   2.052   0.800  14.932 -0.8708 -0.3763 -1.1120
  787MPD2     H11659   1.901   0.824  14.593 -0.5534  2.0549  1.4793
  787MPD2    H111660   2.159   0.630  14.857 -1.1222 -1.2730 -0.5734
  787MPD2    H211661   1.958   0.978  14.991 -1.2293  0.9766 -0.8356
  787MPD2    H311662   2.102   0.803  15.028 -0.7586 -2.9996 -1.0669
  787MPD2     N11663   2.057   0.629  14.605  0.5243 -0.3246  0.2318
  787MPD2    H511664   2.016   0.650  14.515 -1.4457  0.9331  1.4125
  787MPD2    N111665   1.822   1.031  14.768 -0.7795  0.0751  0.3368
  787MPD2    H711666   1.830   1.102  14.840  1.5340  1.0224 -0.8915
  788MPD2     C11667   3.907   4.247   0.637 -0.0015  0.2743 -0.1549
  788MPD2    C111668   3.793   4.178   0.605  0.3534 -1.1011  0.1110
  788MPD2    C211669   3.674   4.256   0.586 -0.1154  0.3154  0.5394
  788MPD2    C311670   3.685   4.392   0.591 -0.6923 -0.2162  0.0108
  788MPD2    C411671   3.802   4.456   0.626  0.0068 -0.1358  0.0090
  788MPD2    C511672   3.914   4.384   0.642  0.2260  0.3275 -0.4493
  788MPD2     H11673   3.583   4.201   0.567 -0.3282  0.3743  1.4104
  788MPD2    H111674   3.808   4.564   0.617 -0.0119 -0.1660 -0.3727
  788MPD2    H211675   3.990   4.205   0.693  0.2249  1.9476  0.7418
  788MPD2    H311676   4.007   4.429   0.675  1.7945 -1.2907 -2.6283
  788MPD2     N11677   3.577   4.482   0.566  0.5120  0.0339 -0.2666
  788MPD2    H511678   3.605   4.579   0.576 -0.8473  0.0510  3.4824
  788MPD2    N111679   3.774   4.038   0.610 -0.5660  0.1967 -0.1946
  788MPD2    H711680   3.682   4.002   0.588  0.2418 -0.7976 -1.9760
  789MPD2     C11681   3.989   3.914  16.147 -0.1761  0.0543  0.1542
  789MPD2    C111682   3.985   3.906  16.287  0.1958  0.1254 -0.0664
  789MPD2    C211683   3.900   3.985  16.362 -0.1334  0.2211 -0.5852
  789MPD2    C311684   3.823   4.079  16.297  0.2267 -0.2975 -0.6848
  789MPD2    C411685   3.826   4.087  16.163 -0.0472 -0.2897  0.1951
  789MPD2    C511686   3.901   4.008  16.085  0.4735  0.0538 -0.4842
  789MPD2     H11687   3.908   3.981  16.470  0.8777 -0.9129 -0.7010
  789MPD2    H111688   3.763   4.150  16.103  0.4414  1.1420  1.1969
  789MPD2    H211689   4.042   3.852  16.075 -1.1243 -0.3260 -0.2281
  789MPD2    H311690   3.904   4.003  15.977 -0.2688 -1.1243 -0.4478
  789MPD2     N11691   3.741   4.171  16.361 -0.0824  0.1142 -0.5441
  789MPD2    H511692   3.685   4.240  16.312  1.1881  0.8813 -0.9136
  789MPD2    N111693   4.057   3.809  16.359  0.0463  0.0066  0.5351
  789MPD2    H711694   4.032   3.799  16.457  0.6296  1.4113  0.8244
  790MPD2     C11695   0.108   1.076  13.710  0.4937  0.3848  0.2086
  790MPD2    C111696   0.083   1.165  13.612  0.1070  0.1161  0.6151
  790MPD2    C211697   0.032   1.129  13.483  0.7058  0.5043 -0.8391
  790MPD2    C311698   0.023   0.994  13.458 -0.1052  0.0279 -0.7160
  790MPD2    C411699   0.053   0.899  13.552 -0.5439 -0.1492  0.5362
  790MPD2    C511700   0.080   0.942  13.680  0.1963  1.2621  0.2407
  790MPD2     H11701   0.015   1.203  13.406 -0.2132  1.8489  0.6596
  790MPD2    H111702   0.042   0.792  13.549 -1.4076 -0.0899  1.3853
  790MPD2    H211703   0.123   1.102  13.815  1.4128  1.6523 -0.2395
  790MPD2    H311704   0.092   0.870  13.760 -1.6894 -0.5459 -1.0689
  790MPD2     N11705   4.724   0.961  13.325  0.2887  0.1323  0.1579
  790MPD2    H511706   4.719   1.030  13.251  1.4010 -1.0317 -1.0127
  790MPD2    N111707   0.119   1.297  13.640  0.2235  0.2052  0.5809
  790MPD2    H711708   0.174   1.307  13.724  1.7765 -1.3544 -0.2494
  791MPD2     C11709   4.021   0.954  12.863  0.1994  0.0033  0.0887
  791MPD2    C111710   4.104   0.844  12.898  0.8145 -0.4869  0.8340
  791MPD2    C211711   4.058   0.712  12.885 -0.0667  0.0816  0.4797
  791MPD2    C311712   3.924   0.685  12.862 -0.8250  0.5767 -0.5270
  791MPD2    C411713   3.842   0.795  12.852  0.3883 -0.0773 -0.1033
  791MPD2    C511714   3.889   0.920  12.841  0.0507  0.0777  0.4447
  791MPD2     H11715   4.113   0.628  12.924  2.5010  1.1101 -0.9678
  791MPD2    H111716   3.737   0.785  12.825 -0.7992  2.0963  3.6661
  791MPD2    H211717   4.050   1.058  12.866 -0.6772  0.2478  0.0726
  791MPD2    H311718   3.821   1.001  12.820 -1.9151 -2.0528 -1.4170
  791MPD2     N11719   3.877   0.551  12.857  0.1076 -0.2591  0.1268
  791MPD2    H511720   3.947   0.477  12.868  2.3928  2.1797  1.9933
  791MPD2    N111721   4.239   0.865  12.943  0.3586  0.8926 -0.1705
  791MPD2    H711722   4.271   0.961  12.944 -2.4488  1.8296 -3.2164
  792MPD2     C11723   0.269   1.236  11.714 -0.4346 -0.1103 -0.3634
  792MPD2    C111724   0.226   1.239  11.582  0.1414 -0.5392  0.1364
  792MPD2    C211725   0.107   1.162  11.558  0.1639  0.4735  0.6773
  792MPD2    C311726   0.049   1.071  11.646  0.3984  0.2569 -0.8058
  792MPD2    C411727   0.100   1.062  11.771 -0.2477  0.1533 -0.7380
  792MPD2    C511728   0.211   1.140  11.799 -0.5815 -0.4865 -0.0528
  792MPD2     H11729   0.053   1.175  11.465 -1.7710  0.4055  1.7949
  792MPD2    H111730   0.069   0.989  11.844 -1.6313 -0.9992 -2.4688
  792MPD2    H211731   0.361   1.288  11.737  0.2663 -2.2938  1.8255
  792MPD2    H311732   0.255   1.114  11.894  0.6062 -3.4698 -1.4205
  792MPD2     N11733   4.683   0.982  11.602 -0.3409 -0.2098 -0.2703
  792MPD2    H511734   4.651   0.909  11.665  0.7255  1.0931  1.7771
  792MPD2    N111735   0.281   1.319  11.482  0.2337 -0.2165  0.6633
  792MPD2    H711736   0.356   1.383  11.508 -1.3310  2.5681 -1.6781
  793MPD2     C11737   4.268   0.957  10.750  0.2868 -0.6256  0.0081
  793MPD2    C111738   4.397   0.974  10.813 -0.5774  0.2063 -0.4180
  793MPD2    C211739   4.404   0.960  10.955  1.3822 -0.3612 -0.6461
  793MPD2    C311740   4.292   0.931  11.035 -0.0706 -0.1233 -0.0150
  793MPD2    C411741   4.174   0.918  10.968 -0.0460 -0.2315 -0.8893
  793MPD2    C511742   4.164   0.927  10.833 -0.0600 -0.8283  0.1078
  793MPD2     H11743   4.501   0.970  11.003  1.0215 -1.1674  0.2701
  793MPD2    H111744   4.082   0.906  11.023 -0.4383  0.7170 -1.3383
  793MPD2    H211745   4.243   0.967  10.645  3.3017 -2.8571 -0.9349
  793MPD2    H311746   4.067   0.917  10.785  0.1242  0.6832 -0.5830
  793MPD2     N11747   4.318   0.910  11.170  0.4609 -0.2417  0.2043
  793MPD2    H511748   4.411   0.936  11.200 -0.0047 -0.6605  2.0195
  793MPD2    N111749   4.515   0.996  10.740  0.8914  0.3514  0.0543
  793MPD2    H711750   4.605   0.971  10.779  0.5385  1.0504  1.3131
  794MPD2     C11751   4.688   0.296  17.283  0.1025  0.6055 -0.0411
  794MPD2    C111752   4.617   0.190  17.339 -0.0687  0.2075  0.0719
  794MPD2    C211753   4.535   0.112  17.261  0.3011  0.1694 -0.2422
  794MPD2    C311754   4.523   0.137  17.127 -0.3988  0.3160  0.5898
  794MPD2    C411755   4.596   0.240  17.068  0.7577  0.0243  0.7800
  794MPD2    C511756   4.675   0.323  17.148 -0.4305  0.2724 -0.4024
  794MPD2     H11757   4.472   0.038  17.306  0.3786  0.6595  0.6638
  794MPD2    H111758   4.594   0.260  16.961  2.6846 -0.0823  0.7161
  794MPD2    H211759   4.736   0.367  17.349  3.0239 -1.5428  0.1467
  794MPD2    H311760   4.713   0.412  17.099 -0.6515  0.2560 -0.6008
  794MPD2     N11761   4.443   0.051  17.055 -0.3207 -0.3177 -0.0649
  794MPD2    H511762   4.381   4.728  17.108 -0.8161 -0.6741 -1.0496
  794MPD2    N111763   4.617   0.165  17.480 -0.2825 -0.2934  0.1442
  794MPD2    H711764   4.552   0.094  17.513  0.5947 -0.4079  1.5948
  795MPD2     C11765   2.131   2.755  13.591 -0.0083 -0.2253 -0.0625
  795MPD2    C111766   2.069   2.659  13.508 -0.8666 -0.1795 -0.4541
  795MPD2    C211767   2.143   2.548  13.472  0.5530 -0.0412 -0.2721
  795MPD2    C311768   2.279   2.527  13.509 -0.9247 -0.0262 -0.4065
  795MPD2    C411769   2.333   2.619  13.592 -0.6881  0.1891  0.6505
  795MPD2    C511770   2.263   2.727  13.630  0.5168 -0.4665 -0.1508
  795MPD2     H11771   2.089   2.475  13.413 -3.7494  3.1763 -0.2758
  795MPD2    H111772   2.434   2.606  13.629 -0.2283 -1.5002 -1.1373
  795MPD2    H211773   2.084   2.852  13.605  1.8565  0.8148 -0.9998
  795MPD2    H311774   2.308   2.797  13.700  2.0299 -2.4418  0.8281
  795MPD2     N11775   2.370   2.432  13.454 -0.7372 -0.3157  0.0931
  795MPD2    H511776   2.458   2.431  13.505  0.3603 -0.6785 -1.7929
  795MPD2    N111777   1.940   2.669  13.449 -0.1894  0.0789  0.7247
  795MPD2    H711778   1.928   2.607  13.369 -0.7848  0.5170  0.4708
  796MPD2     C11779   1.726   3.909  15.985 -0.1922 -0.3121 -1.1184
  796MPD2    C111780   1.834   3.992  15.987  0.1793  0.3820  0.3439
  796MPD2    C211781   1.824   4.117  15.928  0.7297  0.0576 -0.1998
  796MPD2    C311782   1.707   4.169  15.884  0.5250  0.5734  0.2953
  796MPD2    C411783   1.604   4.077  15.863 -0.3234  0.4158 -0.1397
  796MPD2    C511784   1.616   3.948  15.914 -0.2476  0.1826  0.7153
  796MPD2     H11785   1.909   4.182  15.944  0.0060  0.6746  1.1593
  796MPD2    H111786   1.511   4.098  15.810 -0.1729 -1.9150 -1.3214
  796MPD2    H211787   1.718   3.816  16.039  0.0116  0.4891  0.2947
  796MPD2    H311788   1.531   3.882  15.899  0.8725 -1.3804  1.2997
  796MPD2     N11789   1.693   4.305  15.842  0.5383 -0.5695 -0.7772
  796MPD2    H511790   1.774   4.362  15.863  0.3650 -1.2841  1.7330
  796MPD2    N111791   1.950   3.951  16.053 -0.6580  0.0501  0.1566
  796MPD2    H711792   1.937   3.857  16.089  0.4975  0.1894  0.9356
  797MPD2     C11793   2.945   3.191  17.454 -0.3169  0.3492  1.0498
  797MPD2    C111794   3.034   3.297  17.450 -1.1253 -0.1467  0.3816
  797MPD2    C211795   3.044   3.367  17.333  0.2104  0.2781  0.4458
  797MPD2    C311796   2.959   3.348  17.225  0.2492 -0.0325  0.8248
  797MPD2    C411797   2.849   3.265  17.245  0.3149  0.1546  0.2671
  797MPD2    C511798   2.849   3.181  17.358 -0.7027  0.8415  0.3219
  797MPD2     H11799   3.114   3.450  17.338  0.9913 -0.4086  0.8412
  797MPD2    H111800   2.776   3.256  17.165 -0.5508 -3.3555  1.4217
  797MPD2    H211801   2.938   3.119  17.534  2.3272 -1.2847 -0.2064
  797MPD2    H311802   2.781   3.096  17.364 -0.9156  1.0303  0.6237
  797MPD2     N11803   2.971   3.436  17.114 -0.2348  0.2910 -0.2443
  797MPD2    H511804   3.054   3.495  17.107  2.0309 -2.7321  0.9225
  797MPD2    N111805   3.126   3.328  17.553 -0.6603 -0.6190 -0.1851
  797MPD2    H711806   3.199   3.394  17.528  1.4843 -1.9938  2.4601
  798MPD2     C11807   3.385   3.968  17.223 -0.0110 -0.2557 -0.1370
  798MPD2    C111808   3.323   3.844  17.210  0.3373  0.3967 -0.2053
  798MPD2    C211809   3.323   3.758  17.320  0.5790  0.3128 -0.5716
  798MPD2    C311810   3.367   3.796  17.444  0.4983 -0.1744  0.0594
  798MPD2    C411811   3.425   3.923  17.462  0.3196 -0.1533  0.4584
  798MPD2    C511812   3.434   4.008  17.348 -0.7663 -0.5272 -0.5514
  798MPD2     H11813   3.286   3.657  17.313 -1.0685  0.8427  0.3579
  798MPD2    H111814   3.458   3.953  17.561 -0.5229  0.5682  0.5271
  798MPD2    H211815   3.401   4.034  17.139 -0.4071 -0.2737 -0.2256
  798MPD2    H311816   3.484   4.104  17.358 -3.2749  0.7710 -0.6220
  798MPD2     N11817   3.350   3.694  17.538 -0.3440  0.0864 -0.2689
  798MPD2    H511818   3.316   3.606  17.500  3.1996 -0.7802 -1.3744
  798MPD2    N111819   3.260   3.810  17.087  0.2884  0.4921  0.1402
  798MPD2    H711820   3.269   3.880  17.013  0.5303  1.1053  0.7543
  799MPD2     C11821   1.819   0.357  14.557  0.3843  0.6728  0.4426
  799MPD2    C111822   1.839   0.293  14.438 -0.3861  0.0863 -0.2394
  799MPD2    C211823   1.796   0.360  14.327  0.1979  0.4112 -0.4761
  799MPD2    C311824   1.758   0.492  14.331  0.5864 -0.0433  0.1416
  799MPD2    C411825   1.753   0.563  14.452  0.2454 -0.2136 -0.3070
  799MPD2    C511826   1.777   0.485  14.566 -0.7539  0.3918  0.0252
  799MPD2     H11827   1.816   0.312  14.232  0.6626  0.6755 -0.5122
  799MPD2    H111828   1.730   0.669  14.456  0.9627 -0.0265 -1.1056
  799MPD2    H211829   1.837   0.317  14.657 -1.5375 -3.7557 -0.9783
  799MPD2    H311830   1.759   0.532  14.662 -3.4273 -1.0010  0.1954
  799MPD2     N11831   1.714   0.551  14.207 -0.2490 -0.7314  0.5505
  799MPD2    H511832   1.691   0.650  14.206 -0.7545 -0.8579 -2.1618
  799MPD2    N111833   1.885   0.158  14.421  0.6010 -0.4633  0.4639
  799MPD2    H711834   1.887   0.116  14.328 -0.6238  2.4930 -0.9095
  800MPD2     C11835   2.028   1.935  14.091  0.1010  0.6622  0.0592
  800MPD2    C111836   2.074   1.805  14.084 -0.1357  0.1114  0.0182
  800MPD2    C211837   2.054   1.736  13.969 -0.5502  0.3093  0.0949
  800MPD2    C311838   1.978   1.790  13.867  0.5380 -0.4798 -0.2101
  800MPD2    C411839   1.922   1.915  13.876  0.4094  0.3313  0.1431
  800MPD2    C511840   1.961   1.992  13.982 -0.1969 -0.1256  0.0877
  800MPD2     H11841   2.095   1.636  13.961 -0.9017  0.1615  0.1342
  800MPD2    H111842   1.858   1.948  13.794  0.7656 -0.3195 -0.3981
  800MPD2    H211843   2.034   1.993  14.182  1.0464 -0.2272  0.5662
  800MPD2    H311844   1.922   2.090  14.010 -0.5033  0.4345 -2.3111
  800MPD2     N11845   1.950   1.707  13.762 -0.5006  0.1099 -0.1600
  800MPD2    H511846   1.983   1.612  13.770  1.6898  0.7816 -1.0834
  800MPD2    N111847   2.123   1.757  14.205 -0.4980  0.1816  0.0915
  800MPD2    H711848   2.113   1.807  14.293  4.0649  1.8355 -0.3199
  801MPD2     C11849   2.232   1.912  14.886 -0.2461  0.6388  0.2824
  801MPD2    C111850   2.244   1.925  14.752 -0.3687 -0.0081  0.0882
  801MPD2    C211851   2.256   2.053  14.703 -0.3949  1.2153  0.3462
  801MPD2    C311852   2.263   2.164  14.781 -0.1353  0.1589  0.5324
  801MPD2    C411853   2.265   2.150  14.923  0.6958 -0.0108  0.4981
  801MPD2    C511854   2.249   2.022  14.974 -0.3022  0.2024  0.5826
  801MPD2     H11855   2.273   2.075  14.598 -1.1532 -0.3416 -0.0940
  801MPD2    H111856   2.293   2.229  14.992 -0.1073 -0.3692  1.2255
  801MPD2    H211857   2.217   1.813  14.927 -0.5512  0.5182 -0.1199
  801MPD2    H311858   2.263   2.002  15.080  3.0500  0.0188  0.1180
  801MPD2     N11859   2.275   2.294  14.730  0.2557  0.2442 -0.2172
  801MPD2    H511860   2.291   2.364  14.800  1.2303  0.3617 -0.5607
  801MPD2    N111861   2.236   1.811  14.662  0.1584  0.6392  0.7408
  801MPD2    H711862   2.264   1.838  14.568 -1.3547  2.6157  0.8606
  802MPD2     C11863   1.371   2.625  17.287 -0.3036 -0.0413 -0.4230
  802MPD2    C111864   1.482   2.647  17.367 -0.8185 -0.4223 -0.1390
  802MPD2    C211865   1.567   2.539  17.373 -0.7581  0.3366  0.0119
  802MPD2    C311866   1.546   2.417  17.310  0.8699  0.1425  0.1464
  802MPD2    C411867   1.437   2.403  17.228 -0.5263  0.0191 -0.2107
  802MPD2    C511868   1.349   2.508  17.216  0.8271  0.1446 -0.6111
  802MPD2     H11869   1.654   2.542  17.437 -1.3709  1.0321  0.8140
  802MPD2    H111870   1.411   2.317  17.167 -1.7571 -0.2907  0.7581
  802MPD2    H211871   1.289   2.696  17.275 -0.6694 -0.5557 -0.9716
  802MPD2    H311872   1.261   2.498  17.155  0.3317  2.2145 -0.2544
  802MPD2     N11873   1.641   2.310  17.319  0.0149 -0.3409 -0.1667
  802MPD2    H511874   1.723   2.335  17.374  0.1831  1.7341 -1.3346
  802MPD2    N111875   1.510   2.758  17.448 -0.1086 -0.0540  0.3168
  802MPD2    H711876   1.589   2.756  17.512 -0.3624  1.6955  0.6904
  803MPD2     C11877   2.233   0.081  12.440  0.4736 -0.6078  0.3284
  803MPD2    C111878   2.335   0.171  12.415 -0.3564 -0.0971 -0.6973
  803MPD2    C211879   2.412   0.229  12.518  0.2009 -0.5903 -0.2624
  803MPD2    C311880   2.383   0.192  12.648  0.4874  0.6687 -0.4229
  803MPD2    C411881   2.270   0.110  12.671  0.0992 -0.3191  0.0867
  803MPD2    C511882   2.193   0.057  12.571 -0.0350  0.8745  0.2690
  803MPD2     H11883   2.503   0.282  12.492 -0.5826  0.6896 -0.3747
  803MPD2    H111884   2.249   0.091  12.775 -1.2673  1.2433  0.0872
  803MPD2    H211885   2.189   0.041  12.349 -0.1376 -1.8895  1.1914
  803MPD2    H311886   2.112   4.725  12.587 -0.2956  1.1059 -0.0448
  803MPD2     N11887   2.453   0.217  12.760 -0.0591  0.0682  0.0935
  803MPD2    H511888   2.404   0.197  12.847 -0.7006 -0.9822 -0.5220
  803MPD2    N111889   2.368   0.191  12.277  0.0040  0.0229 -0.2429
  803MPD2    H711890   2.303   0.136  12.221  0.3807 -0.8213  0.1447
  804MPD2     C11891   2.305   2.094  16.996 -0.2212 -0.4901 -0.2454
  804MPD2    C111892   2.350   2.040  17.119  0.3150  0.2048 -1.2271
  804MPD2    C211893   2.444   2.117  17.186 -0.5067 -0.3630 -0.3521
  804MPD2    C311894   2.511   2.227  17.135 -0.0362 -0.0374  0.2108
  804MPD2    C411895   2.480   2.263  17.009 -0.7533  0.8510  0.6280
  804MPD2    C511896   2.381   2.198  16.941 -0.6634 -0.7130 -1.0740
  804MPD2     H11897   2.475   2.079  17.282  1.4090  1.3492 -0.2804
  804MPD2    H111898   2.515   2.352  16.958  1.8653 -0.6117 -0.1115
  804MPD2    H211899   2.218   2.057  16.944  1.3287 -2.8744 -1.1432
  804MPD2    H311900   2.346   2.254  16.855  0.6631  0.5537 -0.7922
  804MPD2     N11901   2.605   2.283  17.224  0.0300 -0.1737 -0.0082
  804MPD2    H511902   2.615   2.241  17.316 -0.9545 -2.1585 -0.8188
  804MPD2    N111903   2.284   1.928  17.173 -0.4056 -0.1018 -0.0296
  804MPD2    H711904   2.307   1.903  17.269 -0.2850  0.7322  0.1595
  805MPD2     C11905   1.289   0.288  15.215  0.4662  0.1235 -0.7110
  805MPD2    C111906   1.316   0.423  15.212  0.0229 -0.3545  0.1540
  805MPD2    C211907   1.432   0.478  15.275  0.0825 -0.0041  0.5989
  805MPD2    C311908   1.514   0.392  15.347  0.0149  0.0102  0.5181
  805MPD2    C411909   1.489   0.256  15.340  0.5369  0.0544  0.3923
  805MPD2    C511910   1.378   0.203  15.279  0.5475 -0.1450 -0.4768
  805MPD2     H11911   1.452   0.583  15.263 -1.5173  0.1600 -0.7321
  805MPD2    H111912   1.555   0.189  15.395  0.0781  0.4962  1.4856
  805MPD2    H211913   1.198   0.253  15.167  0.8253 -0.4950 -0.9349
  805MPD2    H311914   1.379   0.095  15.277  0.3571 -0.1827  1.3780
  805MPD2     N11915   1.620   0.459  15.415  0.9205  0.2674 -0.0083
  805MPD2    H511916   1.626   0.559  15.400  0.2569  0.2845 -0.1567
  805MPD2    N111917   1.242   0.515  15.138 -0.4165  0.5105  0.1002
  805MPD2    H711918   1.286   0.606  15.139  0.9455 -0.1410 -1.4280
  806MPD2     C11919   1.967   4.517   0.085 -0.3438 -0.2321 -0.0921
  806MPD2    C111920   1.971   4.619   0.173  0.3559 -0.0528  0.3341
  806MPD2    C211921   1.998   0.002   0.127 -0.1392  0.1424  0.1056
  806MPD2    C311922   2.046   0.027  17.748  0.7032 -0.7392 -0.1014
  806MPD2    C411923   2.044   4.663  17.660  0.0460  0.4704  0.4900
  806MPD2    C511924   2.002   4.536  17.702  0.1183 -0.0862 -0.6627
  806MPD2     H11925   2.010   0.089   0.190 -1.7713 -0.7983  1.7501
  806MPD2    H111926   2.077   4.677  17.557 -0.1225 -0.8736  0.2529
  806MPD2    H211927   1.937   4.421   0.125  2.2984 -1.8955 -2.0937
  806MPD2    H311928   2.005   4.449  17.637 -0.3575 -0.9115  0.4214
  806MPD2     N11929   2.101   0.155  17.715  0.5081 -0.4652  0.4370
  806MPD2    H511930   2.087   0.223   0.038  3.0171  0.4286  0.0641
  806MPD2    N111931   1.933   4.590   0.306 -1.0986  0.2277 -0.3560
  806MPD2    H711932   1.905   4.495   0.332  0.0297  0.3843  1.4238
  807MPD2     C11933   1.555   4.289   0.949 -0.6172  0.3517 -0.1336
  807MPD2    C111934   1.691   4.276   0.940 -0.2056 -0.3552  0.4701
  807MPD2    C211935   1.754   4.179   1.020 -0.5168  0.5484 -0.0327
  807MPD2    C311936   1.688   4.084   1.090  0.1584  0.0004  0.0524
  807MPD2    C411937   1.554   4.103   1.103  0.2546  0.0467  0.1252
  807MPD2    C511938   1.492   4.206   1.037 -0.6920 -0.2708 -0.0201
  807MPD2     H11939   1.861   4.170   1.007 -0.3018  0.7861  1.5167
  807MPD2    H111940   1.501   4.032   1.165  2.2708 -0.6462  1.0197
  807MPD2    H211941   1.498   4.362   0.892 -1.8461 -1.0832 -0.7349
  807MPD2    H311942   1.387   4.228   1.048 -0.4812  0.5421  0.3606
  807MPD2     N11943   1.769   3.988   1.155 -0.0555  0.3569 -0.5186
  807MPD2    H511944   1.869   3.993   1.137  0.1161 -0.1618  0.3062
  807MPD2    N111945   1.780   4.352   0.861 -0.1428 -0.1076  0.0480
  807MPD2    H711946   1.879   4.328   0.861  0.1534  1.1273 -1.3791
  808MPD2     C11947   2.177   1.557  10.517  0.2435  0.0605 -0.4443
  808MPD2    C111948   2.170   1.539  10.381  0.6974  0.2850 -0.2406
  808MPD2    C211949   2.223   1.636  10.301 -0.5246 -0.1696  0.0046
  808MPD2    C311950   2.278   1.754  10.347  0.1231 -0.3415  0.4530
  808MPD2    C411951   2.279   1.769  10.483  0.6966 -0.2293 -0.0642
  808MPD2    C511952   2.234   1.669  10.568 -0.5213 -1.5097 -0.0212
  808MPD2     H11953   2.211   1.619  10.194 -0.6176 -1.2043  0.1839
  808MPD2    H111954   2.312   1.862  10.528  1.9374 -0.4807 -0.4376
  808MPD2    H211955   2.160   1.476  10.587  0.3102  1.9938  1.7969
  808MPD2    H311956   2.240   1.681  10.675 -0.3485  1.7384 -0.3956
  808MPD2     N11957   2.330   1.853  10.263  0.4797  0.0108 -0.3109
  808MPD2    H511958   2.344   1.945  10.303 -2.2865 -0.6084  2.1117
  808MPD2    N111959   2.115   1.430  10.319 -0.4105  0.4879 -0.0124
  808MPD2    H711960   2.131   1.425  10.219  1.7869  0.2696  0.3507
  809MPD2     C11961   3.016   2.239   9.535 -0.0482  0.1184  0.2983
  809MPD2    C111962   3.017   2.175   9.659 -0.6962 -0.4048  1.2129
  809MPD2    C211963   2.896   2.153   9.724 -0.3157  0.3366 -0.8213
  809MPD2    C311964   2.773   2.187   9.660 -0.1417  0.1214  0.1917
  809MPD2    C411965   2.771   2.255   9.540  0.9420 -0.0040 -0.6816
  809MPD2    C511966   2.896   2.276   9.479  0.2842  0.2494  0.0732
  809MPD2     H11967   2.902   2.107   9.822  0.5188  1.4621 -0.3332
  809MPD2    H111968   2.674   2.285   9.503  0.0955  0.0989  1.6697
  809MPD2    H211969   3.100   2.251   9.468  1.3341  0.1028  2.0189
  809MPD2    H311970   2.899   2.324   9.382  0.0152  1.7333  0.7987
  809MPD2     N11971   2.649   2.150   9.722 -0.2299  0.0716  0.2523
  809MPD2    H511972   2.568   2.188   9.674  0.5700  1.7113  0.2407
  809MPD2    N111973   3.136   2.121   9.723  0.3654  0.3651 -0.2975
  809MPD2    H711974   3.118   2.062   9.804  1.6324 -1.5341 -1.4203
  810MPD2     C11975   2.388   0.994  10.415 -0.7078  0.1041 -0.0258
  810MPD2    C111976   2.264   0.949  10.443  0.1303  0.4616  0.5673
  810MPD2    C211977   2.196   1.003  10.550  1.1323 -0.4433 -1.0320
  810MPD2    C311978   2.246   1.116  10.614  0.1336  0.0551 -0.1562
  810MPD2    C411979   2.376   1.155  10.584 -0.1675 -0.1459  0.2994
  810MPD2    C511980   2.449   1.093  10.489  0.4932  0.2157  0.2000
  810MPD2     H11981   2.094   0.976  10.571  1.4637  1.0015  2.4689
  810MPD2    H111982   2.421   1.228  10.650  1.6395 -2.3999  1.5520
  810MPD2    H211983   2.442   0.950  10.332 -0.6157  1.3062 -0.5958
  810MPD2    H311984   2.548   1.132  10.468  0.2966  0.2934 -0.5814
  810MPD2     N11985   2.181   1.191  10.715  0.0252 -0.0211  0.0953
  810MPD2    H511986   2.227   1.279  10.737  0.7420 -0.6501  1.0908
  810MPD2    N111987   2.215   0.846  10.362 -0.2068 -0.1067 -0.0962
  810MPD2    H711988   2.273   0.821  10.283  0.1506 -1.0657  0.4603
  811MPD2     C11989   1.551   0.710   9.790 -0.5103 -0.5105  0.5488
  811MPD2    C111990   1.623   0.799   9.869 -0.2135  0.5314 -0.6739
  811MPD2    C211991   1.594   0.936   9.862  0.4313 -0.3212  0.4420
  811MPD2    C311992   1.487   0.981   9.782 -0.5649 -0.4974  0.5468
  811MPD2    C411993   1.412   0.889   9.713 -0.0030 -0.1987 -0.0806
  811MPD2    C511994   1.437   0.751   9.724  0.1918  0.7915 -0.4045
  811MPD2     H11995   1.647   1.016   9.911  0.3269 -0.3098  0.5368
  811MPD2    H111996   1.320   0.925   9.667 -1.1400 -1.1560  1.4693
  811MPD2    H211997   1.580   0.606   9.792 -2.7307 -1.1380 -0.2377
  811MPD2    H311998   1.380   0.675   9.671 -1.2366  3.3442 -2.5868
  811MPD2     N11999   1.472   1.121   9.776  0.4587 -0.0567 -0.9362
  811MPD2    H512000   1.534   1.176   9.835 -0.8392  1.9546 -1.4738
  811MPD2    N112001   1.727   0.748   9.938 -0.2617 -0.3879  0.8741
  811MPD2    H712002   1.755   0.655   9.908 -1.2962 -0.2953 -0.3742
  812MPD2     C12003   0.063   1.051  12.597  0.6091 -0.3050 -0.2048
  812MPD2    C112004   0.162   1.138  12.636 -0.0715 -0.5381  0.7575
  812MPD2    C212005   0.255   1.096  12.723  0.3813 -0.8792  0.3678
  812MPD2    C312006   0.251   0.968  12.777  0.1969  0.0265 -0.2996
  812MPD2    C412007   0.148   0.883  12.743 -0.2680  0.3795 -0.3822
  812MPD2    C512008   0.052   0.928  12.655 -0.0045 -0.2470  0.1926
  812MPD2     H12009   0.334   1.161  12.759  0.5652 -1.5470  1.1623
  812MPD2    H112010   0.134   0.795  12.804 -0.3535 -0.2701 -1.3327
  812MPD2    H212011   4.725   1.063  12.520  2.6095  0.7091 -2.0382
  812MPD2    H312012   4.701   0.871  12.630 -0.8193  0.8795  0.5264
  812MPD2     N12013   0.355   0.926  12.862  0.8504 -0.5495  0.7014
  812MPD2    H512014   0.422   0.993  12.898  4.1307 -2.7798 -1.3239
  812MPD2    N112015   0.153   1.263  12.573 -0.0536  0.4367 -0.0580
  812MPD2    H712016   0.073   1.278  12.512  0.2327  1.5572 -0.1618
  813MPD2     C12017   0.057   2.383  12.593  0.0054 -0.1409 -0.0910
  813MPD2    C112018   0.023   2.520  12.621  0.7049  0.0823 -0.5788
  813MPD2    C212019   4.714   2.547  12.746 -0.0221 -0.3029 -0.5238
  813MPD2    C312020   4.678   2.452  12.834  0.3419  0.2882 -0.1814
  813MPD2    C412021   4.707   2.323  12.806  0.4559  0.1268 -0.2231
  813MPD2    C512022   0.026   2.289  12.685  0.8001  0.0017 -0.1430
  813MPD2     H12023   4.694   2.651  12.766  0.9393 -0.1003 -0.6221
  813MPD2    H112024   4.689   2.255  12.889 -0.6584  1.2121  0.4174
  813MPD2    H212025   0.100   2.346  12.500  0.1196  1.4189 -0.6681
  813MPD2    H312026   0.052   2.185  12.670  0.8495 -0.1017  0.6877
  813MPD2     N12027   4.608   2.493  12.946 -0.5160  0.0088 -0.8155
  813MPD2    H512028   4.603   2.594  12.957  2.5364 -0.2007  2.4576
  813MPD2    N112029   0.065   2.613  12.517 -0.2151  0.4381 -0.8459
  813MPD2    H712030   0.122   2.579  12.441 -0.9869 -0.1821 -1.1422
  814MPD2     C12031   0.441   3.969  12.541  0.1891  0.7021 -0.5680
  814MPD2    C112032   0.386   4.085  12.482  0.7269 -0.1362  0.0080
  814MPD2    C212033   0.421   4.213  12.533  0.0269 -0.0201  1.4475
  814MPD2    C312034   0.517   4.220  12.627  0.0272  0.2690 -0.1227
  814MPD2    C412035   0.596   4.109  12.658 -0.7952  0.4428 -0.4583
  814MPD2    C512036   0.548   3.990  12.620  0.1034 -0.2855  0.1976
  814MPD2     H12037   0.382   4.301  12.483 -0.6998 -0.4494  1.2514
  814MPD2    H112038   0.688   4.129  12.711 -1.6155  0.8232  0.8259
  814MPD2    H212039   0.434   3.871  12.496 -3.7256  0.2646  1.0184
  814MPD2    H312040   0.606   3.905  12.656 -0.1163 -1.4438 -2.1846
  814MPD2     N12041   0.574   4.350  12.660  0.6854  0.1360  0.1241
  814MPD2    H512042   0.667   4.352  12.700 -0.1136  0.6053  1.9814
  814MPD2    N112043   0.298   4.085  12.365 -0.7367  0.2774  0.5586
  814MPD2    H712044   0.270   4.174  12.326 -0.2332 -0.4016 -1.3585
  815MPD2     C12045   0.480   2.767  11.628 -0.2216 -0.3289 -0.0143
  815MPD2    C112046   0.495   2.650  11.692  0.1111  0.5941 -0.8768
  815MPD2    C212047   0.401   2.603  11.779  0.3380 -0.1811  0.1088
  815MPD2    C312048   0.277   2.667  11.782  0.1191  0.1977 -0.0303
  815MPD2    C412049   0.255   2.779  11.707 -0.2821 -0.7975 -0.5636
  815MPD2    C512050   0.356   2.838  11.640 -0.0641 -0.1168 -0.1742
  815MPD2     H12051   0.421   2.515  11.838  1.7202  1.0471  1.4646
  815MPD2    H112052   0.159   2.829  11.713  0.2615  0.0817  0.8673
  815MPD2    H212053   0.553   2.805  11.558  2.0619 -0.1622  2.4499
  815MPD2    H312054   0.341   2.929  11.583  1.2548 -1.1645 -2.1811
  815MPD2     N12055   0.181   2.598  11.856  0.3310  0.2149  0.3317
  815MPD2    H512056   0.204   2.509  11.899  0.1257  0.7385  1.5379
  815MPD2    N112057   0.618   2.585  11.656  0.3802 -0.9839  0.4756
  815MPD2    H712058   0.653   2.609  11.565 -0.2306  0.5611  0.6541
  816MPD2     C12059   1.344   1.826  17.042  0.4185  0.0802  0.8896
  816MPD2    C112060   1.235   1.773  16.980  0.3954  0.2359 -0.1101
  816MPD2    C212061   1.268   1.683  16.878  0.9592  0.3810 -0.6580
  816MPD2    C312062   1.399   1.666  16.839  0.3719  0.1636 -0.2676
  816MPD2    C412063   1.499   1.720  16.910 -0.2823  0.2066 -0.3222
  816MPD2    C512064   1.475   1.797  17.022 -0.0612  0.7043 -0.2037
  816MPD2     H12065   1.188   1.628  16.828  0.6049  0.6092 -0.3415
  816MPD2    H112066   1.603   1.705  16.884  0.9255  2.7277  3.0557
  816MPD2    H212067   1.325   1.901  17.118 -0.4653  1.2253 -0.4671
  816MPD2    H312068   1.556   1.845  17.076 -0.8919 -1.2573  2.7629
  816MPD2     N12069   1.417   1.583  16.729 -0.2524  0.5791  0.0728
  816MPD2    H512070   1.333   1.551  16.681 -0.5961  2.0037 -0.2812
  816MPD2    N112071   1.103   1.800  17.034 -0.3800 -0.0788  0.3385
  816MPD2    H712072   1.089   1.834  17.128 -1.8856  3.3536 -1.1083
  817MPD2     C12073   0.671   3.484   9.951 -0.5807  0.5898  0.0822
  817MPD2    C112074   0.553   3.410   9.951 -0.3437 -0.6189  0.3725
  817MPD2    C212075   0.438   3.480   9.931  0.2818  0.2155  0.2789
  817MPD2    C312076   0.439   3.614   9.917 -1.0599  0.8153 -0.3147
  817MPD2    C412077   0.553   3.694   9.921 -0.0052  1.1367  0.6913
  817MPD2    C512078   0.671   3.619   9.933 -0.7180 -0.0266 -0.2452
  817MPD2     H12079   0.345   3.424   9.930 -0.6725  1.8141 -0.9007
  817MPD2    H112080   0.560   3.801   9.909 -1.9670  1.4360  2.3821
  817MPD2    H212081   0.771   3.443   9.954 -0.4539  0.9901  1.6697
  817MPD2    H312082   0.768   3.666   9.932 -0.0029 -1.5133 -0.5024
  817MPD2     N12083   0.309   3.665   9.895 -0.5610  0.2302  0.0226
  817MPD2    H512084   0.234   3.597   9.891 -1.1307  0.8015  1.0677
  817MPD2    N112085   0.548   3.267   9.944 -0.1830  0.8959  0.4527
  817MPD2    H712086   0.461   3.221   9.921  0.8740 -1.2787  0.8708
  818MPD2     C12087   3.551   3.720   9.994  0.8852  0.4555 -0.0485
  818MPD2    C112088   3.636   3.620  10.026  0.3721  0.3224  0.4851
  818MPD2    C212089   3.640   3.505   9.948  0.1793 -0.4917  0.1300
  818MPD2    C312090   3.548   3.482   9.843  0.6411  0.3976 -0.6577
  818MPD2    C412091   3.460   3.578   9.820 -0.1867 -0.0715 -0.0423
  818MPD2    C512092   3.461   3.694   9.897 -0.5491  0.0265  0.0563
  818MPD2     H12093   3.716   3.434   9.977 -0.0377  0.6717  3.6009
  818MPD2    H112094   3.386   3.563   9.742 -0.6827 -1.1056  0.6330
  818MPD2    H212095   3.550   3.816  10.044 -0.4110 -0.2694  1.3379
  818MPD2    H312096   3.382   3.766   9.879  0.5838  1.2706  0.0748
  818MPD2     N12097   3.542   3.358   9.778  0.1793  0.0964 -0.3495
  818MPD2    H512098   3.461   3.342   9.720  0.5398  0.0806 -0.8542
  818MPD2    N112099   3.736   3.637  10.124  0.1797 -0.2334  0.2944
  818MPD2    H712100   3.794   3.560  10.157 -0.2013 -1.0228 -0.8428
  819MPD2     C12101   2.418   0.322  15.411  0.8436  0.4011 -0.6686
  819MPD2    C112102   2.324   0.261  15.496  0.4230  0.5927  0.4467
  819MPD2    C212103   2.361   0.192  15.610 -0.6635 -0.2222  0.6142
  819MPD2    C312104   2.486   0.197  15.659  0.0099 -0.0830  0.8543
  819MPD2    C412105   2.590   0.246  15.572 -0.7140 -0.6575  0.2417
  819MPD2    C512106   2.546   0.312  15.456  0.1328 -0.2951  0.0298
  819MPD2     H12107   2.296   0.126  15.666 -1.4706 -0.2428 -0.3247
  819MPD2    H112108   2.695   0.240  15.597 -0.5812  3.0655  0.5781
  819MPD2    H212109   2.392   0.360  15.313 -1.2775  0.5482 -0.0554
  819MPD2    H312110   2.625   0.343  15.389 -1.6517  1.0700 -1.4564
  819MPD2     N12111   2.520   0.112  15.768  0.5912  0.1348 -0.1101
  819MPD2    H512112   2.448   0.050  15.802  0.5504 -0.3979 -1.1726
  819MPD2    N112113   2.194   0.249  15.443 -0.7646 -0.0503  0.1933
  819MPD2    H712114   2.189   0.263  15.342 -1.3994  1.1286  0.3892
  820MPD2     C12115   1.528   0.230  14.668  0.0340 -0.2190  0.8611
  820MPD2    C112116   1.537   0.339  14.757 -0.1031 -0.0317 -0.6008
  820MPD2    C212117   1.619   0.326  14.876 -0.3548 -0.0621 -0.1776
  820MPD2    C312118   1.683   0.203  14.900  0.4983 -0.2408 -1.3109
  820MPD2    C412119   1.670   0.102  14.811  0.2338 -0.3585 -0.2763
  820MPD2    C512120   1.587   0.109  14.693  0.6696 -0.5361 -0.1034
  820MPD2     H12121   1.621   0.401  14.955  0.1434 -2.1113  1.7284
  820MPD2    H112122   1.719   0.006  14.824 -0.0906 -0.4355  0.4058
  820MPD2    H212123   1.459   0.244  14.585  2.6544  1.1289 -1.0720
  820MPD2    H312124   1.593   0.027  14.622 -1.1536 -0.6572 -0.1314
  820MPD2     N12125   1.744   0.170  15.025  0.0739  0.4890 -0.4611
  820MPD2    H512126   1.777   0.077  15.047  0.4020  0.9116  0.8353
  820MPD2    N112127   1.441   0.442  14.731 -0.1643 -0.0647 -0.2714
  820MPD2    H712128   1.379   0.430  14.652 -0.9908  0.9576  0.2047
  821MPD2     C12129   1.983   1.806  13.022 -0.3680 -0.0927  0.0493
  821MPD2    C112130   2.046   1.725  13.116  0.0115 -0.1669 -0.3387
  821MPD2    C212131   2.182   1.732  13.128 -0.4285 -0.5180  0.0510
  821MPD2    C312132   2.254   1.800  13.030 -0.3098  0.2831 -0.0059
  821MPD2    C412133   2.188   1.863  12.927  0.3087  0.0376 -0.0080
  821MPD2    C512134   2.055   1.871  12.926  0.3022  0.3711 -0.1798
  821MPD2     H12135   2.232   1.674  13.206  2.6835  2.7225  0.4704
  821MPD2    H112136   2.240   1.926  12.856 -0.1669  1.2727  0.7455
  821MPD2    H212137   1.875   1.804  13.010 -0.6828 -2.2003  3.0492
  821MPD2    H312138   2.004   1.940  12.860 -0.4871  0.4354  0.4982
  821MPD2     N12139   2.398   1.804  13.028  0.2859 -0.0316  0.9779
  821MPD2    H512140   2.435   1.873  12.963 -0.7967  1.4981  1.9887
  821MPD2    N112141   1.983   1.635  13.207 -0.2259 -0.3795  0.2127
  821MPD2    H712142   2.042   1.586  13.273  0.6515 -0.2692 -0.4780
  822MPD2     C12143   3.179   1.386  15.792  0.4012  0.3650  0.0518
  822MPD2    C112144   3.227   1.395  15.921 -0.3741  1.3869 -0.2235
  822MPD2    C212145   3.162   1.491  16.002 -0.5175 -0.8163 -0.8188
  822MPD2    C312146   3.063   1.572  15.954 -0.1197  0.2476  0.3110
  822MPD2    C412147   3.006   1.550  15.826 -0.2893 -0.3352  0.1349
  822MPD2    C512148   3.065   1.449  15.745 -0.1221  0.4467  0.2450
  822MPD2     H12149   3.198   1.499  16.104  0.2972 -0.5466 -1.1296
  822MPD2    H112150   2.915   1.594  15.788 -0.4657  0.0576  1.0158
  822MPD2    H212151   3.223   1.316  15.722 -2.8697 -0.2857 -1.3416
  822MPD2    H312152   3.028   1.437  15.645  1.5581  1.3879 -0.4948
  822MPD2     N12153   3.006   1.668  16.040 -0.2750 -0.4983 -0.1705
  822MPD2    H512154   3.026   1.659  16.139  0.2927  0.5759 -0.1893
  822MPD2    N112155   3.339   1.320  15.972  0.1230 -0.0283  0.5037
  822MPD2    H712156   3.377   1.343  16.064 -0.0477 -0.0733  0.5851
  823MPD2     C12157   2.581   1.825  16.746 -0.5867 -0.2053  0.1936
  823MPD2    C112158   2.633   1.739  16.655 -0.5630  0.7102  0.4877
  823MPD2    C212159   2.667   1.607  16.694  0.4250  0.3632  0.6756
  823MPD2    C312160   2.612   1.556  16.808  0.8228  0.5814  0.1248
  823MPD2    C412161   2.532   1.641  16.883 -1.3444 -0.1502  0.1905
  823MPD2    C512162   2.521   1.772  16.856 -0.2752  0.3899  0.4503
  823MPD2     H12163   2.726   1.548  16.624 -0.7858  0.8123 -0.7198
  823MPD2    H112164   2.480   1.614  16.974 -0.3522 -1.3981  0.3759
  823MPD2    H212165   2.556   1.927  16.719 -0.5657  0.4826  2.8238
  823MPD2    H312166   2.461   1.836  16.919  0.3251  0.5918  0.8148
  823MPD2     N12167   2.641   1.432  16.867 -0.6866  0.2990 -0.1666
  823MPD2    H512168   2.588   1.412  16.951  0.4475 -0.5921  0.3317
  823MPD2    N112169   2.675   1.793  16.531  0.6115  0.2960  0.1756
  823MPD2    H712170   2.676   1.894  16.522  1.7470  0.4758  2.3028
  824MPD2     C12171   3.873   0.579  16.078 -0.5652 -0.7660  0.2002
  824MPD2    C112172   3.836   0.654  15.971  0.5861 -0.4318 -0.6199
  824MPD2    C212173   3.846   0.609  15.836  0.4613 -0.3861 -0.5455
  824MPD2    C312174   3.910   0.484  15.821  0.2580 -0.4590  0.2034
  824MPD2    C412175   3.944   0.410  15.936 -0.0191 -0.3939 -0.1144
  824MPD2    C512176   3.934   0.459  16.066 -0.4218 -0.1743  0.3038
  824MPD2     H12177   3.807   0.664  15.752 -1.2006 -0.6897  0.0309
  824MPD2    H112178   3.974   0.307  15.923 -0.3665 -0.5407  0.2849
  824MPD2    H212179   3.845   0.613  16.177 -0.0878  2.1067 -0.6411
  824MPD2    H312180   3.968   0.394  16.146 -0.7765  0.2356  0.7871
  824MPD2     N12181   3.902   0.430  15.694 -0.0073 -0.3908  0.2072
  824MPD2    H512182   3.864   0.497  15.628  1.1253  0.5665  0.5206
  824MPD2    N112183   3.756   0.764  16.005  0.1275 -0.5524  0.1620
  824MPD2    H712184   3.742   0.776  16.104  1.2199  0.2038  0.2211
  825MPD2     C12185   3.849   0.483  14.859  0.2353  0.0347 -0.1493
  825MPD2    C112186   3.920   0.508  14.978  0.0219  0.1284  0.2802
  825MPD2    C212187   3.989   0.627  14.987  0.1046  0.0238  0.5680
  825MPD2    C312188   4.008   0.709  14.870 -0.6051  0.6934 -0.3055
  825MPD2    C412189   3.926   0.691  14.764 -0.4445  0.0934  0.4183
  825MPD2    C512190   3.854   0.570  14.754 -0.7766  0.0955 -0.1094
  825MPD2     H12191   4.042   0.651  15.078  2.1591 -0.4004 -0.5265
  825MPD2    H112192   3.923   0.762  14.682  3.5954 -0.7485 -0.4316
  825MPD2    H212193   3.777   0.403  14.845 -0.5289  0.9457 -1.4813
  825MPD2    H312194   3.788   0.557  14.670 -0.7458  0.1477 -0.1420
  825MPD2     N12195   4.089   0.824  14.863  0.4881 -0.2790  0.3935
  825MPD2    H512196   4.074   0.885  14.783 -0.5542  0.6900  1.3245
  825MPD2    N112197   3.907   0.411  15.081  0.1996 -0.4655 -0.1519
  825MPD2    H712198   3.841   0.336  15.063 -2.1916  1.3307  1.0898
  826MPD2     C12199   3.795   0.666  13.973  0.5466 -0.0692 -0.5979
  826MPD2    C112200   3.808   0.690  13.836  0.3901  0.9163 -0.3852
  826MPD2    C212201   3.725   0.791  13.785  0.0171 -0.7016  0.3082
  826MPD2    C312202   3.639   0.866  13.866  0.1141 -0.2554 -0.4323
  826MPD2    C412203   3.624   0.842  14.003  0.2800  0.1735  0.2674
  826MPD2    C512204   3.706   0.748  14.045  0.0382 -0.4768  0.4250
  826MPD2     H12205   3.720   0.801  13.677 -0.7077 -0.2686  0.3746
  826MPD2    H112206   3.550   0.888  14.067  0.6107  2.4782 -1.0115
  826MPD2    H212207   3.845   0.588  14.029  0.2801  0.0400 -0.2112
  826MPD2    H312208   3.695   0.721  14.149 -1.1371 -1.4086  0.0689
  826MPD2     N12209   3.563   0.961  13.796  0.5250  0.0453  0.0851
  826MPD2    H512210   3.587   0.997  13.704 -2.1562  3.3421  0.6783
  826MPD2    N112211   3.884   0.598  13.755  0.6294  0.1519 -0.1527
  826MPD2    H712212   3.926   0.514  13.794 -0.4186 -0.2179  0.1791
  827MPD2     C12213   4.561   2.099   9.934 -0.3891 -0.5166  0.0392
  827MPD2    C112214   4.484   1.992   9.968 -0.0358  0.0824  0.2842
  827MPD2    C212215   4.370   1.969   9.895  0.8002 -0.4095 -0.4679
  827MPD2    C312216   4.329   2.051   9.793  0.1479  0.0430  0.0656
  827MPD2    C412217   4.403   2.164   9.772 -1.0128 -0.1395 -1.0481
  827MPD2    C512218   4.522   2.194   9.838  0.1979 -0.5136 -0.1210
  827MPD2     H12219   4.313   1.878   9.908  0.5985 -0.3427 -0.8793
  827MPD2    H112220   4.366   2.233   9.697 -0.4480  2.6073  1.2021
  827MPD2    H212221   4.653   2.125   9.985 -0.6036 -0.0929  0.2082
  827MPD2    H312222   4.577   2.283   9.810  0.3181 -0.8549 -0.9889
  827MPD2     N12223   4.215   2.022   9.709  0.0732  0.0025  0.8152
  827MPD2    H512224   4.165   1.935   9.728  1.2801 -0.5753  1.3409
  827MPD2    N112225   4.529   1.908  10.070 -0.5609 -0.2486  0.2802
  827MPD2    H712226   4.619   1.927  10.112 -0.4759  0.0814 -0.0588
  828MPD2     C12227   3.280   1.288  12.049  0.5966  0.1285 -0.1132
  828MPD2    C112228   3.278   1.425  12.024 -0.8622 -0.6095  0.1534
  828MPD2    C212229   3.358   1.479  11.924  0.8137 -0.4122  0.5936
  828MPD2    C312230   3.448   1.399  11.854  0.0439  0.0143  0.1270
  828MPD2    C412231   3.447   1.261  11.885 -0.2293  0.1442  0.0644
  828MPD2    C512232   3.359   1.211  11.970  0.6385  0.3604 -0.1317
  828MPD2     H12233   3.359   1.587  11.910  1.8701 -0.7157 -1.6654
  828MPD2    H112234   3.518   1.189  11.846  0.0081 -1.6800  3.8399
  828MPD2    H212235   3.214   1.231  12.114  1.5802  0.3279  1.0673
  828MPD2    H312236   3.367   1.103  11.982  2.7385  0.5424  0.1333
  828MPD2     N12237   3.527   1.438  11.744  0.1869 -0.3242 -0.1262
  828MPD2    H512238   3.578   1.365  11.695  1.9632  0.6034  0.3264
  828MPD2    N112239   3.198   1.513  12.101  0.1041  0.4061  0.0053
  828MPD2    H712240   3.190   1.608  12.068 -0.5209  0.1662 -0.5252
  829MPD2     C12241   2.605   2.306  12.102  0.3641  0.5980  0.1099
  829MPD2    C112242   2.673   2.226  12.013  0.2645  0.8989  1.3024
  829MPD2    C212243   2.749   2.119  12.069  0.1404  0.1271  0.1183
  829MPD2    C312244   2.759   2.100  12.210  0.1674 -0.3243  0.1850
  829MPD2    C412245   2.681   2.186  12.292 -0.1777 -0.1577  0.2035
  829MPD2    C512246   2.603   2.279  12.235  0.1190 -0.2490  0.7338
  829MPD2     H12247   2.801   2.048  12.006 -1.9091 -0.9973 -0.3424
  829MPD2    H112248   2.689   2.172  12.400  0.8261  3.3905  0.6105
  829MPD2    H212249   2.535   2.381  12.065  1.1010  0.2868 -1.8930
  829MPD2    H312250   2.548   2.346  12.300  2.7676  2.0791  0.5925
  829MPD2     N12251   2.828   1.990  12.271 -0.0099 -0.8445  0.3186
  829MPD2    H512252   2.819   1.977  12.372  3.6115 -1.3411  0.5747
  829MPD2    N112253   2.656   2.247  11.871  0.2627 -1.0219  0.0228
  829MPD2    H712254   2.580   2.309  11.842  0.2058 -0.7616  0.7177
  830MPD2     C12255   3.038   4.361  15.806 -0.8055  0.2457  0.5973
  830MPD2    C112256   2.917   4.411  15.774 -0.0365 -1.2117  0.3693
  830MPD2    C212257   2.904   4.520  15.690 -0.0672  0.1616  0.7086
  830MPD2    C312258   3.022   4.563  15.629  0.5655 -0.0873  1.0299
  830MPD2    C412259   3.146   4.503  15.640  0.2224  0.5918 -0.6664
  830MPD2    C512260   3.148   4.407  15.734 -0.6430 -0.4823 -0.3884
  830MPD2     H12261   2.808   4.564  15.669  0.0949  0.1481 -0.0586
  830MPD2    H112262   3.234   4.541  15.588  0.2262  0.4564 -0.7584
  830MPD2    H212263   3.062   4.293  15.887  0.0824  2.4311  2.1738
  830MPD2    H312264   3.246   4.361  15.748 -1.1211 -0.9503  1.4192
  830MPD2     N12265   3.021   4.682  15.553 -0.4219  0.1686 -0.3707
  830MPD2    H512266   3.115   4.717  15.537  0.5490 -1.8920  0.7203
  830MPD2    N112267   2.805   4.358  15.846 -0.5953 -0.1835 -0.1620
  830MPD2    H712268   2.827   4.290  15.918 -0.3207 -1.7288 -1.6724
  831MPD2     C12269   3.259   1.652  16.628  0.4291  0.4749 -0.6458
  831MPD2    C112270   3.249   1.640  16.490 -0.0841 -0.0668  0.2778
  831MPD2    C212271   3.145   1.560  16.442  0.6958 -0.1127  0.8490
  831MPD2    C312272   3.051   1.500  16.522 -0.0736 -0.4329  1.0294
  831MPD2    C412273   3.071   1.524  16.658  0.1525  0.4497  0.1037
  831MPD2    C512274   3.168   1.594  16.712  0.3539 -1.1297 -0.1861
  831MPD2     H12275   3.128   1.561  16.335  0.0598  1.8044  0.9708
  831MPD2    H112276   2.991   1.481  16.716  0.4849  0.2860  0.4450
  831MPD2    H212277   3.335   1.712  16.676 -0.9716  0.6628  1.3355
  831MPD2    H312278   3.175   1.616  16.818 -0.7679  3.3663 -1.0386
  831MPD2     N12279   2.944   1.418  16.488 -0.2505 -0.5643 -0.0167
  831MPD2    H512280   2.878   1.387  16.558 -0.0467 -0.7732  0.0825
  831MPD2    N112281   3.333   1.701  16.398  0.2490 -0.5166 -0.1257
  831MPD2    H712282   3.427   1.731  16.423  1.1914 -2.6997 -1.0966
  832MPD2     C12283   1.715   2.495  16.970  0.2542 -0.4842  0.1150
  832MPD2    C112284   1.695   2.628  16.986  0.0068 -0.0752  0.2681
  832MPD2    C212285   1.578   2.681  16.931 -0.9797 -0.0429  0.1023
  832MPD2    C312286   1.493   2.597  16.863  0.0249  0.5971 -0.4658
  832MPD2    C412287   1.521   2.468  16.851 -0.4282  0.5461  0.0476
  832MPD2    C512288   1.626   2.412  16.908 -0.1379 -0.4541  0.6876
  832MPD2     H12289   1.575   2.788  16.918  0.0302  0.1401  1.3378
  832MPD2    H112290   1.454   2.402  16.797  0.5582  1.0088 -1.7370
  832MPD2    H212291   1.810   2.453  16.999 -0.1247 -2.2976 -1.2667
  832MPD2    H312292   1.641   2.305  16.899  0.4587 -0.2999 -0.2215
  832MPD2     N12293   1.376   2.642  16.792 -0.1974  0.0408 -0.0626
  832MPD2    H512294   1.324   2.570  16.744 -1.1380  1.8404 -1.6878
  832MPD2    N112295   1.804   2.701  17.039 -0.0464 -0.1268  0.3106
  832MPD2    H712296   1.892   2.650  17.050 -0.6744 -1.2525  0.0611
  833MPD2     C12297   3.142   4.278  12.922 -0.2643  1.1663  0.1642
  833MPD2    C112298   3.151   4.398  12.858  0.3366  0.5240 -0.0780
  833MPD2    C212299   3.268   4.416  12.785  0.5080  0.0617 -0.0717
  833MPD2    C312300   3.370   4.324  12.786  0.3088  0.1218 -0.7745
  833MPD2    C412301   3.357   4.204  12.852  0.7850 -0.1253  0.2510
  833MPD2    C512302   3.242   4.191  12.923 -0.0182  0.1433 -0.2370
  833MPD2     H12303   3.294   4.516  12.754 -0.9533 -0.2901 -2.4324
  833MPD2    H112304   3.429   4.123  12.862  1.9845  0.9827  0.6525
  833MPD2    H212305   3.051   4.246  12.970 -0.1929 -0.3470 -0.7170
  833MPD2    H312306   3.221   4.103  12.983 -1.4458 -0.8671 -2.1932
  833MPD2     N12307   3.490   4.339  12.715  0.1518 -0.5281 -0.2667
  833MPD2    H512308   3.566   4.271  12.718  1.0717  0.5470  0.7820
  833MPD2    N112309   3.041   4.481  12.853  0.1006 -0.4247  0.1946
  833MPD2    H712310   2.959   4.459  12.908  0.3054 -0.3975  0.5102
  834MPD2     C12311   3.574   3.683  12.037  0.4344  0.0440  0.6525
  834MPD2    C112312   3.605   3.788  11.953  0.2387  0.2398 -0.2581
  834MPD2    C212313   3.610   3.911  12.003  1.0478  0.4815 -0.5920
  834MPD2    C312314   3.594   3.936  12.134  0.2899  0.2882  0.4163
  834MPD2    C412315   3.559   3.822  12.222  0.4069 -0.2407 -0.5256
  834MPD2    C512316   3.541   3.697  12.167  0.4078  0.8563 -0.6171
  834MPD2     H12317   3.646   3.987  11.935  1.9606 -0.7871 -1.5240
  834MPD2    H112318   3.546   3.831  12.329  0.4654  2.0842 -0.7099
  834MPD2    H212319   3.562   3.579  12.008 -0.5282  0.5274 -0.6720
  834MPD2    H312320   3.523   3.608  12.226 -1.2667  0.9659 -0.9491
  834MPD2     N12321   3.616   4.068  12.183 -0.0330  0.2740 -0.3637
  834MPD2    H512322   3.652   4.138  12.119 -0.2713  0.4137 -0.3457
  834MPD2    N112323   3.631   3.746  11.818 -0.0750  1.0326 -0.9732
  834MPD2    H712324   3.620   3.646  11.805  1.8017  0.5522  1.2237
  835MPD2     C12325   3.977   1.962  10.854 -1.2050  0.7234 -0.3404
  835MPD2    C112326   3.866   1.906  10.914  0.3622  0.2966 -0.0346
  835MPD2    C212327   3.861   1.889  11.048 -0.3509 -0.8650  0.6013
  835MPD2    C312328   3.972   1.924  11.132 -0.0508 -0.0883  0.1694
  835MPD2    C412329   4.077   1.984  11.071  0.0328  0.2977  0.2144
  835MPD2    C512330   4.079   2.005  10.936  0.1933  0.5916 -0.6199
  835MPD2     H12331   3.768   1.861  11.096 -1.3863 -0.4200 -1.1156
  835MPD2    H112332   4.167   2.006  11.128  0.0937  2.1072 -0.5794
  835MPD2    H212333   3.987   1.965  10.746 -0.6729  1.3487 -0.2705
  835MPD2    H312334   4.168   2.053  10.896 -0.0327  1.4423 -0.1123
  835MPD2     N12335   3.984   1.914  11.272  0.1572 -0.4958 -0.0661
  835MPD2    H512336   4.047   1.977  11.321  0.8475 -4.6948  4.3965
  835MPD2    N112337   3.751   1.874  10.841 -0.8630  0.6578 -0.2498
  835MPD2    H712338   3.665   1.871  10.895  0.4604 -2.1629  1.7036
  836MPD2     C12339   3.315   2.000  11.497 -0.7080 -0.2596  0.8236
  836MPD2    C112340   3.386   1.995  11.612 -0.7310 -0.6119  0.4295
  836MPD2    C212341   3.323   2.017  11.733 -0.2781 -0.7367 -0.1386
  836MPD2    C312342   3.193   2.068  11.734 -0.1383 -0.0462 -0.3432
  836MPD2    C412343   3.130   2.083  11.619  0.9431 -0.0939 -1.0500
  836MPD2    C512344   3.187   2.043  11.498 -0.4350 -0.2260  0.1081
  836MPD2     H12345   3.384   2.002  11.821  0.4229  1.8022 -0.1936
  836MPD2    H112346   3.029   2.120  11.620  1.5641  1.5863 -1.2920
  836MPD2    H212347   3.363   1.978  11.403  0.0450  1.8847  0.7081
  836MPD2    H312348   3.138   2.056  11.402 -2.7403 -3.5127  0.8683
  836MPD2     N12349   3.120   2.116  11.846 -0.6343  0.2135  0.1688
  836MPD2    H512350   3.029   2.157  11.828 -0.6894 -0.8409 -1.9948
  836MPD2    N112351   3.525   1.959  11.599  0.5107  0.6881 -0.4583
  836MPD2    H712352   3.562   1.953  11.505  1.3810  1.2269 -0.1560
  837MPD2     C12353   1.912   1.722   9.926  0.2747 -0.0030 -0.0657
  837MPD2    C112354   1.774   1.739   9.921  0.2019  0.8642 -0.2807
  837MPD2    C212355   1.718   1.845   9.988 -0.4625 -0.3262  0.7473
  837MPD2    C312356   1.796   1.940  10.048  0.0300 -0.2569  0.1106
  837MPD2    C412357   1.929   1.919  10.065  0.6440 -0.0557  0.2041
  837MPD2    C512358   1.986   1.819   9.997 -0.0842  0.2286 -0.5466
  837MPD2     H12359   1.610   1.850   9.985 -0.3903  0.2316 -0.8719
  837MPD2    H112360   1.998   1.985  10.118  0.1228  0.3657  0.3594
  837MPD2    H212361   1.965   1.641   9.876 -2.5298 -0.9718 -1.4448
  837MPD2    H312362   2.093   1.798   9.999 -0.3431 -1.0514  0.4724
  837MPD2     N12363   1.726   2.046  10.111  0.0652  0.7531  0.3488
  837MPD2    H512364   1.626   2.037  10.122  0.1793 -0.7937  0.0363
  837MPD2    N112365   1.686   1.651   9.861 -0.2839  0.0203 -0.3192
  837MPD2    H712366   1.585   1.659   9.870 -0.1330  2.7272 -1.0192
  838MPD2     C12367   0.365   0.441  11.965  0.0854  1.4848  0.0278
  838MPD2    C112368   0.317   0.310  11.970 -0.0246  0.3077 -0.2788
  838MPD2    C212369   0.275   0.262  12.091 -0.3721  0.5458  0.3741
  838MPD2    C312370   0.288   0.336  12.206 -0.5822 -0.2180  0.4273
  838MPD2    C412371   0.332   0.463  12.197 -0.7004 -0.0901  0.3597
  838MPD2    C512372   0.372   0.514  12.073  0.2230 -0.4184  0.4743
  838MPD2     H12373   0.254   0.156  12.087 -0.2633  0.5757 -1.3125
  838MPD2    H112374   0.337   0.525  12.286 -1.2664  2.4654 -1.3892
  838MPD2    H212375   0.402   0.481  11.871  0.5887  1.5211  0.2425
  838MPD2    H312376   0.402   0.618  12.065 -1.2674 -0.0225  0.0850
  838MPD2     N12377   0.273   0.280  12.333 -0.2495  0.0684  0.5671
  838MPD2    H512378   0.298   0.334  12.415  0.1047 -0.7078  0.9760
  838MPD2    N112379   0.328   0.219  11.867  0.3235  0.1466  0.1188
  838MPD2    H712380   0.298   0.122  11.872 -3.5797  1.3121 -0.8718
  839MPD2     C12381   4.510   4.349  11.793 -0.3399  0.0178  0.1115
  839MPD2    C112382   4.602   4.282  11.717  0.2408 -0.6704 -0.2440
  839MPD2    C212383   4.718   4.348  11.679  0.5853 -0.2741  0.8397
  839MPD2    C312384   0.007   4.481  11.728  0.0422  0.4903  0.3459
  839MPD2    C412385   4.662   4.529  11.825  0.6909  0.1271 -0.0835
  839MPD2    C512386   4.547   4.466  11.852 -0.3879  0.1720 -0.4397
  839MPD2     H12387   0.046   4.307  11.604  2.1422  0.5680  1.7492
  839MPD2    H112388   4.686   4.617  11.883  1.4508  0.4516 -0.8808
  839MPD2    H212389   4.410   4.312  11.814 -0.2702  0.6590  1.6211
  839MPD2    H312390   4.481   4.511  11.926  0.7921  0.7673  0.2568
  839MPD2     N12391   0.121   4.561  11.691  0.1470 -0.2567 -0.6108
  839MPD2    H512392   0.132   4.649  11.740  0.1322  1.1174 -3.0620
  839MPD2    N112393   4.578   4.162  11.654  0.2392  0.2918 -0.3104
  839MPD2    H712394   4.638   4.149  11.574 -0.7563 -0.3993 -0.9516
  840MPD2     C12395   0.397   1.705  10.487 -0.8001 -0.3504 -0.6354
  840MPD2    C112396   0.302   1.795  10.538  0.5838 -0.2377  0.1314
  840MPD2    C212397   0.350   1.891  10.623 -0.3790 -0.2720  0.3161
  840MPD2    C312398   0.490   1.921  10.640  0.1306 -0.2327  0.6017
  840MPD2    C412399   0.579   1.827  10.589  0.4968 -1.0288  0.6805
  840MPD2    C512400   0.530   1.721  10.516  0.4389  0.0429  0.7784
  840MPD2     H12401   0.278   1.964  10.659 -0.3598 -0.1658  0.1398
  840MPD2    H112402   0.683   1.834  10.617  0.0686  2.9246  1.2306
  840MPD2    H212403   0.379   1.627  10.415 -1.6830  0.0097 -0.7999
  840MPD2    H312404   0.604   1.652  10.476  0.7255  1.6202 -1.3877
  840MPD2     N12405   0.546   2.031  10.717 -0.0554 -0.2690  0.6035
  840MPD2    H512406   0.643   2.033  10.746 -0.1350 -2.0591  0.9928
  840MPD2    N112407   0.159   1.793  10.507 -0.2651  0.0781  0.2742
  840MPD2    H712408   0.094   1.838  10.571 -1.1516 -0.5198 -0.2013
  841MPD2     C12409   3.881   2.747  14.481 -0.8425  0.2979  0.0786
  841MPD2    C112410   3.946   2.652  14.559 -1.1574  0.7537 -0.5821
  841MPD2    C212411   4.072   2.680  14.608  0.2936  0.0544  1.0177
  841MPD2    C312412   4.141   2.794  14.587  0.2965 -0.3971 -0.2500
  841MPD2    C412413   4.074   2.899  14.528 -0.6328  0.4248 -0.6004
  841MPD2    C512414   3.945   2.877  14.477 -0.7299 -0.2625  0.7675
  841MPD2     H12415   4.123   2.614  14.677  2.5635 -0.2603 -0.9517
  841MPD2    H112416   4.121   2.991  14.495  0.2214  1.0187  2.3169
  841MPD2    H212417   3.782   2.739  14.439 -0.3118  0.2121 -1.1556
  841MPD2    H312418   3.888   2.949  14.418 -0.3526 -1.0773 -0.5746
  841MPD2     N12419   4.268   2.815  14.651 -0.1264 -0.7345 -0.1349
  841MPD2    H512420   4.296   2.739  14.712  0.1602 -0.1170  0.5019
  841MPD2    N112421   3.896   2.529  14.602 -0.1363  0.7976 -0.1829
  841MPD2    H712422   3.951   2.452  14.638  0.6463  1.5528  0.2331
  842MPD2     C12423   0.960   3.148  16.929  0.7112 -0.1167 -0.4230
  842MPD2    C112424   0.888   3.036  16.898 -0.7986  0.1439  0.1702
  842MPD2    C212425   0.925   2.918  16.959 -0.6551  0.4745 -0.0500
  842MPD2    C312426   1.033   2.914  17.045  0.4843  0.8420 -0.2094
  842MPD2    C412427   1.109   3.030  17.060  0.0429 -0.7744  0.1214
  842MPD2    C512428   1.073   3.142  17.004 -0.3397  0.4116 -0.0674
  842MPD2     H12429   0.875   2.827  16.927  0.8761 -0.1806 -0.5437
  842MPD2    H112430   1.199   3.031  17.120 -0.2504 -0.6536  0.5641
  842MPD2    H212431   0.935   3.249  16.898 -1.3713 -0.4038  0.3649
  842MPD2    H312432   1.136   3.228  17.021  2.4112 -1.5300 -0.5136
  842MPD2     N12433   1.080   2.803  17.120 -0.0845 -0.5400 -0.0807
  842MPD2    H512434   1.179   2.798  17.141 -0.3608  0.2767  1.4528
  842MPD2    N112435   0.787   3.048  16.804  0.2620 -0.1169  0.0884
  842MPD2    H712436   0.764   3.145  16.783  3.2565  0.4660 -0.5258
  843MPD2     C12437   2.435   3.742  17.007 -0.0776  0.2258  0.0979
  843MPD2    C112438   2.520   3.653  17.076 -0.6823  0.1157  0.0807
  843MPD2    C212439   2.629   3.710  17.143 -0.4483  0.5906  0.0645
  843MPD2    C312440   2.665   3.841  17.122  0.2559 -0.5126 -0.1672
  843MPD2    C412441   2.592   3.920  17.040 -0.1943 -0.0419  0.1334
  843MPD2    C512442   2.479   3.870  16.988 -0.1434 -0.3951 -0.5146
  843MPD2     H12443   2.688   3.649  17.209  1.3042  0.6941 -1.4126
  843MPD2    H112444   2.615   4.025  17.025  2.9079 -0.8743 -0.8215
  843MPD2    H212445   2.339   3.716  16.965 -0.2582  1.7617 -0.4178
  843MPD2    H312446   2.419   3.921  16.913  0.1222  0.3018 -0.2555
  843MPD2     N12447   2.774   3.900  17.188 -0.1860 -0.0198 -0.0845
  843MPD2    H512448   2.786   4.000  17.172  1.2650  0.0536  1.4554
  843MPD2    N112449   2.473   3.526  17.096  0.3406  0.0828 -0.7970
  843MPD2    H712450   2.402   3.493  17.031 -0.8272  0.5409  0.2245
  844MPD2     C12451   1.255   2.636  16.163 -1.0325  0.2302  0.0639
  844MPD2    C112452   1.371   2.561  16.183  0.5883  0.5200 -0.6753
  844MPD2    C212453   1.456   2.586  16.288 -0.8908 -0.4894 -0.1101
  844MPD2    C312454   1.440   2.706  16.356 -0.0414  0.7467  0.2057
  844MPD2    C412455   1.314   2.772  16.347  0.3119 -0.4226 -0.8067
  844MPD2    C512456   1.222   2.740  16.250 -0.7084 -0.6283 -0.1718
  844MPD2     H12457   1.547   2.529  16.303 -0.6011 -0.4209 -1.6190
  844MPD2    H112458   1.291   2.864  16.401  1.5037  0.8233 -2.4239
  844MPD2    H212459   1.191   2.614  16.078  0.8128 -0.0973 -1.2508
  844MPD2    H312460   1.130   2.796  16.247  0.4057  1.2400  0.6553
  844MPD2     N12461   1.549   2.743  16.441  0.3946  0.1932  0.1855
  844MPD2    H512462   1.634   2.690  16.426 -0.6468 -1.4355  0.0397
  844MPD2    N112463   1.402   2.459  16.091 -0.3082  0.6760  0.8006
  844MPD2    H712464   1.469   2.390  16.122 -0.7165  0.4219  1.1141
  845MPD2     C12465   1.920   3.522  17.132 -0.4122  0.0570  0.5413
  845MPD2    C112466   1.794   3.476  17.099  0.3523  0.3439  0.5380
  845MPD2    C212467   1.783   3.371  17.014  0.5797  0.6499  0.4026
  845MPD2    C312468   1.891   3.305  16.963 -0.0677  0.3261  0.4872
  845MPD2    C412469   2.019   3.347  16.998 -0.1241  0.3731  0.1738
  845MPD2    C512470   2.031   3.455  17.082 -0.5759  0.3098  0.0429
  845MPD2     H12471   1.683   3.336  16.991 -0.0190  1.5712  1.5999
  845MPD2    H112472   2.108   3.312  16.947 -0.0575 -0.6048  0.9841
  845MPD2    H212473   1.944   3.602  17.200  1.5203  0.1696 -0.2603
  845MPD2    H312474   2.128   3.486  17.120 -0.3858 -1.2300  0.7724
  845MPD2     N12475   1.883   3.198  16.877  0.5565  0.6091 -0.2883
  845MPD2    H512476   1.966   3.166  16.828  0.6724 -0.5524  0.6586
  845MPD2    N112477   1.686   3.544  17.155  0.2719  0.5680 -0.0870
  845MPD2    H712478   1.709   3.633  17.199  0.1207 -0.0853  1.2995
  846MPD2     C12479   2.065   4.003  13.432  0.7099 -0.3501 -0.7597
  846MPD2    C112480   2.184   3.965  13.503  0.8773 -0.3808  0.0348
  846MPD2    C212481   2.197   3.996  13.635 -0.2670 -0.1560  0.0779
  846MPD2    C312482   2.087   4.037  13.707  0.2263  0.1983  0.7489
  846MPD2    C412483   1.963   4.069  13.642 -0.3818  0.5240  0.3589
  846MPD2    C512484   1.953   4.046  13.503 -0.9412  0.5416  0.3876
  846MPD2     H12485   2.283   3.966  13.694 -1.1000 -0.8515  0.9473
  846MPD2    H112486   1.875   4.110  13.690 -0.6868 -1.7570  1.7324
  846MPD2    H212487   2.065   4.008  13.324 -3.0294 -1.7313 -0.8168
  846MPD2    H312488   1.870   4.088  13.448 -0.3071  1.3233  0.0330
  846MPD2     N12489   2.106   4.044  13.843 -0.1026 -0.2879  0.3227
  846MPD2    H512490   2.200   4.014  13.868 -1.1306 -0.2891  4.2124
  846MPD2    N112491   2.296   3.915  13.435  0.5558 -0.2892 -0.4280
  846MPD2    H712492   2.382   3.929  13.487  1.7627 -0.9882 -2.1904
  847MPD2     C12493   3.080   0.132  14.968 -0.7454 -0.3228 -0.8500
  847MPD2    C112494   3.171   0.235  14.969 -0.2552  0.0806  0.0191
  847MPD2    C212495   3.264   0.239  15.068  0.0560  0.3531  0.9213
  847MPD2    C312496   3.264   0.155  15.176  0.3167  0.2421 -0.1161
  847MPD2    C412497   3.172   0.053  15.180 -0.3349 -0.6356 -0.1087
  847MPD2    C512498   3.083   0.039  15.070 -0.8971  0.1163  0.0754
  847MPD2     H12499   3.343   0.313  15.078  1.0926 -0.6179 -0.0749
  847MPD2    H112500   3.172   4.721  15.263  1.9465 -0.0326  0.3887
  847MPD2    H212501   3.002   0.129  14.893 -2.7559 -0.7598  1.2862
  847MPD2    H312502   3.016   4.692  15.074  0.6088 -0.9401  2.8319
  847MPD2     N12503   3.360   0.172  15.277  0.1916  0.1479 -0.8264
  847MPD2    H512504   3.422   0.253  15.274  0.9751 -0.5049 -2.2725
  847MPD2    N112505   3.175   0.339  14.875 -0.3405 -1.2147  0.3786
  847MPD2    H712506   3.231   0.421  14.896  0.1632 -1.2834 -0.6716
  848MPD2     C12507   0.939   3.058  16.232 -0.8755  0.1242  0.3850
  848MPD2    C112508   1.029   3.099  16.332  0.1485 -0.4975 -0.2538
  848MPD2    C212509   1.088   3.225  16.320  0.6596  0.3108  0.1082
  848MPD2    C312510   1.061   3.304  16.204 -1.1546  0.3195  0.8375
  848MPD2    C412511   0.978   3.258  16.102  0.5020 -0.3973  0.1952
  848MPD2    C512512   0.915   3.133  16.118 -0.2601 -0.8010 -0.2702
  848MPD2     H12513   1.145   3.266  16.402 -1.2660  3.0650  0.0713
  848MPD2    H112514   0.944   3.316  16.017  1.9670  1.2035  0.7083
  848MPD2    H212515   0.881   2.967  16.239 -0.3498  0.0783  4.2625
  848MPD2    H312516   0.854   3.105  16.032  0.1233 -1.2964 -0.3779
  848MPD2     N12517   1.118   3.432  16.190 -0.2871  0.3162 -0.2871
  848MPD2    H512518   1.083   3.481  16.108  0.2931  0.6670 -0.3250
  848MPD2    N112519   1.058   3.019  16.442  0.1220 -0.5997  1.0728
  848MPD2    H712520   1.116   3.061  16.515 -2.1168  0.5447  2.2066
  849MPD2     C12521   0.140   2.693  14.003 -0.1955  0.6210  0.5816
  849MPD2    C112522   0.199   2.780  13.917 -0.4614 -0.5413 -0.0525
  849MPD2    C212523   0.322   2.830  13.956 -0.9193  0.7306 -0.1812
  849MPD2    C312524   0.384   2.791  14.069 -0.7258  0.1190 -0.0317
  849MPD2    C412525   0.319   2.713  14.165 -0.3178 -0.1902 -0.3190
  849MPD2    C512526   0.204   2.657  14.119  0.8108  0.2257  0.7096
  849MPD2     H12527   0.380   2.894  13.890 -0.1826  0.2670  0.0162
  849MPD2    H112528   0.360   2.666  14.254 -2.6860  2.6307  2.2538
  849MPD2    H212529   0.051   2.634  13.986 -0.0117  0.7214 -0.6995
  849MPD2    H312530   0.153   2.577  14.172 -0.8707 -0.5232 -2.0481
  849MPD2     N12531   0.515   2.830  14.087  0.1643  0.7387 -0.1532
  849MPD2    H512532   0.553   2.892  14.017  1.7687 -1.2182 -1.0246
  849MPD2    N112533   0.153   2.818  13.790 -0.0177  0.7553  0.2570
  849MPD2    H712534   0.196   2.901  13.750  2.2087 -0.2816  0.5623
  850MPD2     C12535   2.602   1.238  15.150 -0.1242  0.5206  0.1617
  850MPD2    C112536   2.626   1.323  15.255  0.1317 -0.2210 -0.0374
  850MPD2    C212537   2.757   1.366  15.277 -0.7042 -0.2486  0.2681
  850MPD2    C312538   2.854   1.317  15.197 -0.0535 -0.7393  0.4145
  850MPD2    C412539   2.825   1.234  15.092  0.4637  0.3852  0.1045
  850MPD2    C512540   2.695   1.189  15.063 -0.0305 -0.6375  0.1574
  850MPD2     H12541   2.781   1.446  15.346  0.5298  1.1723 -1.7652
  850MPD2    H112542   2.904   1.206  15.023  2.7952  1.2057  2.4610
  850MPD2    H212543   2.499   1.206  15.144  0.6741 -1.8822 -0.6471
  850MPD2    H312544   2.676   1.115  14.986 -1.3388 -0.9678  0.7907
  850MPD2     N12545   2.994   1.350  15.216  0.0740  0.2021 -0.3347
  850MPD2    H512546   3.059   1.291  15.165 -0.5867  0.0188 -0.9533
  850MPD2    N112547   2.518   1.364  15.334  0.6487  0.3159 -0.0870
  850MPD2    H712548   2.431   1.359  15.283 -0.5072  0.2013  1.8931
  851MPD2     C12549   3.085   0.937  15.838  0.5368 -0.6598  0.5022
  851MPD2    C112550   2.975   0.931  15.757 -0.3646  0.3143 -0.0029
  851MPD2    C212551   2.955   0.818  15.671  0.1855  0.0324  0.2252
  851MPD2    C312552   3.025   0.702  15.689 -0.0420 -0.4645  0.5150
  851MPD2    C412553   3.123   0.702  15.788 -0.2985 -0.2042 -0.1593
  851MPD2    C512554   3.152   0.822  15.852 -0.6588 -0.2686  0.5360
  851MPD2     H12555   2.871   0.819  15.602  1.0252  1.3873 -0.7870
  851MPD2    H112556   3.191   0.618  15.798 -0.2441 -0.2570 -0.9541
  851MPD2    H212557   3.098   1.029  15.895 -0.9158  1.3031 -2.3455
  851MPD2    H312558   3.240   0.818  15.915 -0.3504 -0.0488  0.1110
  851MPD2     N12559   2.994   0.589  15.603 -0.1011 -0.3114  0.3202
  851MPD2    H512560   2.927   0.611  15.529 -0.0730 -0.4390  0.2586
  851MPD2    N112561   2.887   1.041  15.757 -0.4331  0.0463 -0.5074
  851MPD2    H712562   2.902   1.119  15.820 -3.5306  0.8663 -0.7497
  852MPD2     C12563   2.475   3.816  10.683 -0.8970  0.2626 -0.4756
  852MPD2    C112564   2.556   3.854  10.789 -0.5146  0.0659  0.2456
  852MPD2    C212565   2.593   3.988  10.805 -0.4280  0.7904 -0.1482
  852MPD2    C312566   2.555   4.076  10.714 -0.4162 -0.6583  0.1903
  852MPD2    C412567   2.487   4.043  10.601 -0.7203  0.4873  1.2304
  852MPD2    C512568   2.437   3.912  10.594 -0.3465 -0.0080 -0.3667
  852MPD2     H12569   2.646   4.019  10.894 -0.2217  2.6199 -0.9078
  852MPD2    H112570   2.458   4.113  10.523 -0.8334 -0.3149  0.5533
  852MPD2    H212571   2.436   3.716  10.664 -3.1463  0.9855  0.3985
  852MPD2    H312572   2.376   3.887  10.507  1.5748 -1.9431 -1.1710
  852MPD2     N12573   2.597   4.208  10.748  0.5039  0.4275  0.9457
  852MPD2    H512574   2.625   4.226  10.844 -1.7769 -0.5206  1.7854
  852MPD2    N112575   2.594   3.762  10.892  0.1949  0.4774  0.2945
  852MPD2    H712576   2.683   3.783  10.935  0.2689  2.7813 -0.9780
  853MPD2     C12577   4.518   2.889  12.325 -0.1010 -0.1009  0.3173
  853MPD2    C112578   4.507   3.017  12.281  0.3969 -0.6390 -0.5347
  853MPD2    C212579   4.527   3.048  12.149  0.2553 -0.2336  0.5385
  853MPD2    C312580   4.550   2.944  12.059  0.1887  0.2518  0.2834
  853MPD2    C412581   4.568   2.815  12.106 -0.0731  0.4790  0.2894
  853MPD2    C512582   4.556   2.786  12.239 -0.3042  0.3171 -0.6430
  853MPD2     H12583   4.506   3.146  12.110  1.2501 -0.8359 -1.5170
  853MPD2    H112584   4.590   2.729  12.044 -4.1553 -0.7583  0.5647
  853MPD2    H212585   4.534   2.866  12.429 -1.0327  1.1002  0.7144
  853MPD2    H312586   4.590   2.692  12.281  0.5413  0.3879 -1.1835
  853MPD2     N12587   4.558   2.973  11.919  0.3495 -0.2099 -0.4151
  853MPD2    H512588   4.591   2.892  11.867  3.2053  0.5556  0.2371
  853MPD2    N112589   4.492   3.115  12.380 -0.0618 -0.2549 -0.0899
  853MPD2    H712590   4.467   3.079  12.471 -1.3136  1.1706  0.1209
  854MPD2     C12591   1.148   3.958  13.061 -0.0084 -0.2826  0.2247
  854MPD2    C112592   1.248   3.974  12.970 -0.8335 -0.1845 -0.6195
  854MPD2    C212593   1.361   3.894  12.974  0.0888 -0.0995 -0.0798
  854MPD2    C312594   1.377   3.804  13.077  0.8779 -0.1479 -0.2733
  854MPD2    C412595   1.275   3.797  13.176 -0.3447 -0.2467 -0.2567
  854MPD2    C512596   1.161   3.876  13.167 -0.7261  0.1105 -0.3864
  854MPD2     H12597   1.444   3.916  12.908  1.3606  0.1407  1.6048
  854MPD2    H112598   1.279   3.721  13.253 -0.8079  1.0187  1.0207
  854MPD2    H212599   1.052   4.007  13.061  1.9016  3.4613  1.4004
  854MPD2    H312600   1.074   3.877  13.232 -0.2561 -0.4669  0.2534
  854MPD2     N12601   1.489   3.720  13.090 -0.2967  0.2528  0.2621
  854MPD2    H512602   1.502   3.664  13.173 -2.8561 -1.6182 -0.6095
  854MPD2    N112603   1.240   4.071  12.873 -0.8296  0.6688 -0.7491
  854MPD2    H712604   1.143   4.101  12.871 -1.6075 -1.7939 -0.9379
  855MPD2     C12605   2.061   3.566  13.719 -0.0891  0.6413  1.1850
  855MPD2    C112606   1.993   3.443  13.689 -0.2304  1.0004  0.7292
  855MPD2    C212607   1.916   3.438  13.573  0.1222 -0.5284 -0.6127
  855MPD2    C312608   1.906   3.551  13.486 -0.1735  0.2101  0.1679
  855MPD2    C412609   1.968   3.667  13.522 -1.1104 -0.6422 -0.7269
  855MPD2    C512610   2.048   3.673  13.633  0.0170  0.1615 -0.3567
  855MPD2     H12611   1.869   3.342  13.555  1.1223 -1.0763 -0.2971
  855MPD2    H112612   1.968   3.756  13.460  0.9516  0.8729  1.4544
  855MPD2    H212613   2.127   3.575  13.805  1.3042  1.8545 -0.0255
  855MPD2    H312614   2.102   3.765  13.656 -1.0060  0.6018  0.2796
  855MPD2     N12615   1.832   3.537  13.362 -0.0318 -0.2939  0.5545
  855MPD2    H512616   1.809   3.623  13.313  0.9641 -0.4526 -0.1898
  855MPD2    N112617   2.001   3.328  13.766  0.1922 -0.3684 -0.0788
  855MPD2    H712618   1.948   3.248  13.731 -2.1682  1.2828 -0.2880
  856MPD2     C12619   3.808   3.577  13.896 -0.7105 -0.7233 -0.2680
  856MPD2    C112620   3.837   3.710  13.909 -0.2760  0.8671  0.1889
  856MPD2    C212621   3.740   3.810  13.928 -0.0052 -0.1992 -0.4175
  856MPD2    C312622   3.613   3.769  13.915 -0.4414  0.8111  0.7810
  856MPD2    C412623   3.584   3.635  13.913  0.3824 -0.7228  0.4386
  856MPD2    C512624   3.678   3.541  13.900  0.4198 -0.7750  0.5692
  856MPD2     H12625   3.762   3.915  13.912  1.1032 -0.8034 -2.8627
  856MPD2    H112626   3.482   3.601  13.903  0.5545 -1.8939  2.6515
  856MPD2    H212627   3.888   3.506  13.879 -0.2288 -0.1932 -0.2154
  856MPD2    H312628   3.644   3.440  13.883 -2.2381 -0.0957  1.8912
  856MPD2     N12629   3.505   3.868  13.902 -0.6866 -0.2019 -0.4767
  856MPD2    H512630   3.413   3.827  13.887 -1.2428  0.9637 -0.2700
  856MPD2    N112631   3.963   3.771  13.913  0.2408  0.7353 -0.1840
  856MPD2    H712632   3.965   3.873  13.916 -2.1136  0.7395  1.6123
  857MPD2     C12633   0.631   1.791  12.450 -0.2492 -0.2304 -0.5936
  857MPD2    C112634   0.685   1.853  12.563  0.4496  0.0609 -0.0385
  857MPD2    C212635   0.758   1.967  12.546  0.6987 -0.5792  0.0347
  857MPD2    C312636   0.766   2.024  12.423 -0.0765 -0.2421  0.3639
  857MPD2    C412637   0.701   1.970  12.310  0.1008 -0.3427 -0.2345
  857MPD2    C512638   0.645   1.842  12.320  0.7494 -0.1077  0.0507
  857MPD2     H12639   0.814   2.010  12.629 -2.2278  2.7512  0.2749
  857MPD2    H112640   0.695   2.023  12.216  1.9766 -0.9931 -0.7096
  857MPD2    H212641   0.565   1.706  12.466 -0.1755 -0.5807 -2.1168
  857MPD2    H312642   0.598   1.807  12.229 -0.9667  1.9115  0.1633
  857MPD2     N12643   0.839   2.137  12.415  0.0533 -0.0649 -0.3569
  857MPD2    H512644   0.867   2.185  12.500  2.1942  1.5450 -1.9831
  857MPD2    N112645   0.669   1.790  12.692  0.5686 -0.1566 -0.1795
  857MPD2    H712646   0.630   1.696  12.689  0.2666 -0.0953  2.0949
  858MPD2     C12647   1.015   0.976  16.389  0.4634  0.0881 -0.0747
  858MPD2    C112648   1.153   0.971  16.363 -0.4245  0.3348 -0.2827
  858MPD2    C212649   1.245   1.035  16.453  0.5226  0.3343 -0.2904
  858MPD2    C312650   1.194   1.094  16.569  0.1637  0.1264  0.3697
  858MPD2    C412651   1.061   1.117  16.577  0.2476 -0.1362  0.3282
  858MPD2    C512652   0.973   1.063  16.485  0.2534 -0.3189 -0.5678
  858MPD2     H12653   1.351   1.009  16.450  0.1495 -1.1638 -0.6787
  858MPD2    H112654   1.021   1.174  16.661  1.6183 -0.0460  0.9045
  858MPD2    H212655   0.942   0.924  16.328 -0.8117  3.5739 -1.5262
  858MPD2    H312656   0.870   1.096  16.491  1.1298  1.8665  2.5789
  858MPD2     N12657   1.285   1.144  16.671 -0.0420  0.2623  0.5074
  858MPD2    H512658   1.244   1.165  16.761  0.6051  0.4824  0.7491
  858MPD2    N112659   1.191   0.871  16.271 -0.0147  0.4609  0.4100
  858MPD2    H712660   1.115   0.814  16.236  0.9250  0.7066 -2.0062
  859MPD2     C12661   0.563   2.846  15.541 -0.9351  0.9557  0.2417
  859MPD2    C112662   0.441   2.860  15.486 -0.3634  0.6621  0.0788
  859MPD2    C212663   0.339   2.786  15.542  0.3803 -0.3081  0.1559
  859MPD2    C312664   0.364   2.694  15.644 -1.0522  0.2356  0.3803
  859MPD2    C412665   0.492   2.674  15.697 -0.2232 -0.1446 -0.0480
  859MPD2    C512666   0.588   2.758  15.643  0.8316 -0.1114  0.7283
  859MPD2     H12667   0.241   2.794  15.497 -0.0519  1.0888  1.3413
  859MPD2    H112668   0.518   2.603  15.774 -0.0849 -1.7343 -1.5456
  859MPD2    H212669   0.644   2.903  15.497  0.1614  0.8001  2.0533
  859MPD2    H312670   0.692   2.746  15.671  0.1981 -4.1521  1.2443
  859MPD2     N12671   0.259   2.614  15.696 -0.6063 -0.4630  0.1098
  859MPD2    H512672   0.292   2.543  15.761 -0.8333 -1.0580 -0.4235
  859MPD2    N112673   0.413   2.938  15.370 -0.1042  0.4554  0.5658
  859MPD2    H712674   0.480   3.006  15.336  3.5623 -2.8795  1.0355
  860MPD2     C12675   2.193   2.494  11.754  0.1319 -0.2756  0.7137
  860MPD2    C112676   2.215   2.555  11.878 -0.4506 -0.8607 -0.2312
  860MPD2    C212677   2.107   2.584  11.957  0.3564 -0.3823  0.2766
  860MPD2    C312678   1.975   2.563  11.919 -0.0746  0.0784 -0.6092
  860MPD2    C412679   1.956   2.500  11.799  0.0650 -0.7361  0.6957
  860MPD2    C512680   2.065   2.464  11.724 -0.0941 -0.6721  0.0651
  860MPD2     H12681   2.131   2.623  12.055 -2.2028  0.3964  0.5881
  860MPD2    H112682   1.856   2.467  11.774  0.3370 -0.5452 -0.6040
  860MPD2    H212683   2.259   2.462  11.674 -1.5210 -0.9912 -0.3694
  860MPD2    H312684   2.048   2.420  11.626  1.1983 -0.2817 -0.3425
  860MPD2     N12685   1.877   2.605  12.009 -0.3034  0.0422 -0.4381
  860MPD2    H512686   1.905   2.644  12.098  1.1364 -1.4041 -0.2675
  860MPD2    N112687   2.342   2.592  11.924  0.1180 -0.1120  0.0847
  860MPD2    H712688   2.348   2.624  12.020  1.4903  0.8196 -0.3062
  861MPD2     C12689   1.548   1.290  11.173 -0.1318  0.3577  0.9292
  861MPD2    C112690   1.452   1.368  11.234  0.4811  0.6518  0.4148
  861MPD2    C212691   1.343   1.412  11.154  0.6188  0.3227  0.8374
  861MPD2    C312692   1.335   1.381  11.020 -0.2651 -0.1750 -0.2250
  861MPD2    C412693   1.430   1.295  10.965  0.2401 -0.4287 -0.6121
  861MPD2    C512694   1.536   1.252  11.047  0.3599 -0.5959  0.1447
  861MPD2     H12695   1.265   1.468  11.205 -0.8549  0.5307 -1.6295
  861MPD2    H112696   1.418   1.268  10.861  2.4555  0.2837 -1.0373
  861MPD2    H212697   1.633   1.242  11.218  0.7260  0.6415 -0.4054
  861MPD2    H312698   1.620   1.202  11.002  0.8640 -1.3841  1.9615
  861MPD2     N12699   1.232   1.422  10.932  0.6372  0.7240 -0.6304
  861MPD2    H512700   1.228   1.383  10.839 -0.8213 -0.9995  0.1628
  861MPD2    N112701   1.449   1.395  11.372  0.4421 -0.6120  0.6319
  861MPD2    H712702   1.379   1.458  11.408  0.8872 -0.6519  1.5749
  862MPD2     C12703   0.927   1.397  10.294  0.2173 -0.4782 -0.8946
  862MPD2    C112704   0.988   1.362  10.416 -0.1664  0.2124  0.0622
  862MPD2    C212705   0.997   1.225  10.452 -0.3383 -0.1563 -0.6921
  862MPD2    C312706   0.955   1.130  10.362  0.0877 -0.1693 -0.2009
  862MPD2    C412707   0.875   1.163  10.256  0.0892 -0.5506  0.0786
  862MPD2    C512708   0.858   1.294  10.225 -0.6040 -0.7699  0.3610
  862MPD2     H12709   1.033   1.201  10.552 -1.9020 -1.0604 -0.3457
  862MPD2    H112710   0.824   1.096  10.189 -1.1506 -0.1778  0.6426
  862MPD2    H212711   0.916   1.501  10.264 -1.2399 -0.3959 -0.1028
  862MPD2    H312712   0.788   1.319  10.146  0.1111 -0.1275 -0.0568
  862MPD2     N12713   0.989   0.998  10.396 -0.2375  0.1204  0.4544
  862MPD2    H512714   0.938   0.920  10.356 -0.6861  0.4132  0.4571
  862MPD2    N112715   1.040   1.453  10.509 -0.2868  0.0745 -0.5956
  862MPD2    H712716   1.079   1.416  10.595  0.6167  2.3662 -0.0017
  863MPD2     C12717   4.439   3.803  16.692 -0.3428  0.2300  0.6166
  863MPD2    C112718   4.447   3.943  16.687 -0.1097  0.0337  0.2793
  863MPD2    C212719   4.537   4.003  16.773  0.4834  0.0339  0.1637
  863MPD2    C312720   4.624   3.928  16.849  1.2321  0.0584  1.1661
  863MPD2    C412721   4.608   3.793  16.859  0.4235 -0.2830 -0.7154
  863MPD2    C512722   4.507   3.733  16.783  0.5376 -0.4791  0.9507
  863MPD2     H12723   4.537   4.111  16.777  0.2691 -0.0137  1.3760
  863MPD2    H112724   4.673   3.729  16.917  0.9721 -1.0713 -2.1965
  863MPD2    H212725   4.366   3.757  16.626  1.0421 -0.6553 -0.3191
  863MPD2    H312726   4.491   3.626  16.784 -4.0700  0.2123  1.5554
  863MPD2     N12727   4.725   3.983  16.931 -0.6633  0.8866 -0.3594
  863MPD2    H512728   0.040   3.913  16.981 -1.8697 -1.0058 -1.7172
  863MPD2    N112729   4.349   4.010  16.610  0.1067 -0.3378  0.3378
  863MPD2    H712730   4.294   3.961  16.541  0.0433 -0.5239  0.5197
  864MPD2     C12731   0.256   0.341  17.276 -0.4053  0.0512  0.2936
  864MPD2    C112732   0.284   0.326  17.142  0.2326  0.7736 -0.5780
  864MPD2    C212733   0.311   0.435  17.065 -0.5177 -0.3954 -0.1337
  864MPD2    C312734   0.320   0.558  17.117  0.3310 -0.6259 -0.8241
  864MPD2    C412735   0.289   0.574  17.256  0.0079  0.0149 -0.1767
  864MPD2    C512736   0.266   0.466  17.333  0.6313 -0.3354  0.3263
  864MPD2     H12737   0.326   0.423  16.959 -2.1291  0.7931 -0.4860
  864MPD2    H112738   0.293   0.666  17.313  0.2363  2.4120 -4.0487
  864MPD2    H212739   0.231   0.252  17.332  0.0971 -0.9127 -0.9977
  864MPD2    H312740   0.251   0.470  17.440  1.5621 -3.6461  0.5611
  864MPD2     N12741   0.345   0.677  17.042 -0.4299 -0.2947 -0.7380
  864MPD2    H512742   0.333   0.765  17.091  1.7450 -1.4874  1.9002
  864MPD2    N112743   0.266   0.193  17.093  0.3613  0.2745  0.9783
  864MPD2    H712744   0.247   0.124  17.164  0.8063 -2.4694 -1.5402
  865MPD2     C12745   0.226   1.018  16.147 -0.0420 -0.4815  0.1173
  865MPD2    C112746   0.256   0.915  16.229  0.2264 -0.2387 -0.4546
  865MPD2    C212747   0.228   0.923  16.363  0.5613 -0.1957 -0.6421
  865MPD2    C312748   0.169   1.038  16.412 -0.3494  0.0540 -0.5599
  865MPD2    C412749   0.143   1.141  16.331  0.0670 -0.7086  0.3132
  865MPD2    C512750   0.173   1.131  16.199  0.0681  0.3672 -0.0021
  865MPD2     H12751   0.232   0.836  16.427 -1.9475  2.2673  2.9170
  865MPD2    H112752   0.096   1.232  16.366  2.4401  0.7776 -0.3851
  865MPD2    H212753   0.257   1.016  16.043  0.8928  2.5190  0.3444
  865MPD2    H312754   0.142   1.212  16.134  0.0993  0.3998  0.0234
  865MPD2     N12755   0.149   1.051  16.553  0.5149  0.1923 -0.1991
  865MPD2    H512756   0.126   1.146  16.581  1.5359  0.0246  1.1818
  865MPD2    N112757   0.315   0.807  16.164  0.0777  0.3020 -0.2340
  865MPD2    H712758   0.326   0.810  16.063 -2.1899  3.3696 -0.4091
  866MPD2     C12759   2.060   1.639  11.571 -0.0797 -0.2661  0.0047
  866MPD2    C112760   2.046   1.557  11.459  0.5600  0.1651 -0.5067
  866MPD2    C212761   1.923   1.573  11.391  0.0591  0.3829 -0.6975
  866MPD2    C312762   1.822   1.662  11.431 -0.0264 -0.2038 -0.4300
  866MPD2    C412763   1.837   1.727  11.554  0.5222 -0.8449 -0.6845
  866MPD2    C512764   1.956   1.717  11.623  0.4317 -0.3503 -0.4360
  866MPD2     H12765   1.911   1.526  11.294  1.3824 -1.5900  0.0950
  866MPD2    H112766   1.749   1.776  11.596  1.1945 -1.3974  1.3517
  866MPD2    H212767   2.140   1.622  11.642  1.0366  0.9213 -0.9680
  866MPD2    H312768   1.961   1.767  11.719 -1.2669  1.4308 -1.2823
  866MPD2     N12769   1.698   1.663  11.361  0.3485 -1.0268  0.0713
  866MPD2    H512770   1.627   1.718  11.408 -0.2504 -0.4200 -1.5324
  866MPD2    N112771   2.156   1.472  11.420 -0.1831 -0.0050  0.2148
  866MPD2    H712772   2.247   1.483  11.462 -0.2825 -0.6437  0.5963
  867MPD2     C12773   3.955   0.422  17.172 -0.5852  0.8463  0.1090
  867MPD2    C112774   4.004   0.418  17.044  0.7603 -0.5532 -0.2575
  867MPD2    C212775   4.041   0.541  16.984 -0.7521  0.5933 -0.2942
  867MPD2    C312776   4.023   0.655  17.050  0.3959 -0.6904 -0.0962
  867MPD2    C412777   3.976   0.658  17.178  0.6832 -0.3255  0.6895
  867MPD2    C512778   3.937   0.542  17.241 -0.0873  0.1691 -0.2702
  867MPD2     H12779   4.085   0.543  16.885 -0.1249 -0.0284 -0.0295
  867MPD2    H112780   3.971   0.758  17.220  3.7251  0.4936 -0.9226
  867MPD2    H212781   3.910   0.333  17.216 -1.1557  0.4609 -1.2261
  867MPD2    H312782   3.890   0.547  17.339  0.0207  1.2622 -0.2735
  867MPD2     N12783   4.074   0.786  17.012  0.3977 -0.4136 -0.5950
  867MPD2    H512784   4.073   0.859  17.083  1.4660  2.1148 -3.1665
  867MPD2    N112785   4.029   0.302  16.969 -0.4205  0.6574  0.2666
  867MPD2    H712786   4.088   0.312  16.887 -2.2718  0.3836 -1.1097
  868MPD2     C12787   0.694   4.345  12.999  0.2162  0.0144  0.4004
  868MPD2    C112788   0.766   4.456  13.027  0.5866 -0.0515 -0.0878
  868MPD2    C212789   0.692   4.568  13.074 -0.7427  0.3639  0.3741
  868MPD2    C312790   0.555   4.561  13.094 -0.5248  0.2026 -0.6496
  868MPD2    C412791   0.487   4.446  13.076  0.6210 -0.0957  0.0634
  868MPD2    C512792   0.557   4.344  13.027  0.9000 -0.0703 -0.3533
  868MPD2     H12793   0.746   4.656  13.106  0.5987  0.5306 -2.3339
  868MPD2    H112794   0.380   4.427  13.083  0.8040 -0.1377  2.6766
  868MPD2    H212795   0.740   4.254  12.962  1.5368 -0.3153  2.8363
  868MPD2    H312796   0.514   4.253  12.985 -0.4180 -1.5316  4.2068
  868MPD2     N12797   0.488   4.676  13.143  0.1081 -0.1857  0.1840
  868MPD2    H512798   0.541   0.025  13.146  0.3563 -0.2623 -2.0003
  868MPD2    N112799   0.904   4.448  13.016  0.3574  0.3090  0.4664
  868MPD2    H712800   0.932   4.352  13.000  1.6323  0.4893  1.6139
  869MPD2     C12801   1.962   2.088   0.651  0.3871  0.2281 -0.1356
  869MPD2    C112802   1.958   2.135   0.519  0.3255  0.3750 -0.9021
  869MPD2    C212803   2.053   2.228   0.481  0.2139 -0.0187 -0.4629
  869MPD2    C312804   2.142   2.276   0.578 -0.1235  0.5857  0.2587
  869MPD2    C412805   2.139   2.234   0.711 -0.2648  0.0797 -0.2579
  869MPD2    C512806   2.044   2.145   0.746  0.0057  0.4315  0.8418
  869MPD2     H12807   2.075   2.243   0.376 -2.4226 -3.0144 -1.4561
  869MPD2    H112808   2.214   2.270   0.780 -1.2171 -0.9878  1.3482
  869MPD2    H212809   1.898   2.007   0.684 -0.5675  0.8424 -0.4641
  869MPD2    H312810   2.047   2.114   0.850  0.8039 -2.6187 -0.1050
  869MPD2     N12811   2.221   2.384   0.540 -0.4378 -0.0500 -0.1004
  869MPD2    H512812   2.270   2.438   0.611  2.4961  1.8677 -3.5918
  869MPD2    N112813   1.871   2.075   0.430  0.1720 -0.6803 -0.0592
  869MPD2    H712814   1.815   2.000   0.467  0.8647  0.4474  3.2485
  870MPD2     C12815   3.140   0.943   1.033  0.2015  0.8051  0.4182
  870MPD2    C112816   3.021   0.876   1.051 -0.3891 -0.6244  0.3467
  870MPD2    C212817   2.901   0.950   1.074  0.4485  0.8132 -0.6024
  870MPD2    C312818   2.905   1.085   1.069  1.0176  0.3096  0.5858
  870MPD2    C412819   3.023   1.150   1.042 -0.6577 -0.3168 -0.0911
  870MPD2    C512820   3.139   1.083   1.033  0.1976 -0.0268  0.0365
  870MPD2     H12821   2.811   0.892   1.092  1.0702 -0.6272 -2.0896
  870MPD2    H112822   3.017   1.256   1.019  0.4308 -0.8931 -3.0729
  870MPD2    H212823   3.235   0.891   1.025  0.5548  1.5130  0.0262
  870MPD2    H312824   3.227   1.141   1.006  1.4467 -0.9875  2.0800
  870MPD2     N12825   2.785   1.149   1.109 -0.5107  0.3765  0.1625
  870MPD2    H512826   2.712   1.085   1.138 -0.3484 -0.1528 -0.5813
  870MPD2    N112827   3.015   0.739   1.022  0.3226  0.0690  0.0429
  870MPD2    H712828   3.105   0.694   1.009 -1.1366 -2.6086 -0.8209
  871MPD2     C12829   2.862   0.805  16.505  0.1456  0.6368  0.9765
  871MPD2    C112830   2.852   0.759  16.638 -0.2369  0.4165  0.0066
  871MPD2    C212831   2.877   0.628  16.672 -0.4121 -0.0683  0.4237
  871MPD2    C312832   2.926   0.538  16.581 -0.3466 -0.0183  0.9700
  871MPD2    C412833   2.936   0.579  16.453 -0.0769 -0.6925  0.1425
  871MPD2    C512834   2.892   0.706  16.414 -0.0366  0.3786 -0.1442
  871MPD2     H12835   2.876   0.603  16.778  0.0327  1.0536  0.7026
  871MPD2    H112836   2.965   0.508  16.376 -1.0035  1.4918 -2.2352
  871MPD2    H212837   2.855   0.908  16.473  0.1651  0.5013  0.5388
  871MPD2    H312838   2.909   0.732  16.310 -0.4529  0.2678 -0.2379
  871MPD2     N12839   2.963   0.412  16.630 -0.3367 -0.0139  0.3508
  871MPD2    H512840   2.932   0.388  16.723 -1.3748  0.8244  0.2214
  871MPD2    N112841   2.832   0.871  16.732  0.2604  0.4106 -1.0547
  871MPD2    H712842   2.825   0.961  16.686  0.9599  0.8605 -0.2903
  872MPD2     C12843   3.598   2.895  14.289  0.0440  0.4375  0.5076
  872MPD2    C112844   3.574   3.002  14.210  0.2343  0.1831 -0.1183
  872MPD2    C212845   3.466   3.085  14.238  0.2169  0.2624  0.3920
  872MPD2    C312846   3.387   3.041  14.346  0.0027 -0.8585 -0.3137
  872MPD2    C412847   3.404   2.922  14.419 -0.1835 -0.1556  0.3881
  872MPD2    C512848   3.513   2.847  14.390  0.5092  0.2052 -0.2720
  872MPD2     H12849   3.439   3.174  14.184 -0.4643  0.6523  1.3841
  872MPD2    H112850   3.340   2.879  14.495 -3.0447  1.3219 -1.2335
  872MPD2    H212851   3.681   2.830  14.266 -1.3998 -0.7469 -1.3309
  872MPD2    H312852   3.533   2.759  14.450 -1.0207  0.4207  0.5476
  872MPD2     N12853   3.264   3.111  14.385  0.2854  0.0918  0.4450
  872MPD2    H512854   3.191   3.060  14.433  0.2065 -2.0651 -1.9585
  872MPD2    N112855   3.660   3.041  14.105 -0.2267  0.0682 -0.5734
  872MPD2    H712856   3.614   3.096  14.033  0.6949  1.4683 -0.0967
  873MPD2     C12857   0.177   3.088   0.509 -0.2954 -0.0251  0.7455
  873MPD2    C112858   0.277   3.038   0.590  0.1119  0.8059 -0.1976
  873MPD2    C212859   0.340   2.922   0.557  0.0485  0.2904  0.3938
  873MPD2    C312860   0.327   2.865   0.431 -0.5662 -0.1664  0.2270
  873MPD2    C412861   0.248   2.927   0.335 -0.7252 -0.3838  0.4915
  873MPD2    C512862   0.165   3.029   0.381  0.5125 -0.3194 -0.4734
  873MPD2     H12863   0.412   2.883   0.628 -0.8184  1.2066  1.7695
  873MPD2    H112864   0.231   2.889   0.235  2.0239 -0.3730  0.0333
  873MPD2    H212865   0.119   3.171   0.548 -1.7713  0.0797 -1.6504
  873MPD2    H312866   0.084   3.071   0.322  1.1331  1.3611 -0.1413
  873MPD2     N12867   0.415   2.767   0.383 -0.6611  0.1444  0.0915
  873MPD2    H512868   0.401   2.728   0.291  2.2644  2.5689 -1.3655
  873MPD2    N112869   0.309   3.112   0.711 -0.1883 -0.0139  0.3516
  873MPD2    H712870   0.241   3.173   0.756  1.2523  0.6688  1.6068
  874MPD2     C12871   0.558   3.367  16.055  0.1075 -0.2295 -0.4417
  874MPD2    C112872   0.640   3.362  16.163  0.3108  0.6873  0.8022
  874MPD2    C212873   0.735   3.465  16.188  0.2281 -0.1055  0.0599
  874MPD2    C312874   0.754   3.561  16.091  0.3866 -0.6900 -0.0829
  874MPD2    C412875   0.675   3.560  15.980 -0.6392  0.0653 -0.3286
  874MPD2    C512876   0.580   3.461  15.957  0.6065  0.7685  0.7167
  874MPD2     H12877   0.807   3.472  16.269 -0.0339 -0.0682  0.2897
  874MPD2    H112878   0.698   3.617  15.891  0.0210  0.3936  0.0599
  874MPD2    H212879   0.467   3.307  16.054 -0.0288  0.0104 -1.5803
  874MPD2    H312880   0.526   3.468  15.863  1.8663  2.4896  0.1066
  874MPD2     N12881   0.875   3.638  16.104  0.2170 -0.2016  0.1741
  874MPD2    H512882   0.919   3.621  16.194  1.2659 -0.9813 -0.4938
  874MPD2    N112883   0.616   3.256  16.251 -0.4761 -0.1450  0.1284
  874MPD2    H712884   0.549   3.181  16.235  1.2751 -1.6903  0.0403
  875MPD2     C12885   1.755   2.019  14.356 -0.4326  1.0554  0.2120
  875MPD2    C112886   1.635   1.964  14.410  0.4486  0.0662  0.2605
  875MPD2    C212887   1.633   1.950  14.553  0.4345 -0.9319  0.0174
  875MPD2    C312888   1.737   1.997  14.627  0.4782 -0.3077  0.6429
  875MPD2    C412889   1.854   2.043  14.566  0.4939  0.1223 -0.0383
  875MPD2    C512890   1.860   2.043  14.433  0.1617  0.6827  0.1350
  875MPD2     H12891   1.540   1.915  14.597 -1.5089  1.0517 -2.4613
  875MPD2    H112892   1.946   2.058  14.622  0.7904 -2.1797  0.1101
  875MPD2    H212893   1.763   2.052  14.253 -1.1254  2.3207  0.5656
  875MPD2    H312894   1.949   2.082  14.384  0.1987 -3.1584 -2.8890
  875MPD2     N12895   1.727   1.990  14.770 -0.2935 -0.1695 -0.2747
  875MPD2    H512896   1.803   2.037  14.818 -0.1612 -1.1449  0.4699
  875MPD2    N112897   1.516   1.946  14.333  0.0933  0.1594  0.0251
  875MPD2    H712898   1.438   1.926  14.395 -0.4743 -0.4385 -0.8934
  876MPD2     C12899   0.350   2.986  16.066 -0.1774  0.7336  0.3512
  876MPD2    C112900   0.472   2.975  16.003  0.3913 -0.3454 -0.4997
  876MPD2    C212901   0.570   2.903  16.065  0.1283 -0.5784  0.3023
  876MPD2    C312902   0.545   2.829  16.176  0.1189 -0.1228  0.6198
  876MPD2    C412903   0.425   2.839  16.239 -0.6302  0.3922 -0.1306
  876MPD2    C512904   0.329   2.920  16.179 -0.4862  0.5646  0.7197
  876MPD2     H12905   0.667   2.885  16.022  0.3286  1.7020 -0.1888
  876MPD2    H112906   0.401   2.779  16.326  0.5028 -0.7897 -0.6367
  876MPD2    H212907   0.274   3.055  16.031  1.5206  1.7379 -1.3317
  876MPD2    H312908   0.237   2.935  16.234  0.2107  0.3193  1.9610
  876MPD2     N12909   0.656   2.756  16.227  0.0029  0.8254  0.0421
  876MPD2    H512910   0.743   2.744  16.177  0.8932  0.8750  1.5537
  876MPD2    N112911   0.500   3.057  15.901  0.0861  0.5088 -0.4381
  876MPD2    H712912   0.421   3.108  15.865  0.3934  0.3577 -1.3264
  877MPD2     C12913   0.144   3.381  15.320 -0.2717  0.0099  0.9415
  877MPD2    C112914   0.274   3.422  15.316  0.2760 -0.3493  0.2382
  877MPD2    C212915   0.311   3.506  15.214 -0.1248 -0.4810  0.7927
  877MPD2    C312916   0.209   3.556  15.123  0.4591  0.1399  0.5129
  877MPD2    C412917   0.080   3.504  15.134 -0.0138 -0.5189 -0.0594
  877MPD2    C512918   0.047   3.417  15.229 -0.0075 -0.0264  0.2010
  877MPD2     H12919   0.415   3.536  15.206 -0.6559  0.9397 -0.7742
  877MPD2    H112920   0.006   3.510  15.056 -0.4903 -2.1884  0.2746
  877MPD2    H212921   0.110   3.309  15.394 -0.4832 -0.1907  0.6508
  877MPD2    H312922   4.688   3.367  15.231  0.5639 -1.1324  0.6092
  877MPD2     N12923   0.247   3.635  15.013 -0.9364  0.8446 -0.6844
  877MPD2    H512924   0.196   3.634  14.925 -0.0340  0.2889 -1.2046
  877MPD2    N112925   0.377   3.375  15.406  0.0859 -0.0300  0.4017
  877MPD2    H712926   0.473   3.403  15.390  0.0641 -0.6040 -0.8160
  878MPD2     C12927   0.304   2.505  12.872  0.3053  0.2886 -0.8976
  878MPD2    C112928   0.294   2.643  12.857 -0.4583  0.0381  0.2489
  878MPD2    C212929   0.232   2.709  12.963  0.7447 -0.5223  0.3930
  878MPD2    C312930   0.189   2.643  13.077  0.3151 -0.4324  0.6801
  878MPD2    C412931   0.203   2.509  13.084  0.0745  0.0303  0.3578
  878MPD2    C512932   0.266   2.439  12.989  0.3894  0.1642 -0.3312
  878MPD2     H12933   0.215   2.816  12.968  0.4392 -0.4676 -1.6277
  878MPD2    H112934   0.189   2.438  13.164 -0.3617 -0.7272 -0.3842
  878MPD2    H212935   0.351   2.439  12.800 -1.1298 -0.7892 -0.8531
  878MPD2    H312936   0.270   2.331  13.005  0.5144  0.4504  1.5483
  878MPD2     N12937   0.150   2.725  13.184 -0.0583  0.2619  0.8666
  878MPD2    H512938   0.164   2.824  13.162  1.2363 -0.3231 -0.9878
  878MPD2    N112939   0.335   2.705  12.736  0.2428  0.5090 -0.2125
  878MPD2    H712940   0.369   2.643  12.663 -0.4308  0.7010 -0.6807
  879MPD2     C12941   0.414   4.275  16.751  0.3989 -0.2740 -0.3101
  879MPD2    C112942   0.482   4.203  16.845 -0.0231 -0.4382 -0.4272
  879MPD2    C212943   0.461   4.069  16.851 -0.0745 -0.3029  0.2248
  879MPD2    C312944   0.365   4.013  16.768  0.3956 -0.8470 -0.4962
  879MPD2    C412945   0.296   4.087  16.677 -0.5831 -0.0167  0.0637
  879MPD2    C512946   0.314   4.224  16.672  0.1394  0.0572 -0.3988
  879MPD2     H12947   0.512   3.997  16.914  1.1967  0.6755  0.3044
  879MPD2    H112948   0.224   4.042  16.610 -1.6466  0.6772  0.7631
  879MPD2    H212949   0.428   4.382  16.738 -0.8847 -0.2332 -1.4234
  879MPD2    H312950   0.258   4.276  16.594  0.6112 -1.5741 -1.8098
  879MPD2     N12951   0.342   3.877  16.754 -0.0541 -0.1920  0.4713
  879MPD2    H512952   0.277   3.846  16.682 -0.0747  1.1551 -0.0853
  879MPD2    N112953   0.573   4.269  16.925 -0.4194  0.5560  0.1311
  879MPD2    H712954   0.595   4.367  16.914 -2.7617  0.9515 -1.0444
  880MPD2     C12955   1.787   0.804   0.063 -0.5173 -0.2262 -0.1696
  880MPD2    C112956   1.839   0.841   0.185 -0.2611  0.7350  0.2798
  880MPD2    C212957   1.916   0.749   0.258  0.1023  0.8636  0.4069
  880MPD2    C312958   1.924   0.617   0.219 -0.6475  0.0070  0.7136
  880MPD2    C412959   1.869   0.588   0.094 -0.0544  0.3012  0.0677
  880MPD2    C512960   1.809   0.681   0.015 -0.6351 -0.2873 -0.2134
  880MPD2     H12961   1.956   0.776   0.355  0.9891 -1.8373  0.7911
  880MPD2    H112962   1.873   0.488   0.053 -1.0664 -0.4302  1.7385
  880MPD2    H212963   1.731   0.877   0.006  0.6661 -0.4131 -1.5733
  880MPD2    H312964   1.773   0.642  17.672 -0.1985  0.3793 -0.6672
  880MPD2     N12965   1.989   0.526   0.299  0.6298  0.5055 -0.0874
  880MPD2    H512966   2.025   0.556   0.390  1.3918 -0.5695 -0.0225
  880MPD2    N112967   1.808   0.964   0.246  0.1278 -0.1662  0.6905
  880MPD2    H712968   1.740   1.013   0.188  1.0110 -0.3926 -0.5224
  881MPD2     C12969   2.072   1.867   0.014 -0.6736  0.3303  0.8495
  881MPD2    C112970   2.051   1.743  17.708  0.5855  0.4752 -0.4809
  881MPD2    C212971   1.982   1.653   0.040 -1.1514  0.7480 -0.2014
  881MPD2    C312972   1.972   1.669   0.183 -0.6210  0.1723 -0.0673
  881MPD2    C412973   2.011   1.794   0.230 -0.6615 -0.1974 -0.3563
  881MPD2    C512974   2.061   1.885   0.145 -0.3138  0.5797  0.5997
  881MPD2     H12975   1.967   1.551   0.006 -0.2860  0.9721 -1.2625
  881MPD2    H112976   2.001   1.808   0.337  3.6204  0.2664 -0.0102
  881MPD2    H212977   2.124   1.942  17.706  0.0191 -0.8765 -0.0905
  881MPD2    H312978   2.088   1.980   0.189  1.6581 -0.2999  1.2902
  881MPD2     N12979   1.926   1.568   0.272  0.3581 -0.0211 -0.6771
  881MPD2    H512980   1.936   1.599   0.369 -3.3686 -1.3397  0.0938
  881MPD2    N112981   2.063   1.727  17.565 -0.5563  0.4288 -0.3037
  881MPD2    H712982   2.094   1.804  17.507  0.6626  0.2515  0.1130
  882MPD2     C12983   0.384   3.596  14.249 -0.2926  0.8912 -0.1448
  882MPD2    C112984   0.282   3.609  14.344  0.3058 -0.1725 -0.2650
  882MPD2    C212985   0.167   3.530  14.341  0.2705  0.0077  0.2522
  882MPD2    C312986   0.155   3.442  14.236  0.1893  0.7388 -0.5160
  882MPD2    C412987   0.262   3.428  14.145  0.7306  0.1321  0.2502
  882MPD2    C512988   0.381   3.501  14.152 -0.3374  0.8421  0.5191
  882MPD2     H12989   0.090   3.552  14.414 -0.9996  0.5324 -1.2265
  882MPD2    H112990   0.257   3.353  14.067 -0.8835 -0.3197  0.7836
  882MPD2    H212991   0.484   3.636  14.262 -0.8568  2.2059  0.1505
  882MPD2    H312992   0.466   3.494  14.086 -0.7470 -1.9677  0.2575
  882MPD2     N12993   0.044   3.352  14.214 -0.3019 -0.1444  0.0223
  882MPD2    H512994   0.061   3.275  14.150  0.7734  0.4837 -0.4420
  882MPD2    N112995   0.297   3.711  14.444  0.2207 -0.1448  0.5758
  882MPD2    H712996   0.381   3.767  14.430  0.3354 -0.6805 -0.8790
  883MPD2     C12997   2.415   3.011  16.099 -0.3716 -0.8681 -0.0589
  883MPD2    C112998   2.478   3.104  16.021 -0.1403 -0.4277  0.2185
  883MPD2    C212999   2.613   3.123  16.028 -0.1265 -0.5193 -0.2079
  883MPD2    C313000   2.680   3.063  16.136  0.2694  0.4135 -0.7460
  883MPD2    C413001   2.617   2.986  16.223 -0.0075  0.4252  0.1785
  883MPD2    C513002   2.486   2.950  16.195 -0.6592  0.1830 -0.1493
  883MPD2     H13003   2.669   3.198  15.973  1.2206  0.9889  3.1935
  883MPD2    H113004   2.662   2.930  16.304 -1.0393  1.5508  1.5326
  883MPD2    H213005   2.306   3.008  16.101 -0.3908  0.2585  0.1986
  883MPD2    H313006   2.423   2.879  16.248 -0.6378  0.5742  0.3990
  883MPD2     N13007   2.820   3.084  16.143  0.1803 -0.5271 -0.3073
  883MPD2    H513008   2.859   3.134  16.064  1.8315 -3.0623 -1.1189
  883MPD2    N113009   2.410   3.185  15.926 -0.5776 -0.1093  0.6359
  883MPD2    H713010   2.465   3.250  15.870  0.8602 -1.6346  0.2609
  884MPD2     C13011   4.432   4.108  15.008 -0.0626  0.1532 -0.5884
  884MPD2    C113012   4.405   4.240  14.984 -0.7923 -0.2890 -0.5937
  884MPD2    C213013   4.276   4.285  15.009  0.1017 -0.2915 -0.5254
  884MPD2    C313014   4.177   4.205  15.074  0.3405 -0.1972  0.3131
  884MPD2    C413015   4.209   4.070  15.092  0.3584  1.1341  0.2703
  884MPD2    C513016   4.333   4.025  15.059  0.5529 -0.5539  0.3110
  884MPD2     H13017   4.253   4.390  14.990  1.1132  0.0210 -0.0302
  884MPD2    H113018   4.144   3.998  15.140  0.6215  0.5605 -0.2360
  884MPD2    H213019   4.530   4.063  14.997  0.2313  0.8161 -0.6942
  884MPD2    H313020   4.355   3.921  15.079  1.2572 -0.0009  2.4240
  884MPD2     N13021   4.055   4.258  15.108 -0.2135  0.1995  0.0736
  884MPD2    H513022   4.051   4.354  15.075 -0.8446  0.3496  0.5677
  884MPD2    N113023   4.497   4.335  14.935  0.0027 -0.2091  0.3744
  884MPD2    H713024   4.472   4.433  14.927  1.5701  0.0969 -0.7928
  885MPD2     C13025   2.443   4.356   0.119  0.5733 -0.4528 -0.9266
  885MPD2    C113026   2.544   4.281   0.067  0.0495 -0.0272 -0.6876
  885MPD2    C213027   2.575   4.289  17.683 -0.1883 -0.0677  0.1803
  885MPD2    C313028   2.494   4.372  17.604  0.2304  0.3614 -0.8396
  885MPD2    C413029   2.385   4.428  17.654 -0.5159 -0.5137 -0.4191
  885MPD2    C513030   2.358   4.428   0.037 -0.0169  0.1680  0.4383
  885MPD2     H13031   2.650   4.231  17.631 -0.5579  0.2594 -0.7177
  885MPD2    H113032   2.308   4.468  17.590  2.4579  2.9414 -1.8239
  885MPD2    H213033   2.421   4.348   0.225 -1.9986  1.0031 -1.3523
  885MPD2    H313034   2.262   4.458   0.077 -0.1791  0.7958 -0.4284
  885MPD2     N13035   2.530   4.385  17.469 -0.3916 -0.3040 -0.7388
  885MPD2    H513036   2.594   4.316  17.430 -0.2143  0.5577 -1.9609
  885MPD2    N113037   2.607   4.199   0.167 -0.3760  0.2873  0.6374
  885MPD2    H713038   2.573   4.212   0.261 -0.9987 -0.9081  0.5819
  886MPD2     C13039   3.638   2.812  15.314 -0.5124  0.4881  0.0877
  886MPD2    C113040   3.765   2.843  15.340  0.5573  0.6413 -0.2631
  886MPD2    C213041   3.822   2.960  15.304 -0.6605 -0.3392 -0.5530
  886MPD2    C313042   3.752   3.056  15.226 -0.0408  0.0867 -0.0946
  886MPD2    C413043   3.622   3.023  15.202 -0.5379 -0.2489  0.1737
  886MPD2    C513044   3.570   2.902  15.238  0.1230  0.7639  0.3849
  886MPD2     H13045   3.930   2.965  15.313 -0.8132 -0.5005  1.4803
  886MPD2    H113046   3.561   3.098  15.154 -0.7092 -0.9791 -0.7495
  886MPD2    H213047   3.596   2.714  15.337 -0.2466  0.6087  1.0889
  886MPD2    H313048   3.470   2.882  15.204  0.6212 -2.8588  1.0447
  886MPD2     N13049   3.810   3.177  15.179 -0.0489  0.1618  0.4343
  886MPD2    H513050   3.757   3.230  15.110 -2.2743 -1.0725  1.1865
  886MPD2    N113051   3.856   2.754  15.409  0.0561 -0.0013 -0.2732
  886MPD2    H713052   3.951   2.780  15.435 -0.2701  1.3076 -0.3700
  887MPD2     C13053   4.245   2.912  15.974  0.2431  0.2939  0.2527
  887MPD2    C113054   4.255   2.904  15.842 -0.5672 -0.6331 -0.2911
  887MPD2    C213055   4.330   2.999  15.770  0.3312 -0.2853  0.3048
  887MPD2    C313056   4.401   3.098  15.839  0.2170  0.1301  0.2074
  887MPD2    C413057   4.375   3.110  15.976  0.6662 -0.6796  0.0500
  887MPD2    C513058   4.302   3.021  16.039 -0.1977 -0.0097 -0.0644
  887MPD2     H13059   4.350   2.985  15.664 -3.5649  0.0910 -0.4962
  887MPD2    H113060   4.410   3.197  16.030  0.5818 -1.2214  0.9735
  887MPD2    H213061   4.194   2.844  16.041 -0.0004  1.4829  1.2677
  887MPD2    H313062   4.297   3.021  16.147 -2.3418  2.7708 -0.1519
  887MPD2     N13063   4.478   3.187  15.770 -0.1453 -0.3721  0.2507
  887MPD2    H513064   4.478   3.189  15.669  0.1001  0.7763  0.2722
  887MPD2    N113065   4.188   2.805  15.770  0.3163  0.5673  0.1694
  887MPD2    H713066   4.182   2.814  15.669 -1.2659 -0.0772  0.2080
  888MPD2     C13067   1.483   3.183  14.797  0.1638 -0.7606 -0.2241
  888MPD2    C113068   1.435   3.198  14.924 -0.2167 -0.2189  0.6609
  888MPD2    C213069   1.485   3.297  15.003  0.2361 -0.4377 -0.1047
  888MPD2    C313070   1.591   3.380  14.955  0.3621 -0.3166  0.2595
  888MPD2    C413071   1.629   3.364  14.825  1.4127 -0.4757 -0.1076
  888MPD2    C513072   1.579   3.271  14.748 -0.1911 -0.5121 -0.2880
  888MPD2     H13073   1.451   3.307  15.106 -1.4623  4.5454 -1.1477
  888MPD2    H113074   1.698   3.435  14.780  0.3119 -1.5134 -3.4650
  888MPD2    H213075   1.441   3.117  14.722  3.7585 -1.4032 -1.6741
  888MPD2    H313076   1.627   3.263  14.651  0.3398 -1.4828  0.0551
  888MPD2     N13077   1.637   3.489  15.031 -0.2904 -0.1747 -0.3641
  888MPD2    H513078   1.570   3.530  15.096  0.6602  1.9994 -0.7563
  888MPD2    N113079   1.345   3.107  14.985 -0.1000 -0.3927  0.1314
  888MPD2    H713080   1.327   3.125  15.083  1.5680 -0.0884  0.3844
  889MPD2     C13081   0.728   2.915  12.380  0.2399  0.4242 -0.0856
  889MPD2    C113082   0.754   2.839  12.492 -0.1553 -0.8623 -0.1084
  889MPD2    C213083   0.738   2.908  12.610 -0.3102 -0.0678  0.1751
  889MPD2    C313084   0.674   3.029  12.616  0.1167 -0.2003  0.3401
  889MPD2    C413085   0.633   3.093  12.499 -0.5868 -0.9646 -0.5569
  889MPD2    C513086   0.657   3.031  12.385  0.5841  1.0009  0.5297
  889MPD2     H13087   0.760   2.859  12.705 -0.5335  0.4244  0.4812
  889MPD2    H113088   0.595   3.194  12.511  1.6264 -0.1599 -0.3287
  889MPD2    H213089   0.747   2.861  12.289 -0.8277  0.0887 -0.1022
  889MPD2    H313090   0.636   3.084  12.293  0.0123  0.6939  0.4821
  889MPD2     N13091   0.671   3.096  12.736  0.5374 -0.6943 -0.4360
  889MPD2    H513092   0.712   3.056  12.820  1.4517  1.3278  0.0683
  889MPD2    N113093   0.837   2.722  12.496 -0.0931 -0.0157 -0.3750
  889MPD2    H713094   0.887   2.696  12.580 -0.3087 -1.8997 -0.8194
  890MPD2     C13095   0.190   4.316  14.469 -0.7522  0.4201  0.5225
  890MPD2    C113096   0.315   4.381  14.487 -0.2239  0.0573 -0.5481
  890MPD2    C213097   0.409   4.329  14.579 -0.1316 -0.1444  0.7100
  890MPD2    C313098   0.377   4.233  14.665 -0.0346  0.7451  0.0424
  890MPD2    C413099   0.252   4.173  14.655 -0.4368 -0.0569  0.1335
  890MPD2    C513100   0.163   4.216  14.556 -0.2919  0.1455  0.7914
  890MPD2     H13101   0.509   4.368  14.592 -0.4348  1.0717 -0.6019
  890MPD2    H113102   0.233   4.082  14.710  1.8119 -2.0939 -2.4217
  890MPD2    H213103   0.112   4.337  14.397  1.4107  1.3139 -1.5869
  890MPD2    H313104   0.078   4.155  14.527  0.3732  0.2047 -1.2708
  890MPD2     N13105   0.479   4.197  14.753  0.4643 -0.1446  0.6083
  890MPD2    H513106   0.568   4.246  14.749 -0.1341  1.0140  1.5097
  890MPD2    N113107   0.339   4.490  14.405 -0.1926  0.4741  0.2687
  890MPD2    H713108   0.265   4.524  14.344  0.1931  0.5016 -0.1731
  891MPD2     C13109   3.470   2.207  16.291  0.3721  0.6806  0.4385
  891MPD2    C113110   3.410   2.268  16.403  0.5084  0.0914  0.4835
  891MPD2    C213111   3.481   2.276  16.523 -0.1217 -0.2165  0.1429
  891MPD2    C313112   3.604   2.216  16.537  0.6403  0.3499 -0.4349
  891MPD2    C413113   3.666   2.162  16.422  0.1101  0.1728 -0.0595
  891MPD2    C513114   3.598   2.163  16.308 -0.3233  0.7197  0.1958
  891MPD2     H13115   3.432   2.317  16.611  1.0091 -1.0725  1.1722
  891MPD2    H113116   3.769   2.129  16.424 -0.0722 -0.3236  1.1760
  891MPD2    H213117   3.429   2.184  16.193 -0.4721 -0.3597  1.0353
  891MPD2    H313118   3.652   2.122  16.224  1.3385 -0.0292  1.6387
  891MPD2     N13119   3.665   2.225  16.658  0.1537 -0.0652  0.3244
  891MPD2    H513120   3.606   2.256  16.735 -2.0781  0.4504 -1.5753
  891MPD2    N113121   3.278   2.321  16.387  0.1532  0.0316 -0.1196
  891MPD2    H713122   3.232   2.310  16.297 -2.1895  2.3914  0.7983
  892MPD2     C13123   4.288   3.707  14.743 -0.7054 -0.1027 -0.3845
  892MPD2    C113124   4.174   3.648  14.687 -0.0794  0.0663 -0.3337
  892MPD2    C213125   4.192   3.576  14.569  0.5201  0.3783 -0.2432
  892MPD2    C313126   4.317   3.563  14.516  0.2836  0.4432 -0.4914
  892MPD2    C413127   4.426   3.617  14.580  0.5658 -0.1511  0.5432
  892MPD2    C513128   4.408   3.699  14.686 -0.2403 -0.1213 -0.1266
  892MPD2     H13129   4.106   3.526  14.525  0.1878 -0.6491  1.5474
  892MPD2    H113130   4.527   3.602  14.542  0.4571  1.9518 -0.5444
  892MPD2    H213131   4.291   3.755  14.840 -0.1199  0.4113 -0.6629
  892MPD2    H313132   4.491   3.738  14.743 -1.7722  0.3406  1.7993
  892MPD2     N13133   4.348   3.479  14.408  0.0613  0.2150  0.5025
  892MPD2    H513134   4.437   3.490  14.359 -0.2675 -0.4089 -0.2172
  892MPD2    N113135   4.044   3.664  14.745 -0.0123  0.3962  0.0731
  892MPD2    H713136   3.959   3.652  14.690  0.5792 -4.1211  0.1470
  893MPD2     C13137   1.357   1.354   1.637 -0.1392  0.2484 -0.1215
  893MPD2    C113138   1.337   1.425   1.518  0.7788  0.0610 -0.5336
  893MPD2    C213139   1.236   1.521   1.513  0.5885 -0.5973  0.0034
  893MPD2    C313140   1.155   1.535   1.624 -0.0995  0.0772 -0.0728
  893MPD2    C413141   1.170   1.452   1.730  1.2058  0.0591  0.3645
  893MPD2    C513142   1.270   1.361   1.738  0.0816  0.7246  0.0440
  893MPD2     H13143   1.243   1.589   1.429 -0.2951 -0.9077 -0.3207
  893MPD2    H113144   1.114   1.472   1.821  0.3554 -1.1572  0.1238
  893MPD2    H213145   1.443   1.288   1.632 -0.2919  0.1490 -1.2976
  893MPD2    H313146   1.278   1.304   1.830 -3.1525  0.1925  0.0019
  893MPD2     N13147   1.058   1.637   1.629 -0.1258 -0.1014  0.0607
  893MPD2    H513148   0.992   1.646   1.705  0.8229 -1.5731  1.0541
  893MPD2    N113149   1.426   1.390   1.410 -0.7369 -0.5336  0.1060
  893MPD2    H713150   1.498   1.320   1.424  1.2725  1.3447 -0.8415
  894MPD2     C13151   4.164   0.048   0.859 -0.4353 -0.2573 -0.3107
  894MPD2    C113152   4.244   4.727   0.956 -0.9986  0.3048  0.0357
  894MPD2    C213153   4.350   0.047   0.993 -0.5960  0.5156 -0.1386
  894MPD2    C313154   4.381   0.169   0.940  0.2313 -0.5170  0.7583
  894MPD2    C413155   4.306   0.235   0.851 -0.3281 -0.2679  0.4038
  894MPD2    C513156   4.189   0.175   0.806  0.9578 -0.5937  0.2036
  894MPD2     H13157   4.421   4.731   1.055 -1.1369  0.5070  0.4707
  894MPD2    H113158   4.339   0.333   0.819  1.8079 -1.1522 -0.1076
  894MPD2    H213159   4.073   4.738   0.826  0.5100 -1.0144 -1.8104
  894MPD2    H313160   4.124   0.232   0.741 -0.6950 -2.4797  0.2349
  894MPD2     N13161   4.504   0.230   0.966 -0.6423 -0.3080  0.1364
  894MPD2    H513162   4.512   0.326   0.933 -1.7484 -0.2415  0.0485
  894MPD2    N113163   4.221   4.599   1.016 -0.5670 -0.2917  1.1210
  894MPD2    H713164   4.283   4.559   1.086  2.5551  1.1265 -0.8550
  895MPD2     C13165   3.616   2.856  13.080  0.3248  0.4160 -0.2130
  895MPD2    C113166   3.482   2.833  13.071 -0.2611 -0.1954 -0.2546
  895MPD2    C213167   3.436   2.711  13.025  0.4291 -0.5373  0.4892
  895MPD2    C313168   3.513   2.614  12.974 -0.1938  0.0067  0.2406
  895MPD2    C413169   3.647   2.632  12.985  0.4486  0.4435 -0.0926
  895MPD2    C513170   3.698   2.744  13.045  0.6934  0.1439 -0.5240
  895MPD2     H13171   3.331   2.686  13.013 -0.0049  0.2582  2.6143
  895MPD2    H113172   3.724   2.561  12.955  1.3781  0.2536  2.8225
  895MPD2    H213173   3.647   2.952  13.119  0.0517  0.3270  0.2242
  895MPD2    H313174   3.805   2.753  13.056  0.6999  1.5569 -1.7611
  895MPD2     N13175   3.450   2.505  12.911 -0.3028 -0.1658 -0.0057
  895MPD2    H513176   3.349   2.512  12.903 -0.1851  1.1450 -0.2683
  895MPD2    N113177   3.391   2.935  13.081  0.7827 -0.5644 -0.6901
  895MPD2    H713178   3.298   2.909  13.049  1.1162 -0.7385 -1.5070
  896MPD2     C13179   1.703   0.145   1.350  0.3021 -0.3013  0.0046
  896MPD2    C113180   1.659   0.255   1.277  0.1752 -0.9763 -0.7284
  896MPD2    C213181   1.526   0.270   1.245 -0.4739  0.3327 -0.1914
  896MPD2    C313182   1.432   0.175   1.278 -0.0026 -0.5031 -0.1062
  896MPD2    C413183   1.475   0.075   1.354  0.5265 -0.3031 -0.0782
  896MPD2    C513184   1.603   0.060   1.397  0.2978  0.0997  0.1042
  896MPD2     H13185   1.506   0.348   1.173 -1.0110  1.7279  1.4614
  896MPD2    H113186   1.397   0.010   1.393 -0.6798  0.3761 -1.3443
  896MPD2    H213187   1.807   0.139   1.378  0.5474 -1.3035 -1.0730
  896MPD2    H313188   1.621   4.714   1.463 -1.8302 -0.6235 -0.2453
  896MPD2     N13189   1.298   0.184   1.234  0.2208 -0.0585 -0.4864
  896MPD2    H513190   1.264   0.260   1.176  1.2572  1.2870  0.6741
  896MPD2    N113191   1.755   0.345   1.221 -0.1353  0.9151  0.6155
  896MPD2    H713192   1.851   0.323   1.242 -0.1322 -0.6746 -0.9740
  897MPD2     C13193   2.020   2.104  10.379 -0.4982  0.3164  0.0213
  897MPD2    C113194   1.981   2.224  10.436  0.4254 -0.6745 -0.1669
  897MPD2    C213195   1.940   2.223  10.570 -0.4215 -0.1099  0.8402
  897MPD2    C313196   1.917   2.100  10.634 -0.2807  0.2746  0.3961
  897MPD2    C413197   1.969   1.981  10.576 -0.0621  0.5034 -0.3312
  897MPD2    C513198   2.033   1.995  10.455 -0.3689  0.0065 -0.1325
  897MPD2     H13199   1.898   2.313  10.613  0.9428  0.3323  1.2509
  897MPD2    H113200   1.962   1.883  10.623 -0.3784  0.2352 -0.9399
  897MPD2    H213201   2.048   2.095  10.274 -1.6031  0.8509 -0.3233
  897MPD2    H313202   2.070   1.912  10.396 -0.9820 -1.0398  0.9483
  897MPD2     N13203   1.844   2.105  10.754 -0.3781  0.2704 -0.8486
  897MPD2    H513204   1.801   2.192  10.784 -2.7088 -1.5251  0.9507
  897MPD2    N113205   1.996   2.334  10.353 -0.4524  0.5680 -0.8565
  897MPD2    H713206   2.026   2.308  10.259  1.0018  1.5579 -0.6637
  898MPD2     C13207   3.467   2.893  17.708 -0.7429 -0.0461  0.0559
  898MPD2    C113208   3.600   2.878  17.702  0.0173 -0.9291 -0.0782
  898MPD2    C213209   3.681   2.988  17.690  0.2155 -0.2186  0.7585
  898MPD2    C313210   3.623   3.114  17.669 -0.3816 -1.3486 -0.5119
  898MPD2    C413211   3.481   3.119  17.659 -0.0004  0.7618  0.6809
  898MPD2    C513212   3.403   3.012  17.682  0.2616  0.4350 -0.9569
  898MPD2     H13213   3.789   2.975  17.685  0.3668  0.9170  1.0523
  898MPD2    H113214   3.434   3.213  17.631 -0.1730  0.0788 -1.3413
  898MPD2    H213215   3.404   2.807  17.729  1.1695 -1.6562 -0.7639
  898MPD2    H313216   3.295   3.012  17.690  0.4422  0.0367  1.6515
  898MPD2     N13217   3.709   3.224  17.649  0.0357  0.1831 -0.4775
  898MPD2    H513218   3.808   3.202  17.641  0.2930  0.1146  2.6483
  898MPD2    N113219   3.665   2.756  17.719 -0.2382 -0.5009  0.2449
  898MPD2    H713220   3.765   2.759  17.735 -0.4229  2.8552  0.8675
  899MPD2     C13221   4.722   3.704  17.428 -0.0872 -0.4969  0.1803
  899MPD2    C113222   0.013   3.831  17.469  0.1217  0.2471 -0.3936
  899MPD2    C213223   4.704   3.872  17.592  0.0932 -0.1153 -0.6880
  899MPD2    C313224   4.617   3.793  17.666 -0.6559  0.0621 -0.3075
  899MPD2    C413225   4.584   3.668  17.623  0.0458 -0.2529 -0.4150
  899MPD2    C513226   4.639   3.628  17.510 -0.0073 -0.4344 -0.5326
  899MPD2     H13227   0.008   3.965  17.629 -0.5663  0.3958 -1.2323
  899MPD2    H113228   4.514   3.603  17.674 -0.1753 -0.0061 -0.4006
  899MPD2    H213229   0.020   3.672  17.331 -1.5259 -2.0041  0.1382
  899MPD2    H313230   4.625   3.528  17.470 -0.1549 -0.5232 -0.2540
  899MPD2     N13231   4.548   3.841   0.027  0.0614  0.2854 -0.1152
  899MPD2    H513232   4.490   3.782   0.085  0.3762 -1.5433 -1.6540
  899MPD2    N113233   0.084   3.914  17.382 -0.0425 -0.4725 -0.0441
  899MPD2    H713234   0.093   3.869  17.292 -1.6406  0.2385 -0.5492
  900MPD2     C13235   4.415   0.706  12.623 -0.0570  0.2922  0.4061
  900MPD2    C113236   4.301   0.632  12.640 -0.7519  0.4791 -0.0887
  900MPD2    C213237   4.179   0.687  12.606  0.3674 -0.3615  0.0791
  900MPD2    C313238   4.164   0.816  12.569 -0.5960 -0.3676 -0.1384
  900MPD2    C413239   4.276   0.898  12.566 -0.2408  0.5481  0.5667
  900MPD2    C513240   4.401   0.840  12.591  0.1659  0.2702 -0.0023
  900MPD2     H13241   4.089   0.628  12.615 -0.7947  1.6893  1.6205
  900MPD2    H113242   4.276   1.004  12.545  1.4600  0.3660 -0.2734
  900MPD2    H213243   4.514   0.667  12.643  0.1460  0.0024 -1.2067
  900MPD2    H313244   4.493   0.897  12.582  0.7748 -0.6302  0.5519
  900MPD2     N13245   4.033   0.862  12.529  0.1161  0.0715  0.0729
  900MPD2    H513246   3.951   0.802  12.530  1.1135 -1.2731 -1.1682
  900MPD2    N113247   4.315   0.510  12.710  0.2842  0.3475 -0.6806
  900MPD2    H713248   4.413   0.490  12.726  0.5942  2.8572  0.6111
  901MPD2     C13249   4.029   4.250  12.503  0.1296  0.2013  1.0007
  901MPD2    C113250   4.135   4.229  12.589  0.3784 -0.3001 -0.7905
  901MPD2    C213251   4.184   4.330  12.670 -0.4620 -0.0820  0.1693
  901MPD2    C313252   4.130   4.459  12.669 -0.0768 -0.2743  0.1596
  901MPD2    C413253   4.016   4.469  12.592 -0.4773  0.1519 -0.2610
  901MPD2    C513254   3.968   4.373  12.510  0.4884  0.2850  0.2241
  901MPD2     H13255   4.265   4.312  12.740  0.6150 -2.2472 -1.6076
  901MPD2    H113256   3.966   4.565  12.586 -0.1071  0.4791  2.1008
  901MPD2    H213257   3.989   4.178  12.432 -0.3475  0.3162  1.1472
  901MPD2    H313258   3.900   4.396  12.429  0.8577 -1.3149 -0.5520
  901MPD2     N13259   4.197   4.567  12.735 -0.2001 -0.0528 -0.0367
  901MPD2    H513260   4.298   4.567  12.742 -0.1214  0.0763 -1.2690
  901MPD2    N113261   4.203   4.109  12.584 -0.1604  0.1070  0.0188
  901MPD2    H713262   4.170   4.049  12.509 -0.7328 -0.4456  0.7208
  902MPD2     C13263   2.847   3.265  12.538  0.5482 -0.0230  0.9803
  902MPD2    C113264   2.926   3.380  12.559  0.3728  0.2080 -0.0320
  902MPD2    C213265   3.064   3.367  12.537 -0.9267  0.0550  0.5051
  902MPD2    C313266   3.121   3.252  12.477 -0.1672 -0.1857 -0.2017
  902MPD2    C413267   3.040   3.147  12.459 -0.4022  0.3385  0.5224
  902MPD2    C513268   2.906   3.150  12.487  0.6932  0.0484  0.4227
  902MPD2     H13269   3.123   3.447  12.580 -0.6626  0.2352 -0.1856
  902MPD2    H113270   3.071   3.055  12.412  0.7785 -0.1160  2.1638
  902MPD2    H213271   2.740   3.267  12.559  0.4291 -0.5171  0.4327
  902MPD2    H313272   2.842   3.068  12.458  1.6928 -0.2042 -1.0619
  902MPD2     N13273   3.253   3.244  12.423  0.2291  0.4159 -0.1657
  902MPD2    H513274   3.271   3.156  12.376  0.0415 -0.9124  2.2539
  902MPD2    N113275   2.859   3.493  12.605  0.4882 -0.2581  0.3164
  902MPD2    H713276   2.766   3.476  12.641  1.1566  0.5758  2.4493
  903MPD2     C13277   3.319   3.045  11.683 -0.4708  0.9346 -0.1791
  903MPD2    C113278   3.282   3.083  11.808 -0.6577 -0.1041  0.3536
  903MPD2    C213279   3.162   3.043  11.853 -0.4685  0.5414 -0.0236
  903MPD2    C313280   3.070   2.961  11.790 -0.3740 -0.3311  0.6386
  903MPD2    C413281   3.109   2.924  11.664 -0.6510  0.5964  0.4063
  903MPD2    C513282   3.233   2.960  11.615 -0.8924  0.9736  0.2306
  903MPD2     H13283   3.145   3.065  11.958  0.3389 -0.5395  0.3426
  903MPD2    H113284   3.052   2.845  11.618 -1.4603 -0.2229  2.8202
  903MPD2    H213285   3.413   3.068  11.633 -0.2500 -0.5255 -0.4334
  903MPD2    H313286   3.251   2.926  11.514 -0.0141 -0.1672  0.7676
  903MPD2     N13287   2.947   2.923  11.855 -0.0504 -0.5158  0.1618
  903MPD2    H513288   2.939   2.947  11.953 -0.3518 -0.8905  0.2297
  903MPD2    N113289   3.366   3.159  11.889  0.1631 -0.3859  0.1189
  903MPD2    H713290   3.463   3.170  11.862  0.7125 -1.3450  1.7023
  904MPD2     C13291   2.791   2.284  13.732  0.0756 -0.6056 -0.5007
  904MPD2    C113292   2.878   2.343  13.647 -0.7709  0.8753  0.1986
  904MPD2    C213293   3.000   2.286  13.622 -0.5804  0.0455 -0.5446
  904MPD2    C313294   3.034   2.174  13.694  0.5979 -0.2684  0.0993
  904MPD2    C413295   2.945   2.110  13.775  0.2847  0.3792 -0.5940
  904MPD2    C513296   2.821   2.168  13.797  0.4187  0.7211 -0.3517
  904MPD2     H13297   3.071   2.338  13.559  0.1807  0.0507  0.3185
  904MPD2    H113298   2.971   2.021  13.832 -0.8358 -0.0105 -0.6980
  904MPD2    H213299   2.693   2.329  13.745 -0.0852 -0.5078 -2.0713
  904MPD2    H313300   2.745   2.117  13.855 -0.2549  1.7722 -0.3178
  904MPD2     N13301   3.164   2.124  13.673 -0.5686  0.1004 -0.7263
  904MPD2    H513302   3.223   2.176  13.609 -0.6464  1.8896  0.6564
  904MPD2    N113303   2.848   2.461  13.575 -0.4874  0.0322  0.1204
  904MPD2    H713304   2.918   2.500  13.512 -2.8862 -0.0089 -2.5504
  905MPD2     C13305   2.571   2.504  12.906 -0.2339 -0.0785  0.2525
  905MPD2    C113306   2.679   2.526  12.984  0.2672  0.0365 -0.3698
  905MPD2    C213307   2.803   2.495  12.929 -0.0467 -0.3316 -0.1677
  905MPD2    C313308   2.813   2.419  12.808 -1.0181 -0.3200  0.0387
  905MPD2    C413309   2.700   2.378  12.749  0.4248  0.5438  0.2428
  905MPD2    C513310   2.579   2.424  12.796  0.3848 -0.7430  0.9393
  905MPD2     H13311   2.893   2.534  12.976  0.2067 -0.6136 -0.4155
  905MPD2    H113312   2.700   2.314  12.661 -2.4852  0.5014  0.2523
  905MPD2    H213313   2.470   2.534  12.931  0.0937  0.4554  0.9295
  905MPD2    H313314   2.493   2.402  12.734  0.3426  0.9589  0.3834
  905MPD2     N13315   2.931   2.368  12.761  0.1882 -0.1203  0.0091
  905MPD2    H513316   2.935   2.303  12.683 -2.7122 -0.7440  0.3830
  905MPD2    N113317   2.665   2.606  13.101  0.1711 -0.3925  0.0254
  905MPD2    H713318   2.574   2.610  13.146  0.2675  0.6445  0.1415
  906MPD2     C13319   0.267   2.493  11.366  0.2980  1.0390 -0.2928
  906MPD2    C113320   0.274   2.379  11.293 -0.3425  0.1576  0.0175
  906MPD2    C213321   0.191   2.275  11.320  0.2028  0.0403 -1.0083
  906MPD2    C313322   0.107   2.284  11.434  0.1254 -0.1021  0.0043
  906MPD2    C413323   0.094   2.397  11.509 -0.0831  0.6621  0.8133
  906MPD2    C513324   0.179   2.502  11.467  0.0117 -0.4179 -0.3632
  906MPD2     H13325   0.191   2.176  11.277 -4.9442 -0.1426 -0.5602
  906MPD2    H113326   0.042   2.410  11.603 -0.9930  2.4038  0.0684
  906MPD2    H213327   0.322   2.583  11.341  0.0825  1.0245 -0.8125
  906MPD2    H313328   0.180   2.598  11.518  0.3681  0.4924 -2.0726
  906MPD2     N13329   0.041   2.168  11.466 -0.7655  1.1716  0.4293
  906MPD2    H513330   0.057   2.089  11.405  1.7801  0.3959  2.1045
  906MPD2    N113331   0.345   2.365  11.174  0.3408  0.1172 -0.1315
  906MPD2    H713332   0.317   2.282  11.122 -0.3976 -0.8354  1.7614
  907MPD2     C13333   4.438   1.397  15.370 -0.2303  0.4608 -0.1625
  907MPD2    C113334   4.380   1.269  15.383 -1.0982 -0.6986 -0.2611
  907MPD2    C213335   4.428   1.194  15.496 -0.4014  0.5622 -0.9651
  907MPD2    C313336   4.504   1.255  15.596 -0.5940  0.0964 -0.1251
  907MPD2    C413337   4.551   1.386  15.581  0.0328  0.2650 -0.1646
  907MPD2    C513338   4.519   1.449  15.468 -0.1307 -0.4390  0.2665
  907MPD2     H13339   4.391   1.096  15.523 -1.3154  0.7155 -1.6522
  907MPD2    H113340   4.611   1.444  15.650 -0.7529  0.9710 -0.0770
  907MPD2    H213341   4.416   1.462  15.286  0.1959 -0.3210 -0.8845
  907MPD2    H313342   4.560   1.546  15.441 -0.2526 -0.3301  0.4730
  907MPD2     N13343   4.525   1.181  15.713  0.1173 -0.0300 -0.3498
  907MPD2    H513344   4.498   1.083  15.713 -1.7406  0.4720  2.7715
  907MPD2    N113345   4.303   1.213  15.279 -0.1108  0.2558 -0.2128
  907MPD2    H713346   4.287   1.114  15.287 -1.1232  0.3096 -1.6100
  908MPD2     C13347   1.713   2.099   9.680  0.2494 -0.2314 -0.4107
  908MPD2    C113348   1.839   2.092   9.727  0.7066 -0.3906  1.0500
  908MPD2    C213349   1.884   2.196   9.801 -0.2719 -0.4463 -0.2919
  908MPD2    C313350   1.810   2.314   9.813  0.1111 -0.0508 -0.4346
  908MPD2    C413351   1.684   2.321   9.758 -0.1730 -0.2553 -0.4695
  908MPD2    C513352   1.633   2.209   9.694 -0.4974 -0.0071 -0.3861
  908MPD2     H13353   1.991   2.195   9.824 -0.6051 -0.2695  1.2919
  908MPD2    H113354   1.623   2.409   9.773  1.5165  0.8627 -0.1273
  908MPD2    H213355   1.684   2.012   9.623  0.1733  0.3276 -1.2383
  908MPD2    H313356   1.535   2.219   9.650 -1.0813 -0.4240  0.8261
  908MPD2     N13357   1.867   2.421   9.891 -0.3052 -0.6826 -0.3451
  908MPD2    H513358   1.958   2.395   9.928  1.2434  1.7463 -2.4483
  908MPD2    N113359   1.922   1.979   9.694 -0.0522  0.2581 -0.6496
  908MPD2    H713360   1.871   1.925   9.626 -1.7591  1.2711 -0.1651
  909MPD2     C13361   2.168   0.491  12.211  0.2961 -0.4245  0.2572
  909MPD2    C113362   2.106   0.594  12.139 -0.0931 -0.5125 -0.3007
  909MPD2    C213363   2.046   0.692  12.208  0.4043 -0.0538 -0.1594
  909MPD2    C313364   2.030   0.692  12.341 -0.1011 -0.2459  0.2396
  909MPD2    C413365   2.078   0.583  12.409 -0.2320  0.4025 -0.0777
  909MPD2    C513366   2.146   0.480  12.349  0.5300 -0.6216 -0.7358
  909MPD2     H13367   2.013   0.773  12.144 -1.0961 -2.0230 -1.8828
  909MPD2    H113368   2.074   0.582  12.517  2.1206 -1.0265  0.0109
  909MPD2    H213369   2.220   0.404  12.171  1.0701 -0.1466  0.6606
  909MPD2    H313370   2.178   0.400  12.414 -0.6108 -0.0191  0.5759
  909MPD2     N13371   1.965   0.800  12.401  0.1220  0.2595 -0.3131
  909MPD2    H513372   1.950   0.881  12.340  1.6859  1.1867  0.5251
  909MPD2    N113373   2.129   0.616  12.003 -0.4821  0.7392 -0.0066
  909MPD2    H713374   2.090   0.699  11.959  0.3653  1.5232  0.7340
  910MPD2     C13375   3.466   1.859  15.463  0.1020  1.0553 -0.3319
  910MPD2    C113376   3.506   1.784  15.354  0.4687 -0.0901  0.5581
  910MPD2    C213377   3.416   1.775  15.247 -0.1746 -0.1414 -0.2730
  910MPD2    C313378   3.294   1.840  15.254  0.8117 -0.0686  0.1993
  910MPD2    C413379   3.263   1.922  15.358  0.0088  0.1347 -0.0768
  910MPD2    C513380   3.350   1.931  15.461  0.6651 -0.5862 -0.1847
  910MPD2     H13381   3.436   1.713  15.160  1.0550  1.9411 -1.4994
  910MPD2    H113382   3.173   1.983  15.359 -0.8647 -1.1784  2.0228
  910MPD2    H213383   3.522   1.847  15.555 -0.6774 -2.8827 -0.3625
  910MPD2    H313384   3.327   1.979  15.555 -1.9748  1.6963 -1.9775
  910MPD2     N13385   3.189   1.828  15.155 -0.1016 -0.4681  0.7229
  910MPD2    H513386   3.105   1.878  15.182 -0.4423 -1.3185  1.2259
  910MPD2    N113387   3.634   1.716  15.348  0.2223  0.2340  0.9339
  910MPD2    H713388   3.657   1.671  15.260 -1.4747 -0.9834  1.1204
  911MPD2     C13389   1.728   2.591  15.917 -0.3216 -0.9295 -0.3127
  911MPD2    C113390   1.736   2.630  16.046 -0.0287 -0.0111 -0.4866
  911MPD2    C213391   1.658   2.736  16.088  0.0148  0.0460  0.3554
  911MPD2    C313392   1.571   2.794  15.996  0.2959  0.7949  0.5147
  911MPD2    C413393   1.564   2.747  15.871 -0.9601 -0.0646  0.1523
  911MPD2    C513394   1.641   2.654  15.829 -0.4531 -0.8986 -0.1671
  911MPD2     H13395   1.660   2.777  16.188 -1.5963 -1.3987  0.9818
  911MPD2    H113396   1.498   2.794  15.799  0.0519  1.1783  0.0518
  911MPD2    H213397   1.791   2.512  15.878  0.3803  0.1501 -1.3431
  911MPD2    H313398   1.626   2.627  15.725 -0.8496  0.3867 -0.4526
  911MPD2     N13399   1.489   2.908  16.016  0.0621  0.2124 -0.3747
  911MPD2    H513400   1.423   2.927  15.941  1.2057  2.2679 -0.8547
  911MPD2    N113401   1.828   2.555  16.121  0.1992 -0.0329  0.0983
  911MPD2    H713402   1.894   2.491  16.078 -1.7259 -1.1455 -1.1546
  912MPD2     C13403   1.127   2.885  15.493 -0.5854 -0.6063  0.4568
  912MPD2    C113404   1.176   2.862  15.626 -0.9365  0.2347 -0.2052
  912MPD2    C213405   1.208   2.737  15.673 -0.4118 -0.6672  0.0424
  912MPD2    C313406   1.205   2.638  15.585 -0.4352 -0.5849  0.2280
  912MPD2    C413407   1.153   2.650  15.454 -0.2426  0.5984 -0.0678
  912MPD2    C513408   1.099   2.773  15.415 -0.1495  0.1322  0.0760
  912MPD2     H13409   1.234   2.710  15.775 -0.5510 -0.6425  0.0846
  912MPD2    H113410   1.151   2.567  15.385  0.2198 -1.6136  2.5979
  912MPD2    H213411   1.114   2.984  15.450 -0.6105 -0.7985  0.0278
  912MPD2    H313412   1.043   2.784  15.323  1.0604  2.0385 -0.4104
  912MPD2     N13413   1.265   2.523  15.635 -0.4233  0.1619 -0.2329
  912MPD2    H513414   1.290   2.518  15.733  0.6986  2.4355 -0.4139
  912MPD2    N113415   1.158   2.971  15.714  0.2853  0.4743 -0.3634
  912MPD2    H713416   1.134   3.064  15.682 -0.4595  0.1131 -0.8457
  913MPD2     C13417   1.828   4.125  10.942 -0.7257  1.1042  0.5821
  913MPD2    C113418   1.894   4.250  10.927 -0.2379 -0.1187  0.6801
  913MPD2    C213419   1.893   4.310  10.803 -0.6140 -0.0485  0.9952
  913MPD2    C313420   1.843   4.243  10.696  0.4949  0.2840 -0.5218
  913MPD2    C413421   1.800   4.112  10.708  0.4450  0.0038  0.4854
  913MPD2    C513422   1.782   4.057  10.834 -0.1915 -0.1588 -0.2562
  913MPD2     H13423   1.939   4.407  10.788 -0.4139 -0.4257 -0.8002
  913MPD2    H113424   1.786   4.050  10.621  1.3345  2.7124 -1.5871
  913MPD2    H213425   1.819   4.076  11.039 -0.0955  2.6527  1.4193
  913MPD2    H313426   1.755   3.954  10.852 -0.9148  0.2783  1.1703
  913MPD2     N13427   1.844   4.291  10.566  0.6128  0.3728 -0.1222
  913MPD2    H513428   1.812   4.232  10.490 -1.8072  0.0275  1.1865
  913MPD2    N113429   1.947   4.310  11.043  0.2588  0.0601  0.4584
  913MPD2    H713430   1.948   4.252  11.126  1.6638 -0.0871  0.3418
  914MPD2     C13431   4.726   4.389  12.196  0.5597  0.4967  0.2141
  914MPD2    C113432   0.007   4.386  12.331 -1.1758 -0.1348 -0.0572
  914MPD2    C213433   4.717   4.272  12.395 -0.0056  0.0475 -0.4412
  914MPD2    C313434   4.658   4.159  12.328  0.1250 -0.4706 -0.7519
  914MPD2    C413435   4.628   4.169  12.194  0.2357  0.4114  0.1615
  914MPD2    C513436   4.667   4.288  12.133  0.4417  0.8931 -0.0573
  914MPD2     H13437   4.736   4.258  12.501  0.1102 -1.0040 -0.5948
  914MPD2    H113438   4.579   4.095  12.133 -0.7085 -0.1746  1.6494
  914MPD2    H213439   0.029   4.464  12.129  0.8966 -0.0956 -0.2454
  914MPD2    H313440   4.645   4.293  12.026 -1.2019 -2.5747  0.0854
  914MPD2     N13441   4.634   4.039  12.407 -0.3357  0.4949  0.3093
  914MPD2    H513442   4.636   4.050  12.508 -0.6115  0.3856  0.3261
  914MPD2    N113443   0.071   4.497  12.392 -0.4683 -0.3453  0.1064
  914MPD2    H713444   0.090   4.573  12.328 -3.1815  0.9087  0.8037
  915MPD2     C13445   2.597   3.995  15.682  0.4003 -0.7601  1.0126
  915MPD2    C113446   2.497   4.078  15.623  0.0118 -0.3832  0.0623
  915MPD2    C213447   2.426   4.159  15.704 -0.1294  0.2044 -0.2207
  915MPD2    C313448   2.459   4.165  15.845  0.2395 -0.6151 -0.6306
  915MPD2    C413449   2.554   4.076  15.899  0.2427 -0.1148 -0.3868
  915MPD2    C513450   2.624   4.000  15.816 -0.2892  0.5195 -0.2962
  915MPD2     H13451   2.336   4.207  15.669 -0.0606  0.4696 -0.0333
  915MPD2    H113452   2.578   4.077  16.004  1.0918 -0.7040 -0.5718
  915MPD2    H213453   2.656   3.935  15.613  0.9435  1.7358 -0.6584
  915MPD2    H313454   2.705   3.934  15.848 -0.6651  0.6087  0.8447
  915MPD2     N13455   2.379   4.247  15.928 -0.4475  0.1044 -0.4587
  915MPD2    H513456   2.300   4.296  15.886 -0.0733  0.1005 -1.1747
  915MPD2    N113457   2.459   4.042  15.492  0.1833  0.7571  0.5001
  915MPD2    H713458   2.519   3.975  15.445 -0.4816  1.7081 -1.6966
  916MPD2     C13459   0.878   2.564  15.753  0.2642  0.2422  1.1151
  916MPD2    C113460   0.914   2.460  15.838  0.4039  0.8157  0.4731
  916MPD2    C213461   0.941   2.332  15.780 -0.3637  0.5190  0.0236
  916MPD2    C313462   0.930   2.306  15.639 -0.2666  0.4488  0.3381
  916MPD2    C413463   0.892   2.415  15.559  0.6429 -0.0849 -0.6799
  916MPD2    C513464   0.875   2.542  15.617 -0.2247 -0.4615  0.3599
  916MPD2     H13465   0.972   2.243  15.834 -1.1322 -0.7608 -1.6319
  916MPD2    H113466   0.884   2.394  15.453 -0.3363 -2.1117 -0.1986
  916MPD2    H213467   0.851   2.664  15.785 -0.3804  0.4353 -0.0146
  916MPD2    H313468   0.855   2.634  15.563  3.1822  1.7106  2.7598
  916MPD2     N13469   0.958   2.179  15.588 -0.3061 -0.3471 -0.8343
  916MPD2    H513470   0.985   2.110  15.658  0.0940 -1.4255 -2.0543
  916MPD2    N113471   0.915   2.484  15.978  0.5036 -0.7031  0.1891
  916MPD2    H713472   0.895   2.579  16.007  1.6652 -0.8008  1.3275
  917MPD2     C13473   0.704   0.537  11.583 -0.7413 -0.2825 -0.1068
  917MPD2    C113474   0.783   0.513  11.694 -0.2819 -0.4039 -0.4619
  917MPD2    C213475   0.921   0.556  11.694  0.2763  0.4326  0.1903
  917MPD2    C313476   0.975   0.628  11.589  0.7377  0.6580  0.1468
  917MPD2    C413477   0.897   0.649  11.472  0.3826  0.2041 -0.5384
  917MPD2    C513478   0.769   0.601  11.476 -0.0793 -1.7179 -0.8436
  917MPD2     H13479   0.997   0.532  11.768 -0.8479 -0.4439  1.0600
  917MPD2    H113480   0.925   0.695  11.378  0.9982 -1.4142 -1.1452
  917MPD2    H213481   0.598   0.513  11.580 -0.9842  0.6765  1.2524
  917MPD2    H313482   0.714   0.616  11.384 -2.2024 -0.1546  0.6643
  917MPD2     N13483   1.113   0.669  11.584  0.2279  0.2495 -0.1999
  917MPD2    H513484   1.151   0.718  11.504  1.3882  1.7445  1.2669
  917MPD2    N113485   0.718   0.453  11.804  1.1618 -0.3597  0.4485
  917MPD2    H713486   0.620   0.426  11.799  0.1472  3.2811  0.6924
  918MPD2     C13487   0.929   0.568  12.774 -0.0594  0.1931  0.3168
  918MPD2    C113488   0.989   0.613  12.654  0.3742 -0.0627  0.0902
  918MPD2    C213489   0.944   0.557  12.536  1.0909  0.1936 -0.4444
  918MPD2    C313490   0.830   0.469  12.533 -0.6008  0.1493  0.2856
  918MPD2    C413491   0.763   0.445  12.650  0.4544 -0.2458  0.2470
  918MPD2    C513492   0.819   0.489  12.770 -0.0238  0.2271  1.3381
  918MPD2     H13493   0.994   0.575  12.442  2.9627  1.3906  0.7581
  918MPD2    H113494   0.670   0.390  12.644  0.8657 -1.2567  2.9016
  918MPD2    H213495   0.969   0.581  12.874  1.6526 -0.6283 -0.2696
  918MPD2    H313496   0.762   0.469  12.860  1.0992 -1.3506  1.7108
  918MPD2     N13497   0.792   0.413  12.408  0.2658  0.5706 -0.2384
  918MPD2    H513498   0.858   0.426  12.332 -0.4422 -0.0873 -0.9755
  918MPD2    N113499   1.116   0.684  12.645 -0.0286 -0.0491  0.6611
  918MPD2    H713500   1.146   0.703  12.550 -0.3790 -0.6310  0.4303
  919MPD2     C13501   1.382   3.879  11.886 -0.1652 -0.2489  0.3695
  919MPD2    C113502   1.366   3.779  11.795  0.0423  0.2128  0.7432
  919MPD2    C213503   1.391   3.811  11.665  0.6809  0.2291 -0.1604
  919MPD2    C313504   1.420   3.938  11.617  0.9144 -0.2998 -0.3805
  919MPD2    C413505   1.430   4.040  11.708 -0.3464 -0.2520 -0.5012
  919MPD2    C513506   1.422   4.001  11.846  0.2270 -0.6180 -0.5475
  919MPD2     H13507   1.377   3.725  11.600  2.2171 -0.5262  0.5177
  919MPD2    H113508   1.445   4.143  11.677 -0.9443  0.0062  0.0574
  919MPD2    H213509   1.361   3.862  11.991 -1.4400 -2.4257 -0.2444
  919MPD2    H313510   1.427   4.084  11.915 -0.8097 -1.5148  0.5883
  919MPD2     N13511   1.453   3.958  11.477  0.1698  0.6404  0.4179
  919MPD2    H513512   1.480   4.050  11.445 -0.0654 -0.2941 -2.4890
  919MPD2    N113513   1.331   3.643  11.822  0.2172  0.3504 -0.2201
  919MPD2    H713514   1.319   3.583  11.741 -1.8372 -0.1665  0.4834
  920MPD2     C13515   1.512   4.482  10.604  0.0699  0.1465  0.3070
  920MPD2    C113516   1.426   4.372  10.572 -0.0510  0.2892 -1.1789
  920MPD2    C213517   1.405   4.282  10.669 -0.0920  0.5286  0.2165
  920MPD2    C313518   1.465   4.292  10.795 -0.1767 -0.7733  0.2666
  920MPD2    C413519   1.555   4.397  10.818  0.8462 -0.2070 -0.1858
  920MPD2    C513520   1.574   4.487  10.724 -0.3861 -0.4017 -0.5573
  920MPD2     H13521   1.339   4.196  10.655 -2.6313  2.4136  0.5528
  920MPD2    H113522   1.613   4.400  10.910 -0.7333  2.1464  0.7350
  920MPD2    H213523   1.540   4.554  10.529 -0.5663  0.9252  0.8132
  920MPD2    H313524   1.646   4.566  10.741 -1.6378  0.3469  1.2687
  920MPD2     N13525   1.434   4.188  10.887 -0.0602 -0.6767  0.2153
  920MPD2    H513526   1.378   4.117  10.840 -1.0016 -0.8109  1.5555
  920MPD2    N113527   1.360   4.351  10.447  0.4218  0.1133 -0.6931
  920MPD2    H713528   1.311   4.263  10.439  0.5748  0.1292 -1.9399
  921MPD2     C13529   2.580   2.898  16.565 -0.5420 -0.7257 -0.2675
  921MPD2    C113530   2.609   2.769  16.555  0.5884  0.0362 -0.7710
  921MPD2    C213531   2.499   2.685  16.553 -0.5129 -0.4925  0.0351
  921MPD2    C313532   2.368   2.729  16.544 -0.4321  0.8160  0.1006
  921MPD2    C413533   2.348   2.862  16.559 -0.0341  0.8912  0.4178
  921MPD2    C513534   2.452   2.950  16.574  0.1722 -0.8417  0.4957
  921MPD2     H13535   2.519   2.579  16.543 -3.1515 -0.7362 -2.3999
  921MPD2    H113536   2.249   2.906  16.552 -1.7155 -2.5864  1.9531
  921MPD2    H213537   2.668   2.961  16.573 -0.5329 -0.8039  0.2536
  921MPD2    H313538   2.439   3.057  16.569  2.7078 -0.5225  0.3889
  921MPD2     N13539   2.260   2.649  16.499  0.1490  0.2097  0.8678
  921MPD2    H513540   2.170   2.689  16.473  1.4740  3.0745  0.7440
  921MPD2    N113541   2.747   2.728  16.543 -0.0580  0.0524  0.7351
  921MPD2    H713542   2.821   2.795  16.528  0.2506 -0.2885  0.7359
  922MPD2     C13543   3.265   0.417  17.013 -0.8549 -0.0944 -0.5970
  922MPD2    C113544   3.302   0.475  17.132 -0.1616  0.9520 -0.2806
  922MPD2    C213545   3.238   0.442  17.253  0.4747 -0.5223 -0.2045
  922MPD2    C313546   3.153   0.337  17.264 -0.2696 -0.7124 -1.1572
  922MPD2    C413547   3.118   0.281  17.141  0.0492 -0.2716  0.3505
  922MPD2    C513548   3.170   0.321  17.021  0.6464  0.9943 -0.4799
  922MPD2     H13549   3.256   0.507  17.338  0.8057 -0.7371 -0.1111
  922MPD2    H113550   3.035   0.212  17.137  0.8385 -1.1518 -0.8268
  922MPD2    H213551   3.300   0.458  16.919 -2.5181  1.0848 -0.6936
  922MPD2    H313552   3.116   0.282  16.935  0.5493  0.0222  0.0145
  922MPD2     N13553   3.079   0.315  17.378  0.1988 -0.0564 -0.0878
  922MPD2    H513554   3.025   0.229  17.373  0.0457  0.2646 -4.0359
  922MPD2    N113555   3.396   0.582  17.142  0.8870 -0.4900  0.9494
  922MPD2    H713556   3.412   0.621  17.235 -0.8633  1.5520  0.3915
  923MPD2     C13557   3.462   3.600   9.407  0.1040 -0.1505  0.0310
  923MPD2    C113558   3.500   3.709   9.482 -0.6291 -0.3898  0.1066
  923MPD2    C213559   3.618   3.699   9.550  0.2225 -0.8805 -0.6715
  923MPD2    C313560   3.702   3.588   9.538  0.2426 -0.2274  0.0657
  923MPD2    C413561   3.667   3.484   9.450 -0.1348  1.1951  0.0809
  923MPD2    C513562   3.551   3.497   9.388 -0.2211  0.9796  0.1927
  923MPD2     H13563   3.646   3.779   9.618 -0.8495 -0.2270 -1.0051
  923MPD2    H113564   3.744   3.408   9.437 -0.6306  1.0466 -1.8643
  923MPD2    H213565   3.366   3.598   9.357 -0.2673  1.8345  0.6493
  923MPD2    H313566   3.512   3.424   9.317  0.6382  0.7448 -0.0377
  923MPD2     N13567   3.824   3.580   9.603  0.0795 -0.2594  0.2291
  923MPD2    H513568   3.883   3.498   9.591  0.2604 -0.2753  1.2481
  923MPD2    N113569   3.410   3.813   9.491 -0.1179 -0.4500  0.7642
  923MPD2    H713570   3.322   3.790   9.447 -0.1881  0.3343  0.5008
  924MPD2     C13571   4.616   0.297  16.153  0.5917 -0.7815  0.6643
  924MPD2    C113572   4.560   0.362  16.047 -0.6023 -0.1084 -0.2767
  924MPD2    C213573   4.588   0.495  16.027  0.3425 -0.6793 -0.2186
  924MPD2    C313574   4.679   0.567  16.102  0.0224 -0.1434 -0.2956
  924MPD2    C413575   0.005   0.502  16.208 -0.2344  0.6772 -0.0549
  924MPD2    C513576   4.706   0.368  16.229 -0.4007  0.3563  0.3657
  924MPD2     H13577   4.539   0.546  15.945  1.8094 -1.4264 -1.5445
  924MPD2    H113578   0.088   0.542  16.264  0.3540 -0.5147 -0.0853
  924MPD2    H213579   4.603   0.190  16.165 -2.1631 -0.4099  0.8674
  924MPD2    H313580   0.015   0.316  16.311 -2.2587 -2.7923 -0.5443
  924MPD2     N13581   4.700   0.703  16.089 -1.0357 -0.0123 -0.2774
  924MPD2    H513582   0.040   0.744  16.141 -0.0538 -1.6785 -0.4374
  924MPD2    N113583   4.462   0.289  15.974  0.4712  0.3750 -0.6898
  924MPD2    H713584   4.463   0.189  15.988 -0.3349  0.7881  2.1914
  925MPD2     C13585   2.865   3.841  14.542  0.6291  0.4631 -0.3455
  925MPD2    C113586   2.950   3.739  14.589  0.4598  0.7488  0.2294
  925MPD2    C213587   3.010   3.734  14.714  0.5669  0.0506  0.1335
  925MPD2    C313588   2.992   3.839  14.803  0.0942  0.7148  0.5527
  925MPD2    C413589   2.908   3.938  14.758  0.6060  0.5432  0.5352
  925MPD2    C513590   2.844   3.937  14.635 -0.5621 -0.7040  0.4264
  925MPD2     H13591   3.058   3.649  14.762 -1.2835 -0.7770  0.5067
  925MPD2    H113592   2.891   4.020  14.827  0.1665  1.0855 -0.2115
  925MPD2    H213593   2.820   3.853  14.444 -0.0959 -0.9844 -0.1923
  925MPD2    H313594   2.785   4.021  14.601  1.6615  0.6635 -0.0765
  925MPD2     N13595   3.042   3.846  14.935 -0.2022  0.4066 -0.1804
  925MPD2    H513596   3.016   3.930  14.987  2.3119  1.1439 -0.0914
  925MPD2    N113597   2.966   3.617  14.514 -1.2061 -0.4348 -0.1881
  925MPD2    H713598   3.028   3.549  14.556  0.3375  0.0147 -1.7621
  926MPD2     C13599   1.901   2.128  13.399 -0.2027 -0.2237 -0.3120
  926MPD2    C113600   1.794   2.209  13.377 -0.2588  0.2378  0.3022
  926MPD2    C213601   1.765   2.255  13.248  0.6676  0.1343  0.7188
  926MPD2    C313602   1.847   2.223  13.138 -0.3534 -0.0677 -0.1241
  926MPD2    C413603   1.943   2.127  13.162 -0.4681  0.2228 -0.3651
  926MPD2    C513604   1.970   2.083  13.286 -0.1192  0.2551  0.0760
  926MPD2     H13605   1.675   2.312  13.231  0.0247 -1.2142 -0.4383
  926MPD2    H113606   2.000   2.089  13.078 -0.9443  3.8367 -2.3096
  926MPD2    H213607   1.940   2.093  13.494  1.4498  1.7305 -0.2832
  926MPD2    H313608   2.050   2.013  13.308 -2.5904 -1.6896  2.9510
  926MPD2     N13609   1.811   2.249  13.006 -0.4514  0.3247 -0.6678
  926MPD2    H513610   1.840   2.194  12.926 -0.9639  0.4346 -0.9283
  926MPD2    N113611   1.707   2.257  13.484 -0.0923 -0.0324 -0.5599
  926MPD2    H713612   1.623   2.312  13.469  0.2520  0.1610 -1.7917
  927MPD2     C13613   1.578   4.190  17.555  0.2166  0.4061 -0.1930
  927MPD2    C113614   1.569   4.131  17.681 -0.3345  0.5394  0.2136
  927MPD2    C213615   1.685   4.135   0.006  0.2192 -0.2857 -0.3420
  927MPD2    C313616   1.811   4.165  17.707  0.2066 -0.5650  0.0329
  927MPD2    C413617   1.818   4.216  17.580 -0.1674  0.4081  0.2491
  927MPD2    C513618   1.696   4.233  17.510  1.1296  0.9084  0.3172
  927MPD2     H13619   1.684   4.091   0.105  1.7466  0.0773 -0.1656
  927MPD2    H113620   1.908   4.244  17.528  0.8029  1.2556  2.4031
  927MPD2    H213621   1.494   4.195  17.487 -2.0641  0.9589  2.6899
  927MPD2    H313622   1.695   4.270  17.408 -0.1018  0.1100  0.0409
  927MPD2     N13623   1.927   4.139   0.036 -0.0044  0.2135 -0.6176
  927MPD2    H513624   1.911   4.105   0.130  2.9041  1.9322  0.4764
  927MPD2    N113625   1.447   4.081  17.713 -0.3630 -0.2413  0.3271
  927MPD2    H713626   1.375   4.084  17.642  1.1786  2.0293 -1.1298
  928MPD2     C13627   4.722   1.686   0.644 -0.5079 -0.1089  0.1105
  928MPD2    C113628   4.724   1.814   0.695  0.1086  0.5858 -0.4510
  928MPD2    C213629   4.705   1.918   0.609  0.2005 -0.1986 -0.0868
  928MPD2    C313630   4.701   1.896   0.472 -0.2820 -0.3414 -0.3655
  928MPD2    C413631   4.704   1.768   0.427  0.2827  0.1355  0.1927
  928MPD2    C513632   4.708   1.661   0.511 -0.3543 -0.4273  0.1293
  928MPD2     H13633   4.704   2.020   0.647  0.9732 -0.0661 -0.4277
  928MPD2    H113634   4.707   1.747   0.320  0.8164 -0.7468  0.3823
  928MPD2    H213635   4.720   1.594   0.701  1.6251  0.8727  1.7935
  928MPD2    H313636   4.713   1.564   0.462 -1.5283 -1.0437  1.2400
  928MPD2     N13637   4.694   2.004   0.376 -0.2521 -0.7330  0.0068
  928MPD2    H513638   4.682   1.978   0.279  0.1342  2.9481 -1.0472
  928MPD2    N113639   4.731   1.828   0.829  0.0346 -0.1522  0.4327
  928MPD2    H713640   0.033   1.748   0.876  1.5909 -0.2936 -1.1446
  929MPD2     C13641   4.269   2.658   9.806  0.1062  0.8545  0.8594
  929MPD2    C113642   4.160   2.598   9.865  0.1389  0.2896  0.4037
  929MPD2    C213643   4.039   2.665   9.856  0.3072 -0.2600  0.1725
  929MPD2    C313644   4.027   2.785   9.786 -0.4046  0.9494  0.6725
  929MPD2    C413645   4.138   2.837   9.730  0.4848 -0.3502 -0.5863
  929MPD2    C513646   4.261   2.776   9.740 -0.0082  0.0895  0.1320
  929MPD2     H13647   3.949   2.621   9.899 -1.2426  1.0542 -1.7057
  929MPD2    H113648   4.127   2.928   9.672 -0.7214  1.2140  2.1315
  929MPD2    H213649   4.368   2.613   9.806  0.0606  0.7551  1.0997
  929MPD2    H313650   4.340   2.810   9.674  0.0706  0.2901  0.3263
  929MPD2     N13651   3.903   2.851   9.757 -0.1609  1.1815  0.1184
  929MPD2    H513652   3.905   2.916   9.680  1.9166  0.3331 -0.5414
  929MPD2    N113653   4.189   2.468   9.915  0.5170  0.2228  0.0585
  929MPD2    H713654   4.289   2.447   9.921  0.8532  1.2892 -1.6893
  930MPD2     C13655   1.671   0.032  13.921  0.1707 -0.5494 -0.1086
  930MPD2    C113656   1.695   0.112  13.814 -0.2315 -0.7445 -0.5386
  930MPD2    C213657   1.642   0.081  13.690  0.4631 -0.5019  0.4504
  930MPD2    C313658   1.578   4.698  13.663 -0.7692  0.3011 -0.3806
  930MPD2    C413659   1.560   4.616  13.772 -0.5986  0.3108  1.3632
  930MPD2    C513660   1.606   4.646  13.897 -0.6016 -0.3702 -0.8238
  930MPD2     H13661   1.656   0.148  13.606 -0.1932 -0.0602  0.6888
  930MPD2    H113662   1.523   4.515  13.754 -2.8558  1.4809 -0.4191
  930MPD2    H213663   1.712   0.050  14.020  0.0761  0.3827 -0.2402
  930MPD2    H313664   1.588   4.575  13.977  1.5006  0.2499  0.1967
  930MPD2     N13665   1.530   4.662  13.535 -0.6822 -0.0131 -0.3201
  930MPD2    H513666   1.513   4.738  13.469  1.3161 -0.2618 -1.1014
  930MPD2    N113667   1.783   0.223  13.840  0.1976 -0.2501 -0.0623
  930MPD2    H713668   1.806   0.251  13.935 -1.7377  0.7985  0.1116
  931MPD2     C13669   1.597   3.491   0.091  0.1004  0.0568  0.2845
  931MPD2    C113670   1.479   3.508   0.172  0.1610  0.5988 -0.2420
  931MPD2    C213671   1.472   3.458   0.302 -0.0633 -0.4795 -0.0248
  931MPD2    C313672   1.581   3.388   0.347 -0.6606 -0.7496 -0.2301
  931MPD2    C413673   1.696   3.377   0.269  0.1668  0.4705 -0.5666
  931MPD2    C513674   1.708   3.433   0.147 -0.6124  0.2865  0.5013
  931MPD2     H13675   1.383   3.465   0.364  0.1914  1.1386  0.1557
  931MPD2    H113676   1.785   3.337   0.315  0.6505 -0.0788 -1.9841
  931MPD2    H213677   1.611   3.518  17.738  3.3960  0.6473  0.8731
  931MPD2    H313678   1.807   3.442   0.104 -1.5973  0.5680 -1.7250
  931MPD2     N13679   1.594   3.338   0.480 -0.1603  0.0059  0.0120
  931MPD2    H513680   1.678   3.284   0.499 -0.3421 -0.8544 -1.6805
  931MPD2    N113681   1.370   3.575   0.113 -0.3450  0.2983  0.5640
  931MPD2    H713682   1.385   3.609   0.018  2.1653  0.6345  1.0960
  932MPD2     C13683   3.593   3.140  11.376 -0.0563  0.0420  0.0899
  932MPD2    C113684   3.721   3.165  11.415 -0.6391 -0.5394  0.9913
  932MPD2    C213685   3.816   3.071  11.410 -0.5472  0.0122  0.0846
  932MPD2    C313686   3.784   2.947  11.345 -0.5364  0.8990  0.0566
  932MPD2    C413687   3.654   2.923  11.309  0.0291  0.8041 -0.0075
  932MPD2    C513688   3.556   3.012  11.339  0.0323  0.6984 -0.3867
  932MPD2     H13689   3.914   3.084  11.454  0.2867 -1.9343 -1.1608
  932MPD2    H113690   3.622   2.826  11.271 -2.2087  1.8383 -0.7408
  932MPD2    H213691   3.513   3.214  11.371 -0.1158 -0.2362 -3.0925
  932MPD2    H313692   3.455   3.005  11.301 -0.2055 -0.7099  0.5168
  932MPD2     N13693   3.863   2.825  11.343  0.3395  0.3440 -0.2719
  932MPD2    H513694   3.822   2.736  11.318 -3.1250  1.7220  0.4974
  932MPD2    N113695   3.763   3.296  11.454  0.1109  0.1240 -0.0394
  932MPD2    H713696   3.863   3.312  11.462  0.0188  0.2083  0.8554
  933MPD2     C13697   4.696   2.380   1.614  0.7720 -0.4789 -0.1071
  933MPD2    C113698   4.647   2.349   1.489 -0.0572  0.5634  0.3550
  933MPD2    C213699   4.555   2.433   1.439  0.1689 -0.7846 -0.0961
  933MPD2    C313700   4.500   2.538   1.507 -0.0401  0.1690  0.0019
  933MPD2    C413701   4.555   2.568   1.629  0.2595 -0.4207  0.3561
  933MPD2    C513702   4.643   2.481   1.686 -0.0136 -0.4156 -0.0866
  933MPD2     H13703   4.513   2.418   1.340  1.1996 -0.6737 -0.5521
  933MPD2    H113704   4.508   2.638   1.698 -1.5242  0.4561 -1.7364
  933MPD2    H213705   0.027   2.309   1.658  2.7294  0.2815 -1.9454
  933MPD2    H313706   4.659   2.498   1.792  0.4770  0.6689 -0.3336
  933MPD2     N13707   4.398   2.614   1.449 -0.3395 -0.2705  0.6239
  933MPD2    H513708   4.386   2.574   1.357 -1.3630 -1.3210  1.2113
  933MPD2    N113709   4.702   2.245   1.415  0.9465 -0.4943  0.1704
  933MPD2    H713710   0.039   2.194   1.461  0.8416  0.0008  0.8884
  934MPD2     C13711   1.428   3.928   1.454  0.2300  0.3237  0.0915
  934MPD2    C113712   1.435   4.063   1.417  0.5827 -0.1395  0.2610
  934MPD2    C213713   1.319   4.120   1.359 -0.4650 -0.4184 -0.1389
  934MPD2    C313714   1.199   4.047   1.347 -0.4787 -0.3387 -0.0372
  934MPD2    C413715   1.194   3.920   1.393  0.4636 -0.8953 -0.1511
  934MPD2    C513716   1.304   3.863   1.447  0.1184  0.2965 -1.0099
  934MPD2     H13717   1.320   4.225   1.334  0.3020 -0.8559 -1.9689
  934MPD2    H113718   1.112   3.855   1.366  1.3995 -2.3264  0.4921
  934MPD2    H213719   1.501   3.874   1.512 -0.0773 -1.9088 -1.5926
  934MPD2    H313720   1.307   3.757   1.468 -1.4868  0.3626 -0.4096
  934MPD2     N13721   1.084   4.099   1.283  0.5184 -0.7779 -0.2940
  934MPD2    H513722   1.008   4.032   1.275 -1.0693  1.0978 -0.8751
  934MPD2    N113723   1.551   4.143   1.421  0.4688 -0.4277  0.3984
  934MPD2    H713724   1.546   4.234   1.375  0.9699 -0.2256  0.7421
  935MPD2     C13725   0.782   3.505   0.885  0.7481 -0.3575  0.0327
  935MPD2    C113726   0.691   3.594   0.828  0.1391 -0.3288  0.5754
  935MPD2    C213727   0.669   3.717   0.883  0.2117  1.2599 -0.1755
  935MPD2    C313728   0.747   3.752   0.992 -0.8608 -0.1435 -0.5518
  935MPD2    C413729   0.834   3.663   1.051  0.5123 -0.8103 -1.0788
  935MPD2    C513730   0.850   3.538   0.997 -0.4195  0.0177 -0.4159
  935MPD2     H13731   0.602   3.784   0.831 -0.9126  0.4609  0.2617
  935MPD2    H113732   0.889   3.688   1.141 -1.2981  0.1612 -0.2459
  935MPD2    H213733   0.788   3.403   0.848  0.4665  0.2629 -1.7393
  935MPD2    H313734   0.906   3.467   1.057  0.9351  2.1859  0.8780
  935MPD2     N13735   0.753   3.885   1.049  0.4623  0.1800  0.1677
  935MPD2    H513736   0.809   3.890   1.133  0.2758 -0.5048  0.3385
  935MPD2    N113737   0.618   3.554   0.710  0.2520  0.0356 -0.1347
  935MPD2    H713738   0.564   3.625   0.661  1.0241  0.1575 -0.8162
  936MPD2     C13739   3.478   1.441  12.380 -0.7281  0.4704 -0.0560
  936MPD2    C113740   3.509   1.470  12.507 -0.5753  0.0517 -1.3574
  936MPD2    C213741   3.555   1.595  12.537 -0.5423 -0.6482  0.0106
  936MPD2    C313742   3.553   1.694  12.440  0.0361 -0.3082  0.6348
  936MPD2    C413743   3.507   1.671  12.308 -0.2042  0.0671  0.6690
  936MPD2    C513744   3.472   1.543  12.289 -0.0914  0.4654 -0.0701
  936MPD2     H13745   3.590   1.618  12.636  0.6188  1.5012 -0.9051
  936MPD2    H113746   3.512   1.746  12.230 -2.1064  0.6264  1.0991
  936MPD2    H213747   3.453   1.340  12.348 -0.0898  0.8045 -1.6130
  936MPD2    H313748   3.449   1.518  12.186 -0.4538 -0.1966  0.1754
  936MPD2     N13749   3.623   1.817  12.479 -0.5583 -0.2146  0.3324
  936MPD2    H513750   3.651   1.830  12.576  0.3775 -0.9682  0.1591
  936MPD2    N113751   3.514   1.374  12.611 -0.4228 -0.2318 -0.2840
  936MPD2    H713752   3.549   1.410  12.699 -0.7904  2.0860 -1.0831
  937MPD2     C13753   1.608   3.027  11.689 -0.1895  0.2096  1.0778
  937MPD2    C113754   1.559   3.126  11.610  0.0985 -0.4375  0.3575
  937MPD2    C213755   1.633   3.173  11.510 -0.0674 -0.5603  0.0682
  937MPD2    C313756   1.743   3.098  11.462  0.1032 -0.0495 -0.2886
  937MPD2    C413757   1.779   2.982  11.534 -0.0172  0.1893 -0.6675
  937MPD2    C513758   1.715   2.952  11.652  0.4916 -0.5226 -0.3923
  937MPD2     H13759   1.605   3.272  11.475 -1.5861 -2.1416 -3.1227
  937MPD2    H113760   1.851   2.908  11.500  1.2264 -0.5491  3.5424
  937MPD2    H213761   1.557   2.991  11.778  0.9225 -1.7911  0.8925
  937MPD2    H313762   1.730   2.856  11.699  1.1001  1.6572  3.8138
  937MPD2     N13763   1.825   3.141  11.358  0.1544 -0.6478  0.4955
  937MPD2    H513764   1.919   3.103  11.355  0.2475 -0.2855 -1.3458
  937MPD2    N113765   1.467   3.216  11.667 -0.0334  0.2764  0.8433
  937MPD2    H713766   1.469   3.314  11.641 -1.1565 -0.4568 -1.9521
  938MPD2     C13767   4.335   4.436   0.631 -0.4537  0.0541 -0.0225
  938MPD2    C113768   4.433   4.446   0.727  0.1210 -0.0913 -0.4117
  938MPD2    C213769   4.465   4.340   0.807  0.9937  0.2075  0.4621
  938MPD2    C313770   4.390   4.225   0.805 -0.3363  0.2971  0.0377
  938MPD2    C413771   4.283   4.215   0.717 -0.2349  0.6250  0.2220
  938MPD2    C513772   4.262   4.318   0.623 -0.7085 -0.0124 -0.3855
  938MPD2     H13773   4.539   4.349   0.885  0.1848  1.5596  1.0601
  938MPD2    H113774   4.219   4.128   0.708  0.9356 -0.1666 -0.4753
  938MPD2    H213775   4.305   4.510   0.557  1.2649  2.9950  2.2093
  938MPD2    H313776   4.173   4.309   0.562 -1.4789  2.6930  0.3414
  938MPD2     N13777   4.407   4.122   0.903 -0.0936  0.3275 -0.4959
  938MPD2    H513778   4.340   4.047   0.897  0.0227  0.3176 -1.8223
  938MPD2    N113779   4.519   4.558   0.736  0.2439 -0.2694 -0.1605
  938MPD2    H713780   4.584   4.555   0.814  0.8211 -1.5206 -0.6865
  939MPD2     C13781   1.247   0.358   0.349  0.0612 -0.2751 -0.1404
  939MPD2    C113782   1.199   0.478   0.406 -0.4847  0.2139 -0.0384
  939MPD2    C213783   1.120   0.556   0.316  0.7617 -0.2544  0.1303
  939MPD2    C313784   1.079   0.515   0.191 -0.2655  0.4101  0.0957
  939MPD2    C413785   1.109   0.386   0.152 -0.0920 -0.3827 -0.1518
  939MPD2    C513786   1.191   0.316   0.234 -0.6475 -0.1824  0.3838
  939MPD2     H13787   1.088   0.655   0.347 -2.1631 -1.3060  0.5510
  939MPD2    H113788   1.092   0.349   0.051 -0.5189 -1.9251  0.4858
  939MPD2    H213789   1.314   0.294   0.406 -0.9220 -1.3936 -0.2582
  939MPD2    H313790   1.223   0.216   0.209  1.7037  0.9997 -1.3672
  939MPD2     N13791   1.018   0.610   0.109  0.4199 -0.4966 -0.2011
  939MPD2    H513792   1.014   0.704   0.145 -0.1609 -1.1547  1.4132
  939MPD2    N113793   1.254   0.521   0.526 -0.1135  0.6389 -0.3765
  939MPD2    H713794   1.329   0.466   0.566 -0.8635  0.9147  1.3998
  940MPD2     C13795   4.616   1.033  14.254  0.2667 -0.1204  0.0240
  940MPD2    C113796   4.588   1.156  14.199 -0.0441  0.7446 -0.3117
  940MPD2    C213797   4.547   1.156  14.071  0.0132 -0.3200 -0.0173
  940MPD2    C313798   4.556   1.056  13.983 -0.6044  0.3419  0.1364
  940MPD2    C413799   4.596   0.935  14.038  0.3530 -0.3252 -0.6202
  940MPD2    C513800   4.627   0.924  14.167  0.4702 -0.2327  0.5055
  940MPD2     H13801   4.514   1.254  14.038  1.5325  0.5641  1.1104
  940MPD2    H113802   4.601   0.845  13.977  1.1572 -0.2235 -0.7007
  940MPD2    H213803   4.646   1.018  14.357  1.2391  0.6003 -0.1555
  940MPD2    H313804   4.658   0.828  14.205 -0.5810 -0.3733  1.0034
  940MPD2     N13805   4.515   1.053  13.845  0.5719  0.5267  0.6772
  940MPD2    H513806   4.530   0.968  13.792 -0.9474  0.6872  0.0041
  940MPD2    N113807   4.586   1.276  14.271 -0.5659  0.7065  1.0409
  940MPD2    H713808   4.557   1.357  14.217 -2.7280 -0.2995  0.6936
  941MPD2     C13809   3.696   1.376  10.037  0.0617 -0.4053  0.2451
  941MPD2    C113810   3.808   1.314  10.090  0.6088 -0.0727  0.0184
  941MPD2    C213811   3.788   1.230  10.191 -0.8130  0.0573 -0.6734
  941MPD2    C313812   3.664   1.186  10.232  0.8109 -0.4404  0.3536
  941MPD2    C413813   3.558   1.252  10.180  0.4769  0.5878  0.5937
  941MPD2    C513814   3.573   1.347  10.091 -0.0487  0.0466  0.2906
  941MPD2     H13815   3.879   1.199  10.242 -1.2120  0.9512  0.5845
  941MPD2    H113816   3.455   1.226  10.202  0.3458 -0.3094 -1.0894
  941MPD2    H213817   3.706   1.455   9.964 -0.3173  0.1881  0.8312
  941MPD2    H313818   3.487   1.400  10.053 -0.8790 -1.2467  0.3666
  941MPD2     N13819   3.650   1.093  10.334 -0.0758 -0.1505 -0.2664
  941MPD2    H513820   3.554   1.088  10.366  0.6837  0.2313  2.1151
  941MPD2    N113821   3.942   1.336  10.059  0.0582 -0.0753  0.1141
  941MPD2    H713822   4.009   1.290  10.119 -0.7254  1.3505  2.0630
  942MPD2     C13823   2.792   2.337  10.142 -0.2302  0.2533 -0.0495
  942MPD2    C113824   2.820   2.412  10.029  0.2451  0.4276 -0.7133
  942MPD2    C213825   2.944   2.412   9.972  0.6175  0.3712 -0.4581
  942MPD2    C313826   3.046   2.334  10.031  0.1430  0.6106 -0.5033
  942MPD2    C413827   3.018   2.253  10.138 -0.3043 -0.0036 -0.0737
  942MPD2    C513828   2.886   2.245  10.185  0.6681  0.3587 -0.2960
  942MPD2     H13829   2.960   2.479   9.888 -0.1725  0.3006 -0.6691
  942MPD2    H113830   3.094   2.190  10.181  0.4480  1.0910  0.1976
  942MPD2    H213831   2.691   2.322  10.179 -0.0851 -0.0154  0.2386
  942MPD2    H313832   2.861   2.167  10.256  2.9363  0.3407  0.4523
  942MPD2     N13833   3.186   2.357  10.005  0.2258 -0.0068  0.5911
  942MPD2    H513834   3.251   2.310  10.068 -0.4497 -0.4781  0.9270
  942MPD2    N113835   2.726   2.496   9.969  0.0643  0.4334  0.0153
  942MPD2    H713836   2.749   2.539   9.881  1.1610 -1.2956 -0.5320
  943MPD2     C13837   3.044   0.394   9.394 -0.3454 -1.0321 -0.6922
  943MPD2    C113838   2.963   0.409   9.509  0.4299  0.4332  0.3702
  943MPD2    C213839   3.010   0.495   9.610 -0.8205 -0.2405 -0.0714
  943MPD2    C313840   3.134   0.554   9.598 -0.1031 -0.3882  0.4607
  943MPD2    C413841   3.217   0.535   9.486 -0.4980 -0.4446  0.4510
  943MPD2    C513842   3.165   0.461   9.386 -0.1451  0.3743  0.1829
  943MPD2     H13843   2.959   0.499   9.705  0.2907 -1.1934  0.5645
  943MPD2    H113844   3.314   0.583   9.480 -1.5517  1.5454 -0.6509
  943MPD2    H213845   3.016   0.336   9.307 -2.3805 -1.2252  0.0946
  943MPD2    H313846   3.218   0.454   9.292  1.4205  2.2354  0.9153
  943MPD2     N13847   3.182   0.642   9.701 -0.0805 -0.0127  0.4900
  943MPD2    H513848   3.260   0.704   9.683  0.0671  0.2406  1.9612
  943MPD2    N113849   2.835   0.346   9.503  0.6574  0.0534 -0.0720
  943MPD2    H713850   2.817   0.290   9.420  0.3897  1.3168 -0.8628
  944MPD2     C13851   2.132   0.771  11.260  0.5158 -0.5023  0.1635
  944MPD2    C113852   2.031   0.731  11.343  0.1950  0.0055  0.6353
  944MPD2    C213853   2.010   0.803  11.450  0.9652  0.8825  0.2690
  944MPD2    C313854   2.071   0.928  11.475 -0.1028 -0.2986 -1.0197
  944MPD2    C413855   2.174   0.964  11.390  0.3828  0.7048  0.2885
  944MPD2    C513856   2.209   0.878  11.291  0.4689  0.6689  0.4870
  944MPD2     H13857   1.948   0.764  11.530  1.0575  1.6618  0.7164
  944MPD2    H113858   2.232   1.055  11.402  2.2389 -0.4909  0.4865
  944MPD2    H213859   2.155   0.709  11.174 -0.5007  0.0715 -0.5164
  944MPD2    H313860   2.298   0.896  11.232  0.6946  1.6581  1.1396
  944MPD2     N13861   2.048   0.995  11.604 -0.0885 -0.2255  0.0312
  944MPD2    H513862   1.985   0.953  11.671  0.6027 -2.6375 -0.8294
  944MPD2    N113863   1.965   0.610  11.307  0.4735  0.2217 -0.1675
  944MPD2    H713864   1.986   0.559  11.222 -0.4216  1.7064 -1.2789
    1TMC1    C113865   1.107   1.548  14.724  0.7517 -0.5058  0.7273
    1TMC1    C213866   1.183   1.511  14.831 -0.0882  0.5140  0.1561
    1TMC1    C313867   1.318   1.517  14.813 -0.2616 -0.2207  0.4067
    1TMC1    C413868   1.167   1.616  14.621  0.1660  0.4133 -0.9111
    1TMC1    C513869   1.304   1.620  14.610  0.1836  0.7208  0.5307
    1TMC1    C613870   1.383   1.563  14.700 -0.2050 -0.4712 -0.2651
    1TMC1     C13871   0.989   1.473  14.690  0.3990 -0.6596 -0.7034
    1TMC1     O13872   0.986   1.360  14.740 -0.7216 -0.1878 -0.3321
    1TMC1     H13873   1.130   1.501  14.925  2.8526  0.9638  1.8859
    1TMC1    H113874   1.107   1.648  14.537  0.6198  0.0600 -1.3704
    1TMC1    H213875   1.489   1.584  14.695 -0.2218  0.1438  1.8554
    1TMC1    C713876   1.361   1.677  14.489 -0.1442 -0.6375 -0.6232
    1TMC1    C813877   1.395   1.510  14.935  0.3352 -0.8492  0.4903
    1TMC1    O113878   1.468   1.638  14.446  0.4951  0.0526  0.1962
    1TMC1    O213879   1.504   1.454  14.940 -0.2982  0.0899 -0.4051
    1TMC1    O313880   1.290   1.785  14.440  0.4820  0.1048  1.0054
    1TMC1    H313881   1.199   1.805  14.471 -0.7439 -4.2475  0.2965
    1TMC1    O513882   1.351   1.626  14.989 -0.1815 -0.0441  0.5020
    1TMC1    H513883   1.268   1.657  14.949  0.4399 -0.6287 -1.2482
    2MPD2     C13884   0.512   1.445  14.530 -0.9207 -0.2004  0.3614
    2MPD2    C113885   0.562   1.575  14.499 -0.0963 -0.0346  0.3241
    2MPD2    C213886   0.693   1.598  14.523 -0.3306 -0.2301 -0.1122
    2MPD2    C313887   0.774   1.502  14.582 -0.7151 -0.6896  0.2747
    2MPD2    C413888   0.723   1.380  14.624  0.2326  0.1964  0.1205
    2MPD2    C513889   0.588   1.355  14.603  0.5072  0.4413  0.2469
    2MPD2     H13890   0.734   1.693  14.492  3.7434 -2.4243 -1.3246
    2MPD2    H113891   0.775   1.310  14.688  1.7550  2.4514  1.3691
    2MPD2    H213892   0.407   1.420  14.519 -0.6845 -1.6394  1.4485
    2MPD2    H313893   0.537   1.264  14.635  1.5646  0.6313  2.4314
    2MPD2     N13894   0.900   1.545  14.614 -0.4438  0.2460  0.2264
    2MPD2    H513895   0.920   1.639  14.581  0.0491  0.2656  0.5786
    2MPD2    N113896   0.472   1.665  14.440  0.6253 -0.1821  0.2616
    2MPD2    H713897   0.382   1.623  14.419 -0.0426  0.8878  1.0121
    3TMC2    C113898   0.387   1.846  14.339  0.5229 -0.0780 -0.2297
    3TMC2    C213899   0.363   1.974  14.350 -0.4830  0.2190 -0.0334
    3TMC2    C313900   0.272   2.025  14.261 -0.6926  0.2035  0.6482
    3TMC2    C413901   0.326   1.765  14.238 -0.2679 -0.3353  0.1168
    3TMC2    C513902   0.223   1.821  14.162 -0.4013 -0.3357 -1.0275
    3TMC2    C613903   0.190   1.952  14.175 -0.2365  0.3157  0.0125
    3TMC2     C13904   0.496   1.794  14.416  0.6483  0.6805 -0.4903
    3TMC2     O13905   0.580   1.865  14.468 -0.5937  0.1299  0.5749
    3TMC2     H13906   0.411   2.034  14.425  1.1136 -1.2452  0.1175
    3TMC2    H113907   0.360   1.662  14.234 -1.6088 -0.8206  1.2153
    3TMC2    H213908   0.109   1.998  14.121 -1.3453 -1.7022 -0.0287
    3TMC2    C713909   0.146   1.724  14.084  0.0202 -0.1059  0.0502
    3TMC2    C813910   0.220   2.157  14.284 -0.2834 -0.3267 -0.3093
    3TMC2    O113911   0.172   1.604  14.096 -0.3851 -0.3335 -0.6904
    3TMC2    O213912   0.164   2.226  14.195  0.2486  0.5042  0.4660
    3TMC2    O513913   0.187   2.149  14.420  0.6157 -0.5488  0.1955
    3TMC2    H513914   0.244   2.098  14.481 -1.8796 -2.7043  0.7770
    4TMC2    C113915   4.370   1.924  13.250 -0.0692  0.0557  0.0794
    4TMC2    C213916   4.456   1.991  13.165 -0.3403  0.2031  0.0957
    4TMC2    C313917   4.572   2.045  13.209  0.3573 -0.6122  0.0548
    4TMC2    C413918   4.413   1.899  13.380 -0.0826 -0.0957  0.0848
    4TMC2    C513919   4.532   1.959  13.424 -0.5117  0.0155 -0.1675
    4TMC2    C613920   4.609   2.033  13.337 -0.7412 -0.0029 -0.1819
    4TMC2     C13921   4.227   1.927  13.228  0.8028 -0.2864 -0.0026
    4TMC2     O13922   4.157   1.859  13.303 -0.3328 -0.0576  0.3959
    4TMC2     H13923   4.438   1.991  13.058 -0.7086  0.7152  0.1548
    4TMC2    H113924   4.341   1.853  13.446  1.2603 -0.2327  1.4590
    4TMC2    H213925   4.706   2.065  13.375 -0.5001 -0.7567 -0.1441
    4TMC2    C713926   4.583   1.919  13.549 -0.4119  0.4917 -0.1861
    4TMC2    C813927   4.676   2.062  13.109 -0.2034 -0.1384 -0.0521
    4TMC2    O113928   4.645   2.009  13.610  0.5878  0.2230 -0.5193
    4TMC2    O213929   4.670   1.983  13.017 -0.1138  0.2448  0.1363
    4TMC2    O513930   0.054   2.111  13.166 -0.2658 -0.1593  0.1053
    4TMC2    H513931   0.027   2.181  13.229  1.9563  1.8336 -1.1969
    5MPD2     C13932   3.813   2.167  13.035 -0.1960 -0.2058 -0.1196
    5MPD2    C113933   3.927   2.228  12.989  0.5863 -0.2037 -0.1043
    5MPD2    C213934   4.047   2.173  13.015  0.7414  0.0480  0.4759
    5MPD2    C313935   4.055   2.061  13.091  0.1858  0.6113 -0.0643
    5MPD2    C413936   3.942   1.999  13.142 -0.0933 -0.1567  0.0376
    5MPD2    C513937   3.824   2.059  13.120  0.4181 -0.2077 -0.2298
    5MPD2     H13938   4.138   2.232  13.015 -1.2364  3.0992  2.1655
    5MPD2    H113939   3.950   1.915  13.209  0.3952  0.2167  0.4431
    5MPD2    H213940   3.714   2.202  13.008  0.6254  1.2842 -1.1927
    5MPD2    H313941   3.736   2.012  13.162  1.2694 -2.1976 -0.7011
    5MPD2     N13942   4.191   2.019  13.126  0.9053 -0.1209 -0.6763
    5MPD2    H513943   4.271   2.067  13.086  1.1532  0.9208  1.0963
    5MPD2    N113944   3.910   2.346  12.913  0.5196 -0.0974 -0.0532
    5MPD2    H713945   3.814   2.372  12.895 -0.0515 -1.9391  0.3489
    6MPD1     C13946   3.715   4.292  13.230 -0.0531 -0.5670  0.3198
    6MPD1    C113947   3.612   4.249  13.156 -0.9287 -0.1278 -0.5346
    6MPD1    C213948   3.590   4.109  13.147 -0.2678 -0.6118  0.2244
    6MPD1    C313949   3.686   4.019  13.190 -0.3829 -0.5968 -0.1308
    6MPD1    C413950   3.797   4.067  13.254  0.5345  0.6366  0.1398
    6MPD1    C513951   3.805   4.200  13.282  0.4324 -0.0285  0.1812
    6MPD1     H13952   3.493   4.081  13.107 -2.0368 -0.4707  4.3270
    6MPD1    H113953   3.872   3.999  13.295 -0.2288  0.3555  1.0636
    6MPD1    H213954   3.737   4.393  13.262 -2.7109 -0.1628  0.8671
    6MPD1    H313955   3.895   4.228  13.337 -0.8541  3.0167  0.7182
    6MPD1     N13956   3.674   3.880  13.171  0.5121 -0.1683  0.3603
    6MPD1    H513957   3.746   3.823  13.215 -1.1255  0.2787  3.6559
    6MPD1    N113958   3.512   4.339  13.118  0.2812  0.6460  0.0782
    6MPD1    H613959   3.564   4.416  13.076  1.3420 -0.1386 -0.0553
    6MPD1    H713960   3.451   4.302  13.046  4.1814 -0.9144 -2.4052
    7MPD2     C13961   3.449   3.148  12.715 -0.2283  0.1439  0.5117
    7MPD2    C113962   3.561   3.152  12.793 -0.2903  0.5704 -0.6585
    7MPD2    C213963   3.654   3.047  12.785 -0.2088 -0.0140  0.6621
    7MPD2    C313964   3.623   2.931  12.709  0.0509  0.1008  0.2462
    7MPD2    C413965   3.501   2.926  12.641 -0.3471  0.7192 -0.0170
    7MPD2    C513966   3.421   3.037  12.644 -0.8612 -0.0687  0.2904
    7MPD2     H13967   3.741   3.051  12.851  1.1881  0.6167 -1.2322
    7MPD2    H113968   3.476   2.838  12.583  1.4306 -0.1202  0.4779
    7MPD2    H213969   3.380   3.231  12.708  0.4058  0.3364 -3.3018
    7MPD2    H313970   3.322   3.025  12.601 -0.1442 -0.2938 -1.2989
    7MPD2     N13971   3.718   2.832  12.697 -0.1037 -0.3611  0.2494
    7MPD2    H513972   3.806   2.851  12.744 -0.3788 -1.2556  1.1258
    7MPD2    N113973   3.586   3.251  12.893 -0.0719 -0.2325 -0.2769
    7MPD2    H713974   3.658   3.232  12.961  0.6920  0.5804 -0.8755
    8TMC3    C113975   3.846   2.654  12.645  0.1958 -0.6047 -0.7449
    8TMC3    C213976   3.865   2.547  12.729  0.2210  0.5011  0.0723
    8TMC3    C313977   3.964   2.552  12.825 -0.4592  0.0382 -0.1197
    8TMC3    C413978   3.940   2.752  12.649 -0.1150 -0.1174 -0.4651
    8TMC3    C513979   4.038   2.752  12.742  0.0208 -0.7337 -0.2550
    8TMC3    C613980   4.057   2.655  12.835  0.3438  0.6617  0.4617
    8TMC3     C13981   3.709   2.707  12.646  0.9945 -0.5322  0.4084
    8TMC3     O13982   3.616   2.636  12.607 -0.0907  0.4454  0.4286
    8TMC3     H13983   3.805   2.458  12.722  2.6807 -1.1606  0.2991
    8TMC3    H113984   3.930   2.826  12.571 -1.0618  1.6006  1.2970
    8TMC3    H213985   4.138   2.654  12.907  0.7993 -1.9079 -0.0956
    8TMC3    C713986   4.062   2.877  12.791 -0.4180  0.0785  0.2795
    8TMC3    C813987   4.015   2.431  12.882  0.1427  0.8645  0.3473
    8TMC3    O113988   4.060   2.885  12.914 -0.7122 -0.6207 -0.1294
    8TMC3    O213989   4.136   2.423  12.900  0.1363 -0.0854 -0.3954
    9TMC3    C113990   3.631   3.673  13.069 -0.1760  0.1001 -0.3951
    9TMC3    C213991   3.764   3.636  13.077  0.2481 -0.6541  0.2378
    9TMC3    C313992   3.796   3.507  13.058 -0.1118 -0.0836 -0.1699
    9TMC3    C413993   3.534   3.582  13.031 -0.0232 -0.0239 -0.0118
    9TMC3    C513994   3.568   3.453  13.022 -0.0633  0.0593 -0.3513
    9TMC3    C613995   3.695   3.413  13.058 -0.2059 -0.0931  0.1236
    9TMC3     C13996   3.594   3.812  13.080 -0.0221 -0.5421 -0.3017
    9TMC3     O13997   3.504   3.852  13.007  0.6816  0.7414 -0.0352
    9TMC3     H13998   3.845   3.708  13.078  1.1444 -1.6657  2.3656
    9TMC3    H113999   3.436   3.616  12.999  0.2168  1.0444  0.3738
    9TMC3    H214000   3.714   3.310  13.084  0.9083 -0.1376 -0.8562
    9TMC3    C714001   3.505   3.365  12.922 -0.1222 -0.2036  0.0710
    9TMC3    C814002   3.922   3.471  12.989 -0.0091 -0.4738 -0.4865
    9TMC3    O114003   3.402   3.407  12.867 -0.6080 -0.4795 -0.5523
    9TMC3    O214004   3.990   3.569  12.967 -0.4474 -0.4300  0.7807
   10MPD2     C14005   4.093   3.186  12.606 -0.1017 -0.4196 -0.2680
   10MPD2    C114006   4.066   3.105  12.711  0.1337  0.2079  0.1674
   10MPD2    C214007   4.032   3.159  12.832 -0.3874  0.6296 -0.5406
   10MPD2    C314008   4.008   3.295  12.844 -0.1993  0.4202 -0.3809
   10MPD2    C414009   4.034   3.377  12.735  0.0234 -0.4540 -0.7222
   10MPD2    C514010   4.076   3.324  12.618 -0.5849 -0.3939 -0.1429
   10MPD2     H14011   4.009   3.104  12.922  0.7378  0.4177 -0.3920
   10MPD2    H114012   4.014   3.483  12.737  1.6236 -0.1584 -1.0763
   10MPD2    H214013   4.122   3.152  12.507 -0.3757 -0.3554 -0.3682
   10MPD2    H314014   4.074   3.377  12.524  0.1326 -1.2788 -0.6609
   10MPD2     N14015   3.936   3.338  12.957 -0.4400  0.2435 -0.2211
   10MPD2    H514016   3.903   3.272  13.027  0.3500 -1.2537 -1.2612
   10MPD2    N114017   4.079   2.966  12.694  0.0092  0.0650 -0.0185
   10MPD2    H714018   4.099   2.929  12.602 -1.4675  1.9138 -1.0791
   11MPD2     C14019   4.678   1.585  13.918 -0.4143  0.5292 -0.1440
   11MPD2    C114020   4.707   1.714  13.906 -0.3247  0.2896  0.0311
   11MPD2    C214021   4.655   1.784  13.801 -0.5476 -0.4029 -0.4985
   11MPD2    C314022   4.583   1.726  13.702 -0.1267  0.4201 -0.7929
   11MPD2    C414023   4.570   1.589  13.709 -0.5471 -0.7066  0.2154
   11MPD2    C514024   4.619   1.515  13.817  0.4458 -0.2382  0.6373
   11MPD2     H14025   4.676   1.890  13.799  1.2745 -0.7350  0.4360
   11MPD2    H114026   4.521   1.534  13.629  2.7714 -2.9428 -0.2925
   11MPD2    H214027   4.712   1.531  14.005 -0.0549  0.8135 -0.1100
   11MPD2    H314028   4.611   1.407  13.823  1.4812 -0.3412  0.2093
   11MPD2     N14029   4.539   1.789  13.580 -0.2459  0.1417  0.8301
   11MPD2    H514030   4.480   1.732  13.519 -0.5471 -0.7698  1.9617
   11MPD2    N114031   0.057   1.778  13.997 -0.4382 -0.2152 -0.0085
   11MPD2    H714032   0.052   1.879  13.996  3.1734  0.0021  2.7491
    1MPD1     C14033   3.823   3.135  17.232  0.4237 -0.1430  0.1042
    1MPD1    C114034   3.839   3.071  17.113  0.5012 -0.5026  0.5791
    1MPD1    C214035   3.731   3.003  17.064 -0.4498  0.8504 -0.8588
    1MPD1    C314036   3.605   3.011  17.126  0.4162  0.1851 -0.3977
    1MPD1    C414037   3.600   3.057  17.256  0.3840  0.8827  0.6624
    1MPD1    C514038   3.708   3.117  17.308  0.1386 -0.2827 -0.6468
    1MPD1     H14039   3.747   2.952  16.969  0.4734 -0.8686  0.2089
    1MPD1    H114040   3.517   3.035  17.322 -0.1268  3.2685  0.7932
    1MPD1    H214041   3.914   3.184  17.265  0.1883  1.4100 -1.5900
    1MPD1    H314042   3.692   3.157  17.407 -0.3514 -0.1008 -0.7994
    1MPD1     N14043   3.489   2.963  17.068  0.7034  0.3336  0.0945
    1MPD1    H514044   3.402   2.989  17.114  0.4076  1.7179 -1.2756
    1MPD1    N114045   3.959   3.071  17.051 -0.2183 -0.3657  0.5131
    1MPD1    H614046   3.945   3.082  16.950  0.4457 -0.9621  0.3549
    1MPD1    H714047   4.014   3.152  17.080  0.2266 -0.9375  1.2668
    2MPD1     C14048   3.273   2.711  16.140  0.4693  0.6671 -0.2253
    2MPD1    C114049   3.377   2.671  16.221 -0.0978  0.3460 -0.4154
    2MPD1    C214050   3.375   2.705  16.361  0.5538 -0.4054  0.7479
    2MPD1    C314051   3.252   2.746  16.418 -0.4075  0.3430 -0.3441
    2MPD1    C414052   3.150   2.779  16.333  0.5610 -0.0178 -0.2737
    2MPD1    C514053   3.164   2.761  16.199  0.6857 -0.0336  0.2157
    2MPD1     H14054   3.464   2.676  16.417  2.8241  0.7083 -2.2773
    2MPD1    H114055   3.054   2.817  16.366  0.8530 -0.3219  0.9457
    2MPD1    H214056   3.277   2.710  16.032 -0.3787  0.6837 -0.2604
    2MPD1    H314057   3.084   2.783  16.129  0.7173 -1.0126 -0.1181
    2MPD1     N14058   3.242   2.761  16.559 -0.0066 -0.1892  1.1153
    2MPD1    H514059   3.323   2.727  16.612 -0.5410 -0.0356  2.0295
    2MPD1    N114060   3.497   2.653  16.157  0.2273  0.3591  0.4687
    2MPD1    H614061   3.563   2.597  16.209  0.0212 -0.4081 -0.0936
    2MPD1    H714062   3.488   2.608  16.066 -0.1595 -1.9767  1.6751
    3TMC3    C114063   3.169   2.812  16.772 -0.2834 -0.2289 -0.1208
    3TMC3    C214064   3.073   2.815  16.868  0.0992  0.8604  0.2501
    3TMC3    C314065   3.116   2.822  16.999  0.1201  0.2004 -1.6637
    3TMC3    C414066   3.306   2.826  16.808  0.0301  0.4445  0.9078
    3TMC3    C514067   3.338   2.844  16.935  0.9663  0.1400  0.3673
    3TMC3    C614068   3.251   2.835  17.039 -0.2360  0.3728 -0.0987
    3TMC3     C14069   3.135   2.806  16.630 -0.5964  0.3810 -0.2163
    3TMC3     O14070   3.020   2.828  16.595  0.2464  0.1602  0.0821
    3TMC3     H14071   2.968   2.803  16.845  0.5733  2.2609 -2.7598
    3TMC3    H114072   3.380   2.834  16.729  0.2727  0.9570  1.1808
    3TMC3    H214073   3.288   2.838  17.141 -1.8918  0.7030  0.4873
    3TMC3    C714074   3.477   2.884  16.957 -0.1481 -0.2319  0.2288
    3TMC3    C814075   3.020   2.792  17.106 -0.1764 -0.7325 -0.3502
    3TMC3    O114076   3.567   2.841  16.885 -0.1330  0.2249 -0.5262
    3TMC3    O214077   2.940   2.706  17.067  0.1289  0.5428 -0.1209
    4MPD1     C14078   2.865   2.779  17.593 -0.3386 -0.0350 -0.1698
    4MPD1    C114079   2.971   2.856  17.585 -0.4841 -0.5295 -0.3965
    4MPD1    C214080   3.034   2.865  17.460 -0.0912  0.1831  0.2964
    4MPD1    C314081   2.974   2.816  17.346 -0.4225  0.4507 -0.0643
    4MPD1    C414082   2.864   2.736  17.356  0.0288 -0.3905 -0.5316
    4MPD1    C514083   2.811   2.717  17.480  0.1454  0.4380  0.0569
    4MPD1     H14084   3.127   2.920  17.457  0.2618 -0.4278 -0.0561
    4MPD1    H114085   2.815   2.701  17.266 -2.8912 -1.9064  1.6193
    4MPD1    H214086   2.814   2.761  17.687  2.8120 -0.2880  1.4934
    4MPD1    H314087   2.728   2.649  17.493  0.5992 -0.2736 -0.7511
    4MPD1     N14088   3.051   2.842  17.227 -0.6018 -1.3108  0.4408
    4MPD1    H514089   3.127   2.909  17.227 -1.2191 -0.6081 -2.7748
    4MPD1    N114090   3.046   2.891  17.697  0.1394 -0.3628 -0.0062
    4MPD1    H614091   3.079   2.985  17.678 -0.1216 -0.4227 -0.7677
    4MPD1    H714092   2.983   2.910   0.023 -1.6490 -1.9076 -1.0925
    1TCq1    O114093   4.289   2.873  11.829 -0.6322 -0.2163  0.1261
    1TCq1    C114094   4.243   2.749  11.870 -0.2970 -0.7929  0.7689
    1TCq1    O214095   4.274   2.639  11.827 -0.3996 -1.0511 -0.4669
    1TCq1    C214096   4.195   2.759  12.002 -0.1288 -0.0528  0.3606
    1TCq1    C314097   4.238   2.653  12.076 -0.2084  0.0340  0.3781
    1TCq1    C414098   4.223   2.669  12.210  0.5335 -0.3417  0.8985
    1TCq1    C514099   4.158   2.777  12.262  0.1742  0.0423  0.4472
    1TCq1    C614100   4.120   2.882  12.183  0.0045 -0.7090 -0.8552
    1TCq1    C714101   4.146   2.879  12.050 -0.0860 -0.0786 -0.1820
    1TCq1    C814102   4.046   2.986  12.256 -0.3203  0.4844  0.0828
    1TCq1    O414103   4.021   2.960  12.372  0.1971 -0.1511 -0.2938
    1TCq1    C914104   4.231   2.548  12.291  0.1441 -0.2009  0.0711
    1TCq1    O514105   4.198   2.555  12.411  0.3796  0.1865  0.0168
    1TCq1    O614106   4.258   2.438  12.239  0.2769  0.5299  0.1243
    1TCq1    H114107   4.256   2.938  11.894 -0.0007 -0.3782  0.6082
    1TCq1    H214108   4.236   2.556  12.025 -0.2931  0.7162 -0.9225
    1TCq1    H314109   4.134   2.771  12.367 -0.5432 -0.5831  0.2546
    1TCq1    H414110   4.100   2.951  11.983 -0.8089 -0.2545  0.1260
    2MPD1     C14111   3.823   3.446  12.277 -0.7829  0.2501 -0.4093
    2MPD1    C114112   3.922   3.439  12.180 -0.0246  0.4969 -0.0300
    2MPD1    C214113   3.974   3.320  12.142 -0.1743 -0.0499  0.2695
    2MPD1    C314114   3.948   3.210  12.216  0.7743  0.4194 -0.7225
    2MPD1    C414115   3.862   3.213  12.321  0.8216 -1.3458 -0.1433
    2MPD1    C514116   3.795   3.331  12.350  0.3179 -0.4078 -0.0651
    2MPD1     H14117   4.033   3.306  12.053  0.5775  0.0049  0.7534
    2MPD1    H114118   3.857   3.131  12.391  1.2347  0.0279  1.4981
    2MPD1    H214119   3.787   3.542  12.310  1.7166  0.3218  2.2170
    2MPD1    H314120   3.741   3.328  12.444  0.9424 -0.3370  0.2962
    2MPD1     N14121   4.028   3.098  12.182 -0.0896  0.5320 -0.6399
    2MPD1    H514122   4.086   3.101  12.099  0.8674  0.6185  0.0238
    2MPD1    N114123   3.932   3.551  12.095 -0.5343  1.1582 -0.9598
    2MPD1    H614124   3.901   3.629  12.152  0.1332  2.9871 -3.0679
    2MPD1    H714125   4.026   3.572  12.059  0.1159 -0.6153 -0.2824
    1TMC1    C114126   2.585   1.164  10.065 -0.6142 -0.1632  0.1487
    1TMC1    C214127   2.478   1.074  10.070  0.2646 -0.4565  0.0648
    1TMC1    C314128   2.503   0.957  10.008 -1.1580 -0.5232  0.3395
    1TMC1    C414129   2.707   1.134  10.009  0.0472  0.3948  0.0865
    1TMC1    C514130   2.725   1.003   9.956  0.3159 -0.2514 -0.4068
    1TMC1    C614131   2.621   0.916   9.956  0.0782 -0.2530  0.0618
    1TMC1     C14132   2.567   1.295  10.113  0.5155  0.3507 -0.0743
    1TMC1     O14133   2.467   1.362  10.097  0.9746 -0.1079  0.4280
    1TMC1     H14134   2.379   1.106  10.101 -0.3440 -2.2185 -0.0692
    1TMC1    H114135   2.789   1.204  10.008  1.4832 -1.3179 -1.2176
    1TMC1    H214136   2.640   0.816   9.917  1.1714 -0.5429  1.3272
    1TMC1    C714137   2.852   0.959   9.914  0.4447  0.4230  1.0396
    1TMC1    C814138   2.389   0.864  10.015 -0.0969 -0.4226 -0.4465
    1TMC1    O114139   2.871   0.873   9.831 -0.3334 -0.5064  0.5608
    1TMC1    O214140   2.338   0.824  10.118 -0.8583 -0.2199  0.3501
    1TMC1    O314141   2.942   1.027   9.989  0.2382  0.2514 -0.1316
    1TMC1    H314142   2.892   1.069  10.062 -0.6912 -0.4564 -0.3736
    1TMC1    O514143   2.400   0.797   9.905  0.4439 -0.0778 -0.3655
    1TMC1    H514144   2.423   0.863   9.836 -0.5496  0.4177 -0.2180
    2MPD1     C14145   2.745   1.663  10.411 -0.4303 -0.5726  1.0329
    2MPD1    C114146   2.843   1.570  10.404 -0.7295 -1.0144  0.0069
    2MPD1    C214147   2.816   1.454  10.331 -0.2946 -0.3568 -0.3366
    2MPD1    C314148   2.699   1.446  10.260 -0.4011 -0.4854 -0.0067
    2MPD1    C414149   2.602   1.542  10.271 -0.2479 -0.1917 -0.9426
    2MPD1    C514150   2.631   1.649  10.338  0.3575  0.2309 -0.9391
    2MPD1     H14151   2.892   1.377  10.335 -0.9177 -0.8335  2.0026
    2MPD1    H114152   2.500   1.530  10.235 -0.5675  0.4206 -0.2384
    2MPD1    H214153   2.748   1.750  10.477 -0.0946  0.7601 -0.7355
    2MPD1    H314154   2.549   1.717  10.362  1.0460  0.8775 -0.4225
    2MPD1     N14155   2.676   1.327  10.184 -0.1763 -0.1843 -0.4097
    2MPD1    H514156   2.751   1.258  10.176 -0.0713  0.0669 -1.5437
    2MPD1    N114157   2.957   1.578  10.492  0.3376  0.3252 -0.3081
    2MPD1    H614158   3.001   1.667  10.470 -0.8196  1.0169  0.1808
    2MPD1    H714159   3.022   1.504  10.470  1.2929  0.2724  2.6560
    1MPD1     C14160   2.105   2.350  12.372 -0.2592 -0.7560  0.0125
    1MPD1    C114161   2.128   2.283  12.254 -0.4575 -0.1612  0.5783
    1MPD1    C214162   2.016   2.268  12.173 -0.7231  0.0326 -0.3754
    1MPD1    C314163   1.884   2.302  12.212  0.4345 -1.0900 -0.6669
    1MPD1    C414164   1.868   2.363  12.338 -0.1033 -0.8180  0.1062
    1MPD1    C514165   1.978   2.385  12.411  0.0599 -0.6089  0.5324
    1MPD1     H14166   2.028   2.228  12.073  1.5671 -0.3389  0.0575
    1MPD1    H114167   1.777   2.407  12.377  0.4439  1.2584 -0.9662
    1MPD1    H214168   2.195   2.362  12.432 -1.2110  0.5175  1.1860
    1MPD1    H314169   1.957   2.434  12.506 -0.1918  1.0048 -0.3497
    1MPD1     N14170   1.775   2.277  12.123 -0.3422  0.1126  0.1529
    1MPD1    H514171   1.795   2.233  12.034  0.7190  2.4719 -0.7543
    1MPD1    N114172   2.262   2.256  12.211 -0.0005 -0.1733  0.0307
    1MPD1    H614173   2.322   2.223  12.286 -1.6168 -2.3656  0.3536
    1MPD1    H714174   2.263   2.178  12.145  2.0637 -0.5547  0.5354
    2MPD1     C14175   0.173   2.751  10.020  0.4112  0.5585  0.5640
    2MPD1    C114176   0.204   2.809  10.145 -0.2479 -0.2020  0.3786
    2MPD1    C214177   0.314   2.763  10.209  0.4868  0.0144  0.0956
    2MPD1    C314178   0.385   2.647  10.162 -0.6866  0.3375  0.1293
    2MPD1    C414179   0.341   2.589  10.048 -0.0328  0.9449  0.9368
    2MPD1    C514180   0.248   2.648   9.968  0.2317 -0.0312  0.6616
    2MPD1     H14181   0.339   2.815  10.301 -1.3687 -0.3154  0.7912
    2MPD1    H114182   0.392   2.501  10.009  0.9251  1.3780  1.2265
    2MPD1    H214183   0.099   2.800   9.957 -0.4406  0.6801  1.6719
    2MPD1    H314184   0.222   2.607   9.871  0.0521  1.4071  0.0959
    2MPD1     N14185   0.488   2.583  10.233  0.0227 -0.2108 -0.0697
    2MPD1    H514186   0.524   2.499  10.190  0.4511 -0.0222 -0.0743
    2MPD1    N114187   0.154   2.935  10.171 -0.0777 -0.3283  0.4657
    2MPD1    H614188   0.143   2.950  10.272 -1.8848  1.9664 -0.0512
    2MPD1    H714189   0.058   2.944  10.138  0.7313  0.2879 -1.7325
    3MPD1     C14190   0.627   1.759  10.176  0.6874  0.7109 -0.3920
    3MPD1    C114191   0.515   1.843  10.189 -0.0643 -0.0754  0.2831
    3MPD1    C214192   0.536   1.967  10.235 -0.0099  0.5557 -0.7034
    3MPD1    C314193   0.653   2.008  10.292  0.0840  0.3397  0.4757
    3MPD1    C414194   0.760   1.922  10.295 -0.5156 -0.2239 -0.2815
    3MPD1    C514195   0.739   1.796  10.241  0.0607 -0.3884 -0.5194
    3MPD1     H14196   0.455   2.037  10.224  0.3279  0.9708 -0.5299
    3MPD1    H114197   0.858   1.944  10.337 -0.9366  0.6683  0.2404
    3MPD1    H214198   0.623   1.665  10.122 -2.1791 -0.2390  1.4796
    3MPD1    H314199   0.826   1.735  10.225  2.1250  2.2567  0.5164
    3MPD1     N14200   0.654   2.135  10.356  0.2131 -1.0464 -0.7653
    3MPD1    H514201   0.573   2.193  10.338 -0.2312 -0.6014  2.7338
    3MPD1    N114202   0.393   1.809  10.127  0.2667 -0.0484 -0.1464
    3MPD1    H614203   0.319   1.819  10.196 -0.8498 -0.3532 -1.3107
    3MPD1    H714204   0.389   1.711  10.102  1.8607 -0.3066  0.6197
    4MPD2     C14205   0.999   2.502  11.917 -0.4739  0.5831  0.5390
    4MPD2    C114206   1.119   2.481  11.839  0.3802  0.5659 -0.4230
    4MPD2    C214207   1.145   2.561  11.732 -0.1525  0.0401 -0.7991
    4MPD2    C314208   1.073   2.678  11.707  0.3164  0.5092 -0.1663
    4MPD2    C414209   0.967   2.703  11.791 -0.2977  0.2654 -0.1975
    4MPD2    C514210   0.921   2.610  11.886 -0.3350  0.6863  0.2570
    4MPD2     H14211   1.230   2.539  11.667  0.0365 -2.1936  0.1994
    4MPD2    H114212   0.898   2.784  11.773 -1.7722 -1.1870 -1.1196
    4MPD2    H214213   0.969   2.431  11.992  0.7615 -1.8176 -1.2358
    4MPD2    H314214   0.829   2.636  11.937 -1.5345  1.0932 -2.1138
    4MPD2     N14215   1.103   2.764  11.593  0.4936 -0.3433 -0.0532
    4MPD2    H514216   1.035   2.838  11.576 -0.5114 -1.5944 -1.3903
    4MPD2    N114217   1.218   2.372  11.847  0.0307 -0.1905  0.0082
    4MPD2    H714218   1.282   2.377  11.769 -1.3208 -3.3695 -1.3372
    5TMC3    C114219   1.349   2.215  11.942 -0.2500  0.4003 -0.6148
    5TMC3    C214220   1.426   2.248  12.044  1.0054 -0.2169 -0.0009
    5TMC3    C314221   1.564   2.265  12.027 -0.7858  0.4316 -0.9946
    5TMC3    C414222   1.402   2.217  11.819  0.0876  0.5637 -0.3671
    5TMC3    C514223   1.531   2.254  11.795  0.6393  0.4635 -0.8579
    5TMC3    C614224   1.616   2.274  11.899  0.3013  0.4192 -0.5896
    5TMC3     C14225   1.221   2.276  11.943 -0.3679 -0.8694 -0.3199
    5TMC3     O14226   1.156   2.258  12.041  0.0335  0.1851  0.0037
    5TMC3     H14227   1.380   2.259  12.141 -0.6399  0.0905 -0.8061
    5TMC3    H114228   1.334   2.193  11.738  0.3684 -1.5306  0.0040
    5TMC3    H214229   1.720   2.288  11.871  0.3005  0.3183 -0.6416
    5TMC3    C714230   1.537   2.342  11.681 -0.3249  0.7023  0.2061
    5TMC3    C814231   1.642   2.305  12.141 -0.4737  0.2456 -0.0290
    5TMC3    O114232   1.430   2.373  11.630  0.1664  0.4811  0.4684
    5TMC3    O214233   1.584   2.338  12.244 -0.5329  0.0513  0.3103
    6TMC3    C114234   0.640   2.537  10.421 -0.3181 -0.1520  0.2707
    6TMC3    C214235   0.633   2.402  10.398  0.6059 -0.0535  0.2297
    6TMC3    C314236   0.738   2.333  10.456 -0.1836  0.6561  0.1147
    6TMC3    C414237   0.731   2.599  10.507  0.1418  0.0829  0.4443
    6TMC3    C514238   0.836   2.524  10.549  0.3137 -0.5628 -0.3066
    6TMC3    C614239   0.840   2.392  10.513 -0.4895  0.2211  0.1650
    6TMC3     C14240   0.556   2.629  10.346  0.5998 -0.1722  0.2127
    6TMC3     O14241   0.545   2.741  10.397 -0.1811 -0.2431  0.9180
    6TMC3     H14242   0.557   2.356  10.335  0.5740  1.0374 -0.5317
    6TMC3    H114243   0.735   2.705  10.530 -1.8320  0.2972 -0.1433
    6TMC3    H214244   0.926   2.332  10.541 -0.0565  0.2694 -1.0795
    6TMC3    C714245   0.927   2.577  10.644 -0.3577 -0.0812  0.1387
    6TMC3    C814246   0.760   2.191  10.419 -0.9740 -0.1597 -0.6188
    6TMC3    O114247   0.888   2.669  10.710  0.2207  0.1723  0.1059
    6TMC3    O214248   0.879   2.156  10.439 -0.5817  0.1499 -0.7382
    7MPD2     C14249   1.771   2.660  11.369 -0.2340  0.6663  0.3840
    7MPD2    C114250   1.650   2.675  11.426 -0.1613  0.3545 -0.4150
    7MPD2    C214251   1.606   2.577  11.515 -0.6381 -0.0087  0.2001
    7MPD2    C314252   1.693   2.465  11.552  0.0349 -0.0927 -0.7656
    7MPD2    C414253   1.809   2.451  11.481  0.2192 -0.7229  0.7011
    7MPD2    C514254   1.851   2.551  11.401 -0.0997 -0.6137 -0.2631
    7MPD2     H14255   1.506   2.593  11.552 -0.8857  0.9957 -0.9299
    7MPD2    H114256   1.871   2.364  11.498  1.6541  0.5988  2.1323
    7MPD2    H214257   1.821   2.726  11.299  0.2950  0.2094  0.3217
    7MPD2    H314258   1.940   2.538  11.340  0.6080 -0.5992  0.7838
    7MPD2     N14259   1.660   2.370  11.644  0.4701 -0.1098 -0.0106
    7MPD2    H514260   1.738   2.315  11.681 -0.4591 -0.6225  1.1969
    7MPD2    N114261   1.552   2.779  11.407 -0.2070  0.0821  0.6619
    7MPD2    H714262   1.470   2.768  11.465 -0.4853  1.6530  0.5732
    8TMC3    C114263   1.423   2.930  11.304  0.8760 -0.2791 -0.4301
    8TMC3    C214264   1.358   2.889  11.190  0.1737 -0.0140  0.4256
    8TMC3    C314265   1.230   2.839  11.207  0.2787  0.0213 -0.3163
    8TMC3    C414266   1.368   2.932  11.427 -0.1666  0.1088 -0.9268
    8TMC3    C514267   1.232   2.889  11.444  0.4058  0.5926 -0.1769
    8TMC3    C614268   1.161   2.848  11.330 -0.5073  0.3081  0.2824
    8TMC3     C14269   1.550   2.873  11.313  0.6360  0.5655 -0.4862
    8TMC3     O14270   1.633   2.879  11.224 -0.8792 -0.0160 -0.2104
    8TMC3     H14271   1.413   2.876  11.098  0.7507 -2.4241  1.1117
    8TMC3    H114272   1.416   2.962  11.520 -2.2884 -0.4106  0.3344
    8TMC3    H214273   1.060   2.808  11.333  0.2114 -1.5965 -0.3933
    8TMC3    C714274   1.225   2.782  11.538  0.2523  0.1485 -0.3345
    8TMC3    C814275   1.170   2.767  11.096  0.3261  0.2060 -0.1587
    8TMC3    O114276   1.329   2.730  11.563 -0.7920  0.5660 -0.0025
    8TMC3    O214277   1.049   2.772  11.075 -0.1911  0.9694 -0.1940
    9MPD2     C14278   1.381   2.557  10.881 -0.4210  0.1322 -0.4638
    9MPD2    C114279   1.272   2.631  10.914  0.7469 -0.2477 -0.3986
    9MPD2    C214280   1.151   2.615  10.840 -0.3736  0.1738  0.9654
    9MPD2    C314281   1.154   2.541  10.723  0.2700  0.1783  0.1911
    9MPD2    C414282   1.266   2.470  10.693 -0.1554 -0.0353  0.8807
    9MPD2    C514283   1.387   2.487  10.758  0.1679 -0.5380  0.7849
    9MPD2     H14284   1.062   2.673  10.860 -0.0331  1.0113  0.0531
    9MPD2    H114285   1.271   2.424  10.594 -1.3648 -1.3163  1.4129
    9MPD2    H214286   1.472   2.548  10.940  0.1410 -0.1958 -1.3785
    9MPD2    H314287   1.468   2.416  10.743 -0.4977 -1.1357  0.0430
    9MPD2     N14288   1.049   2.525  10.629  0.1224 -0.4382 -0.4678
    9MPD2    H514289   1.054   2.448  10.563 -2.0954 -0.7973 -0.2233
    9MPD2    N114290   1.275   2.700  11.038 -0.1298  0.3154 -0.1889
    9MPD2    H714291   1.367   2.716  11.078 -0.2271  0.0993  0.1282
    1MPD1     C14292   1.212   1.918  16.444  0.3455 -0.5746  0.2486
    1MPD1    C114293   1.102   1.863  16.508 -0.2730  0.0386  0.4325
    1MPD1    C214294   0.991   1.837  16.430  0.1338 -0.4050 -0.4555
    1MPD1    C314295   0.972   1.908  16.310 -0.7039 -0.4942  0.5059
    1MPD1    C414296   1.072   1.985  16.258  0.2538  0.5083  0.5351
    1MPD1    C514297   1.191   1.975  16.324 -0.6928  0.5641 -0.4371
    1MPD1     H14298   0.916   1.775  16.478 -2.4845  1.2441 -2.4381
    1MPD1    H114299   1.065   2.055  16.176  1.7673 -0.2792 -0.2606
    1MPD1    H214300   1.309   1.937  16.488  0.4462  1.2233 -0.7599
    1MPD1    H314301   1.277   2.027  16.284  0.5758  0.8261  2.5973
    1MPD1     N14302   0.849   1.904  16.238 -0.0248 -0.9627  0.5129
    1MPD1    H514303   0.835   1.958  16.153 -1.6467 -0.3519  1.1713
    1MPD1    N114304   1.133   1.796  16.628  0.1564 -1.1136 -0.2080
    1MPD1    H614305   1.046   1.786  16.679 -0.0387  1.0246 -0.0872
    1MPD1    H714306   1.201   1.851  16.682 -1.2067 -0.2082  0.5823
    2TMC2    C114307   0.484   2.057  16.134 -0.1814 -0.4383  0.0841
    2TMC2    C214308   0.374   1.975  16.123 -0.1035 -0.6877  0.6464
    2TMC2    C314309   0.384   1.857  16.188 -0.0517  0.1229  0.1157
    2TMC2    C414310   0.607   2.011  16.179 -0.4182 -0.1866 -0.6312
    2TMC2    C514311   0.612   1.888  16.225  0.6057 -0.6013  0.8516
    2TMC2    C614312   0.500   1.803  16.238 -0.0757  0.1073 -0.1806
    2TMC2     C14313   0.480   2.191  16.077 -0.0423  0.7019  0.4120
    2TMC2     O14314   0.579   2.246  16.031  0.4886  0.1684 -0.1977
    2TMC2     H14315   0.275   1.998  16.086 -1.0885 -3.8121  1.3819
    2TMC2    H114316   0.687   2.084  16.178  1.2469 -1.9979  0.6432
    2TMC2    H214317   0.505   1.696  16.254 -1.3521 -0.0844 -1.0551
    2TMC2    C714318   0.737   1.843  16.285 -0.0761  0.5416 -0.0436
    2TMC2    C814319   0.268   1.772  16.192 -0.7381  0.2383  0.0233
    2TMC2    O114320   0.723   1.758  16.370 -0.2116  0.0748 -0.4168
    2TMC2    O214321   0.164   1.798  16.135  0.6580 -0.0577  0.0594
    2TMC2    O514322   0.273   1.712  16.313 -0.2103 -0.1534  0.2669
    2TMC2    H514323   0.364   1.698  16.345 -1.0557 -2.9293  1.4222
    3MPD1     C14324   0.220   2.638  16.034 -0.6957  0.9406  0.2673
    3MPD1    C114325   0.131   2.536  16.078 -0.0633  0.4627  0.5129
    3MPD1    C214326   0.180   2.406  16.088 -0.2851  0.4242 -0.2743
    3MPD1    C314327   0.308   2.371  16.066 -0.9578 -0.1843  0.0699
    3MPD1    C414328   0.392   2.476  16.030  0.7564  0.3525 -0.2063
    3MPD1    C514329   0.352   2.606  16.014  0.2155  0.1563  0.0412
    3MPD1     H14330   0.105   2.332  16.113  2.1304 -2.0117 -0.2828
    3MPD1    H114331   0.495   2.448  16.018  0.9191  1.0596 -0.4757
    3MPD1    H214332   0.187   2.741  16.033 -0.1297  1.1073 -1.3808
    3MPD1    H314333   0.428   2.678  15.985  0.4535 -0.3953 -0.7173
    3MPD1     N14334   0.349   2.239  16.092 -0.3054 -0.5696 -0.0517
    3MPD1    H514335   0.279   2.176  16.131  0.4196 -1.3552 -0.0184
    3MPD1    N114336   0.007   2.563  16.139 -0.2357  0.0650  1.0958
    3MPD1    H614337   4.700   2.649  16.109  0.8454  0.3958  0.4301
    3MPD1    H714338   4.670   2.494  16.133 -0.8529  1.0104 -1.9950
    1TMC1    C114339   3.764   0.958  13.317 -0.5228 -0.2713 -0.5321
    1TMC1    C214340   3.639   0.949  13.258 -0.0845 -0.6203  1.1225
    1TMC1    C314341   3.603   0.840  13.187  0.2472  0.2221  0.4216
    1TMC1    C414342   3.845   0.852  13.295  0.2843  0.0826  0.0686
    1TMC1    C514343   3.800   0.732  13.243 -0.0479 -0.4808  0.3629
    1TMC1    C614344   3.675   0.728  13.182 -0.3741 -1.0163 -0.4338
    1TMC1     C14345   3.775   1.038  13.440 -0.3763  0.4356  0.3504
    1TMC1     O14346   3.700   1.131  13.465  0.5642  0.2925  0.0748
    1TMC1     H14347   3.572   1.034  13.255  0.1065 -0.5305 -1.3306
    1TMC1    H114348   3.949   0.861  13.327  0.4439  1.3915 -0.8489
    1TMC1    H214349   3.632   0.639  13.137 -0.4579 -0.9084 -0.5685
    1TMC1    C714350   3.891   0.622  13.242 -0.1269 -0.4718 -0.4354
    1TMC1    C814351   3.472   0.840  13.121 -0.2466 -0.0927  0.1557
    1TMC1    O114352   4.012   0.631  13.219 -0.8624  0.0862  0.0126
    1TMC1    O214353   3.384   0.922  13.146 -0.3392 -0.1959 -0.0492
    1TMC1    O314354   3.823   0.509  13.233 -0.2235 -0.7301  0.2130
    1TMC1    H314355   3.745   0.518  13.292 -1.8854 -1.1719 -1.9137
    1TMC1    O514356   3.473   0.756  13.017  0.1933  0.2097 -0.6697
    1TMC1    H514357   3.557   0.708  12.996 -0.9346 -1.4437 -1.3773
    2MPD2     C14358   3.889   1.181  13.696 -0.7320 -0.1668 -0.7528
    2MPD2    C114359   3.918   1.052  13.654 -0.4634 -0.0430  0.0312
    2MPD2    C214360   4.000   0.975  13.738 -0.6318 -0.7002  0.6227
    2MPD2    C314361   4.052   1.030  13.854  0.2375  0.0282 -1.0480
    2MPD2    C414362   4.030   1.157  13.879 -0.7521  0.6493 -1.0826
    2MPD2    C514363   3.945   1.230  13.806 -0.0636  0.5073 -0.4096
    2MPD2     H14364   4.027   0.872  13.715  1.3576 -0.8504  3.6509
    2MPD2    H114365   4.068   1.207  13.968 -3.0344  0.2383  0.1329
    2MPD2    H214366   3.832   1.257  13.644 -0.7076 -0.5590 -1.3483
    2MPD2    H314367   3.932   1.331  13.844  0.6361 -0.0361  1.3089
    2MPD2     N14368   4.117   0.953  13.952 -0.0208  0.1763 -0.4924
    2MPD2    H514369   4.145   0.861  13.921  0.2733  0.5393 -1.3213
    2MPD2    N114370   3.867   0.987  13.530  0.7734  0.5486 -0.2855
    2MPD2    H714371   3.891   0.888  13.527 -0.1965  0.2675  1.0063
    3TCq1    O114372   4.158   0.839  14.541  0.1727  0.0094 -0.3202
    3TCq1    C114373   4.165   0.726  14.464 -0.5155  0.2084  0.0449
    3TCq1    O214374   4.126   0.614  14.489 -0.8237  0.0198 -0.3345
    3TCq1    C214375   4.232   0.756  14.340 -0.3203 -0.4452  0.1476
    3TCq1    C314376   4.303   0.664  14.270  0.1837 -0.0559 -0.0554
    3TCq1    C414377   4.334   0.688  14.139 -0.0567 -0.0465  0.2208
    3TCq1    C514378   4.290   0.800  14.074 -0.9733 -0.3430  0.2815
    3TCq1    C614379   4.211   0.880  14.143  0.6874  0.2792 -0.0553
    3TCq1    C714380   4.176   0.863  14.276  0.1201  0.8915 -0.3354
    3TCq1    C814381   4.150   0.993  14.078 -0.5991  0.7527 -0.0021
    3TCq1    O414382   4.123   1.086  14.152  0.4828 -0.2531 -0.5429
    3TCq1    C914383   4.408   0.587  14.065  0.3026  0.1900  0.5160
    3TCq1    O514384   4.427   0.478  14.122 -0.3549  0.3058  0.1020
    3TCq1    O614385   4.402   0.612  13.941  0.4327  0.1549  0.3888
    3TCq1    H114386   4.208   0.911  14.498  0.3475 -0.5630 -1.0758
    3TCq1    H214387   4.324   0.575  14.328  0.9950 -0.4471 -0.9394
    3TCq1    H314388   4.318   0.804  13.970  0.1774  1.2445  0.6505
    3TCq1    H414389   4.110   0.924  14.335 -1.8166  0.1934 -1.7392
    1MPD2     C14390   3.232   1.727  14.541  1.0000 -0.0798 -0.5452
    1MPD2    C114391   3.114   1.755  14.486  0.9758  0.4249 -0.6132
    1MPD2    C214392   2.991   1.714  14.546 -0.6724 -0.0627  0.0597
    1MPD2    C314393   2.993   1.642  14.662  0.1480  0.6575 -0.1474
    1MPD2    C414394   3.115   1.594  14.705  0.0177 -0.3199 -0.0320
    1MPD2    C514395   3.232   1.651  14.657 -0.5294  0.2368 -0.0280
    1MPD2     H14396   2.892   1.740  14.508  0.2104  1.8678 -0.8899
    1MPD2    H114397   3.123   1.524  14.787  2.3009 -0.4820 -0.4042
    1MPD2    H214398   3.325   1.772  14.509  0.4315  0.0114 -2.0655
    1MPD2    H314399   3.330   1.622  14.695 -0.8667 -0.6079  0.1926
    1MPD2     N14400   2.869   1.631  14.731  0.6236 -0.4926  0.3148
    1MPD2    H514401   2.788   1.672  14.686 -0.3072 -4.5913 -1.8039
    1MPD2    N114402   3.116   1.826  14.366 -0.1372  0.1993  0.5784
    1MPD2    H714403   3.207   1.852  14.328 -0.6527 -0.4073 -1.1007
    2TMC3    C114404   3.036   1.955  14.180  0.5565 -0.0108  0.0457
    2TMC3    C214405   2.932   2.050  14.185  0.4716 -0.0019 -0.3711
    2TMC3    C314406   2.973   2.174  14.206 -0.0500  0.1748  0.7663
    2TMC3    C414407   3.167   1.991  14.167  0.1840 -0.3623  0.3940
    2TMC3    C514408   3.197   2.124  14.159 -0.3043  0.2965  0.1653
    2TMC3    C614409   3.104   2.225  14.178 -0.0218 -0.4688 -0.3903
    2TMC3     C14410   3.011   1.865  14.292  0.1743  0.0642  0.8021
    2TMC3     O14411   2.888   1.857  14.321  0.0125  0.0849  0.2062
    2TMC3     H14412   2.827   2.024  14.177  0.6547 -1.2316  1.1322
    2TMC3    H114413   3.243   1.926  14.124  0.3161  0.8795 -1.2757
    2TMC3    H214414   3.135   2.327  14.200 -2.0761 -0.1106  0.8826
    2TMC3    C714415   3.311   2.165  14.074 -0.2658 -0.1782 -0.0078
    2TMC3    C814416   2.897   2.239  14.308 -0.2526 -0.0818  0.4318
    2TMC3    O114417   3.401   2.085  14.072 -0.1370  0.3062  0.1906
    2TMC3    O214418   2.907   2.363  14.315  0.6037  0.9729 -0.1719
    3TCq1    O114419   4.177   2.730  13.901 -0.3983  0.3458 -0.0468
    3TCq1    C114420   4.244   2.610  13.880 -0.2936 -0.3717  0.0692
    3TCq1    O214421   4.365   2.603  13.875  0.5013 -0.3085 -0.3394
    3TCq1    C214422   4.152   2.500  13.873 -0.1184 -0.0566  0.0392
    3TCq1    C314423   4.185   2.393  13.949 -0.4626  0.9553  0.5573
    3TCq1    C414424   4.104   2.285  13.945  0.0103 -0.3240 -0.4663
    3TCq1    C514425   3.985   2.294  13.879  0.2228 -0.1234  0.3109
    3TCq1    C614426   3.958   2.401  13.805  0.0940 -0.0359  0.0335
    3TCq1    C714427   4.038   2.507  13.800  0.4634  0.0287  0.1231
    3TCq1    C814428   3.828   2.422  13.751 -0.3040  0.1582 -0.0203
    3TCq1    O414429   3.818   2.513  13.669  0.2864  0.0919  0.2026
    3TCq1    C914430   4.121   2.191  14.048  0.1349 -0.0703  0.2392
    3TCq1    O514431   4.019   2.128  14.090  0.2058 -0.1010 -0.1744
    3TCq1    O614432   4.241   2.169  14.080 -0.3028  0.1823  0.4004
    3TCq1    H114433   4.085   2.710  13.929  0.4009 -1.4677  1.2272
    3TCq1    H214434   4.271   2.397  14.016 -1.1023  0.0406  1.4208
    3TCq1    H314435   3.915   2.211  13.881 -0.4675  0.4944  1.5246
    3TCq1    H414436   3.998   2.599  13.759  1.0999  0.2658  0.0270
    4MPD2     C14437   3.531   2.450  13.714 -0.1768 -0.0014 -0.2072
    4MPD2    C114438   3.590   2.372  13.818  0.1030 -0.6549  0.2951
    4MPD2    C214439   3.504   2.301  13.909  0.8881  0.1428  0.8632
    4MPD2    C314440   3.367   2.322  13.893 -0.1514 -1.1885  0.9854
    4MPD2    C414441   3.311   2.403  13.792 -0.4947  0.9107 -0.2650
    4MPD2    C514442   3.396   2.462  13.706 -0.0640 -0.2898  0.0120
    4MPD2     H14443   3.546   2.246  13.992  0.1021 -0.1534  1.0695
    4MPD2    H114444   3.205   2.419  13.779 -0.4457  1.4496 -0.0463
    4MPD2    H214445   3.594   2.512  13.652  0.1791 -1.9116 -1.7467
    4MPD2    H314446   3.354   2.522  13.626  0.1809 -0.4829 -0.2601
    4MPD2     N14447   3.271   2.256  13.977  0.1574 -0.0455 -0.1784
    4MPD2    H514448   3.174   2.281  13.959 -0.5000 -0.4185  2.8916
    4MPD2    N114449   3.732   2.358  13.830 -0.1253 -0.0977  0.1441
    4MPD2    H714450   3.772   2.310  13.911  1.6439  1.4647  0.1862
    5TMC2    C114451   2.570   1.751  14.840 -0.0544  0.0761  1.1180
    5TMC2    C214452   2.581   1.812  14.966  0.7806  0.3881 -0.0543
    5TMC2    C314453   2.669   1.748  15.049 -0.8570 -0.7241 -0.7983
    5TMC2    C414454   2.633   1.639  14.808  0.7046  0.3765 -0.4045
    5TMC2    C514455   2.721   1.583  14.900  0.0252  0.3645  0.0287
    5TMC2    C614456   2.734   1.635  15.029 -0.2285 -0.8450 -0.4238
    5TMC2     C14457   2.576   1.843  14.727  0.5439  0.3192 -0.7636
    5TMC2     O14458   2.615   1.802  14.618 -0.3378  0.1556 -0.1501
    5TMC2     H14459   2.537   1.906  14.995 -1.6414 -1.1236  1.2055
    5TMC2    H114460   2.635   1.597  14.708 -0.7875 -3.2256  1.0635
    5TMC2    H214461   2.822   1.607  15.086  1.4140  0.4773 -2.3249
    5TMC2    C714462   2.851   1.560  14.847  0.4788  0.3014  0.1424
    5TMC2    C814463   2.694   1.815  15.172  0.5587 -0.0074 -0.1940
    5TMC2    O114464   2.943   1.521  14.921 -0.5064  0.3214  0.1533
    5TMC2    O214465   2.801   1.808  15.233  0.1173  0.3534 -0.0182
    5TMC2    O514466   2.578   1.861  15.224 -0.4402 -0.6309  0.0146
    5TMC2    H514467   2.494   1.836  15.180  0.7937 -1.8017 -1.6769
    6MPD2     C14468   2.712   2.304  14.529  0.4544  0.0573  0.9232
    6MPD2    C114469   2.749   2.178  14.497 -0.3048 -0.0575 -0.5618
    6MPD2    C214470   2.706   2.066  14.571 -0.6353  0.2618  0.3026
    6MPD2    C314471   2.625   2.079  14.679 -0.0647 -0.0446  0.2689
    6MPD2    C414472   2.591   2.211  14.713  0.6133 -0.2064 -0.2987
    6MPD2    C514473   2.629   2.324  14.639  0.3682 -0.1576 -0.1570
    6MPD2     H14474   2.745   1.973  14.531 -0.7463 -0.1029  1.0330
    6MPD2    H114475   2.533   2.234  14.801  0.2683  1.3373 -0.9243
    6MPD2    H214476   2.720   2.384  14.456 -1.5684 -1.0282 -0.4792
    6MPD2    H314477   2.593   2.423  14.665  1.7742 -0.0032  1.2552
    6MPD2     N14478   2.570   1.978  14.756 -0.2281 -0.1905 -0.0606
    6MPD2    H514479   2.529   2.003  14.845 -1.3290 -0.3146 -0.5297
    6MPD2    N114480   2.835   2.151  14.388 -0.0564 -0.2250  1.0060
    6MPD2    H714481   2.851   2.052  14.378 -0.8150 -0.2573  0.1108
  945NH4     N114482   3.856   4.235   9.924 -0.3490 -0.3821 -0.4017
  945NH4     H214483   3.767   4.209   9.877  0.2068 -0.1341 -1.5940
  945NH4     H314484   3.870   4.330   9.964  2.1017 -0.5354 -0.8543
  945NH4     H414485   3.937   4.218   9.861  0.3766  0.1853  0.3673
  945NH4     H514486   3.880   4.165   9.998  0.1249 -1.5924 -1.6941
  946SOD     NA14487   4.096   2.289  12.211 -0.2418 -0.2804  0.1494
  947SOD     NA14488   4.417   0.717  15.134  0.2014 -0.0905  0.0200
  948SOD     NA14489   0.044   2.453  13.786  0.6072 -0.1207  0.3643
  949SOD     NA14490   4.354   3.828  16.056  0.3104 -0.6671 -0.6923
  950SOD     NA14491   1.358   3.306   9.575 -0.6016 -0.4455  0.3059
  951SOD     NA14492   4.182   0.951   5.773 -0.4919  0.4128 -0.5686
  952SOD     NA14493   1.546   2.770   3.421 -0.5643  0.0097 -0.2507
  953SOL     OW14494   2.237   2.861  12.225  0.2954 -0.1345 -0.1700
  953SOL    HW114495   2.209   2.941  12.269  2.2564  1.7692 -2.3964
  953SOL    HW214496   2.320   2.849  12.270 -0.4786 -1.3033  0.9618
  954SOL     OW14497   3.071   0.339   3.438 -0.1645 -0.3409  0.2103
  954SOL    HW114498   3.164   0.348   3.417  0.0151  0.9429  1.5820
  954SOL    HW214499   3.080   0.252   3.477 -2.4457 -0.7923 -0.2494
  955SOL     OW14500   3.243   2.049   3.363 -0.1920  0.3347 -0.1951
  955SOL    HW114501   3.328   2.045   3.408  1.5894  1.0889 -3.5305
  955SOL    HW214502   3.183   2.019   3.432  3.3148  1.7789  3.4988
  956SOL     OW14503   2.001   1.700   6.379 -0.0371  0.0518  0.4847
  956SOL    HW114504   2.072   1.764   6.386 -0.7218  0.8478  0.1247
  956SOL    HW214505   2.026   1.624   6.432  1.1388 -1.5941 -2.4621
  957SOL     OW14506   2.409   1.298   8.808 -0.6597  0.3925 -0.0839
  957SOL    HW114507   2.367   1.238   8.747 -1.6553  0.6440  0.3537
  957SOL    HW214508   2.350   1.282   8.882 -0.0213 -1.2163  0.0750
  958SOL     OW14509   0.627   4.499   4.984 -0.2005 -0.0716 -0.0368
  958SOL    HW114510   0.661   4.565   5.045 -0.3265  1.8055 -1.9864
  958SOL    HW214511   0.563   4.547   4.932 -0.0991 -1.8161 -1.7544
  959SOL     OW14512   2.767   4.564   6.300  0.2976  0.1135 -0.0521
  959SOL    HW114513   2.748   4.567   6.206 -0.0497  1.9507  0.0850
  959SOL    HW214514   2.722   4.634   6.346 -0.4082  0.4331 -1.2387
  960SOL     OW14515   2.255   1.257   4.249 -0.6148  0.1052 -0.1935
  960SOL    HW114516   2.232   1.334   4.300 -0.4183  0.0229  0.0195
  960SOL    HW214517   2.336   1.280   4.203  0.6256  1.3462  2.6743
  961SOL     OW14518   3.413   0.826   7.210 -0.7518 -0.0962 -0.2401
  961SOL    HW114519   3.444   0.839   7.120 -0.2948 -0.9275 -0.1997
  961SOL    HW214520   3.319   0.845   7.204 -0.9761 -0.8244  1.0271
  962SOL     OW14521   2.425   3.000   2.786 -0.2327 -0.2870  0.2693
  962SOL    HW114522   2.390   2.912   2.794 -0.2025 -0.1550  1.9380
  962SOL    HW214523   2.385   3.033   2.706 -1.5317 -2.4640  0.0308
  963SOL     OW14524   0.245   0.057   4.448  0.0233  0.3525  0.2893
  963SOL    HW114525   0.266   4.705   4.472 -1.2417 -0.1696 -0.5475
  963SOL    HW214526   0.328   0.083   4.408  0.1402 -1.8171 -0.8793
  964SOL     OW14527   0.430   3.234   3.953  0.3491 -0.2147 -0.0857
  964SOL    HW114528   0.345   3.265   3.986  0.3799 -1.9350  1.6324
  964SOL    HW214529   0.426   3.148   3.995  2.0570 -0.6079 -0.7237
  965SOL     OW14530   2.852   2.911   5.133 -0.2032  0.2267  0.1915
  965SOL    HW114531   2.862   2.822   5.098  1.0784  0.2990  0.3832
  965SOL    HW214532   2.788   2.903   5.203 -0.2726  0.6354  0.1732
  966SOL     OW14533   0.478   0.366   0.782 -0.4198 -0.5684 -0.1128
  966SOL    HW114534   0.457   0.458   0.762  2.4855  0.7773  2.9056
  966SOL    HW214535   0.401   0.323   0.746 -2.2319  0.1019  2.9436
  967SOL     OW14536   4.135   4.609   8.079 -0.1501 -0.6218 -0.0517
  967SOL    HW114537   4.147   4.580   8.169  2.1766  1.8474  0.4026
  967SOL    HW214538   4.044   4.577   8.076 -0.5931  0.5998  0.8376
  968SOL     OW14539   0.275   3.549  17.153 -0.2486 -0.3821 -0.7619
  968SOL    HW114540   0.227   3.479  17.196  0.4800  0.0663  0.7714
  968SOL    HW214541   0.368   3.543  17.176 -0.3854  0.5550  0.0375
  969SOL     OW14542   2.381   0.552   8.277 -0.3302  0.1473  1.2319
  969SOL    HW114543   2.351   0.643   8.273 -1.0446 -0.2300 -2.6576
  969SOL    HW214544   2.452   0.560   8.340  0.3165  1.9174  0.2966
  970SOL     OW14545   0.466   0.179   5.010  0.3329 -0.1349 -0.3239
  970SOL    HW114546   0.535   0.241   5.035  1.5693 -1.8097  0.4202
  970SOL    HW214547   0.412   0.165   5.089  0.7995 -2.3469 -0.4093
  971SOL     OW14548   2.053   2.178  11.104 -0.0098 -0.3702 -0.2280
  971SOL    HW114549   2.124   2.234  11.074  0.1015  0.3961  1.4873
  971SOL    HW214550   2.097   2.093  11.094 -2.0372 -1.4049 -0.4179
  972SOL     OW14551   1.569   3.540   8.273  0.4801  0.3855 -0.1453
  972SOL    HW114552   1.627   3.612   8.251  1.6111 -0.4726  0.0533
  972SOL    HW214553   1.547   3.559   8.364  1.1157 -2.3349  0.5743
  973SOL     OW14554   0.646   4.230   7.488  0.4120  0.0104 -0.1483
  973SOL    HW114555   0.650   4.292   7.561  1.7367 -0.4390  0.1624
  973SOL    HW214556   0.562   4.187   7.501 -0.3119  0.9553 -1.8666
  974SOL     OW14557   0.248   4.715  17.283 -0.1036  0.5277  0.1752
  974SOL    HW114558   0.167   4.668  17.264 -0.0675  0.8300 -0.7019
  974SOL    HW214559   0.290   4.638  17.322 -0.9190 -0.1689 -0.3208
  975SOL     OW14560   2.964   0.181   7.876 -0.2223  0.4297 -0.0254
  975SOL    HW114561   3.001   0.226   7.800  0.4496  0.0023  0.0590
  975SOL    HW214562   2.902   0.126   7.829 -0.4258  0.3015  0.3926
  976SOL     OW14563   3.625   2.899   6.295  0.4379 -0.2044 -0.2174
  976SOL    HW114564   3.693   2.836   6.318 -0.3497 -1.4873 -1.4114
  976SOL    HW214565   3.681   2.977   6.290  0.7253 -0.3530  0.6942
  977SOL     OW14566   2.663   0.312   1.200 -0.0146 -0.3638  0.0151
  977SOL    HW114567   2.666   0.402   1.233 -0.2415  0.0307 -1.0467
  977SOL    HW214568   2.567   0.310   1.195  0.0841 -0.4810 -1.8965
  978SOL     OW14569   3.322   4.012   4.356  0.5342  0.4974  0.0460
  978SOL    HW114570   3.243   3.963   4.334 -0.0112  1.1577  0.5576
  978SOL    HW214571   3.388   3.967   4.303  0.1132 -0.8135  0.6298
  979SOL     OW14572   1.214   3.833   2.739  0.1923 -0.1796  0.8615
  979SOL    HW114573   1.273   3.788   2.678  0.7025  0.9868  0.4879
  979SOL    HW214574   1.261   3.914   2.761  2.3234 -1.3706  0.6519
  980SOL     OW14575   2.776   2.702   7.992  0.3414 -0.1934 -0.4596
  980SOL    HW114576   2.861   2.732   7.959  0.1739  0.3339 -0.4208
  980SOL    HW214577   2.750   2.778   8.045 -0.8658 -0.3762 -0.8082
  981SOL     OW14578   4.009   3.421   6.016 -0.4095 -0.7147 -0.1177
  981SOL    HW114579   4.026   3.460   5.930  1.3601 -1.8195 -0.2540
  981SOL    HW214580   3.913   3.418   6.010 -0.4493 -1.0370  0.6998
  982SOL     OW14581   2.529   1.322  12.490  0.0165 -0.1269 -0.5427
  982SOL    HW114582   2.596   1.356  12.430 -0.1198  1.2548  0.0848
  982SOL    HW214583   2.566   1.344  12.575 -0.7621 -2.1318  0.3115
  983SOL     OW14584   1.070   3.030  10.153  0.0896 -0.2190  0.0210
  983SOL    HW114585   1.007   3.084  10.200  0.3017  0.7129 -0.7697
  983SOL    HW214586   1.020   2.965  10.105  1.9532  1.0667 -3.6618
  984SOL     OW14587   3.076   0.564   8.372  0.1589 -0.7211  0.9483
  984SOL    HW114588   3.151   0.619   8.397  1.2526 -1.9631  0.4043
  984SOL    HW214589   3.018   0.587   8.445 -2.0970 -0.2071 -1.0098
  985SOL     OW14590   0.999   3.418   7.162 -0.0264 -0.2215  0.4323
  985SOL    HW114591   1.074   3.374   7.122  0.3173 -0.8797  1.7863
  985SOL    HW214592   0.934   3.352   7.140  1.3339 -1.2364 -0.5378
  986SOL     OW14593   1.247   3.510  11.162 -0.0087  0.1647 -0.1712
  986SOL    HW114594   1.201   3.564  11.097  0.2110  0.9959  0.3725
  986SOL    HW214595   1.186   3.492  11.234 -0.7417 -0.1683 -0.8683
  987SOL     OW14596   3.647   0.792   2.484 -0.2843 -0.3210  0.8436
  987SOL    HW114597   3.727   0.754   2.448 -0.5914 -0.9909  0.8757
  987SOL    HW214598   3.686   0.880   2.489  2.1083 -1.2751 -1.0107
  988SOL     OW14599   4.728   0.432   3.822 -0.2221 -0.2846  0.1048
  988SOL    HW114600   4.715   0.339   3.840 -0.9552 -0.5686 -1.8992
  988SOL    HW214601   4.644   0.466   3.853 -0.7942 -1.2176 -0.4353
  989SOL     OW14602   4.590   0.917   4.816 -0.0802  0.1075 -0.2881
  989SOL    HW114603   4.638   0.955   4.742  1.4745  0.9601  1.1560
  989SOL    HW214604   4.601   0.823   4.800  0.5434  0.0773  0.3425
  990SOL     OW14605   3.226   4.637   6.409  0.0033 -0.1879  0.1150
  990SOL    HW114606   3.160   4.701   6.386  0.2309 -0.0641 -0.1872
  990SOL    HW214607   3.184   4.561   6.369  0.2091 -1.4342  2.2723
  991SOL     OW14608   0.374   2.943   3.310  0.3740 -0.1046  0.2024
  991SOL    HW114609   0.314   2.905   3.374  0.8839 -1.1489  0.0599
  991SOL    HW214610   0.418   3.015   3.355  1.5752 -0.0573 -1.0522
  992SOL     OW14611   4.726   0.607   7.669 -0.6182  0.0436 -0.3678
  992SOL    HW114612   4.695   0.600   7.759  0.1434 -2.3935 -0.3073
  992SOL    HW214613   0.007   0.514   7.663 -0.4390 -0.0104  0.9113
  993SOL     OW14614   1.055   2.347  17.046 -0.1391  0.5128 -0.2690
  993SOL    HW114615   1.024   2.380  16.962 -0.0285  0.9479 -0.1377
  993SOL    HW214616   1.022   2.413  17.106  1.0520 -0.0730  1.0580
  994SOL     OW14617   0.406   3.841   7.867  0.6235  0.2991  0.0737
  994SOL    HW114618   0.423   3.792   7.787 -0.0125  1.3163 -0.6748
  994SOL    HW214619   0.313   3.818   7.874  1.1108 -1.9479 -0.7158
  995SOL     OW14620   2.457   4.549   7.397 -0.0333  0.7377  0.4305
  995SOL    HW114621   2.409   4.481   7.351 -0.7643  0.0996  2.1730
  995SOL    HW214622   2.459   4.512   7.485 -1.3632 -1.0721 -0.3222
  996SOL     OW14623   3.142   4.151  14.174 -0.3297 -0.4969  0.3084
  996SOL    HW114624   3.093   4.231  14.156  0.5506 -0.3887 -1.5925
  996SOL    HW214625   3.218   4.189  14.219  0.2265 -2.8628  1.3886
  997SOL     OW14626   3.698   4.704   1.633  0.7048  0.0261 -0.4678
  997SOL    HW114627   3.626   4.675   1.577 -0.3934  1.2681  0.3038
  997SOL    HW214628   3.646   4.734   1.707 -0.9105 -2.1144 -0.7077
  998SOL     OW14629   0.205   0.850   1.228 -0.3664 -0.3662  0.6661
  998SOL    HW114630   0.156   0.799   1.163 -0.1843  1.2661 -0.7426
  998SOL    HW214631   0.232   0.913   1.162 -1.2428 -1.2992 -0.5784
  999SOL     OW14632   3.334   2.487   8.289  0.2102  0.2162 -0.0182
  999SOL    HW114633   3.327   2.455   8.379 -1.4948  0.5876 -0.0330
  999SOL    HW214634   3.263   2.441   8.245 -0.5302  2.0987 -0.7937
 1000SOL     OW14635   2.591   0.196   8.883 -0.2537 -0.3273 -0.4269
 1000SOL    HW114636   2.685   0.177   8.875  0.1178  1.1687  0.3394
 1000SOL    HW214637   2.554   0.111   8.906 -0.4776 -0.3806 -0.9878
 1001SOL     OW14638   1.258   1.829   3.411  0.0246  0.5210 -1.0452
 1001SOL    HW114639   1.322   1.838   3.340  0.6560 -1.0418 -0.6795
 1001SOL    HW214640   1.202   1.760   3.376 -1.3803  1.3470 -0.4341
 1002SOL     OW14641   3.225   0.181  11.683  0.7549 -0.4291 -0.3176
 1002SOL    HW114642   3.292   0.150  11.622 -0.5874  0.2469 -2.1375
 1002SOL    HW214643   3.266   0.261  11.716  1.5453 -0.5059 -1.1188
 1003SOL     OW14644   3.215   4.191   9.032  0.3381 -0.1428 -0.5732
 1003SOL    HW114645   3.219   4.259   9.099 -0.6223  0.4501 -1.1221
 1003SOL    HW214646   3.272   4.228   8.964 -1.4428  1.0441 -1.4145
 1004SOL     OW14647   2.200   2.439  14.208  0.0764  0.9726  0.0108
 1004SOL    HW114648   2.130   2.503  14.214 -0.8254  0.3719 -3.8678
 1004SOL    HW214649   2.208   2.409  14.298  0.4753  2.8882  0.6215
 1005SOL     OW14650   4.024   0.780  12.043 -0.0897  0.1857 -0.3220
 1005SOL    HW114651   4.022   0.720  12.118 -1.2080 -0.0733 -0.5689
 1005SOL    HW214652   4.080   0.849  12.080 -0.0757 -0.0719  0.1376
 1006SOL     OW14653   1.141   1.461   4.507  0.4538  0.5249 -0.6956
 1006SOL    HW114654   1.081   1.398   4.547 -0.2224  2.0267  0.6425
 1006SOL    HW214655   1.096   1.545   4.506 -2.5552 -1.0499 -0.4976
 1007SOL     OW14656   0.851   0.775   8.145 -0.1815 -0.0119  0.5882
 1007SOL    HW114657   0.876   0.805   8.058  1.3212 -0.5061  0.8465
 1007SOL    HW214658   0.888   0.688   8.153 -0.5731 -0.2887 -0.6151
 1008SOL     OW14659   0.941   1.231   6.103  0.4385 -0.5392  0.5686
 1008SOL    HW114660   0.971   1.216   6.192  0.3513 -0.1755  0.6564
 1008SOL    HW214661   0.963   1.323   6.086 -1.9356 -0.4188 -1.8325
 1009SOL     OW14662   3.322   3.407   2.083 -0.4631 -0.7557  0.2335
 1009SOL    HW114663   3.297   3.448   2.166  0.4814  3.6567 -1.6682
 1009SOL    HW214664   3.232   3.390   2.057 -1.0165  0.9598  1.0200
 1010SOL     OW14665   4.127   0.157   7.229  0.1088  0.0888 -0.3482
 1010SOL    HW114666   4.104   0.140   7.138  0.7261 -0.0605 -0.4780
 1010SOL    HW214667   4.222   0.145   7.228  0.2429  0.6971  2.6876
 1011SOL     OW14668   1.909   0.021  13.517  0.2654  0.8983  0.2492
 1011SOL    HW114669   1.904   0.107  13.558 -0.2308  0.3762  1.2736
 1011SOL    HW214670   1.909   0.038  13.422  0.6211 -0.8754 -0.0717
 1012SOL     OW14671   1.604   2.982   6.272 -0.1857 -0.0653 -0.1246
 1012SOL    HW114672   1.694   2.950   6.259  0.0826  0.1871  1.1106
 1012SOL    HW214673   1.572   2.995   6.183  0.6928 -1.8549 -0.7028
 1013SOL     OW14674   1.126   1.345   8.546  0.0006  0.4349 -0.1093
 1013SOL    HW114675   1.118   1.298   8.630  1.5276 -0.2279 -0.3245
 1013SOL    HW214676   1.143   1.270   8.489 -2.1970 -0.8165  0.8805
 1014SOL     OW14677   3.372   3.674   1.151  0.0232  0.0821  0.3005
 1014SOL    HW114678   3.355   3.581   1.135 -1.6060  0.1037  1.8175
 1014SOL    HW214679   3.283   3.711   1.155 -0.0840 -0.3290  2.0499
 1015SOL     OW14680   3.929   0.284  14.226 -0.7946 -0.1108  0.0445
 1015SOL    HW114681   3.857   0.345  14.209 -1.8814 -1.6434 -0.8543
 1015SOL    HW214682   3.971   0.325  14.301  0.2813 -1.7153  0.3137
 1016SOL     OW14683   2.974   0.021   7.043  0.7383  0.0491  0.3149
 1016SOL    HW114684   2.902   0.076   7.012  0.9137 -0.6814 -1.3806
 1016SOL    HW214685   3.018   0.091   7.092  0.9690  2.3838 -3.1582
 1017SOL     OW14686   2.641   3.329   7.146  0.0881  0.2254 -0.5700
 1017SOL    HW114687   2.643   3.372   7.060 -1.8276 -1.3955 -1.4339
 1017SOL    HW214688   2.735   3.325   7.163 -0.1311 -1.1194  0.2642
 1018SOL     OW14689   0.919   1.362   5.004  0.3128  0.0824  0.0280
 1018SOL    HW114690   0.882   1.288   4.956  0.5325  0.7095 -1.1047
 1018SOL    HW214691   0.846   1.424   5.012 -0.7311 -1.1057 -0.3731
 1019SOL     OW14692   3.822   3.673  16.555  0.1052 -0.7284 -0.1544
 1019SOL    HW114693   3.787   3.670  16.644  0.0228  1.7468 -0.0972
 1019SOL    HW214694   3.911   3.660  16.590  1.5407  0.1969 -3.4794
 1020SOL     OW14695   0.255   0.269   9.539 -0.1833 -0.2076 -0.1848
 1020SOL    HW114696   0.310   0.325   9.594 -2.1830  1.2171  0.3735
 1020SOL    HW214697   0.178   0.324   9.525  0.4217 -0.0273 -2.8765
 1021SOL     OW14698   2.947   4.722   1.877 -0.2253  0.3198  0.0229
 1021SOL    HW114699   3.009   4.711   1.805  2.9903 -0.6729  2.9780
 1021SOL    HW214700   2.954   0.077   1.899  1.2631  0.5249 -1.2758
 1022SOL     OW14701   3.522   4.028   7.262  0.3284 -0.5085  0.3549
 1022SOL    HW114702   3.595   4.051   7.320  1.4589  1.2706 -1.7534
 1022SOL    HW214703   3.455   4.090   7.289  1.1164  0.6068 -0.2517
 1023SOL     OW14704   1.039   3.378   5.022  0.0193  0.5807  0.3398
 1023SOL    HW114705   1.063   3.299   5.072  0.3078 -0.4260 -1.3779
 1023SOL    HW214706   1.112   3.440   5.016 -0.4497  1.1470  0.4903
 1024SOL     OW14707   3.390   2.638   6.423 -0.2968 -0.6352 -0.1618
 1024SOL    HW114708   3.383   2.733   6.428  1.2913 -0.7460  4.1033
 1024SOL    HW214709   3.486   2.634   6.428 -0.3506  0.7641  1.9187
 1025SOL     OW14710   2.029   3.209   2.553  0.4366  0.2202 -0.0150
 1025SOL    HW114711   2.046   3.278   2.488  1.0449  0.5126  0.4443
 1025SOL    HW214712   2.013   3.257   2.634  0.4362 -1.9498  1.2437
 1026SOL     OW14713   3.595   0.440   5.952 -0.2559 -0.1118  0.1667
 1026SOL    HW114714   3.610   0.366   5.894 -2.0961 -1.4168  1.3520
 1026SOL    HW214715   3.586   0.515   5.895 -1.8803 -0.8704 -0.5650
 1027SOL     OW14716   3.014   1.967   7.723 -0.0767  0.1526  0.3768
 1027SOL    HW114717   2.997   1.921   7.641 -0.1149  0.3488  0.2748
 1027SOL    HW214718   3.109   1.965   7.733 -0.0915  0.2138  0.5317
 1028SOL     OW14719   0.220   1.591   7.048  0.0255  0.3691 -0.7632
 1028SOL    HW114720   0.230   1.557   6.959 -0.1500 -1.5640 -0.0462
 1028SOL    HW214721   0.310   1.587   7.079 -1.1855 -0.7985  2.4899
 1029SOL     OW14722   4.737   2.969   2.999 -0.4632  0.1612  0.0069
 1029SOL    HW114723   4.717   2.879   3.027  1.4957 -0.1549  0.3625
 1029SOL    HW214724   0.011   2.958   2.905 -0.2923 -3.4553  0.4253
 1030SOL     OW14725   4.247   2.517   6.743 -0.9184  0.2068 -0.3985
 1030SOL    HW114726   4.193   2.539   6.818 -0.0017  0.5841  0.1558
 1030SOL    HW214727   4.291   2.598   6.717 -2.0903  0.7499 -0.6443
 1031SOL     OW14728   2.940   1.313  11.848 -0.1572  0.2773  0.0659
 1031SOL    HW114729   2.961   1.388  11.793 -0.8059 -0.9003 -1.7782
 1031SOL    HW214730   3.018   1.258  11.858  0.1580  0.1408 -3.3979
 1032SOL     OW14731   0.951   4.338  10.734  0.9174 -0.4660 -0.0483
 1032SOL    HW114732   0.982   4.427  10.716 -0.4073 -0.0685 -0.3093
 1032SOL    HW214733   0.941   4.349  10.828 -0.7907 -2.3545 -0.0236
 1033SOL     OW14734   0.964   4.677   9.604 -0.1215 -0.0973 -0.5107
 1033SOL    HW114735   0.989   4.624   9.680 -2.3223 -1.0344 -0.4605
 1033SOL    HW214736   1.045   4.685   9.554 -0.9959 -0.0178 -1.9034
 1034SOL     OW14737   4.025   3.808   9.255  0.3572 -0.3122  0.3838
 1034SOL    HW114738   4.087   3.881   9.250  0.2747 -0.3323 -1.1387
 1034SOL    HW214739   3.962   3.846   9.316  2.2646  2.0321  0.8546
 1035SOL     OW14740   3.601   1.454   2.294 -0.5195  0.7003 -0.2318
 1035SOL    HW114741   3.690   1.422   2.280 -0.4143 -0.0320  2.1689
 1035SOL    HW214742   3.550   1.418   2.221  0.8850  0.8590 -1.2986
 1036SOL     OW14743   1.588   3.349   4.575 -0.2727 -0.2477 -0.1120
 1036SOL    HW114744   1.569   3.260   4.605  0.2547 -0.5784 -0.7667
 1036SOL    HW214745   1.508   3.390   4.608 -0.0965  0.7106 -0.8549
 1037SOL     OW14746   1.759   3.086   9.318  0.4502  0.1855 -0.0406
 1037SOL    HW114747   1.733   3.144   9.247 -0.2299  0.4709  0.4421
 1037SOL    HW214748   1.852   3.067   9.306  0.1794 -0.5060 -1.0729
 1038SOL     OW14749   3.999   3.031  11.717 -0.5037 -0.8752  0.2887
 1038SOL    HW114750   3.969   2.947  11.749 -1.5676 -1.1529 -1.4162
 1038SOL    HW214751   4.010   3.005  11.625  0.7923 -1.9793  0.7545
 1039SOL     OW14752   0.188   2.083   6.925  0.1220  0.1346 -0.8664
 1039SOL    HW114753   0.222   2.152   6.869 -1.6128  1.7262  0.0564
 1039SOL    HW214754   0.110   2.059   6.875  0.0842 -1.1781 -0.1882
 1040SOL     OW14755   3.580   2.179   5.826  0.1893  0.4809  0.0532
 1040SOL    HW114756   3.651   2.132   5.783 -0.0621 -1.0641  1.3327
 1040SOL    HW214757   3.545   2.107   5.878  0.1954  0.4020 -0.0523
 1041SOL     OW14758   0.783   0.086   6.676 -0.1200  0.7029 -0.0332
 1041SOL    HW114759   0.869   0.051   6.700 -1.7031 -1.3059  2.8343
 1041SOL    HW214760   0.730   0.042   6.743  0.3866 -0.7149 -0.5661
 1042SOL     OW14761   3.118   1.138  15.103  0.0209  0.3830 -0.0657
 1042SOL    HW114762   3.075   1.052  15.100 -1.1785  0.8978  2.3773
 1042SOL    HW214763   3.163   1.144  15.019  0.6979 -0.6261  0.2210
 1043SOL     OW14764   3.055   2.640   9.215  0.5268 -0.2047  0.0993
 1043SOL    HW114765   3.103   2.705   9.266  0.8734 -1.3482  1.2648
 1043SOL    HW214766   3.099   2.646   9.131  0.4872  1.5085  0.2113
 1044SOL     OW14767   3.328   3.878  10.256 -0.5296 -0.3074 -0.5267
 1044SOL    HW114768   3.260   3.847  10.316 -2.6995  0.5961 -2.5267
 1044SOL    HW214769   3.273   3.868  10.178  0.1053  1.3909 -1.1895
 1045SOL     OW14770   4.414   2.434   3.101 -0.0671  0.3834 -0.5410
 1045SOL    HW114771   4.370   2.519   3.108  2.0452  1.2478  2.1298
 1045SOL    HW214772   4.423   2.422   3.007 -2.4950 -0.4967 -0.6716
 1046SOL     OW14773   0.880   2.405  13.073 -0.5075 -0.5163 -0.4315
 1046SOL    HW114774   0.867   2.317  13.041 -1.5086 -0.5734  0.1332
 1046SOL    HW214775   0.792   2.425  13.104 -0.3457 -0.6106  0.1028
 1047SOL     OW14776   0.468   2.740  14.612  0.0494 -0.0970 -0.3744
 1047SOL    HW114777   0.447   2.647  14.619 -1.5901  0.2129 -1.2171
 1047SOL    HW214778   0.382   2.776  14.591 -0.1113 -0.3167 -0.0981
 1048SOL     OW14779   2.142   2.573  15.718 -0.4676  0.3547  0.3363
 1048SOL    HW114780   2.132   2.513  15.643 -1.6528 -1.1445  1.6801
 1048SOL    HW214781   2.064   2.627  15.701  0.1945  2.4063  3.9502
 1049SOL     OW14782   1.523   0.303   4.252  0.3828 -0.0420 -0.2394
 1049SOL    HW114783   1.599   0.319   4.196 -0.4831 -0.6330 -1.5755
 1049SOL    HW214784   1.555   0.252   4.326  0.8123  0.9190  0.2343
 1050SOL     OW14785   1.138   1.246   7.852 -0.3818  0.4590  0.0799
 1050SOL    HW114786   1.101   1.326   7.815 -1.2926 -0.1079 -0.2467
 1050SOL    HW214787   1.139   1.276   7.943  0.6255 -0.6851  0.4474
 1051SOL     OW14788   4.513   2.426  13.463 -0.4707  0.5863 -1.0631
 1051SOL    HW114789   4.502   2.518  13.487 -2.8988 -0.1860  0.6859
 1051SOL    HW214790   4.445   2.374  13.505 -1.9925  2.6509 -0.9698
 1052SOL     OW14791   1.303   2.296   2.004  0.1088  0.1068 -0.5579
 1052SOL    HW114792   1.209   2.281   2.013  0.5912 -2.3486  0.1662
 1052SOL    HW214793   1.339   2.209   1.991  0.7175  0.2026  0.4399
 1053SOL     OW14794   0.569   0.068   5.582 -0.6022 -0.7847 -0.5954
 1053SOL    HW114795   0.582   4.714   5.604 -1.5334 -1.6511 -3.5909
 1053SOL    HW214796   0.482   0.066   5.540 -0.4945  1.6375 -0.9197
 1054SOL     OW14797   0.586   1.193  10.958  0.5173  0.1723  0.0022
 1054SOL    HW114798   0.506   1.170  11.004 -0.3636 -1.9085 -2.5951
 1054SOL    HW214799   0.588   1.112  10.908 -1.5585 -0.3900  0.8252
 1055SOL     OW14800   0.474   0.364  16.743  0.1233 -0.7079  0.0717
 1055SOL    HW114801   0.399   0.326  16.788 -0.6036 -3.0130 -3.0432
 1055SOL    HW214802   0.479   0.453  16.777  0.5649 -1.3085  1.5738
 1056SOL     OW14803   2.734   1.220   4.677  0.0053 -0.3771 -0.5744
 1056SOL    HW114804   2.702   1.133   4.650 -0.6620 -0.0815 -0.7467
 1056SOL    HW214805   2.825   1.208   4.702 -0.5700 -3.1763  0.2099
 1057SOL     OW14806   2.464   0.372   7.552 -0.1360  0.4751  0.1608
 1057SOL    HW114807   2.498   0.282   7.545 -0.1865  0.4877 -0.2327
 1057SOL    HW214808   2.537   0.411   7.600 -0.9972 -2.3725  3.8636
 1058SOL     OW14809   4.096   1.673   9.036  0.5770 -0.6344 -0.2700
 1058SOL    HW114810   4.013   1.667   9.084 -0.1678  3.5438 -0.9736
 1058SOL    HW214811   4.082   1.742   8.970 -1.0532 -0.5735  0.1311
 1059SOL     OW14812   0.888   2.686  13.796  0.1654  0.0204 -0.0016
 1059SOL    HW114813   0.946   2.724  13.862  1.0532  0.5950 -1.1068
 1059SOL    HW214814   0.870   2.766  13.747 -2.8819  0.5864  2.0516
 1060SOL     OW14815   2.926   3.305   7.786 -0.5078  0.0792 -0.0157
 1060SOL    HW114816   3.005   3.338   7.828 -1.3829 -1.1493  2.6433
 1060SOL    HW214817   2.919   3.225   7.838  0.7069  0.5615  0.8764
 1061SOL     OW14818   2.147   3.054   9.224  0.3234  0.5548  0.1316
 1061SOL    HW114819   2.236   3.021   9.212  0.0756  0.5307 -1.6958
 1061SOL    HW214820   2.097   3.002   9.161 -0.3174  1.3269  0.0011
 1062SOL     OW14821   2.902   2.374   2.668 -0.1264 -1.0758 -0.1911
 1062SOL    HW114822   2.946   2.289   2.657  1.0895 -0.1975 -2.1717
 1062SOL    HW214823   2.966   2.423   2.719  0.8538 -2.3703 -0.1705
 1063SOL     OW14824   2.338   1.211   3.866  0.2025  0.3823 -0.0750
 1063SOL    HW114825   2.374   1.172   3.786 -0.6775  0.6059 -0.5738
 1063SOL    HW214826   2.264   1.260   3.832 -0.5605  0.6054  1.8911
 1064SOL     OW14827   1.230   0.388   7.477 -0.1146  0.6265 -0.2439
 1064SOL    HW114828   1.190   0.305   7.504 -0.0004 -0.1393 -2.3933
 1064SOL    HW214829   1.300   0.345   7.427  0.1893 -0.3300  0.9932
 1065SOL     OW14830   3.613   4.031   3.877  0.1343  0.2163 -0.6840
 1065SOL    HW114831   3.689   3.977   3.860  0.3039  1.0265 -2.5919
 1065SOL    HW214832   3.644   4.118   3.850  1.1138 -0.4811 -1.8054
 1066SOL     OW14833   0.215   3.736   4.253 -0.0009 -0.5681  0.6238
 1066SOL    HW114834   0.225   3.670   4.322 -1.2925 -2.7005 -1.1979
 1066SOL    HW214835   0.293   3.791   4.259 -0.9886  0.8784  0.2026
 1067SOL     OW14836   2.220   4.199  16.755  0.5360  0.0298  0.2678
 1067SOL    HW114837   2.246   4.156  16.673  2.3526  0.5846  0.5483
 1067SOL    HW214838   2.268   4.282  16.746 -0.7316  0.6301 -1.1314
 1068SOL     OW14839   3.269   0.879  11.852 -0.3903  0.1964  0.1336
 1068SOL    HW114840   3.362   0.898  11.841 -0.8358  1.0697 -2.1283
 1068SOL    HW214841   3.268   0.818  11.926  0.4679 -0.8156 -0.6844
 1069SOL     OW14842   1.519   2.282   7.353  0.3086  0.0953 -0.0314
 1069SOL    HW114843   1.523   2.366   7.308  2.2451  0.0484  0.0809
 1069SOL    HW214844   1.584   2.293   7.422  1.1142  3.2321 -1.2986
 1070SOL     OW14845   4.196   0.542   8.573 -0.3506  0.1201  0.3492
 1070SOL    HW114846   4.237   0.456   8.558  2.3303  1.2799  0.9976
 1070SOL    HW214847   4.112   0.506   8.602  0.9015 -1.2299  2.3220
 1071SOL     OW14848   2.912   2.052   8.717  0.2107 -0.1222  0.3761
 1071SOL    HW114849   2.918   2.129   8.775 -1.0762  0.9085 -0.8583
 1071SOL    HW214850   2.987   1.999   8.742  1.4199  1.1736 -0.4987
 1072SOL     OW14851   0.285   0.018   2.961 -0.2581  0.2676 -0.5512
 1072SOL    HW114852   0.369   0.010   2.916  0.5400 -1.4037  1.2206
 1072SOL    HW214853   0.306   0.083   3.028 -0.4281 -2.7213  2.3901
 1073SOL     OW14854   3.903   0.612  11.870 -0.5149  0.4044  0.4010
 1073SOL    HW114855   3.937   0.686  11.920  0.3525  1.5052 -1.8208
 1073SOL    HW214856   3.890   0.548  11.940 -2.4663 -0.4871 -0.7691
 1074SOL     OW14857   0.947   1.024  11.297  0.0210  0.4320  0.5080
 1074SOL    HW114858   1.000   0.946  11.285  0.5529  0.6690  1.3342
 1074SOL    HW214859   0.909   1.028  11.209 -0.9004  1.9098  0.9669
 1075SOL     OW14860   3.308   4.680   8.921  0.1854 -0.3444  0.0384
 1075SOL    HW114861   3.326   0.022   8.969  0.1986 -0.5374  0.3497
 1075SOL    HW214862   3.372   4.687   8.850 -1.0571 -1.4082 -1.2035
 1076SOL     OW14863   1.000   2.648  12.999 -0.0882 -0.0088 -0.1318
 1076SOL    HW114864   1.069   2.672  13.060 -0.2789  0.5563 -0.1416
 1076SOL    HW214865   0.961   2.571  13.041 -0.2787 -0.1112 -0.4949
 1077SOL     OW14866   1.753   0.783   2.391 -0.0238  0.0064 -0.1737
 1077SOL    HW114867   1.814   0.711   2.402  3.0885  2.3065 -2.4016
 1077SOL    HW214868   1.744   0.787   2.296  0.3087  1.9158 -0.1293
 1078SOL     OW14869   1.094   4.183  11.012 -0.2105  0.4818 -0.2135
 1078SOL    HW114870   1.127   4.272  11.026 -0.2651  0.3450  0.7338
 1078SOL    HW214871   1.017   4.170  11.067  0.0871  0.3822  0.1820
 1079SOL     OW14872   3.797   0.528   2.723 -0.6760 -0.1213  0.7213
 1079SOL    HW114873   3.704   0.529   2.700 -0.8050 -1.1872  1.1806
 1079SOL    HW214874   3.790   0.433   2.734  1.7392 -0.5495 -1.4385
 1080SOL     OW14875   0.164   1.957   7.500  0.0857 -0.2878  0.2496
 1080SOL    HW114876   0.256   1.983   7.500  1.1369 -3.9638 -0.0397
 1080SOL    HW214877   0.163   1.870   7.541  1.2760 -1.3250 -1.9512
 1081SOL     OW14878   3.757   1.757   9.861 -0.2417  0.4410 -0.2175
 1081SOL    HW114879   3.686   1.749   9.925 -0.2794 -0.8401 -0.4133
 1081SOL    HW214880   3.793   1.669   9.864  1.2372  1.0780  0.5390
 1082SOL     OW14881   1.230   0.658   6.742 -0.1273  0.4862  0.0676
 1082SOL    HW114882   1.251   0.598   6.814  0.3141 -0.2792 -0.7111
 1082SOL    HW214883   1.134   0.663   6.744 -0.1643 -0.3258  0.3270
 1083SOL     OW14884   2.704   4.374   9.188 -0.4987 -0.4790  0.4234
 1083SOL    HW114885   2.689   4.430   9.265  0.3490 -2.0061  1.6953
 1083SOL    HW214886   2.661   4.431   9.125  0.5196  0.2117  0.3441
 1084SOL     OW14887   4.007   0.186   1.089 -0.0385  0.1687  0.4628
 1084SOL    HW114888   4.098   0.155   1.084  0.0350  0.4604 -0.0442
 1084SOL    HW214889   4.007   0.199   1.184 -1.8280 -2.4087  0.8086
 1085SOL     OW14890   0.495   0.299   8.476  0.5049 -0.0465  0.1423
 1085SOL    HW114891   0.407   0.334   8.480  0.8274  0.7164  0.6463
 1085SOL    HW214892   0.506   0.273   8.568  2.9641  0.4623  0.0088
 1086SOL     OW14893   3.480   1.586  10.827 -0.0234  0.3055 -0.2027
 1086SOL    HW114894   3.490   1.563  10.920 -1.4049  1.2106  0.1670
 1086SOL    HW214895   3.534   1.516  10.791 -0.0629 -0.0907  0.5000
 1087SOL     OW14896   3.137   4.114   1.985  0.1702 -0.0981 -0.1415
 1087SOL    HW114897   3.217   4.167   1.983  1.4240 -1.9995 -0.0459
 1087SOL    HW214898   3.147   4.078   1.897  1.7332  4.0482 -1.6410
 1088SOL     OW14899   1.821   1.485   3.253 -0.0291  0.2358  0.2122
 1088SOL    HW114900   1.802   1.395   3.278 -0.4858  0.1574 -0.4093
 1088SOL    HW214901   1.881   1.521   3.318  0.4101 -1.9313  0.9902
 1089SOL     OW14902   1.849   1.770   3.952 -0.2571  0.1294  0.0093
 1089SOL    HW114903   1.867   1.691   4.004 -0.2728  0.0585 -0.0922
 1089SOL    HW214904   1.872   1.834   4.019 -1.8610 -0.4282  1.0873
 1090SOL     OW14905   2.550   3.094  14.992  0.1511  0.3541  0.4926
 1090SOL    HW114906   2.538   3.167  15.052  3.8627  0.4483  1.0890
 1090SOL    HW214907   2.642   3.071  15.005 -0.5564 -2.6620  0.0549
 1091SOL     OW14908   1.161   0.550   1.686  0.3276  0.4727  0.3123
 1091SOL    HW114909   1.217   0.473   1.698 -0.9149 -0.3495  0.8215
 1091SOL    HW214910   1.090   0.521   1.629 -0.8089  0.4914  1.7421
 1092SOL     OW14911   1.000   4.001   6.494  0.8051 -0.0089  0.0607
 1092SOL    HW114912   0.978   3.976   6.584 -0.6586 -0.1195 -0.3162
 1092SOL    HW214913   1.054   4.079   6.506  1.1487 -0.3023  0.4097
 1093SOL     OW14914   3.162   3.130   3.382 -0.7878  0.2457 -0.1343
 1093SOL    HW114915   3.257   3.134   3.388 -0.8406  2.1349 -0.3637
 1093SOL    HW214916   3.154   3.113   3.288 -1.2416  1.2087 -0.2749
 1094SOL     OW14917   1.740   4.331   9.270  0.1922 -0.0041 -0.3956
 1094SOL    HW114918   1.681   4.280   9.325  0.2432  0.1267 -0.2204
 1094SOL    HW214919   1.786   4.385   9.335 -0.8857 -0.2151  0.5487
 1095SOL     OW14920   3.364   3.287   5.419  0.4008  0.5803 -0.1497
 1095SOL    HW114921   3.371   3.311   5.512 -2.2899  0.8410 -0.0130
 1095SOL    HW214922   3.270   3.293   5.401  0.1097 -3.1057  0.1695
 1096SOL     OW14923   4.082   2.362  11.936  0.0937  0.0848  0.1101
 1096SOL    HW114924   4.058   2.270  11.938  1.6978 -0.4218 -2.8642
 1096SOL    HW214925   4.159   2.347  11.880  1.5527  0.7147  1.9527
 1097SOL     OW14926   2.764   2.133   6.225  0.4605 -0.3639  0.8916
 1097SOL    HW114927   2.826   2.086   6.170 -0.1942  0.0217 -0.1812
 1097SOL    HW214928   2.823   2.176   6.287 -1.8584  3.3938  0.5267
 1098SOL     OW14929   0.593   3.277   9.106  0.0722 -0.0714  0.1156
 1098SOL    HW114930   0.655   3.250   9.173  0.0749  0.8853  0.5021
 1098SOL    HW214931   0.646   3.307   9.032  0.4083  2.2870  1.3235
 1099SOL     OW14932   3.014   1.615   9.495  0.2954  0.0627  0.2805
 1099SOL    HW114933   2.941   1.642   9.550 -0.6942  1.1830 -1.5835
 1099SOL    HW214934   3.047   1.532   9.530 -3.2807 -1.4262  0.0294
 1100SOL     OW14935   1.310   0.514   5.409  0.3120 -0.0672  0.0742
 1100SOL    HW114936   1.317   0.545   5.499 -0.9038 -0.0419  0.1653
 1100SOL    HW214937   1.301   0.419   5.420 -4.4775  0.4070  0.4112
 1101SOL     OW14938   1.187   1.256   4.190 -0.4587  0.2163 -0.1204
 1101SOL    HW114939   1.201   1.314   4.115 -0.0911  1.9572  1.2918
 1101SOL    HW214940   1.264   1.201   4.178 -0.4058  0.5476 -1.3287
 1102SOL     OW14941   4.355   1.858   6.992 -0.6690  0.1322  0.2693
 1102SOL    HW114942   4.388   1.933   7.042 -1.7533  1.3675 -0.8619
 1102SOL    HW214943   4.294   1.910   6.940 -0.1177  1.5001  0.9879
 1103SOL     OW14944   4.703   4.225   3.000 -0.0438  0.3842 -0.0102
 1103SOL    HW114945   4.678   4.218   2.908  2.4944  1.0563 -0.7276
 1103SOL    HW214946   4.701   4.137   3.037 -1.2989  0.0936 -0.7642
 1104SOL     OW14947   2.232   2.709   8.883 -0.3091 -0.0674 -0.2296
 1104SOL    HW114948   2.149   2.701   8.836  1.8445  4.2275 -4.7296
 1104SOL    HW214949   2.210   2.781   8.942 -0.8574 -0.5658  0.1706
 1105SOL     OW14950   0.531   1.710   2.113 -0.2773  0.3955  0.3639
 1105SOL    HW114951   0.505   1.619   2.098  2.3779  0.2667 -3.5977
 1105SOL    HW214952   0.555   1.750   2.029 -2.0435  1.0183  0.1442
 1106SOL     OW14953   1.408   2.890  17.114  0.2435 -0.7068  0.3677
 1106SOL    HW114954   1.504   2.895  17.113  0.1824  0.6924  1.1218
 1106SOL    HW214955   1.394   2.870  17.021  1.6306  1.9474 -0.4259
 1107SOL     OW14956   4.623   4.599   2.920 -0.1451 -0.1061  0.3693
 1107SOL    HW114957   4.593   4.605   2.829 -1.4916  0.1369  0.8398
 1107SOL    HW214958   4.564   4.532   2.952  1.4982 -1.0440  1.4431
 1108SOL     OW14959   2.243   4.175   0.919 -0.2450  0.1153  0.1216
 1108SOL    HW114960   2.264   4.084   0.940 -1.1293 -0.1626 -0.2023
 1108SOL    HW214961   2.313   4.221   0.967 -0.5979  1.6870 -0.8551
 1109SOL     OW14962   1.444   3.101   6.451 -0.2128  0.3535  0.4693
 1109SOL    HW114963   1.511   3.078   6.387 -0.4578  0.9059  0.0210
 1109SOL    HW214964   1.402   3.162   6.391 -0.8914  0.2696  0.8643
 1110SOL     OW14965   4.321   0.699   8.353 -0.2810 -0.0414  0.3718
 1110SOL    HW114966   4.282   0.651   8.426 -2.3031  1.6743  0.4205
 1110SOL    HW214967   4.411   0.699   8.386  0.2332 -0.2186 -1.0267
 1111SOL     OW14968   3.200   0.047   5.585 -0.3195  0.0105 -0.3982
 1111SOL    HW114969   3.190   4.719   5.654  0.8193 -1.9766 -2.1343
 1111SOL    HW214970   3.185   4.734   5.506  0.6099  0.6624 -0.9954
 1112SOL     OW14971   1.225   3.470   6.362 -0.0500  0.9662 -0.0102
 1112SOL    HW114972   1.162   3.522   6.312  0.5674  2.3045  0.6095
 1112SOL    HW214973   1.177   3.471   6.444 -2.4665 -0.5331 -1.3983
 1113SOL     OW14974   0.239   2.557   7.847  0.2591  0.0480 -0.0445
 1113SOL    HW114975   0.324   2.525   7.877 -0.7735 -2.0154  0.7207
 1113SOL    HW214976   0.187   2.479   7.869 -0.3521  0.4148 -0.1911
 1114SOL     OW14977   0.351   2.998   2.637 -0.2263  0.1615 -0.8464
 1114SOL    HW114978   0.309   3.034   2.560 -0.5213 -0.1775 -0.8440
 1114SOL    HW214979   0.378   3.072   2.691 -1.0920 -1.1714  1.4113
 1115SOL     OW14980   0.606   1.594  10.780  0.1261  0.3604  0.2690
 1115SOL    HW114981   0.511   1.585  10.772  0.3638 -2.0186  0.0583
 1115SOL    HW214982   0.636   1.511  10.743  1.5370  1.5589 -1.3080
 1116SOL     OW14983   1.391   4.537   4.906 -0.3040  0.0644  1.0159
 1116SOL    HW114984   1.342   4.602   4.855  0.7015 -0.6038 -0.8324
 1116SOL    HW214985   1.334   4.462   4.921 -0.1313 -0.4925 -1.0524
 1117SOL     OW14986   2.052   2.731   1.378  0.3502 -0.3065 -0.1131
 1117SOL    HW114987   2.099   2.689   1.306 -0.0298 -2.3362  0.8024
 1117SOL    HW214988   2.084   2.821   1.378  1.3545 -0.6573  0.4020
 1118SOL     OW14989   0.871   1.037  14.828  0.0267  0.3297  0.1228
 1118SOL    HW114990   0.810   1.111  14.834  0.0961  0.2734  1.4402
 1118SOL    HW214991   0.840   0.975  14.893  2.2132 -0.9036 -0.0102
 1119SOL     OW14992   2.660   1.134   3.270 -0.2173 -0.1568 -0.1657
 1119SOL    HW114993   2.627   1.099   3.187 -0.3657  1.2189 -0.6833
 1119SOL    HW214994   2.744   1.092   3.288  0.0669  0.5759  0.2389
 1120SOL     OW14995   3.388   1.752   7.399  0.7740 -0.7432  0.3234
 1120SOL    HW114996   3.439   1.671   7.406  1.8288 -0.0687  0.3674
 1120SOL    HW214997   3.421   1.790   7.317  1.4242 -1.0041  0.4670
 1121SOL     OW14998   0.356   2.535   9.115 -0.1835  0.2124 -0.4341
 1121SOL    HW114999   0.275   2.558   9.068 -0.8312  0.6502  0.8845
 1121SOL    HW215000   0.342   2.593   9.189 -0.4692 -0.0912 -0.2501
 1122SOL     OW15001   0.982   0.381   8.691 -0.1096 -0.4568  0.2154
 1122SOL    HW115002   1.077   0.393   8.692  0.0965 -2.0709 -0.1973
 1122SOL    HW215003   0.977   0.385   8.786  2.4239  1.4487  0.2638
 1123SOL     OW15004   4.588   1.163   1.155  0.3756 -0.1079  0.2679
 1123SOL    HW115005   4.624   1.082   1.192  1.1233  0.8382  1.5894
 1123SOL    HW215006   4.598   1.147   1.061  3.2985  1.3959  0.3307
 1124SOL     OW15007   0.919   2.365  13.903  0.1952 -0.4652  0.2257
 1124SOL    HW115008   0.919   2.449  13.948  2.9605 -0.7227  0.6968
 1124SOL    HW215009   1.009   2.331  13.897 -0.0845 -0.8113 -2.1246
 1125SOL     OW15010   3.563   4.432   2.007 -0.5135 -0.0329 -0.4655
 1125SOL    HW115011   3.590   4.511   2.053 -2.4871  0.4277 -0.0982
 1125SOL    HW215012   3.598   4.373   2.074  3.3016 -0.6560 -2.9844
 1126SOL     OW15013   1.368   1.206   3.816 -0.0575  0.3875  0.0418
 1126SOL    HW115014   1.426   1.273   3.780  0.8782 -0.4703 -0.0334
 1126SOL    HW215015   1.354   1.231   3.908 -0.1491  0.0946  0.1058
 1127SOL     OW15016   0.168   0.966   4.327  0.1355  0.1403 -0.5336
 1127SOL    HW115017   0.192   0.962   4.234 -0.3408 -2.0421 -0.5736
 1127SOL    HW215018   0.245   0.924   4.365 -0.8646 -0.9166  0.3325
 1128SOL     OW15019   1.888   0.311   2.213  0.1514  0.2054  0.2510
 1128SOL    HW115020   1.908   0.388   2.267 -0.8299  0.6735 -0.0491
 1128SOL    HW215021   1.914   0.335   2.125 -1.9622 -2.3697 -1.0674
 1129SOL     OW15022   4.053   1.074  11.370  0.0005  0.2586 -0.2816
 1129SOL    HW115023   4.063   1.127  11.291 -0.1859 -0.4951 -0.8093
 1129SOL    HW215024   3.972   1.113  11.402  0.2889  0.1774  0.5488
 1130SOL     OW15025   0.822   0.662   3.895  0.0656  0.2303  0.2385
 1130SOL    HW115026   0.806   0.578   3.937 -0.9357 -0.4052 -1.3792
 1130SOL    HW215027   0.856   0.716   3.966  0.3726  0.2163  0.1032
 1131SOL     OW15028   1.570   0.017   5.612 -0.1646 -0.4689 -0.1028
 1131SOL    HW115029   1.578   0.112   5.627 -0.5116 -0.3455 -0.7234
 1131SOL    HW215030   1.586   0.014   5.518  0.3727  1.5018 -0.0794
 1132SOL     OW15031   3.036   1.855   2.300  0.2370  0.1280  0.0485
 1132SOL    HW115032   2.973   1.866   2.229  0.7791 -2.4506 -0.8401
 1132SOL    HW215033   3.066   1.946   2.291 -1.0425  0.5251 -0.1525
 1133SOL     OW15034   1.419   4.248  16.834 -0.0912 -0.0900 -0.2636
 1133SOL    HW115035   1.437   4.297  16.753 -0.4750  1.0548  0.3425
 1133SOL    HW215036   1.323   4.257  16.839 -0.1220 -1.4853  1.5660
 1134SOL     OW15037   1.726   4.553  17.568  0.0526 -0.1932 -0.0066
 1134SOL    HW115038   1.781   4.482  17.533  2.2110  0.2882  2.4020
 1134SOL    HW215039   1.721   4.536  17.661 -2.3212  1.3089  0.1378
 1135SOL     OW15040   0.957   1.520   6.066  0.6656 -0.1459 -0.3820
 1135SOL    HW115041   1.022   1.586   6.041  0.6660  0.9328  2.5206
 1135SOL    HW215042   0.933   1.552   6.153 -1.3896 -1.0435 -0.6192
 1136SOL     OW15043   1.385   3.554   7.307 -0.2250 -0.9735 -0.6813
 1136SOL    HW115044   1.344   3.561   7.221 -1.9462  0.4790  0.2573
 1136SOL    HW215045   1.454   3.493   7.280  1.4681  0.4710  0.3993
 1137SOL     OW15046   3.049   3.151   0.710 -0.1925  0.6238 -0.4611
 1137SOL    HW115047   3.011   3.152   0.798  0.2876 -1.3216 -0.2159
 1137SOL    HW215048   2.974   3.180   0.659 -0.6619  0.8919  0.3758
 1138SOL     OW15049   0.226   3.292   8.311  0.3779 -0.2749 -0.1702
 1138SOL    HW115050   0.132   3.305   8.321  0.4844  0.3727  0.0582
 1138SOL    HW215051   0.256   3.316   8.399 -0.5246  0.4204 -0.0429
 1139SOL     OW15052   3.124   0.484   2.188 -0.2049  0.3375  1.0212
 1139SOL    HW115053   3.073   0.460   2.265  0.3935 -0.9202  1.0340
 1139SOL    HW215054   3.117   0.410   2.127  0.1044  2.8471 -2.1068
 1140SOL     OW15055   2.014   2.422  15.241  0.5124 -0.2723 -0.2478
 1140SOL    HW115056   2.064   2.465  15.173 -0.9565  0.2897 -0.9801
 1140SOL    HW215057   1.939   2.482  15.243  0.9670  0.2163  2.0716
 1141SOL     OW15058   1.669   3.031   4.214 -0.1619 -0.0408  0.3378
 1141SOL    HW115059   1.706   3.116   4.191  0.6701 -1.0024 -1.8793
 1141SOL    HW215060   1.716   3.001   4.292  0.3297  1.5473  0.6564
 1142SOL     OW15061   2.722   3.340   1.187 -0.0659  0.9478 -0.0133
 1142SOL    HW115062   2.656   3.376   1.128  1.2383  3.0262 -0.1797
 1142SOL    HW215063   2.713   3.400   1.261 -0.3165 -0.1523  0.8570
 1143SOL     OW15064   0.372   3.232   9.494 -0.1819 -0.0335  0.1310
 1143SOL    HW115065   0.419   3.149   9.483 -0.9994 -0.4338 -0.3168
 1143SOL    HW215066   0.360   3.264   9.404 -0.8815 -0.2160  0.1637
 1144SOL     OW15067   3.976   3.187   3.638 -0.6875  0.0594 -0.3869
 1144SOL    HW115068   3.948   3.216   3.725 -0.7419 -1.1378 -0.0033
 1144SOL    HW215069   3.898   3.137   3.614 -0.6141  0.6329 -1.7799
 1145SOL     OW15070   1.090   3.472  15.881  0.8342 -0.1187  0.2504
 1145SOL    HW115071   1.005   3.475  15.837  1.0914 -2.0210 -0.3800
 1145SOL    HW215072   1.144   3.454  15.804  0.4146 -3.0594  0.6461
 1146SOL     OW15073   2.705   3.721   2.723  0.1916  0.1710 -0.4896
 1146SOL    HW115074   2.754   3.748   2.801 -0.3589 -3.2322  1.0373
 1146SOL    HW215075   2.677   3.631   2.743  0.3998 -0.0718 -1.2897
 1147SOL     OW15076   3.043   0.384  12.793 -0.5684  0.4684  0.2382
 1147SOL    HW115077   2.978   0.428  12.738 -2.3240 -2.6942 -0.2154
 1147SOL    HW215078   3.098   0.450  12.835 -0.5512  0.8799 -0.4401
 1148SOL     OW15079   1.511   3.413   3.032 -0.0937 -0.1935 -0.5311
 1148SOL    HW115080   1.554   3.452   3.108  0.1841 -0.3415 -0.6117
 1148SOL    HW215081   1.444   3.356   3.071 -0.3404  0.3769 -0.1331
 1149SOL     OW15082   3.280   0.000   7.107 -0.8128 -0.1620  0.1859
 1149SOL    HW115083   3.372   0.023   7.123 -0.7304  0.0243 -0.5809
 1149SOL    HW215084   3.274   4.711   7.016 -3.1368 -2.4039  1.0222
 1150SOL     OW15085   1.931   3.262   6.810  0.0982 -0.4509 -0.2159
 1150SOL    HW115086   1.840   3.253   6.781 -0.2538 -0.3461  0.8416
 1150SOL    HW215087   1.967   3.174   6.798  0.0997 -0.2774 -1.5090
 1151SOL     OW15088   3.833   1.095   3.224 -0.4512  0.0498 -0.1300
 1151SOL    HW115089   3.827   1.050   3.140  1.7936  0.9739 -0.7947
 1151SOL    HW215090   3.914   1.060   3.262 -0.6939 -0.0413  0.3023
 1152SOL     OW15091   2.150   3.071   4.750  0.1933 -0.1965  0.8373
 1152SOL    HW115092   2.081   3.011   4.724  0.5855 -0.3821  0.2381
 1152SOL    HW215093   2.184   3.027   4.828  0.6257 -1.6770 -0.1957
 1153SOL     OW15094   0.579   2.667  13.774  0.2569  0.2052 -0.0729
 1153SOL    HW115095   0.600   2.748  13.819  1.1692 -0.1236  0.0990
 1153SOL    HW215096   0.669   2.634  13.770  0.0885 -0.2105 -0.4633
 1154SOL     OW15097   4.510   0.997   2.532  0.0366  0.5188  0.2418
 1154SOL    HW115098   4.432   0.983   2.478  0.6351 -2.2481  0.1032
 1154SOL    HW215099   4.547   0.908   2.533  0.4862  0.6804 -1.5156
 1155SOL     OW15100   0.211   3.629   5.674  0.5782 -0.2585 -0.1509
 1155SOL    HW115101   0.132   3.579   5.691  0.3180  0.1692 -0.0924
 1155SOL    HW215102   0.251   3.587   5.599 -2.4710 -1.2989 -1.1845
 1156SOL     OW15103   0.608   1.648   2.686  0.4755  0.7367 -0.0887
 1156SOL    HW115104   0.517   1.643   2.658  0.7597 -1.6455 -0.5654
 1156SOL    HW215105   0.654   1.625   2.605  2.8992 -0.4030  1.5917
 1157SOL     OW15106   2.316   4.271   7.904 -0.5477 -0.2728 -0.3952
 1157SOL    HW115107   2.250   4.214   7.944 -0.5090 -0.1205 -0.1095
 1157SOL    HW215108   2.269   4.354   7.900  0.0187  0.1678  1.9446
 1158SOL     OW15109   0.213   1.677  13.252  0.0251  0.0794  0.1298
 1158SOL    HW115110   0.270   1.607  13.284 -0.3633  0.9334  2.7291
 1158SOL    HW215111   0.263   1.722  13.184  0.0674 -0.0810  0.0547
 1159SOL     OW15112   2.917   4.086  10.650 -0.8145 -0.5216  0.1828
 1159SOL    HW115113   2.856   4.083  10.576 -1.8428  1.1607  0.9575
 1159SOL    HW215114   2.919   3.991  10.663 -1.6498 -0.5316  0.2310
 1160SOL     OW15115   3.545   3.146   5.024  0.4095 -0.0866  0.7439
 1160SOL    HW115116   3.623   3.178   5.070  0.6173 -0.3447  0.5712
 1160SOL    HW215117   3.505   3.099   5.097  1.3055  0.8527  1.8513
 1161SOL     OW15118   0.543   2.647  12.215 -0.3576 -0.5661  0.2080
 1161SOL    HW115119   0.541   2.563  12.170 -1.8167  0.6440 -2.0056
 1161SOL    HW215120   0.637   2.659  12.226  0.2584 -4.3308 -1.2329
 1162SOL     OW15121   4.225   4.432   2.523 -0.7954 -0.4718  0.0736
 1162SOL    HW115122   4.271   4.461   2.602  0.1928 -0.9388 -0.3258
 1162SOL    HW215123   4.274   4.354   2.497 -0.3638 -0.1175 -0.1781
 1163SOL     OW15124   4.721   0.206   8.202 -0.5068  1.2463  0.5497
 1163SOL    HW115125   0.052   0.182   8.141  0.7419  2.0514  1.6512
 1163SOL    HW215126   0.026   0.280   8.246  0.8962  0.8554 -0.1869
 1164SOL     OW15127   0.270   4.652   9.137 -0.2610  0.3039 -0.2384
 1164SOL    HW115128   0.225   4.686   9.214  0.5287 -0.7132  0.6623
 1164SOL    HW215129   0.284   4.736   9.092 -2.8297  1.4337  1.0229
 1165SOL     OW15130   3.061   4.104   5.646 -0.5009 -0.4529 -0.0818
 1165SOL    HW115131   3.080   4.164   5.718 -0.0991 -2.2581  1.2890
 1165SOL    HW215132   3.009   4.151   5.581 -1.1718 -0.2577  0.5996
 1166SOL     OW15133   2.394   4.304   1.878 -0.6973  0.0239  0.1998
 1166SOL    HW115134   2.419   4.223   1.833 -1.2231  0.1583 -0.3403
 1166SOL    HW215135   2.317   4.333   1.828 -0.9115 -0.4877  0.2268
 1167SOL     OW15136   2.386   1.497   8.050  0.1492  0.2178 -0.1815
 1167SOL    HW115137   2.354   1.584   8.075  0.4534  0.4487 -0.5902
 1167SOL    HW215138   2.302   1.452   8.046  1.7520 -2.8759  1.1632
 1168SOL     OW15139   2.034   4.219   7.749 -0.9064 -0.4001  0.1794
 1168SOL    HW115140   2.015   4.288   7.686  0.1824 -0.4068 -0.1656
 1168SOL    HW215141   2.091   4.165   7.694 -1.5851  0.4423 -1.3488
 1169SOL     OW15142   2.388   2.754   4.771  0.3808  0.0960 -0.5693
 1169SOL    HW115143   2.440   2.745   4.851 -1.5551  0.1818  0.6979
 1169SOL    HW215144   2.300   2.766   4.808 -0.2531  0.5608 -2.2183
 1170SOL     OW15145   3.884   4.328   2.824  0.6649 -0.2136  0.1806
 1170SOL    HW115146   3.789   4.325   2.833  0.5573 -0.0395 -0.9391
 1170SOL    HW215147   3.897   4.235   2.844 -3.6208 -0.5381  1.4509
 1171SOL     OW15148   1.048   3.265   3.514 -0.5226  0.1874 -0.4140
 1171SOL    HW115149   0.977   3.312   3.470  1.4002  2.5773 -0.9958
 1171SOL    HW215150   1.092   3.342   3.550  0.1000 -0.3966  0.0510
 1172SOL     OW15151   4.570   4.585   9.250 -0.6968  0.1305 -0.5898
 1172SOL    HW115152   4.563   4.614   9.341  3.7845 -1.3327  0.2247
 1172SOL    HW215153   4.577   4.492   9.270 -1.2884  0.1957 -0.1017
 1173SOL     OW15154   3.361   0.568  14.939  0.3335  0.1606 -0.8709
 1173SOL    HW115155   3.395   0.597  14.855 -2.0145  1.0827 -1.5140
 1173SOL    HW215156   3.438   0.592  14.990  0.8084 -1.1409 -0.9777
 1174SOL     OW15157   0.312   3.088   3.072 -0.1025  0.3332 -0.2783
 1174SOL    HW115158   0.331   3.063   3.163 -0.2996 -1.2745 -0.6889
 1174SOL    HW215159   0.237   3.032   3.052  1.0765 -0.9775 -0.9992
 1175SOL     OW15160   3.330   0.226   6.761 -0.2710  0.6243  0.2991
 1175SOL    HW115161   3.425   0.217   6.762 -0.3825 -0.4520  2.4202
 1175SOL    HW215162   3.305   0.140   6.795  0.4861  1.2612  2.4211
 1176SOL     OW15163   0.848   2.894   3.443  0.6629 -0.0556 -0.4930
 1176SOL    HW115164   0.762   2.883   3.484  2.2416 -0.0098  2.8427
 1176SOL    HW215165   0.837   2.982   3.409  0.2284 -0.5406 -1.5954
 1177SOL     OW15166   4.064   1.715  17.573  0.0721 -0.5565  0.3518
 1177SOL    HW115167   4.033   1.779  17.509 -2.3387 -0.7952  1.2933
 1177SOL    HW215168   4.120   1.772  17.627 -0.5810 -0.9712  1.4589
 1178SOL     OW15169   1.472   3.147   2.432  0.2365 -0.5388  0.3996
 1178SOL    HW115170   1.517   3.170   2.514  1.9228 -3.6928  0.3248
 1178SOL    HW215171   1.485   3.053   2.444  0.7701 -0.5035  0.0913
 1179SOL     OW15172   0.512   4.550   6.297 -0.5629 -0.7272 -0.5798
 1179SOL    HW115173   0.474   4.590   6.375  1.5411  0.2546 -0.0631
 1179SOL    HW215174   0.569   4.622   6.270 -0.7416 -0.6691 -0.8044
 1180SOL     OW15175   0.703   2.820  14.540  0.0834  0.0127  0.0137
 1180SOL    HW115176   0.618   2.804  14.581 -1.2311 -0.5714 -2.9291
 1180SOL    HW215177   0.667   2.829  14.452  1.2231  0.2015 -0.4326
 1181SOL     OW15178   1.430   3.549  15.269  0.0256  0.7329 -0.0114
 1181SOL    HW115179   1.465   3.465  15.296 -0.2442  1.4433  2.5108
 1181SOL    HW215180   1.336   3.553  15.288 -0.1932 -0.9933 -0.7191
 1182SOL     OW15181   2.195   0.504   2.611 -0.0929 -0.6552 -0.4883
 1182SOL    HW115182   2.252   0.446   2.662  0.5055 -0.7708 -1.2753
 1182SOL    HW215183   2.132   0.441   2.576 -0.7346 -0.4562  0.3029
 1183SOL     OW15184   0.393   0.829  11.759  0.4550  0.2566 -0.1820
 1183SOL    HW115185   0.482   0.809  11.729  1.3492 -1.7496  3.8230
 1183SOL    HW215186   0.418   0.858  11.847  0.5295 -0.5168  0.0470
 1184SOL     OW15187   4.246   1.383   8.213  0.2892 -0.7723  0.7392
 1184SOL    HW115188   4.217   1.314   8.272 -2.5683  0.1588  0.4043
 1184SOL    HW215189   4.209   1.462   8.251  0.4170  0.1170 -0.9961
 1185SOL     OW15190   1.765   4.632   6.478 -0.5241  0.4737 -0.1582
 1185SOL    HW115191   1.755   4.572   6.551 -3.1912  0.7358 -0.3083
 1185SOL    HW215192   1.734   4.717   6.510  0.3597  1.1373 -1.0369
 1186SOL     OW15193   0.887   3.845   1.558  0.3320  0.5082  0.4828
 1186SOL    HW115194   0.823   3.800   1.613  2.6081 -1.1483  1.7358
 1186SOL    HW215195   0.956   3.860   1.621  1.9690 -1.0310 -0.9562
 1187SOL     OW15196   4.680   0.583   6.159 -0.2462  0.4971 -0.1792
 1187SOL    HW115197   4.611   0.532   6.202 -0.1377  0.0635 -0.5222
 1187SOL    HW215198   0.020   0.549   6.201 -0.7865  0.7865  1.0694
 1188SOL     OW15199   3.864   0.328   4.891 -0.6358 -0.7942 -0.1682
 1188SOL    HW115200   3.796   0.263   4.872 -1.9840  0.7273 -0.5788
 1188SOL    HW215201   3.912   0.318   4.809  1.4281  1.1981  0.7724
 1189SOL     OW15202   4.713   4.679   9.009 -0.1700  0.6363 -0.0165
 1189SOL    HW115203   4.711   4.634   9.093 -0.5852 -1.0379 -0.9354
 1189SOL    HW215204   4.695   0.030   9.040  1.3640  0.4250  1.4985
 1190SOL     OW15205   4.183   0.801  17.482  0.5094  0.1946  0.2948
 1190SOL    HW115206   4.168   0.852  17.561 -0.7944  1.0802 -0.5176
 1190SOL    HW215207   4.257   0.746  17.509  0.3392 -0.1573  0.0527
 1191SOL     OW15208   3.589   2.277   7.044 -0.2271  0.0677  0.0060
 1191SOL    HW115209   3.665   2.219   7.042 -0.6503 -0.3588 -2.6911
 1191SOL    HW215210   3.598   2.341   6.974 -0.7652  1.0218  0.8120
 1192SOL     OW15211   3.014   3.052   2.894  0.7073 -0.6787 -0.0642
 1192SOL    HW115212   2.926   3.058   2.930  0.7480  2.4007 -0.4602
 1192SOL    HW215213   2.981   3.041   2.805  1.0910 -1.8320 -0.0542
 1193SOL     OW15214   0.606   0.389   6.916  0.4077  0.0093  0.5302
 1193SOL    HW115215   0.635   0.412   7.005  1.6637  2.2891 -0.4860
 1193SOL    HW215216   0.680   0.411   6.860  2.2324 -2.8645  1.7599
 1194SOL     OW15217   1.468   2.660   2.591  0.0025  0.4943 -0.6530
 1194SOL    HW115218   1.435   2.691   2.675 -0.3412 -1.5233 -0.0400
 1194SOL    HW215219   1.426   2.575   2.601  1.1779  0.1364  1.0914
 1195SOL     OW15220   0.547   0.027  15.466 -0.4151  0.1796  0.1341
 1195SOL    HW115221   0.633   0.007  15.503 -0.0338  0.3329 -0.6577
 1195SOL    HW215222   0.564   0.017  15.372 -2.3497  2.2302 -0.4539
 1196SOL     OW15223   1.347   2.487   3.952  0.1244  0.1735 -0.1458
 1196SOL    HW115224   1.313   2.476   3.863 -3.1512 -2.0008  1.3572
 1196SOL    HW215225   1.421   2.427   3.960 -0.7277 -0.7619  0.8313
 1197SOL     OW15226   3.678   2.976   7.106 -0.3322  0.0450  0.4965
 1197SOL    HW115227   3.583   2.971   7.096 -0.2725  1.5816 -0.7890
 1197SOL    HW215228   3.708   2.888   7.084 -0.3941  0.6906 -2.0687
 1198SOL     OW15229   2.059   1.190   5.407 -0.8092  0.7171  0.6938
 1198SOL    HW115230   2.042   1.142   5.326  1.0953  0.2081  0.6014
 1198SOL    HW215231   2.001   1.140   5.465  0.1640 -0.4291  0.6709
 1199SOL     OW15232   2.365   2.703   3.687 -0.0272 -0.4637 -0.2092
 1199SOL    HW115233   2.407   2.620   3.661 -0.1386 -1.2391  2.0355
 1199SOL    HW215234   2.401   2.717   3.775  0.0233  0.3631 -0.3689
 1200SOL     OW15235   0.124   4.347   1.462  0.3295 -0.1299  0.3815
 1200SOL    HW115236   0.179   4.309   1.394 -0.7159 -0.7060 -0.1491
 1200SOL    HW215237   0.187   4.360   1.533  0.6047  1.0527 -0.0939
 1201SOL     OW15238   2.754   4.587  10.071 -0.0754 -0.2419  0.0817
 1201SOL    HW115239   2.798   4.625  10.147 -2.7351  1.3020  0.8397
 1201SOL    HW215240   2.705   4.513  10.107  0.7583 -1.1220 -0.6057
 1202SOL     OW15241   1.070   1.226   5.250 -0.0571  0.3796  0.1774
 1202SOL    HW115242   1.072   1.284   5.326  2.1985  0.2182  0.2415
 1202SOL    HW215243   0.984   1.234   5.208 -0.0181 -0.9944 -0.1528
 1203SOL     OW15244   2.341   4.423   8.434 -0.0921  0.4300  0.3721
 1203SOL    HW115245   2.358   4.356   8.368 -2.9699  0.6381 -0.5468
 1203SOL    HW215246   2.417   4.416   8.493 -0.4956 -4.1781  0.3196
 1204SOL     OW15247   0.714   0.560   7.942  0.5350 -0.4501  0.2002
 1204SOL    HW115248   0.769   0.483   7.934  1.7852  0.4713 -0.1236
 1204SOL    HW215249   0.773   0.630   7.913  0.1398 -1.1480 -2.2475
 1205SOL     OW15250   3.754   1.371  12.359 -0.1091  0.3847  0.3897
 1205SOL    HW115251   3.681   1.432  12.357  0.4162  1.0093  0.0719
 1205SOL    HW215252   3.779   1.376  12.452 -0.6593  0.0805  0.5489
 1206SOL     OW15253   2.167   3.169   3.575  0.3747  0.2155 -0.1580
 1206SOL    HW115254   2.157   3.125   3.490 -1.1224  1.5747 -0.6897
 1206SOL    HW215255   2.259   3.149   3.590  0.6109  0.5898 -1.1126
 1207SOL     OW15256   4.567   0.478  17.562 -0.2866  0.6822  0.9096
 1207SOL    HW115257   4.519   0.552  17.525  1.8185  1.5370 -0.1398
 1207SOL    HW215258   4.652   0.523  17.559  1.4214 -2.6877 -1.3638
 1208SOL     OW15259   1.717   0.462   5.007 -0.8678  0.0187 -0.2225
 1208SOL    HW115260   1.681   0.530   5.064  0.3600 -0.4571  1.1125
 1208SOL    HW215261   1.710   0.392   5.072 -1.0315  1.7250  1.5628
 1209SOL     OW15262   3.095   0.595   3.690  0.0386 -0.1670 -0.5675
 1209SOL    HW115263   3.047   0.539   3.628 -0.1768  0.2931 -0.8156
 1209SOL    HW215264   3.037   0.591   3.766 -0.2761  0.6994 -0.7666
 1210SOL     OW15265   1.064   0.860   9.348 -0.6827 -0.3698 -0.3637
 1210SOL    HW115266   1.079   0.954   9.362  0.2201 -0.0983 -3.2271
 1210SOL    HW215267   0.969   0.855   9.337 -0.9003  0.8635  0.8280
 1211SOL     OW15268   1.390   2.806   0.924  0.0546  0.7399 -0.4843
 1211SOL    HW115269   1.434   2.820   1.008  0.0905 -1.5950 -0.1326
 1211SOL    HW215270   1.441   2.732   0.892 -0.1893  0.5396 -0.4128
 1212SOL     OW15271   2.680   0.828   6.847  0.4232 -0.0244  1.0967
 1212SOL    HW115272   2.718   0.829   6.759 -0.3182 -0.3697  0.7795
 1212SOL    HW215273   2.627   0.907   6.844  0.1475 -0.3611 -2.7095
 1213SOL     OW15274   2.514   4.147   7.777 -0.1862  0.0978 -0.0373
 1213SOL    HW115275   2.509   4.057   7.809  1.9286 -0.4799 -1.2951
 1213SOL    HW215276   2.449   4.183   7.837  1.0433 -1.7213  2.4123
 1214SOL     OW15277   0.686   1.084   5.060 -0.2633  0.2359 -0.4120
 1214SOL    HW115278   0.635   1.063   4.981 -2.4188  1.4286  0.6494
 1214SOL    HW215279   0.770   1.046   5.035  0.9909  2.7222 -0.0099
 1215SOL     OW15280   1.138   3.086   2.882 -0.2563  0.2428  0.2490
 1215SOL    HW115281   1.124   3.029   2.807  0.0199 -1.4035  1.4626
 1215SOL    HW215282   1.203   3.036   2.931  0.2537  0.7343  0.0790
 1216SOL     OW15283   0.724   4.679   7.759  0.1359 -0.1534  0.4322
 1216SOL    HW115284   0.716   0.036   7.770 -0.7038 -0.2456  0.6618
 1216SOL    HW215285   0.658   4.661   7.692 -0.4569 -2.1422  1.5353
 1217SOL     OW15286   2.646   0.816   1.547  0.5795  0.0485  0.2156
 1217SOL    HW115287   2.613   0.735   1.586  1.3680 -0.3756  0.0188
 1217SOL    HW215288   2.660   0.806   1.453 -0.0874  1.6935 -0.0486
 1218SOL     OW15289   2.262   3.816   9.388 -0.7509 -0.4647  0.5897
 1218SOL    HW115290   2.171   3.844   9.390 -0.7457 -0.3466 -0.4623
 1218SOL    HW215291   2.254   3.724   9.411  1.1261 -0.5528  0.8911
 1219SOL     OW15292   1.106   0.342   4.711  0.4881  0.5062  0.3129
 1219SOL    HW115293   1.184   0.314   4.758  2.5227  1.4753 -2.5253
 1219SOL    HW215294   1.046   0.271   4.736 -1.4360  1.6347 -1.0608
 1220SOL     OW15295   1.032   0.853   2.808 -0.4645  0.0334 -0.2490
 1220SOL    HW115296   1.019   0.881   2.899 -0.5386  1.7981 -0.7991
 1220SOL    HW215297   0.968   0.911   2.767  1.7423  2.4753 -0.2751
 1221SOL     OW15298   0.239   2.246   7.273 -0.3501  0.3171  0.2078
 1221SOL    HW115299   0.144   2.236   7.278 -0.2582 -0.0642  1.3576
 1221SOL    HW215300   0.277   2.171   7.229  0.9429  0.3471  1.2581
 1222SOL     OW15301   1.317   4.120   9.489 -0.1009  0.1431  0.1816
 1222SOL    HW115302   1.280   4.154   9.570 -1.0727 -0.1870 -0.1320
 1222SOL    HW215303   1.253   4.143   9.422  1.0690  1.1568 -0.5983
 1223SOL     OW15304   0.066   1.294   5.717 -0.0163 -0.5309 -0.1757
 1223SOL    HW115305   0.158   1.279   5.697  0.8451  0.2855  3.1583
 1223SOL    HW215306   0.068   1.338   5.802 -0.1967 -0.5830 -0.1445
 1224SOL     OW15307   3.769   3.990   3.123  0.0492  0.0717  0.3995
 1224SOL    HW115308   3.766   3.996   3.027 -0.6755 -0.6572  0.3823
 1224SOL    HW215309   3.758   3.896   3.129 -1.8467  0.3127  0.6436
 1225SOL     OW15310   0.612   3.506   7.946  0.6527  0.2743  0.1652
 1225SOL    HW115311   0.673   3.580   7.954  2.3456 -1.2319  1.1600
 1225SOL    HW215312   0.679   3.439   7.958  0.0321 -0.2898  0.4446
 1226SOL     OW15313   3.444   0.375   2.278 -0.5053 -0.2798 -0.1390
 1226SOL    HW115314   3.480   0.355   2.191 -0.4837  2.0512 -0.6635
 1226SOL    HW215315   3.392   0.453   2.258  0.6957  0.6247  0.2388
 1227SOL     OW15316   1.058   1.962   3.046  0.4471 -0.2455  0.0812
 1227SOL    HW115317   0.971   1.996   3.069  0.3558  0.5185 -1.3857
 1227SOL    HW215318   1.053   1.885   3.103 -1.7452 -0.1020  0.0763
 1228SOL     OW15319   2.600   3.947   2.239  0.3926  0.0365  0.3986
 1228SOL    HW115320   2.634   3.881   2.179  0.3805  0.6813 -0.3260
 1228SOL    HW215321   2.664   3.940   2.310  1.0985  1.6813 -0.0738
 1229SOL     OW15322   2.471   1.544   2.348  0.2045 -0.0039 -0.1373
 1229SOL    HW115323   2.476   1.536   2.253 -1.6348  0.8104 -0.2972
 1229SOL    HW215324   2.393   1.497   2.376  0.0870 -0.0925 -0.6140
 1230SOL     OW15325   2.118   2.846  14.469  0.1776  0.3313  0.3118
 1230SOL    HW115326   2.088   2.928  14.429 -2.2140 -1.0998 -0.8174
 1230SOL    HW215327   2.138   2.878  14.557 -0.1832  0.9847  0.1527
 1231SOL     OW15328   3.506   2.509   1.179 -0.0394 -0.0145 -0.2882
 1231SOL    HW115329   3.569   2.537   1.113 -0.6350 -0.0337 -0.8588
 1231SOL    HW215330   3.517   2.569   1.253 -1.0314 -0.2800  0.0721
 1232SOL     OW15331   2.664   3.864   1.947  0.2926 -0.1803 -0.1011
 1232SOL    HW115332   2.749   3.834   1.913  0.5282  1.2696 -0.7678
 1232SOL    HW215333   2.644   3.788   2.001 -0.7370 -0.8334 -1.3829
 1233SOL     OW15334   4.339   2.848   3.371 -0.7067 -0.0044 -0.1762
 1233SOL    HW115335   4.319   2.832   3.279 -1.3041  0.9082 -0.2064
 1233SOL    HW215336   4.291   2.929   3.388  0.7283  0.9761 -0.7703
 1234SOL     OW15337   4.166   0.227  11.623  0.5544 -0.1560  0.2137
 1234SOL    HW115338   4.155   0.143  11.577  0.2144 -0.9402  1.7204
 1234SOL    HW215339   4.077   0.245  11.654  0.5222  4.2628 -2.4963
 1235SOL     OW15340   1.681   1.369  17.341 -0.0330  0.2095  0.1367
 1235SOL    HW115341   1.717   1.383  17.428 -0.9852  0.3683  0.5034
 1235SOL    HW215342   1.609   1.313  17.369 -0.3877  0.8524  0.5207
 1236SOL     OW15343   1.721   2.221  15.843  0.8007 -0.7555  0.2213
 1236SOL    HW115344   1.709   2.262  15.757 -0.4927  1.9939  1.7085
 1236SOL    HW215345   1.800   2.258  15.882 -0.1477 -0.0499  1.5030
 1237SOL     OW15346   0.708   1.342  10.724 -0.0536  0.5009  0.1028
 1237SOL    HW115347   0.637   1.322  10.785  0.0116  0.5123  0.1832
 1237SOL    HW215348   0.774   1.285  10.762 -0.6994 -0.6014 -0.4191
 1238SOL     OW15349   2.363   3.512   3.852 -0.7720 -0.9128  0.5181
 1238SOL    HW115350   2.349   3.469   3.936  2.5810 -1.3970  0.8360
 1238SOL    HW215351   2.453   3.534   3.875 -1.7894  3.5587  0.2595
 1239SOL     OW15352   2.139   2.763   5.349  0.6744  0.0742  0.1343
 1239SOL    HW115353   2.147   2.701   5.422  1.8345 -2.3104 -2.0475
 1239SOL    HW215354   2.124   2.845   5.397 -0.4473  0.5974 -1.1073
 1240SOL     OW15355   0.748   3.341   8.473  0.2345 -0.1842  0.1870
 1240SOL    HW115356   0.690   3.265   8.473 -1.2023  0.9234 -0.4413
 1240SOL    HW215357   0.677   3.404   8.467 -1.4896 -1.7942  3.4527
 1241SOL     OW15358   1.992   2.587   1.828  0.7505 -0.2177 -0.0178
 1241SOL    HW115359   1.987   2.609   1.921  0.3149  0.5038 -0.2127
 1241SOL    HW215360   2.002   2.494   1.847  1.0423  0.0732  1.2339
 1242SOL     OW15361   1.117   3.618   2.857 -0.4115  0.6513 -0.3701
 1242SOL    HW115362   1.118   3.573   2.772 -1.2184  0.4238 -0.2630
 1242SOL    HW215363   1.167   3.697   2.834  0.9829  0.0652  0.6617
 1243SOL     OW15364   0.548   0.219   9.010  0.0801 -0.5639 -0.5434
 1243SOL    HW115365   0.610   0.195   9.079  0.4539  2.5275  0.1774
 1243SOL    HW215366   0.469   0.180   9.048  0.7731 -0.8391  0.6139
 1244SOL     OW15367   1.025   0.535   5.339 -0.0483 -0.2167  0.3479
 1244SOL    HW115368   1.111   0.529   5.380  0.1692 -1.4633 -0.2748
 1244SOL    HW215369   1.016   0.628   5.360 -0.0596 -0.6003  2.0122
 1245SOL     OW15370   0.080   2.366   6.182 -0.3345  0.1082 -0.0700
 1245SOL    HW115371   0.130   2.404   6.254  0.0449  0.0172 -0.2820
 1245SOL    HW215372   0.062   2.281   6.221 -0.9565  1.5576  2.7864
 1246SOL     OW15373   4.190   3.635   9.102  0.4226 -0.3701 -0.4002
 1246SOL    HW115374   4.123   3.664   9.164  0.0191  1.5774 -1.7370
 1246SOL    HW215375   4.201   3.542   9.123 -1.0523 -0.8844 -1.8250
 1247SOL     OW15376   3.356   0.481   6.134  0.3789  0.1808 -0.1789
 1247SOL    HW115377   3.307   0.411   6.091 -1.4381  0.4010  1.4886
 1247SOL    HW215378   3.416   0.422   6.178 -0.9013  0.2584  1.7132
 1248SOL     OW15379   0.080   3.293  10.141  0.2997  0.5710 -0.3557
 1248SOL    HW115380   0.145   3.271  10.207  0.9294 -0.5112 -1.3390
 1248SOL    HW215381   4.734   3.291  10.186  0.0985 -0.7250 -0.8044
 1249SOL     OW15382   0.567   3.138   6.789 -0.0464  0.1589 -0.2216
 1249SOL    HW115383   0.631   3.086   6.838  1.1224  1.6344 -0.1916
 1249SOL    HW215384   0.489   3.081   6.789  0.0586  0.0131 -1.1529
 1250SOL     OW15385   3.412   4.208   8.309 -0.2661  0.4385 -0.0551
 1250SOL    HW115386   3.422   4.122   8.350 -1.8168  0.2291 -0.1166
 1250SOL    HW215387   3.372   4.255   8.382  0.0234 -0.6429  0.8103
 1251SOL     OW15388   2.958   2.037  15.263 -0.2591  0.5259  0.2680
 1251SOL    HW115389   2.900   1.966  15.235 -0.5846  0.5311  0.9400
 1251SOL    HW215390   2.949   2.036  15.358  1.0715 -1.0527  0.3738
 1252SOL     OW15391   0.145   3.777  17.117  0.4463  0.1112  0.0568
 1252SOL    HW115392   0.228   3.821  17.101 -0.7220  2.6326  0.8333
 1252SOL    HW215393   0.175   3.687  17.131  1.0441  0.0958 -1.3009
 1253SOL     OW15394   3.290   1.534   7.090  0.8226 -0.5353  0.6370
 1253SOL    HW115395   3.352   1.475   7.046  1.4764  1.7293 -1.4739
 1253SOL    HW215396   3.330   1.618   7.070 -0.6175  0.2917  1.2491
 1254SOL     OW15397   4.464   4.033   4.497  0.3603  0.1190  0.0345
 1254SOL    HW115398   4.475   4.004   4.406  0.8387 -0.9417  0.4340
 1254SOL    HW215399   4.473   3.946   4.535  2.8909  1.0823  1.6208
 1255SOL     OW15400   4.502   4.721   4.401 -0.2688  0.1521  0.1990
 1255SOL    HW115401   4.478   4.730   4.309  0.0300 -0.2098  0.0882
 1255SOL    HW215402   4.425   0.029   4.435 -1.2807 -0.2231 -1.5738
 1256SOL     OW15403   1.694   0.294   3.464 -0.5408 -0.1788  0.7628
 1256SOL    HW115404   1.747   0.304   3.385 -0.8972  0.0553  0.5530
 1256SOL    HW215405   1.725   0.367   3.517  1.0388 -0.2585 -0.0791
 1257SOL     OW15406   4.396   0.453   1.991  0.0035  0.4889  0.1963
 1257SOL    HW115407   4.353   0.495   2.065  0.1155  1.1767 -0.1366
 1257SOL    HW215408   4.376   0.365   2.024  0.5713  0.3338  0.1344
 1258SOL     OW15409   0.535   1.313   8.846  0.0474 -0.0722  0.5412
 1258SOL    HW115410   0.611   1.361   8.812 -0.4750 -0.2204 -0.8205
 1258SOL    HW215411   0.566   1.223   8.849 -0.0640 -0.0525  2.3373
 1259SOL     OW15412   0.668   0.755   7.107 -0.2637 -0.3662  1.1088
 1259SOL    HW115413   0.684   0.768   7.014  0.8242  2.4716  1.6821
 1259SOL    HW215414   0.597   0.819   7.114  0.0217  0.2432 -1.8183
 1260SOL     OW15415   4.245   4.408  12.051 -0.0883 -0.1462  0.1653
 1260SOL    HW115416   4.224   4.412  11.958 -0.9563  1.6220  0.4433
 1260SOL    HW215417   4.259   4.500  12.073 -1.1371 -0.2512  1.2392
 1261SOL     OW15418   2.402   4.202   3.987 -0.0220 -0.3700  0.0803
 1261SOL    HW115419   2.434   4.279   3.940 -2.9594 -0.4553 -2.0579
 1261SOL    HW215420   2.406   4.249   4.071 -1.1083  1.8237 -1.0892
 1262SOL     OW15421   3.718   3.720   0.237  0.3143 -0.2909  0.8601
 1262SOL    HW115422   3.702   3.630   0.209  0.4442 -0.6046  1.7710
 1262SOL    HW215423   3.629   3.754   0.239  0.7921  1.0814 -1.6698
 1263SOL     OW15424   1.036   0.145   4.162 -0.2990  0.4148  0.6891
 1263SOL    HW115425   1.124   0.171   4.134 -0.7075  0.3271 -0.6875
 1263SOL    HW215426   0.993   0.229   4.154  2.6244  1.7717 -1.0189
 1264SOL     OW15427   4.277   3.300   5.801 -0.2829 -0.6846 -0.0250
 1264SOL    HW115428   4.242   3.226   5.750  0.1287 -1.4458  0.8132
 1264SOL    HW215429   4.279   3.261   5.888  0.1967  0.8755  0.6621
 1265SOL     OW15430   1.407   0.904   1.809 -0.1053  0.6520 -0.5568
 1265SOL    HW115431   1.493   0.871   1.836 -1.2879 -0.0296  2.3001
 1265SOL    HW215432   1.344   0.882   1.877  0.6429  1.7221  0.4719
 1266SOL     OW15433   1.200   1.989  17.533 -0.4675 -0.3332  0.0595
 1266SOL    HW115434   1.193   1.936  17.454  0.6221  0.2691 -0.4469
 1266SOL    HW215435   1.135   2.055  17.509  0.6193  0.2902 -1.1977
 1267SOL     OW15436   1.230   1.754   3.686 -0.4693  0.1399  0.4800
 1267SOL    HW115437   1.240   1.758   3.591 -0.0349 -2.1782  0.4261
 1267SOL    HW215438   1.204   1.662   3.693 -0.2137 -0.0575 -1.1594
 1268SOL     OW15439   3.720   0.531   5.001  0.3860  0.1354 -0.0477
 1268SOL    HW115440   3.692   0.505   5.089  1.7551 -1.8680 -0.2080
 1268SOL    HW215441   3.795   0.471   4.996  0.5009  0.3405 -0.7129
 1269SOL     OW15442   2.267   4.335   4.936  0.2662 -0.1908 -0.3014
 1269SOL    HW115443   2.306   4.270   4.878 -0.0610  0.3956 -1.1679
 1269SOL    HW215444   2.208   4.282   4.990 -0.9894 -0.3911 -1.8906
 1270SOL     OW15445   2.540   2.035   6.366  0.2212  0.0710 -0.3068
 1270SOL    HW115446   2.587   1.992   6.437 -1.7033 -0.5043  0.6168
 1270SOL    HW215447   2.611   2.045   6.302 -0.5137  1.9293 -0.8578
 1271SOL     OW15448   2.372   2.394   9.313  0.0862  0.6026  0.2888
 1271SOL    HW115449   2.407   2.482   9.297 -0.5864  0.4499 -2.1155
 1271SOL    HW215450   2.283   2.401   9.278  0.0431 -0.9910  0.0590
 1272SOL     OW15451   1.378   1.846   3.170 -0.7250  0.4889  0.5730
 1272SOL    HW115452   1.355   1.906   3.100  1.4081  1.8448  1.0282
 1272SOL    HW215453   1.462   1.807   3.143 -2.0834 -2.0736  0.0364
 1273SOL     OW15454   4.339   3.001   8.724  0.4909  0.4064  0.1152
 1273SOL    HW115455   4.282   3.064   8.679 -3.9671 -2.8535  1.1324
 1273SOL    HW215456   4.427   3.037   8.729 -0.0334  1.5052  1.3615
 1274SOL     OW15457   4.045   0.709   1.526 -0.1825 -0.0893  0.0947
 1274SOL    HW115458   4.006   0.791   1.556  2.8611  1.4933 -0.2672
 1274SOL    HW215459   4.024   0.657   1.603 -0.0815 -0.3851 -0.0776
 1275SOL     OW15460   2.566   1.339   9.787 -0.1708  0.2389  0.1946
 1275SOL    HW115461   2.593   1.427   9.760 -0.2455  1.0562  2.7455
 1275SOL    HW215462   2.648   1.289   9.790  0.2593  0.9979  1.3286
 1276SOL     OW15463   2.630   4.076   2.863 -0.0351  0.2648  0.4864
 1276SOL    HW115464   2.702   4.059   2.803  0.3678  0.5538  0.8877
 1276SOL    HW215465   2.622   3.992   2.908  1.7736 -0.3497 -0.3283
 1277SOL     OW15466   0.004   1.229   9.429  0.5316  0.4675  0.0266
 1277SOL    HW115467   4.721   1.144   9.468 -0.9736  0.6186 -0.4628
 1277SOL    HW215468   0.007   1.195   9.339  0.3608 -0.6198  0.4301
 1278SOL     OW15469   0.999   2.700   2.637  0.0222  0.0068  0.0099
 1278SOL    HW115470   0.972   2.610   2.618  1.0876 -0.5200  1.0039
 1278SOL    HW215471   0.914   2.738   2.660 -0.7170 -0.4736 -1.9256
 1279SOL     OW15472   3.271   4.662   7.591 -0.1328  0.1132 -0.1342
 1279SOL    HW115473   3.339   4.696   7.649  0.1875 -1.5014  0.4271
 1279SOL    HW215474   3.293   4.569   7.585  2.4852  0.6242  1.4906
 1280SOL     OW15475   2.748   0.875  14.964  0.0301  0.1212 -0.1614
 1280SOL    HW115476   2.833   0.914  14.988 -0.8391  2.6986 -1.2986
 1280SOL    HW215477   2.733   0.817  15.039 -1.4009  2.6468  1.5229
 1281SOL     OW15478   4.221   2.474   8.391  0.1632 -0.0813 -0.1876
 1281SOL    HW115479   4.260   2.391   8.417  0.3480  0.8904  2.6177
 1281SOL    HW215480   4.284   2.499   8.324  0.9330 -1.2396  0.1024
 1282SOL     OW15481   4.602   0.132   7.054 -0.1913  0.2638  0.1067
 1282SOL    HW115482   4.543   0.184   7.000  1.5481  1.2915 -0.7871
 1282SOL    HW215483   4.550   0.123   7.134 -1.7859 -1.2673 -1.1015
 1283SOL     OW15484   0.305   1.504   6.792 -0.1194  0.4434 -0.2449
 1283SOL    HW115485   0.287   1.448   6.717 -0.5937 -1.0149  0.9400
 1283SOL    HW215486   0.266   1.589   6.773  0.3480  1.1781  2.0505
 1284SOL     OW15487   4.301   0.278  15.159  0.4020 -0.0600  0.1229
 1284SOL    HW115488   4.226   0.293  15.216 -0.1858 -0.7116 -0.4842
 1284SOL    HW215489   4.320   0.186  15.176 -0.1156 -0.2847 -0.5063
 1285SOL     OW15490   4.490   1.507  16.476 -0.3402 -0.3314  0.2105
 1285SOL    HW115491   4.487   1.416  16.447  1.3316 -0.0079 -0.9485
 1285SOL    HW215492   4.583   1.527  16.480 -0.2977 -0.4423 -0.2666
 1286SOL     OW15493   1.871   1.001   5.529  0.5197 -0.0527  0.0670
 1286SOL    HW115494   1.866   0.907   5.511 -0.2193  0.0470 -0.2536
 1286SOL    HW215495   1.781   1.024   5.550 -0.2416 -0.8949 -2.2796
 1287SOL     OW15496   2.202   3.341   3.282  0.0915  0.2964 -0.2012
 1287SOL    HW115497   2.283   3.353   3.234  0.4584 -2.5706 -0.3007
 1287SOL    HW215498   2.238   3.340   3.371  0.8126 -0.0333 -0.5036
 1288SOL     OW15499   0.621   2.311   9.493  0.5933 -0.1565  0.4819
 1288SOL    HW115500   0.585   2.323   9.405 -1.7414 -1.3616  1.2615
 1288SOL    HW215501   0.688   2.243   9.491  3.5277  2.8398 -1.7373
 1289SOL     OW15502   3.373   3.679   3.574 -0.3182 -0.4058 -0.0942
 1289SOL    HW115503   3.386   3.689   3.668  1.0169 -0.8943 -0.2269
 1289SOL    HW215504   3.293   3.731   3.568 -0.6626 -0.9105  0.1451
 1290SOL     OW15505   1.597   3.783   3.094  1.0404  0.3716  0.1285
 1290SOL    HW115506   1.533   3.787   3.166  0.2934  0.6622 -0.5570
 1290SOL    HW215507   1.682   3.796   3.136  0.4295  1.5109  1.0095
 1291SOL     OW15508   1.157   1.989   7.587  0.2786 -0.3683  0.6929
 1291SOL    HW115509   1.203   1.909   7.562 -1.3053 -0.7815 -0.9514
 1291SOL    HW215510   1.224   2.052   7.562  0.2191 -0.2102  0.9357
 1292SOL     OW15511   0.504   2.799   3.108  0.4411 -0.3357  0.8525
 1292SOL    HW115512   0.592   2.835   3.120  0.8751 -1.3210  0.5897
 1292SOL    HW215513   0.450   2.841   3.175 -1.0060  0.2112 -0.6810
 1293SOL     OW15514   1.729   3.232  16.247 -0.2739 -0.2651  0.3785
 1293SOL    HW115515   1.662   3.297  16.273  2.1421  1.6692  1.7981
 1293SOL    HW215516   1.682   3.149  16.251 -1.8097  0.6004  0.4461
 1294SOL     OW15517   1.493   1.473   6.350 -0.2861 -0.2106  0.3596
 1294SOL    HW115518   1.534   1.548   6.395  1.1332 -1.2718  0.8375
 1294SOL    HW215519   1.569   1.416   6.337 -1.3360 -0.7989 -3.0252
 1295SOL     OW15520   1.050   1.893  14.528 -0.0921  0.0611 -0.2804
 1295SOL    HW115521   0.961   1.917  14.503  0.4796 -0.1157 -2.5138
 1295SOL    HW215522   1.096   1.976  14.510 -1.5071  0.7879 -0.5097
 1296SOL     OW15523   4.411   4.592  15.819  0.2227  0.0413  0.0720
 1296SOL    HW115524   4.495   4.638  15.812  1.1385 -1.4962  1.1102
 1296SOL    HW215525   4.363   4.655  15.764 -0.3253  0.0410  0.5509
 1297SOL     OW15526   1.919   3.788   9.076 -0.2070 -0.6363  0.5930
 1297SOL    HW115527   1.885   3.855   9.134  0.2842 -0.3135  0.5001
 1297SOL    HW215528   2.001   3.774   9.122  0.5763  2.4532  0.1166
 1298SOL     OW15529   2.466   1.321   6.382 -0.5351  0.4543  0.0711
 1298SOL    HW115530   2.486   1.342   6.291 -0.6003 -1.6383 -0.4341
 1298SOL    HW215531   2.544   1.307   6.435  0.4235 -2.4136 -2.0599
 1299SOL     OW15532   2.922   2.793   7.165  0.1538  0.7960  0.0459
 1299SOL    HW115533   2.915   2.883   7.196 -0.0171  0.7867  0.0347
 1299SOL    HW215534   3.001   2.792   7.111 -0.4547 -1.4084 -0.7977
 1300SOL     OW15535   1.724   2.583   4.485 -0.1690 -0.2565  0.4197
 1300SOL    HW115536   1.648   2.608   4.538  0.8184 -1.5731  2.4270
 1300SOL    HW215537   1.791   2.579   4.553 -0.4037  0.2926  0.6895
 1301SOL     OW15538   2.949   1.740   4.933  0.3774 -0.3797  0.1599
 1301SOL    HW115539   2.905   1.700   5.007  1.5963 -2.0233 -0.0082
 1301SOL    HW215540   3.004   1.669   4.900 -1.6382 -0.8006 -2.2959
 1302SOL     OW15541   2.815   0.729   7.610 -0.0684  0.3768  0.0853
 1302SOL    HW115542   2.780   0.678   7.682 -1.9304  1.9193  0.2827
 1302SOL    HW215543   2.741   0.789   7.597  0.0823  0.1298 -1.8691
 1303SOL     OW15544   3.234   2.615  15.065  0.5312  0.0045 -0.3499
 1303SOL    HW115545   3.152   2.654  15.034  0.3412  0.4304  0.6986
 1303SOL    HW215546   3.238   2.615  15.160 -0.7293  0.0030 -0.2975
 1304SOL     OW15547   4.143   2.837   4.388 -0.2010  0.3575  0.0798
 1304SOL    HW115548   4.189   2.776   4.445 -0.1961  0.0026 -0.3009
 1304SOL    HW215549   4.203   2.910   4.401 -0.6014  0.6001  0.5591
 1305SOL     OW15550   0.390   1.328   1.797  0.5203 -0.4542  0.5240
 1305SOL    HW115551   0.302   1.299   1.822 -0.1775  2.1351  1.0634
 1305SOL    HW215552   0.397   1.416   1.835  2.2634 -0.5384  0.3694
 1306SOL     OW15553   1.017   0.445   1.487 -0.1658  0.0673 -0.0338
 1306SOL    HW115554   0.925   0.464   1.500  0.0759  0.3090  1.3041
 1306SOL    HW215555   1.019   0.466   1.393  0.9068  0.1459  0.0032
 1307SOL     OW15556   1.309   3.724   4.596  0.4136  0.0125  0.2914
 1307SOL    HW115557   1.261   3.805   4.574 -0.7106 -0.5687  0.5739
 1307SOL    HW215558   1.360   3.712   4.516  0.7315  3.5403 -0.0585
 1308SOL     OW15559   1.787   1.400  17.603 -0.4677 -0.0178  0.5648
 1308SOL    HW115560   1.807   1.377  17.694 -0.5794  1.7816  1.0417
 1308SOL    HW215561   1.872   1.440  17.583 -0.7000  0.1585 -0.0602
 1309SOL     OW15562   2.805   4.693  13.696 -0.4270 -0.3271  0.1426
 1309SOL    HW115563   2.718   4.724  13.722 -0.3194  0.9991 -1.0501
 1309SOL    HW215564   2.786   4.670  13.605  2.4060 -0.9228 -0.3143
 1310SOL     OW15565   3.618   1.854   8.971 -0.1500 -0.3047 -0.0699
 1310SOL    HW115566   3.561   1.785   8.936 -2.3617  1.4355  0.0506
 1310SOL    HW215567   3.550   1.902   9.020 -1.9247 -1.5055 -1.3730
 1311SOL     OW15568   1.515   3.137  10.038  0.1643  0.1200 -0.2696
 1311SOL    HW115569   1.437   3.083  10.025  0.2912 -0.4895  1.4953
 1311SOL    HW215570   1.547   3.101  10.121 -0.5724  1.3979  0.5650
 1312SOL     OW15571   3.156   1.272   2.234  0.2526 -0.2567 -0.1055
 1312SOL    HW115572   3.095   1.201   2.250  2.0075 -1.3388  1.6600
 1312SOL    HW215573   3.108   1.355   2.246  0.2312 -0.2092 -0.5228
 1313SOL     OW15574   1.027   1.521  11.663 -0.8047  0.0663  0.1683
 1313SOL    HW115575   0.983   1.602  11.690 -1.9901 -0.0207 -1.5480
 1313SOL    HW215576   0.953   1.464  11.643 -0.1521 -0.0061 -1.9830
 1314SOL     OW15577   1.292   3.658   7.030 -0.1593  0.3764  0.4913
 1314SOL    HW115578   1.245   3.630   6.952  0.3988 -1.8423  0.9675
 1314SOL    HW215579   1.369   3.702   6.993 -1.1522  1.1924 -0.6199
 1315SOL     OW15580   1.281   1.143   7.645 -0.0543 -0.8295 -0.1150
 1315SOL    HW115581   1.263   1.177   7.732 -1.6340 -1.6245 -0.1363
 1315SOL    HW215582   1.235   1.059   7.648 -0.0055 -0.8584 -0.1650
 1316SOL     OW15583   3.674   0.863   0.913  0.0982  0.5310  0.2209
 1316SOL    HW115584   3.603   0.864   0.848 -0.9486 -1.1245  1.3567
 1316SOL    HW215585   3.666   0.774   0.946 -0.0589  1.2214  2.0644
 1317SOL     OW15586   1.584   4.227   6.138 -0.1309 -0.9277 -0.2165
 1317SOL    HW115587   1.629   4.312   6.137  0.7960 -1.4312 -1.7370
 1317SOL    HW215588   1.591   4.198   6.048  1.3391 -2.3199  0.3587
 1318SOL     OW15589   0.997   2.133  11.173 -0.5951 -0.0348 -0.2900
 1318SOL    HW115590   1.015   2.069  11.104 -1.8545 -1.8938  1.1271
 1318SOL    HW215591   1.055   2.205  11.146 -0.0446 -0.5664 -0.5113
 1319SOL     OW15592   1.745   2.413   1.929  0.1662  0.3570  0.2215
 1319SOL    HW115593   1.657   2.405   1.892  0.4001  0.9229 -0.4679
 1319SOL    HW215594   1.741   2.507   1.947  0.6821  0.4905 -0.3502
 1320SOL     OW15595   0.424   3.926  17.156 -0.8901  0.1812 -0.4024
 1320SOL    HW115596   0.470   3.995  17.109 -0.6459  0.3920  0.1428
 1320SOL    HW215597   0.447   3.854  17.097 -0.8240  0.5148 -0.7871
 1321SOL     OW15598   4.500   2.598  16.935  0.0491 -0.1426 -0.2619
 1321SOL    HW115599   4.414   2.638  16.923 -0.4668 -1.7177 -1.8401
 1321SOL    HW215600   4.481   2.506  16.919  1.2902 -0.0128 -2.4981
 1322SOL     OW15601   2.732   1.690  10.971  0.3373  0.0614 -0.1034
 1322SOL    HW115602   2.688   1.772  10.993  3.1363  1.4244  0.4195
 1322SOL    HW215603   2.717   1.639  11.051 -1.1741 -1.2337 -1.2167
 1323SOL     OW15604   0.970   0.765  15.869 -0.1005 -0.0289  0.3916
 1323SOL    HW115605   0.995   0.847  15.911 -0.5485  0.1629  0.2869
 1323SOL    HW215606   0.956   0.798  15.780 -2.7984  2.4305  1.7332
 1324SOL     OW15607   2.963   0.495   3.922  0.2616 -0.0710 -0.6140
 1324SOL    HW115608   2.975   0.537   4.008  0.4341 -1.8235  0.2248
 1324SOL    HW215609   2.978   0.402   3.936  2.5726  0.5682  1.3055
 1325SOL     OW15610   2.863   1.994   0.544  0.3154  0.3174 -0.1138
 1325SOL    HW115611   2.834   1.929   0.481 -1.7439  1.0980  0.0039
 1325SOL    HW215612   2.851   2.068   0.484 -1.8289 -0.0899 -0.1990
 1326SOL     OW15613   1.762   3.925   4.844  0.0750  0.5152 -0.3041
 1326SOL    HW115614   1.752   4.015   4.812 -0.1018  0.6926  0.2359
 1326SOL    HW215615   1.854   3.910   4.824 -0.1523  1.0950 -1.7889
 1327SOL     OW15616   0.569   2.304  10.097  0.1614 -0.3451  0.2552
 1327SOL    HW115617   0.654   2.261  10.084  0.3925  0.7224 -1.7243
 1327SOL    HW215618   0.526   2.270  10.018  1.0137 -1.6259  0.3456
 1328SOL     OW15619   0.480   3.708   6.930 -0.1907 -0.3916  0.1817
 1328SOL    HW115620   0.466   3.643   7.000  1.9003  2.4791  3.2881
 1328SOL    HW215621   0.494   3.655   6.852 -0.8396  1.1574 -0.9705
 1329SOL     OW15622   2.960   3.570   2.747  0.1614  0.3493 -0.7113
 1329SOL    HW115623   2.999   3.500   2.800 -0.9127 -0.0612 -0.4593
 1329SOL    HW215624   2.936   3.627   2.820 -0.3447  3.8688 -3.6285
 1330SOL     OW15625   0.578   1.598   3.236  0.4057 -0.0910 -0.1355
 1330SOL    HW115626   0.588   1.554   3.321  2.9565 -2.6130 -1.7282
 1330SOL    HW215627   0.589   1.522   3.178 -1.7349 -2.7544  2.9126
 1331SOL     OW15628   3.501   3.094   4.747  0.0133  0.4552 -0.0147
 1331SOL    HW115629   3.419   3.044   4.752  0.0616  0.2163 -1.8476
 1331SOL    HW215630   3.535   3.083   4.836 -0.8552 -0.0762  0.2592
 1332SOL     OW15631   2.303   3.997   8.064  0.1071  0.4701  0.4850
 1332SOL    HW115632   2.386   3.952   8.047 -2.1445 -3.2584 -0.7906
 1332SOL    HW215633   2.242   3.982   7.992  1.5784  0.3839 -0.7386
 1333SOL     OW15634   3.222   3.175   7.667 -0.3867  0.5621  0.7074
 1333SOL    HW115635   3.216   3.266   7.696  1.5605  0.3492  1.7636
 1333SOL    HW215636   3.316   3.158   7.674 -1.0087 -1.7547  3.4553
 1334SOL     OW15637   3.124   3.740   8.578  0.0513  0.5382 -0.7275
 1334SOL    HW115638   3.053   3.767   8.519 -0.0025 -1.4222 -1.5402
 1334SOL    HW215639   3.200   3.776   8.532 -0.1335  0.7896 -0.8390
 1335SOL     OW15640   4.099   4.265   8.133 -0.5321  0.2074  0.1913
 1335SOL    HW115641   4.106   4.170   8.121 -0.6385  0.2985 -0.6012
 1335SOL    HW215642   4.192   4.283   8.146 -0.1138  0.2821 -2.8466
 1336SOL     OW15643   4.517   0.920  15.205 -0.4637  0.0652 -0.3084
 1336SOL    HW115644   4.562   0.965  15.133 -0.0481 -1.7279 -1.1692
 1336SOL    HW215645   4.577   0.942  15.276  0.3683  1.0703 -1.3148
 1337SOL     OW15646   3.792   2.001   2.962  0.9560  0.0416  0.4551
 1337SOL    HW115647   3.871   1.950   2.979  0.6707 -0.5458  0.0070
 1337SOL    HW215648   3.743   2.001   3.044 -1.0301 -0.7344 -0.7408
 1338SOL     OW15649   1.044   2.150   7.274  0.8706  0.0162  0.5761
 1338SOL    HW115650   1.121   2.121   7.322  1.6538  1.8436  0.4080
 1338SOL    HW215651   1.078   2.228   7.229 -1.2764  0.8788  0.4429
 1339SOL     OW15652   4.448   0.515   3.192  0.4500  0.6044 -0.7284
 1339SOL    HW115653   4.498   0.529   3.272  0.0151 -2.0256  0.0256
 1339SOL    HW215654   4.466   0.594   3.141 -0.5079  0.6236 -1.0293
 1340SOL     OW15655   1.882   4.258   6.674  0.1519  0.2786  0.0849
 1340SOL    HW115656   1.848   4.347   6.671 -1.8537 -0.5480 -1.1955
 1340SOL    HW215657   1.844   4.232   6.758  0.3259  0.5037  0.2350
 1341SOL     OW15658   0.851   0.378   3.099  0.0558  0.3077 -0.4623
 1341SOL    HW115659   0.768   0.330   3.098  0.1595  0.1212 -0.2834
 1341SOL    HW215660   0.912   0.317   3.141  0.5035  0.9946 -0.1091
 1342SOL     OW15661   2.050   2.944   6.799  0.0932  0.3168  0.3064
 1342SOL    HW115662   2.135   2.912   6.769 -1.1131 -0.7795 -1.9724
 1342SOL    HW215663   1.988   2.893   6.746 -0.3242 -0.0566  1.1582
 1343SOL     OW15664   4.527   0.310  16.683  0.0521  0.4616 -0.5630
 1343SOL    HW115665   4.619   0.309  16.657  0.0003  1.7583 -0.7595
 1343SOL    HW215666   4.528   0.222  16.722  0.7444  0.3916 -0.7582
 1344SOL     OW15667   3.447   3.801   4.196 -0.2399 -0.0466  0.3863
 1344SOL    HW115668   3.496   3.721   4.180  0.9960  0.8191 -0.1685
 1344SOL    HW215669   3.510   3.868   4.170  2.2767 -1.8962  1.7872
 1345SOL     OW15670   1.158   1.310  17.701 -0.0331  0.3112 -0.6550
 1345SOL    HW115671   1.148   1.283   0.041 -0.5313 -2.4096 -1.5144
 1345SOL    HW215672   1.226   1.377  17.715  1.2748 -1.7876  2.8694
 1346SOL     OW15673   3.598   3.656   8.183 -0.2290  0.1471  0.1952
 1346SOL    HW115674   3.530   3.605   8.226  1.0831 -1.4026  0.4450
 1346SOL    HW215675   3.551   3.716   8.126 -0.9666 -0.1993  0.4333
 1347SOL     OW15676   0.997   1.164   5.778 -0.4061  0.1050  0.7314
 1347SOL    HW115677   0.937   1.224   5.822  1.8360  1.5759  1.7622
 1347SOL    HW215678   1.081   1.195   5.812  0.1267 -1.8067  1.2136
 1348SOL     OW15679   3.673   3.123   7.357  0.4624 -0.0288 -0.0892
 1348SOL    HW115680   3.674   3.072   7.276 -0.4961  2.8490 -1.9146
 1348SOL    HW215681   3.750   3.083   7.397  1.0788  1.3426  0.1257
 1349SOL     OW15682   2.631   1.619   7.829 -0.4304  0.3583  0.3974
 1349SOL    HW115683   2.699   1.683   7.851 -0.0806  0.0501  0.2058
 1349SOL    HW215684   2.543   1.650   7.847 -0.6750 -1.0116  1.5445
 1350SOL     OW15685   1.566   0.456   6.578  0.1422 -0.1376  0.2746
 1350SOL    HW115686   1.491   0.417   6.533 -0.7251  1.1794  0.5778
 1350SOL    HW215687   1.576   0.392   6.648  0.1078 -0.0999  0.3139
 1351SOL     OW15688   1.726   0.464   3.147  0.0027  0.2690 -0.1765
 1351SOL    HW115689   1.719   0.409   3.069 -2.4117 -1.3325  1.1228
 1351SOL    HW215690   1.684   0.543   3.113  2.1870  1.0064 -1.1200
 1352SOL     OW15691   1.970   4.034  10.249  0.2882 -0.1130 -0.0036
 1352SOL    HW115692   1.984   3.960  10.191  3.5123  1.0873 -0.7574
 1352SOL    HW215693   2.057   4.072  10.263 -0.3399  1.2435  0.2604
 1353SOL     OW15694   2.450   2.789   7.847  0.0556 -0.3030 -0.2567
 1353SOL    HW115695   2.537   2.825   7.861 -1.2352  2.1643  1.5140
 1353SOL    HW215696   2.398   2.863   7.815 -0.8545  0.1611  2.2384
 1354SOL     OW15697   3.491   3.220   7.545  0.5107  0.1259  0.0927
 1354SOL    HW115698   3.431   3.286   7.511  0.8743  0.8090  0.7636
 1354SOL    HW215699   3.564   3.227   7.483  0.2749  1.0493 -0.0827
 1355SOL     OW15700   3.706   0.505   3.129  0.0105 -0.3194  0.1279
 1355SOL    HW115701   3.746   0.592   3.129 -0.7673  0.0359  1.6330
 1355SOL    HW215702   3.654   0.513   3.209 -1.1609  0.2692 -0.6995
 1356SOL     OW15703   3.348   1.029  10.390 -0.3201  0.2419  0.4474
 1356SOL    HW115704   3.263   1.043  10.347 -0.1448  1.4939  0.5219
 1356SOL    HW215705   3.339   0.948  10.439 -1.9030  0.0388 -0.1595
 1357SOL     OW15706   3.557   2.233   8.738 -0.0040  0.1137 -0.3019
 1357SOL    HW115707   3.586   2.303   8.679 -1.9414  2.1440  1.1691
 1357SOL    HW215708   3.536   2.274   8.822  0.0540 -0.2720 -0.1026
 1358SOL     OW15709   1.603   3.820   5.742  0.4798 -1.0548  0.6855
 1358SOL    HW115710   1.592   3.776   5.827  0.5076 -0.5274  0.9625
 1358SOL    HW215711   1.697   3.838   5.739 -0.2289  2.2022 -1.6947
 1359SOL     OW15712   4.363   1.472   0.217 -0.2260  0.2160  0.1476
 1359SOL    HW115713   4.272   1.441   0.209  0.0039 -0.4307  0.0079
 1359SOL    HW215714   4.362   1.501   0.308 -1.5841  0.5907  0.0158
 1360SOL     OW15715   3.821   4.154   4.662 -0.0481 -0.5065  0.1064
 1360SOL    HW115716   3.909   4.163   4.698  0.8559 -2.0416 -1.6936
 1360SOL    HW215717   3.772   4.207   4.724 -2.2709 -1.4255 -0.8509
 1361SOL     OW15718   1.205   2.270  13.606  0.0471 -0.4741  0.1602
 1361SOL    HW115719   1.204   2.365  13.597  0.0712 -0.3667  1.1984
 1361SOL    HW215720   1.277   2.239  13.552 -0.7846 -2.9253  0.4592
 1362SOL     OW15721   1.631   1.463   5.040 -0.0096  0.2025 -0.3159
 1362SOL    HW115722   1.725   1.450   5.051  0.0457  0.1871 -0.8168
 1362SOL    HW215723   1.625   1.559   5.049 -0.3861  0.1458  0.0307
 1363SOL     OW15724   3.108   0.073   3.267  0.2882 -0.5312  0.0895
 1363SOL    HW115725   3.180   0.047   3.209 -0.9017  2.2979 -2.6326
 1363SOL    HW215726   3.031   0.079   3.211  0.5060  0.8510 -0.0442
 1364SOL     OW15727   3.219   1.943   2.005 -0.0883 -0.1218  0.2849
 1364SOL    HW115728   3.180   1.980   1.925 -0.4334 -1.8552 -0.3531
 1364SOL    HW215729   3.240   2.024   2.051  0.9644 -0.7323  0.8694
 1365SOL     OW15730   2.491   4.063   1.805  0.1198  0.3715  0.6448
 1365SOL    HW115731   2.418   4.002   1.804  1.5052 -1.3034  1.5040
 1365SOL    HW215732   2.567   4.009   1.827 -0.2529 -1.1385 -1.8034
 1366SOL     OW15733   3.972   3.370   8.271 -0.0410  0.0419 -0.0393
 1366SOL    HW115734   4.025   3.429   8.217  1.7690  0.3552  2.0961
 1366SOL    HW215735   4.020   3.289   8.254  1.9762  1.0131  1.0488
 1367SOL     OW15736   3.839   1.567  11.115 -0.0166 -0.0652  0.1328
 1367SOL    HW115737   3.827   1.567  11.020  0.7673  1.0667  0.0404
 1367SOL    HW215738   3.821   1.657  11.142 -1.6398 -1.2186  2.9338
 1368SOL     OW15739   0.797   1.010   6.029  0.5196  0.1022  0.0876
 1368SOL    HW115740   0.784   1.005   6.124 -2.0704 -2.2104 -0.3908
 1368SOL    HW215741   0.839   1.096   6.025 -1.1980  0.9318 -0.2000
 1369SOL     OW15742   3.159   1.069   3.339  0.3950  0.0530  0.0792
 1369SOL    HW115743   3.199   1.105   3.261 -0.9969 -0.0034 -0.6602
 1369SOL    HW215744   3.224   1.002   3.360  2.0924  1.8400  0.4290
 1370SOL     OW15745   4.009   2.665   6.838  0.1424  0.3708  0.4220
 1370SOL    HW115746   4.023   2.754   6.871  1.2575 -0.0061  0.9752
 1370SOL    HW215747   3.930   2.688   6.789  0.7486 -0.0567 -0.7585
 1371SOL     OW15748   2.180   4.539  14.389 -0.0822  0.1114  0.9094
 1371SOL    HW115749   2.171   4.622  14.434 -1.1772 -0.3133  1.4569
 1371SOL    HW215750   2.177   4.577  14.301 -0.3023 -1.7140  0.1150
 1372SOL     OW15751   2.620   3.436   6.389 -0.0076  0.1647 -0.9064
 1372SOL    HW115752   2.613   3.348   6.351  1.5973 -0.8104  1.0693
 1372SOL    HW215753   2.711   3.463   6.383  0.7570 -2.3736 -0.8886
 1373SOL     OW15754   0.361   0.194   3.170  0.2158 -0.1875  0.6743
 1373SOL    HW115755   0.291   0.158   3.225  1.5973  1.0134  3.2216
 1373SOL    HW215756   0.373   0.284   3.200 -3.4619  0.0904  1.3296
 1374SOL     OW15757   3.299   1.149   6.833  0.3180 -0.6726 -0.0535
 1374SOL    HW115758   3.252   1.066   6.820 -0.0041 -0.3323 -1.0612
 1374SOL    HW215759   3.226   1.197   6.872 -1.3057 -1.0451 -2.5895
 1375SOL     OW15760   2.723   3.747   8.067  0.3711  0.2956  0.6248
 1375SOL    HW115761   2.731   3.837   8.098 -1.3421  0.2429  1.1774
 1375SOL    HW215762   2.816   3.725   8.058 -0.1760 -1.2204 -1.4604
 1376SOL     OW15763   2.034   4.525   9.047  0.4114 -0.4684  0.0744
 1376SOL    HW115764   2.056   4.503   9.137  2.6675  1.3756  0.0010
 1376SOL    HW215765   2.030   4.440   9.003  1.2802  0.5666 -2.0299
 1377SOL     OW15766   1.200   4.277   2.588  0.5590 -0.5257  0.3117
 1377SOL    HW115767   1.119   4.227   2.579 -0.3079  1.0571 -0.7444
 1377SOL    HW215768   1.265   4.213   2.558  2.2697  1.6997 -0.7945
 1378SOL     OW15769   2.020   2.546   6.774 -0.6037 -0.5782 -0.1570
 1378SOL    HW115770   2.109   2.559   6.805 -1.5953 -1.2305  2.9522
 1378SOL    HW215771   1.993   2.625   6.728 -0.4416  0.7878  2.1437
 1379SOL     OW15772   3.652   3.767   7.407  0.2075 -0.2655  0.0513
 1379SOL    HW115773   3.703   3.719   7.471 -0.3847 -0.6654  0.2171
 1379SOL    HW215774   3.710   3.843   7.412  0.6179 -0.6128  0.5521
 1380SOL     OW15775   1.258   3.313   1.606  0.1390 -0.4164  0.5256
 1380SOL    HW115776   1.243   3.287   1.697 -0.7680  0.1952  0.5446
 1380SOL    HW215777   1.169   3.323   1.575  0.2921  0.7328  0.4627
 1381SOL     OW15778   1.408   3.472  11.561 -0.1177  0.1179 -0.3013
 1381SOL    HW115779   1.324   3.515  11.550 -0.0456  1.0933  3.1532
 1381SOL    HW215780   1.465   3.486  11.485  1.6350  0.5948  1.1038
 1382SOL     OW15781   2.639   2.701   7.052 -0.2472 -0.1146 -0.0117
 1382SOL    HW115782   2.649   2.671   6.961  1.6203  1.5644 -0.3333
 1382SOL    HW215783   2.721   2.701   7.101 -1.3555  1.5026  1.8056
 1383SOL     OW15784   3.819   3.682  16.820 -0.0472 -0.2096  0.2763
 1383SOL    HW115785   3.830   3.625  16.896  0.0059 -0.2422  0.2447
 1383SOL    HW215786   3.868   3.752  16.861 -1.3779  1.9845 -1.8651
 1384SOL     OW15787   1.645   1.594   1.562  0.3739 -0.9030 -0.2054
 1384SOL    HW115788   1.574   1.657   1.550  0.5394 -0.8657 -1.0238
 1384SOL    HW215789   1.704   1.615   1.489  1.6334  1.7752  1.5967
 1385SOL     OW15790   1.514   3.975   5.137  0.3758  0.0440  1.0379
 1385SOL    HW115791   1.583   3.913   5.118  1.8107  2.1152 -0.5200
 1385SOL    HW215792   1.500   3.973   5.232  1.3891 -1.3072  1.1470
 1386SOL     OW15793   2.798   2.796   7.592 -0.1386  0.2823 -0.1829
 1386SOL    HW115794   2.852   2.782   7.669 -0.1684 -4.1945 -0.9775
 1386SOL    HW215795   2.874   2.780   7.536 -1.0991  0.9114 -1.6754
 1387SOL     OW15796   0.684   2.566   2.270 -0.2047  0.5898 -0.7994
 1387SOL    HW115797   0.662   2.659   2.277 -2.3876 -0.0001  0.0345
 1387SOL    HW215798   0.632   2.540   2.194 -0.0350  0.0973 -0.7470
 1388SOL     OW15799   0.245   3.401   2.734  0.1288 -0.7190  0.5348
 1388SOL    HW115800   0.302   3.433   2.664 -0.0702 -0.8740  0.3013
 1388SOL    HW215801   0.268   3.310   2.755  0.1055 -0.7095  0.6003
 1389SOL     OW15802   1.145   2.542   6.449 -0.1160  0.1903 -0.3317
 1389SOL    HW115803   1.173   2.626   6.414 -0.0863  1.5246  2.8880
 1389SOL    HW215804   1.084   2.562   6.520 -1.5012 -0.1062 -1.4459
 1390SOL     OW15805   4.384   0.260   1.612  0.1441  0.4898 -0.0508
 1390SOL    HW115806   4.443   0.209   1.556 -0.3609  0.5293 -0.6147
 1390SOL    HW215807   4.329   0.194   1.654 -1.7506  1.6701 -0.6755
 1391SOL     OW15808   0.289   2.416   2.197  0.2851 -0.6165 -0.1627
 1391SOL    HW115809   0.318   2.367   2.274 -1.0401  0.1228  0.8225
 1391SOL    HW215810   0.195   2.393   2.199  0.8176 -2.8231  0.1997
 1392SOL     OW15811   0.388   2.907   4.504 -0.1281  0.2183  0.4539
 1392SOL    HW115812   0.416   2.971   4.570 -1.3411 -1.3640  2.5103
 1392SOL    HW215813   0.307   2.866   4.535 -0.4937 -0.5463 -1.4895
 1393SOL     OW15814   4.211   4.160   5.770  0.2175 -0.3000 -0.0573
 1393SOL    HW115815   4.250   4.156   5.683 -0.2409 -2.8872 -0.1218
 1393SOL    HW215816   4.120   4.184   5.752  0.6918  1.6304  0.0512
 1394SOL     OW15817   1.934   2.255   5.994  0.0984  0.0837  0.5028
 1394SOL    HW115818   2.005   2.311   5.962  0.7571 -0.1140  1.6274
 1394SOL    HW215819   1.941   2.284   6.085 -1.4566  1.8654  0.0760
 1395SOL     OW15820   2.752   3.976  11.344 -0.2906  0.1562  0.0531
 1395SOL    HW115821   2.677   3.967  11.286  0.1045 -1.0812 -0.2803
 1395SOL    HW215822   2.828   3.996  11.288 -0.0708 -0.3718  0.1624
 1396SOL     OW15823   1.903   0.590  11.741 -0.6494  0.1693 -0.7303
 1396SOL    HW115824   1.883   0.551  11.656  0.1165 -0.8581 -0.4481
 1396SOL    HW215825   1.831   0.555  11.793  0.0051  0.8026  0.5883
 1397SOL     OW15826   0.549   4.096  13.556 -0.5401 -0.4423 -0.1132
 1397SOL    HW115827   0.556   4.143  13.473 -0.9227  0.7185  0.5098
 1397SOL    HW215828   0.623   4.122  13.611 -0.8484  0.4488 -0.1226
 1398SOL     OW15829   0.031   2.651   2.297  0.1750  0.2139 -0.2429
 1398SOL    HW115830   0.039   2.603   2.215  1.3748  2.0040 -1.1724
 1398SOL    HW215831   4.673   2.653   2.296  0.1761 -0.0692 -0.7871
 1399SOL     OW15832   1.686   0.842   1.572  0.2199 -0.2378 -0.0258
 1399SOL    HW115833   1.680   0.774   1.505  1.5587  0.4926 -0.8727
 1399SOL    HW215834   1.613   0.902   1.556 -0.6196 -1.1805  0.2420
 1400SOL     OW15835   4.721   2.574  10.170  0.1861  0.0683  0.0295
 1400SOL    HW115836   0.066   2.609  10.136 -0.2748 -0.1795 -1.3739
 1400SOL    HW215837   4.662   2.638  10.130  1.8691  0.1894 -2.2643
 1401SOL     OW15838   3.331   2.717   5.432  0.1646  0.3931 -0.2472
 1401SOL    HW115839   3.316   2.670   5.515  0.5999 -0.6970 -0.7809
 1401SOL    HW215840   3.421   2.747   5.443  0.7906 -1.8710  0.9542
 1402SOL     OW15841   0.010   4.500   1.989 -0.2595 -0.2758  0.2607
 1402SOL    HW115842   0.071   4.529   1.920  0.6049 -0.3591  0.9877
 1402SOL    HW215843   4.666   4.544   1.969  0.5422 -0.0825 -2.7103
 1403SOL     OW15844   0.299   1.113  12.200  0.1521 -0.8119 -0.0464
 1403SOL    HW115845   0.266   1.025  12.184  1.1588 -0.2867 -4.8222
 1403SOL    HW215846   0.359   1.102  12.274  1.3851 -1.0839 -1.0860
 1404SOL     OW15847   3.478   3.391   8.455 -0.0610  0.3999 -0.1454
 1404SOL    HW115848   3.427   3.467   8.427 -1.6580 -0.6398 -0.0425
 1404SOL    HW215849   3.426   3.365   8.531 -0.9485 -1.1576 -1.2894
 1405SOL     OW15850   1.476   1.295   5.474 -0.2672  0.5287 -0.1176
 1405SOL    HW115851   1.445   1.232   5.539  0.8714  2.4553  2.2595
 1405SOL    HW215852   1.445   1.376   5.513  2.2767  0.3741  2.2243
 1406SOL     OW15853   3.695   0.114   4.848  0.4596  0.1642  0.6661
 1406SOL    HW115854   3.624   0.051   4.859  0.2756  0.0455 -1.0622
 1406SOL    HW215855   3.766   0.061   4.881  0.4668  0.3963  1.0206
 1407SOL     OW15856   4.269   0.461   2.861  0.0808 -0.0069  0.3513
 1407SOL    HW115857   4.230   0.545   2.838 -2.6010 -1.7999 -1.6560
 1407SOL    HW215858   4.215   0.447   2.938  0.0238  3.5702  0.9292
 1408SOL     OW15859   3.607   1.224  17.702  0.0765  0.5509 -0.6165
 1408SOL    HW115860   3.609   1.191  17.612  2.5189 -1.5358  0.1954
 1408SOL    HW215861   3.628   1.147   0.004  3.4716  2.5887  1.0239
 1409SOL     OW15862   2.218   0.020   1.816  0.1290  0.5469 -0.1864
 1409SOL    HW115863   2.313   0.012   1.819  0.1328 -0.0037 -1.8252
 1409SOL    HW215864   2.194   4.698   1.887  2.6598 -1.4505 -1.0597
 1410SOL     OW15865   1.710   0.212   4.457  0.3547  0.0141  0.8552
 1410SOL    HW115866   1.631   0.181   4.503 -1.2136  0.2600 -1.6710
 1410SOL    HW215867   1.772   0.151   4.497  1.3545  0.8610  0.5966
 1411SOL     OW15868   4.255   3.842   1.446  0.0205 -0.0688  0.1669
 1411SOL    HW115869   4.262   3.931   1.480 -0.0187 -0.5167  1.3756
 1411SOL    HW215870   4.162   3.819   1.448 -0.0875  0.3285 -0.4707
 1412SOL     OW15871   2.729   1.535  11.627 -0.2672 -0.9721  0.3560
 1412SOL    HW115872   2.823   1.538  11.644 -0.4352 -3.7597  1.8519
 1412SOL    HW215873   2.729   1.513  11.534 -0.4313 -0.1967  0.1762
 1413SOL     OW15874   0.373   0.821  13.857 -0.1987  0.7418 -0.2740
 1413SOL    HW115875   0.303   0.874  13.820  0.2005  0.1859 -1.8331
 1413SOL    HW215876   0.440   0.852  13.796  0.8153 -0.1604  0.3758
 1414SOL     OW15877   4.539   2.509   7.857 -0.1325  0.4782 -0.1650
 1414SOL    HW115878   4.626   2.469   7.858 -0.1294  0.5548  2.0131
 1414SOL    HW215879   4.491   2.444   7.805  1.9281 -0.2392 -1.1777
 1415SOL     OW15880   4.707   3.071   7.126  0.2315 -0.3770 -0.0782
 1415SOL    HW115881   0.008   3.012   7.191  1.0163 -2.6976 -2.6948
 1415SOL    HW215882   4.640   3.118   7.175 -1.4403  0.0949 -2.8412
 1416SOL     OW15883   0.327   3.636   3.801  0.1064  0.4247  0.1662
 1416SOL    HW115884   0.286   3.566   3.750  1.0055  0.7947 -1.0627
 1416SOL    HW215885   0.372   3.689   3.735 -1.4461  1.5901  0.0467
 1417SOL     OW15886   3.555   2.872   9.491  0.1716  0.0509 -0.2274
 1417SOL    HW115887   3.642   2.912   9.491 -0.4878  1.4082 -4.6640
 1417SOL    HW215888   3.573   2.779   9.508  2.1141  0.6337  0.9466
 1418SOL     OW15889   1.894   2.539  13.199 -0.6994 -0.3630  0.1106
 1418SOL    HW115890   1.964   2.476  13.184 -0.2299 -0.3108  2.1000
 1418SOL    HW215891   1.852   2.531  13.113  0.0133  0.1908 -0.2856
 1419SOL     OW15892   2.339   2.421   5.335  0.2122 -0.1438 -0.0406
 1419SOL    HW115893   2.320   2.359   5.405  0.9287 -0.8095 -0.4348
 1419SOL    HW215894   2.409   2.477   5.368 -0.0517  0.9862 -1.3786
 1420SOL     OW15895   0.436   3.773   2.434  0.3655 -0.4821 -0.6435
 1420SOL    HW115896   0.341   3.769   2.429  0.3481 -0.1105 -0.6086
 1420SOL    HW215897   0.464   3.803   2.520  2.0683 -0.9228 -1.0333
 1421SOL     OW15898   0.600   0.810   2.167  0.4935 -0.6257  0.7703
 1421SOL    HW115899   0.637   0.894   2.138 -0.2270 -0.6161 -0.1448
 1421SOL    HW215900   0.608   0.749   2.094  1.2317 -0.2871  0.5718
 1422SOL     OW15901   2.534   0.705  11.292 -0.3042 -0.0599  0.0437
 1422SOL    HW115902   2.623   0.726  11.264  0.6037 -3.1792  0.5116
 1422SOL    HW215903   2.483   0.710  11.211  1.0193  3.3239 -0.5726
 1423SOL     OW15904   2.573   2.688   9.265  0.0409  0.2702 -0.1917
 1423SOL    HW115905   2.550   2.716   9.354 -2.0595  1.4051 -1.1113
 1423SOL    HW215906   2.664   2.660   9.281  0.0652 -0.6389 -1.8760
 1424SOL     OW15907   2.955   0.716  13.349 -0.1434 -0.2676  0.1957
 1424SOL    HW115908   2.887   0.783  13.341 -0.4470 -0.4891  0.9134
 1424SOL    HW215909   2.924   0.658  13.279 -0.5765  0.6287 -0.3512
 1425SOL     OW15910   1.734   0.978  10.346  0.5713 -0.3645  0.5775
 1425SOL    HW115911   1.641   1.001  10.352  0.9930  1.1486  1.4615
 1425SOL    HW215912   1.753   0.967  10.253  0.0118  3.4660  0.0099
 1426SOL     OW15913   1.302   3.408   9.769 -0.6119 -0.2289  0.6393
 1426SOL    HW115914   1.214   3.372   9.781 -1.0899  1.5724  2.4314
 1426SOL    HW215915   1.288   3.499   9.797 -0.7078  0.0627 -0.3399
 1427SOL     OW15916   1.745   4.084  10.391 -0.5760  0.0360 -0.1981
 1427SOL    HW115917   1.718   4.005  10.438  0.9568 -1.1767 -1.3785
 1427SOL    HW215918   1.821   4.045  10.349 -0.3198 -2.3973  2.4992
 1428SOL     OW15919   0.598   2.770   3.598  0.4535 -0.0910 -0.3138
 1428SOL    HW115920   0.583   2.746   3.689  3.2027  1.1166  0.4645
 1428SOL    HW215921   0.544   2.704   3.554  0.1798 -0.6453  0.8677
 1429SOL     OW15922   0.773   0.711   1.766  0.7793  0.0771  0.0389
 1429SOL    HW115923   0.689   0.734   1.728  1.8061 -0.3363 -2.4906
 1429SOL    HW215924   0.738   0.680   1.849  1.6740 -1.4785 -0.1654
 1430SOL     OW15925   1.890   4.303   0.370 -0.4175 -0.0354  0.0295
 1430SOL    HW115926   1.927   4.215   0.381  0.7311  0.4161 -0.1863
 1430SOL    HW215927   1.814   4.285   0.316 -1.6698 -0.5113  1.9386
 1431SOL     OW15928   0.298   1.383   8.561 -0.4922  1.1041 -0.1042
 1431SOL    HW115929   0.299   1.304   8.614 -1.4057  0.5089 -0.9791
 1431SOL    HW215930   0.306   1.441   8.637  0.0717 -2.1718  2.3467
 1432SOL     OW15931   1.536   4.412   1.320 -0.3970  0.1749  0.0303
 1432SOL    HW115932   1.471   4.431   1.252  1.7960 -1.4224 -2.5099
 1432SOL    HW215933   1.504   4.465   1.393 -2.0571 -0.0551 -0.5311
 1433SOL     OW15934   3.534   0.738   6.448 -0.7465  0.3587  0.0554
 1433SOL    HW115935   3.450   0.736   6.402 -0.1352 -0.5950 -1.0343
 1433SOL    HW215936   3.566   0.647   6.449 -0.1092  0.6005  2.5687
 1434SOL     OW15937   2.862   4.551  10.486  0.1085  0.0376  0.4824
 1434SOL    HW115938   2.936   4.538  10.545  0.3000 -0.0021  0.2348
 1434SOL    HW215939   2.872   4.476  10.427 -0.9712 -0.2699  0.6894
 1435SOL     OW15940   3.069   3.455   1.053  0.6635  0.4347  0.1309
 1435SOL    HW115941   3.122   3.478   0.975 -1.4316  1.2071 -1.0549
 1435SOL    HW215942   2.999   3.409   1.008  0.0230  0.6708  0.9060
 1436SOL     OW15943   4.067   1.649   7.583 -0.1093 -0.2302 -0.4140
 1436SOL    HW115944   4.010   1.592   7.634  2.4574 -0.9758  1.5970
 1436SOL    HW215945   4.153   1.613   7.603  0.9862  2.4262 -0.3645
 1437SOL     OW15946   4.401   0.604   4.222  0.1746  0.1365 -0.1675
 1437SOL    HW115947   4.310   0.633   4.229 -0.2556 -0.9730 -1.1005
 1437SOL    HW215948   4.443   0.667   4.281  1.8754 -0.0394 -1.2026
 1438SOL     OW15949   1.947   4.601  13.975 -0.3999 -0.5070 -0.5433
 1438SOL    HW115950   1.969   4.667  13.909  0.9162 -1.4665 -1.0570
 1438SOL    HW215951   1.895   4.534  13.931 -0.1485 -0.5096 -0.8388
 1439SOL     OW15952   3.600   3.569   4.149  0.0230  0.1951  0.3848
 1439SOL    HW115953   3.680   3.615   4.176 -1.1734  1.2859  2.0704
 1439SOL    HW215954   3.634   3.481   4.129  1.2722  0.3324  1.8668
 1440SOL     OW15955   1.423   2.833   6.494  0.4504 -0.6276  0.8970
 1440SOL    HW115956   1.449   2.923   6.476  1.6172 -1.0846  0.2920
 1440SOL    HW215957   1.331   2.856   6.508  0.0759 -0.8381 -1.1121
 1441SOL     OW15958   2.629   2.751  10.341  0.2723 -0.0191 -0.7402
 1441SOL    HW115959   2.626   2.673  10.285 -0.4863 -0.5743  0.0806
 1441SOL    HW215960   2.659   2.707  10.421  0.6404 -0.0172 -0.8745
 1442SOL     OW15961   1.935   2.510   3.710  0.3011  0.5196 -0.1608
 1442SOL    HW115962   1.995   2.549   3.646 -0.0415 -0.8275 -1.3050
 1442SOL    HW215963   1.885   2.589   3.729  1.7638  1.6145 -0.8130
 1443SOL     OW15964   2.316   2.418  10.497  0.1273 -0.0348  0.2073
 1443SOL    HW115965   2.228   2.393  10.522 -0.2302 -0.6989 -1.6567
 1443SOL    HW215966   2.287   2.491  10.443 -0.4451 -0.1645  0.3469
 1444SOL     OW15967   2.310   4.608   3.834 -0.0791  0.0192 -0.2855
 1444SOL    HW115968   2.384   4.659   3.800  1.8549 -2.7635 -0.2973
 1444SOL    HW215969   2.246   4.639   3.770 -1.0023 -2.6587 -0.6575
 1445SOL     OW15970   1.141   2.204   8.401 -0.2781 -0.3450 -0.1501
 1445SOL    HW115971   1.084   2.183   8.327 -0.8244 -0.3364  0.2767
 1445SOL    HW215972   1.078   2.220   8.470 -0.4883 -1.7514 -0.0167
 1446SOL     OW15973   1.188   3.355  10.822  0.7615  0.4253  0.4181
 1446SOL    HW115974   1.111   3.304  10.848  1.1100  0.0470  0.6872
 1446SOL    HW215975   1.253   3.289  10.800  0.4106 -0.2432  1.3821
 1447SOL     OW15976   4.147   0.934  13.214 -0.6853 -0.2844  0.1548
 1447SOL    HW115977   4.111   1.018  13.185  0.7682  0.0402 -0.7621
 1447SOL    HW215978   4.129   0.876  13.140 -2.3412  4.6346 -3.3256
 1448SOL     OW15979   1.238   4.446   7.100  0.1908 -0.5832 -0.0854
 1448SOL    HW115980   1.226   4.461   7.006  0.6874  3.2852  0.4585
 1448SOL    HW215981   1.330   4.421   7.103  0.7980  1.7135  0.8576
 1449SOL     OW15982   0.853   3.855   7.357 -0.2979 -0.2126  0.3893
 1449SOL    HW115983   0.940   3.826   7.384  0.4264 -0.7582 -2.4551
 1449SOL    HW215984   0.867   3.849   7.262  3.4975  0.8809  0.8536
 1450SOL     OW15985   0.646   4.532   5.971  0.0159  0.1286 -0.1628
 1450SOL    HW115986   0.675   4.619   5.996  0.1422  1.0841 -3.6722
 1450SOL    HW215987   0.568   4.518   6.025  0.6415  1.6134  1.1199
 1451SOL     OW15988   3.984   0.797   8.019  0.2792 -0.1889  0.0101
 1451SOL    HW115989   3.949   0.872   8.066  1.3522  2.1752 -3.0121
 1451SOL    HW215990   4.016   0.735   8.085 -0.0098 -0.0765  0.2551
 1452SOL     OW15991   4.699   1.022   3.726  0.2227 -0.0683  0.3008
 1452SOL    HW115992   4.667   0.933   3.743  0.4864 -0.0768  0.7524
 1452SOL    HW215993   4.654   1.072   3.794  1.3061  3.6776 -1.7735
 1453SOL     OW15994   0.941   3.303   2.042  0.6282 -0.3798 -0.9224
 1453SOL    HW115995   0.990   3.342   2.115 -0.9682 -2.5000  1.2805
 1453SOL    HW215996   0.922   3.379   1.987  0.4053  0.4836  0.3492
 1454SOL     OW15997   1.567   2.211   8.576 -0.1928  0.2832  0.3778
 1454SOL    HW115998   1.617   2.147   8.628  0.8335  0.3659 -0.5083
 1454SOL    HW215999   1.487   2.228   8.626  0.1996  1.0426  0.7460
 1455SOL     OW16000   0.235   3.730   6.164  0.0796  0.3147 -0.4234
 1455SOL    HW116001   0.143   3.754   6.154  0.0582  0.1265 -0.6830
 1455SOL    HW216002   0.240   3.734   6.260  0.8092 -0.6544 -0.4131
 1456SOL     OW16003   1.678   3.626  11.209 -0.0784  0.4171 -0.0366
 1456SOL    HW116004   1.624   3.555  11.242  1.9889 -0.3681  1.6227
 1456SOL    HW216005   1.687   3.667  11.295 -0.7646 -1.7441  1.0487
 1457SOL     OW16006   1.070   3.134  14.349 -0.7054 -0.1603  0.1861
 1457SOL    HW116007   1.018   3.059  14.379  2.2655 -3.3489 -2.7210
 1457SOL    HW216008   1.113   3.155  14.432 -0.8169 -0.6569  0.3690
 1458SOL     OW16009   0.771   2.300   8.742 -0.0986 -0.1868  0.5424
 1458SOL    HW116010   0.703   2.271   8.803 -0.0949 -0.6403  0.3304
 1458SOL    HW216011   0.731   2.270   8.661  0.1017 -0.0318  0.3852
 1459SOL     OW16012   1.461   0.952   6.375 -0.0421  0.1373 -0.4768
 1459SOL    HW116013   1.460   0.884   6.442 -1.1159  0.4054 -0.2230
 1459SOL    HW216014   1.553   0.957   6.349 -0.6598 -1.3112 -2.9778
 1460SOL     OW16015   3.154   1.132   6.415 -0.2121 -0.7924 -0.0388
 1460SOL    HW116016   3.154   1.103   6.506 -0.7664  0.3320  0.3254
 1460SOL    HW216017   3.060   1.150   6.406 -0.5289 -2.1058  0.6632
 1461SOL     OW16018   3.126   3.280   5.291 -0.0501  0.2312 -0.8775
 1461SOL    HW116019   3.110   3.190   5.264 -1.6058  0.7784 -1.7403
 1461SOL    HW216020   3.066   3.330   5.236 -0.1513 -0.4214 -1.3646
 1462SOL     OW16021   3.107   2.891   0.995 -0.1414  0.2701  0.1168
 1462SOL    HW116022   3.153   2.808   1.006 -0.2248  0.3212  0.9026
 1462SOL    HW216023   3.177   2.941   0.955  0.7298 -0.2587  0.9806
 1463SOL     OW16024   1.174   4.658  13.628 -0.1571  0.1524  0.3611
 1463SOL    HW116025   1.183   4.578  13.576  1.9006 -0.4308  1.6173
 1463SOL    HW216026   1.130   4.625  13.705  0.7797  0.2214  0.9256
 1464SOL     OW16027   1.410   3.251   9.368  0.2583  0.0179 -0.3814
 1464SOL    HW116028   1.331   3.246   9.313  2.5069 -1.8935 -3.4571
 1464SOL    HW216029   1.484   3.279   9.313  0.9998 -1.1228  0.0543
 1465SOL     OW16030   3.685   3.828  17.249  0.0400 -0.4102 -0.1150
 1465SOL    HW116031   3.691   3.866  17.336  1.9326 -1.0656  0.0285
 1465SOL    HW216032   3.589   3.831  17.241  0.0896 -0.9863 -0.9863
 1466SOL     OW16033   2.223   2.618  11.380  0.1443 -0.3130  0.2296
 1466SOL    HW116034   2.316   2.613  11.400  0.5667 -1.1921 -1.9794
 1466SOL    HW216035   2.191   2.635  11.469 -0.8726 -1.2381  0.0453
 1467SOL     OW16036   3.993   4.408   6.546 -0.2504  0.3268  0.2000
 1467SOL    HW116037   4.041   4.483   6.582 -0.7865  1.2133 -0.9569
 1467SOL    HW216038   4.061   4.368   6.491 -0.2426  1.4092 -0.5755
 1468SOL     OW16039   3.892   2.741   7.441 -0.0730  0.1565  0.4066
 1468SOL    HW116040   3.977   2.729   7.483  1.2404  0.1593 -2.2564
 1468SOL    HW216041   3.888   2.664   7.383 -1.5476 -3.7579  5.6968
 1469SOL     OW16042   2.792   1.529   0.234  0.1424 -0.1089  0.4335
 1469SOL    HW116043   2.753   1.442   0.245  0.4715 -0.4289 -1.0158
 1469SOL    HW216044   2.887   1.521   0.237  0.2898  1.1405 -1.0910
 1470SOL     OW16045   0.259   4.226  13.218 -0.5533 -0.2680  0.5534
 1470SOL    HW116046   0.223   4.303  13.261  0.9763  0.2959  0.8117
 1470SOL    HW216047   0.186   4.218  13.157 -0.5682  3.2952  0.1123
 1471SOL     OW16048   3.694   3.714   4.475  0.1633 -0.3716 -0.1069
 1471SOL    HW116049   3.632   3.698   4.546  1.0189  2.1011  1.1906
 1471SOL    HW216050   3.691   3.809   4.467 -0.0564 -0.3552  0.1774
 1472SOL     OW16051   2.871   2.189   4.915 -0.1052 -0.2854 -0.0862
 1472SOL    HW116052   2.933   2.124   4.882 -3.2769 -2.9512 -0.7596
 1472SOL    HW216053   2.795   2.132   4.922  1.2650 -2.1690 -0.4830
 1473SOL     OW16054   1.318   2.152  14.808 -0.0202  0.0973 -0.3369
 1473SOL    HW116055   1.390   2.214  14.806  0.3238 -0.3468 -1.4583
 1473SOL    HW216056   1.273   2.196  14.880 -0.1006 -0.4873 -0.0211
 1474SOL     OW16057   3.448   1.187  13.427  0.5260  0.4180  0.1921
 1474SOL    HW116058   3.413   1.103  13.455  1.5037 -0.5643 -1.5135
 1474SOL    HW216059   3.543   1.173  13.433  0.6552  0.8321 -0.7900
 1475SOL     OW16060   2.225   4.175   8.237  0.2416 -0.1680  0.4407
 1475SOL    HW116061   2.132   4.166   8.217  0.8133 -2.2502 -1.2248
 1475SOL    HW216062   2.264   4.106   8.183 -0.4351  1.0822 -1.6517
 1476SOL     OW16063   0.809   4.377   4.600  0.3425  0.4692 -0.0557
 1476SOL    HW116064   0.840   4.468   4.594 -0.5626  0.6344 -2.4371
 1476SOL    HW216065   0.818   4.343   4.511 -1.4662 -1.1371  0.3867
 1477SOL     OW16066   4.154   2.858   3.642  0.3885 -0.2821 -0.2909
 1477SOL    HW116067   4.148   2.953   3.639  0.3069 -0.3063 -0.8824
 1477SOL    HW216068   4.225   2.837   3.703 -2.0183  0.1023  2.6495
 1478SOL     OW16069   4.204   1.784   1.634 -0.2700  0.2634 -0.2194
 1478SOL    HW116070   4.165   1.697   1.628 -0.5302  0.4820 -1.6863
 1478SOL    HW216071   4.230   1.790   1.726 -2.0339 -0.5312  0.3240
 1479SOL     OW16072   1.718   2.943   8.983 -0.5435  0.6037  0.3277
 1479SOL    HW116073   1.741   2.887   8.909  2.3416  0.8304  1.0812
 1479SOL    HW216074   1.626   2.959   8.962 -0.7267  0.5720  1.1143
 1480SOL     OW16075   0.648   4.657   7.240 -0.3713  0.0195  0.3414
 1480SOL    HW116076   0.629   0.013   7.233 -0.9662 -0.2228 -1.3479
 1480SOL    HW216077   0.562   4.615   7.235 -0.1627 -0.5677  1.7536
 1481SOL     OW16078   3.475   4.676   8.069 -0.8902  0.1990  0.2950
 1481SOL    HW116079   3.383   4.649   8.067 -0.5841 -0.7233 -1.3520
 1481SOL    HW216080   3.503   4.597   8.024  0.7527  0.7070  0.4405
 1482SOL     OW16081   4.375   4.656   5.629 -0.1317  0.2226 -0.1933
 1482SOL    HW116082   4.462   4.632   5.663 -0.5572  0.0608  0.7937
 1482SOL    HW216083   4.381   0.012   5.615  1.9146  0.3056  1.2666
 1483SOL     OW16084   2.197   1.284   8.987 -0.3116 -0.5832  0.1965
 1483SOL    HW116085   2.114   1.288   8.938 -0.3201  0.1288  0.2559
 1483SOL    HW216086   2.160   1.264   9.073  1.7427  0.3914  1.3106
 1484SOL     OW16087   3.595   2.871   1.355  0.6102  0.3654  0.1276
 1484SOL    HW116088   3.526   2.817   1.316 -0.1805  0.4165  1.4748
 1484SOL    HW216089   3.629   2.919   1.280 -0.7279  0.3484 -0.4833
 1485SOL     OW16090   1.266   4.598   6.021  0.3337 -0.3068 -0.3279
 1485SOL    HW116091   1.359   4.620   6.017  0.5642 -1.2478 -0.0168
 1485SOL    HW216092   1.238   4.596   5.930 -1.0466 -0.1490  0.0850
 1486SOL     OW16093   2.601   2.138   1.562 -0.3690 -0.4182  0.0689
 1486SOL    HW116094   2.573   2.135   1.470  2.9772  2.3693 -1.0285
 1486SOL    HW216095   2.655   2.060   1.570 -0.5644 -0.4576  0.9907
 1487SOL     OW16096   2.199   4.322   4.635  0.1152 -0.0111  0.2817
 1487SOL    HW116097   2.133   4.315   4.705  1.5826  3.0782  1.9599
 1487SOL    HW216098   2.174   4.412   4.613 -1.0259 -0.7207 -1.3333
 1488SOL     OW16099   3.552   1.171   5.002 -0.8591  0.4924 -0.3935
 1488SOL    HW116100   3.559   1.159   4.907  0.2066  3.5571 -0.6762
 1488SOL    HW216101   3.505   1.254   5.008 -0.2453  0.7212  1.2974
 1489SOL     OW16102   0.828   3.329   7.936  0.2818 -0.0925 -0.7035
 1489SOL    HW116103   0.862   3.305   7.850 -0.7999  0.8181 -1.3745
 1489SOL    HW216104   0.895   3.389   7.970  0.8694 -1.5410  0.6958
 1490SOL     OW16105   2.633   2.495   1.682 -0.1649 -0.4068 -0.1723
 1490SOL    HW116106   2.587   2.571   1.717  1.0229 -0.4636  1.5446
 1490SOL    HW216107   2.573   2.479   1.610 -2.0091  1.1181  1.0258
 1491SOL     OW16108   4.492   4.406  16.793 -0.6668  0.2664 -0.0048
 1491SOL    HW116109   4.428   4.339  16.769 -1.7435  1.2075  0.2378
 1491SOL    HW216110   4.497   4.458  16.713 -0.9360  0.7296  0.2748
 1492SOL     OW16111   2.076   0.974   8.014 -0.3209 -0.5163 -0.1775
 1492SOL    HW116112   1.989   0.959   8.052 -0.2481 -0.2743  0.0862
 1492SOL    HW216113   2.062   1.052   7.960  1.4161 -0.5778 -0.7152
 1493SOL     OW16114   0.720   0.333   4.131 -0.2357 -0.2134 -0.0747
 1493SOL    HW116115   0.676   0.380   4.201 -0.5890 -0.4053 -0.1676
 1493SOL    HW216116   0.810   0.364   4.143 -0.8158  1.8490 -1.1279
 1494SOL     OW16117   2.039   2.878   1.756  0.5626 -0.3932 -0.4353
 1494SOL    HW116118   2.041   2.832   1.840  1.6020  1.0482  0.3236
 1494SOL    HW216119   1.968   2.941   1.771  0.1275 -1.3595  1.5455
 1495SOL     OW16120   3.534   0.450  11.621  0.2225  0.1576  0.0380
 1495SOL    HW116121   3.452   0.474  11.579  0.2701 -0.3765 -0.3602
 1495SOL    HW216122   3.539   0.355  11.609  0.6351  0.1459  0.3072
 1496SOL     OW16123   0.977   0.089   4.786  0.0534  0.5289  0.1091
 1496SOL    HW116124   0.965   0.056   4.874 -0.5248  1.0556  0.2302
 1496SOL    HW216125   0.882   0.091   4.777 -0.0117 -0.6466  0.6419
 1497SOL     OW16126   3.653   4.616   5.926  0.0599 -0.1363 -0.1014
 1497SOL    HW116127   3.739   4.593   5.892  0.5651  1.1713  0.2877
 1497SOL    HW216128   3.661   4.611   6.022 -2.8691 -1.0572  0.0860
 1498SOL     OW16129   3.741   3.369   6.884 -0.2496  0.9985 -0.4226
 1498SOL    HW116130   3.795   3.435   6.927  1.3665 -0.7164  0.2329
 1498SOL    HW216131   3.668   3.362   6.946  0.6580  1.7030  0.7313
 1499SOL     OW16132   2.219   4.682  13.129  0.1049  0.0770  0.1972
 1499SOL    HW116133   2.275   4.636  13.192 -0.6624 -1.4810 -0.2525
 1499SOL    HW216134   2.223   4.622  13.055 -1.1057  0.7117 -0.3753
 1500SOL     OW16135   1.830   0.913   7.790  0.1546 -0.3723  0.3855
 1500SOL    HW116136   1.853   0.884   7.702 -1.0076  0.7773 -0.3130
 1500SOL    HW216137   1.734   0.923   7.788  0.4387  2.1442 -0.8817
 1501SOL     OW16138   2.528   1.153   9.523  0.1905  0.0328 -0.1536
 1501SOL    HW116139   2.576   1.130   9.443  0.4276  1.2886 -0.3679
 1501SOL    HW216140   2.587   1.213   9.567 -1.1408  1.0825  0.1974
 1502SOL     OW16141   2.591   0.767   3.081 -0.0574  0.4297 -0.6436
 1502SOL    HW116142   2.628   0.701   3.022 -0.3102 -1.0310  0.8281
 1502SOL    HW216143   2.603   0.844   3.025 -1.9389  0.6768 -0.6804
 1503SOL     OW16144   2.640   3.009   2.036 -0.2644 -0.2787  0.1279
 1503SOL    HW116145   2.625   3.001   1.942  0.5848  2.6955 -0.2673
 1503SOL    HW216146   2.686   2.929   2.061 -1.1289 -1.2721 -1.5051
 1504SOL     OW16147   1.084   2.550   8.686  0.4962 -0.2418  0.7790
 1504SOL    HW116148   0.989   2.558   8.695  0.6681  1.3069  1.1610
 1504SOL    HW216149   1.095   2.599   8.605  2.9395 -2.4719 -0.2493
 1505SOL     OW16150   1.834   4.073   6.443  0.6489  0.5105  0.3021
 1505SOL    HW116151   1.782   4.003   6.485  1.4232  0.0052  0.4250
 1505SOL    HW216152   1.835   4.139   6.512 -2.1340  0.8604  0.0021
 1506SOL     OW16153   0.648   4.021   9.197 -0.0531 -0.7049 -0.0938
 1506SOL    HW116154   0.553   4.028   9.205 -0.2278 -1.4659 -1.5941
 1506SOL    HW216155   0.672   4.070   9.276 -0.9666 -0.8524  0.2770
 1507SOL     OW16156   0.070   1.241   7.091 -0.0911 -0.3737 -0.0947
 1507SOL    HW116157   4.737   1.251   7.155  0.5727 -1.1193  0.7602
 1507SOL    HW216158   0.014   1.246   7.014 -2.0857 -1.3608  1.2766
 1508SOL     OW16159   2.034   2.563  10.780 -0.4053 -0.1187  0.3494
 1508SOL    HW116160   2.018   2.517  10.698  3.0066 -1.5693  0.4937
 1508SOL    HW216161   2.099   2.509  10.825  1.9980  1.5622 -1.0300
 1509SOL     OW16162   0.729   0.239  17.546  0.0689  0.6425  0.2275
 1509SOL    HW116163   0.806   0.258  17.600  1.5961 -2.9350 -0.7038
 1509SOL    HW216164   0.686   0.324  17.545 -0.0940  0.5535 -0.4027
 1510SOL     OW16165   3.980   3.906   5.672  0.2855 -0.2851  0.2317
 1510SOL    HW116166   3.914   3.883   5.606 -1.1203  1.6249  0.9669
 1510SOL    HW216167   3.947   3.989   5.708 -0.6500 -0.3241 -0.5097
 1511SOL     OW16168   1.134   0.168   3.769  0.2606 -0.4377 -0.4798
 1511SOL    HW116169   1.120   0.080   3.805 -0.4857 -1.0014 -2.1402
 1511SOL    HW216170   1.224   0.185   3.794  0.7493 -1.2829 -1.6610
 1512SOL     OW16171   3.549   1.461   3.497  0.3718  0.5773 -0.0378
 1512SOL    HW116172   3.612   1.390   3.511  3.1445  2.9515 -0.4952
 1512SOL    HW216173   3.533   1.434   3.406  1.7597  3.2076 -1.0670
 1513SOL     OW16174   2.276   4.428   2.246 -0.2736  0.8524  0.1657
 1513SOL    HW116175   2.341   4.483   2.202  2.8039 -2.2525  0.8467
 1513SOL    HW216176   2.339   4.373   2.294  0.5083  0.1815 -1.6191
 1514SOL     OW16177   3.807   4.539  11.936  0.0356  0.9190 -0.0408
 1514SOL    HW116178   3.787   4.632  11.951 -1.9364  0.2948  1.2291
 1514SOL    HW216179   3.869   4.521  12.006 -1.5880 -1.6368  0.7380
 1515SOL     OW16180   4.658   1.081   1.552 -0.5085  0.2703 -0.1206
 1515SOL    HW116181   4.670   1.026   1.475 -0.1978  1.3313 -0.8165
 1515SOL    HW216182   4.690   1.023   1.621 -0.9426  0.0390 -0.1117
 1516SOL     OW16183   2.173   0.869  12.704 -0.3132  0.4456 -0.0937
 1516SOL    HW116184   2.211   0.864  12.616  0.7320 -2.0896  0.4897
 1516SOL    HW216185   2.180   0.963  12.716 -0.9169  0.7916 -2.3497
 1517SOL     OW16186   2.131   4.086   1.242  0.3791  0.3503 -0.0867
 1517SOL    HW116187   2.107   4.059   1.153  1.6874  1.4536 -0.7726
 1517SOL    HW216188   2.226   4.079   1.246  0.5684  2.5470 -0.8887
 1518SOL     OW16189   4.636   3.830  13.311 -0.0349 -0.2327  0.2388
 1518SOL    HW116190   4.589   3.866  13.387  0.5955  1.0778  0.0137
 1518SOL    HW216191   4.714   3.886  13.310 -0.5466  0.4486 -1.8910
 1519SOL     OW16192   3.082   3.349  13.995 -0.1353 -0.2802 -0.3481
 1519SOL    HW116193   3.061   3.260  13.968  1.2284  0.0054 -2.3959
 1519SOL    HW216194   3.012   3.403  13.960 -2.2499 -1.5541  1.9454
 1520SOL     OW16195   0.453   1.386   2.706  0.4635 -0.3612  0.3688
 1520SOL    HW116196   0.395   1.455   2.674  2.8416  1.6153  0.3458
 1520SOL    HW216197   0.426   1.375   2.797 -0.4576 -0.4962  0.0792
 1521SOL     OW16198   2.430   2.864   6.980 -0.3721  0.4229  0.1058
 1521SOL    HW116199   2.498   2.809   7.020 -0.7451 -0.4337 -0.4308
 1521SOL    HW216200   2.473   2.947   6.959  0.7466  0.0418  0.8884
 1522SOL     OW16201   1.327   4.729   2.484  0.1090  0.3239 -0.2764
 1522SOL    HW116202   1.249   4.675   2.476 -0.1919  0.8560 -0.9706
 1522SOL    HW216203   1.378   4.715   2.404 -1.5013  0.3552 -1.3018
 1523SOL     OW16204   1.917   4.402  12.050  0.1262  1.0318  0.3391
 1523SOL    HW116205   1.999   4.433  12.013  0.1824 -1.0045 -1.2875
 1523SOL    HW216206   1.875   4.482  12.080 -2.0361 -0.9893  2.7618
 1524SOL     OW16207   1.013   3.505   5.996  0.5612 -0.0437  0.3195
 1524SOL    HW116208   1.058   3.572   5.944  0.1210 -0.6357 -0.8249
 1524SOL    HW216209   1.015   3.531   6.088  2.6097  2.2207 -0.3631
 1525SOL     OW16210   2.041   2.954  15.537 -0.6034 -0.1335 -0.4451
 1525SOL    HW116211   2.010   2.880  15.589  2.2105 -0.8738  0.1473
 1525SOL    HW216212   1.967   3.012  15.555 -0.0993 -0.3195  2.1982
 1526SOL     OW16213   4.610   0.830   7.871  0.6930  0.1352 -0.1109
 1526SOL    HW116214   4.533   0.879   7.899  0.4815 -0.2954  0.0494
 1526SOL    HW216215   4.663   0.906   7.845 -0.1983  0.5927 -0.5762
 1527SOL     OW16216   4.194   0.388   7.863 -0.0035 -0.3836  0.2294
 1527SOL    HW116217   4.238   0.372   7.780 -0.3533  0.3862 -0.1090
 1527SOL    HW216218   4.224   0.477   7.883  0.7482  0.2299 -3.5363
 1528SOL     OW16219   4.105   2.090   4.246 -0.8514  0.1393  0.3462
 1528SOL    HW116220   4.179   2.125   4.296 -0.3497  0.2795 -0.4880
 1528SOL    HW216221   4.134   1.999   4.240  0.6957  0.8050 -2.0757
 1529SOL     OW16222   1.757   0.687   8.640 -0.4645 -0.1311  0.1737
 1529SOL    HW116223   1.718   0.602   8.660 -1.0143  0.4385  1.5534
 1529SOL    HW216224   1.739   0.726   8.726 -0.0591  0.5278 -0.0358
 1530SOL     OW16225   0.074   2.887  17.420  0.0613 -0.0721  0.1342
 1530SOL    HW116226   4.735   2.936  17.394  0.0388 -0.0640  0.2154
 1530SOL    HW216227   0.086   2.840  17.337  1.9142  1.1264 -0.2800
 1531SOL     OW16228   4.672   2.048   2.973 -0.0856 -0.0416  0.0591
 1531SOL    HW116229   4.718   2.126   3.002  1.3868 -0.4336 -1.2687
 1531SOL    HW216230   4.629   2.041   3.058 -0.6326  1.3234 -0.1117
 1532SOL     OW16231   2.799   0.596   4.755 -0.2510 -0.2937  0.1569
 1532SOL    HW116232   2.805   0.594   4.660  0.1240  0.1263  0.1657
 1532SOL    HW216233   2.824   0.507   4.779 -1.3176  0.1269  2.8412
 1533SOL     OW16234   1.045   2.071   4.031 -0.7113 -0.9496  0.4585
 1533SOL    HW116235   1.041   2.166   4.030 -0.4313 -0.9482 -0.6142
 1533SOL    HW216236   1.109   2.035   3.969 -0.8574  0.0071 -0.2510
 1534SOL     OW16237   4.142   2.245  17.401  0.4755  0.1436  0.2411
 1534SOL    HW116238   4.234   2.224  17.413 -0.0362 -2.2242 -0.0631
 1534SOL    HW216239   4.118   2.196  17.322  2.3862  1.2592 -1.0458
 1535SOL     OW16240   4.071   4.495   2.958 -0.0017  0.7272 -0.3519
 1535SOL    HW116241   4.139   4.437   2.923  0.0366  0.1431  0.6789
 1535SOL    HW216242   3.993   4.471   2.909 -0.0887 -1.4294  0.8617
 1536SOL     OW16243   3.455   1.048   4.469  0.0193 -0.0775 -0.2981
 1536SOL    HW116244   3.418   0.960   4.463 -1.4023  0.4780  0.2095
 1536SOL    HW216245   3.381   1.107   4.453  0.3369  0.2351 -0.6057
 1537SOL     OW16246   2.808   4.513   4.092 -0.0074 -0.2312  0.3617
 1537SOL    HW116247   2.732   4.545   4.139  0.6567 -1.0339  1.9709
 1537SOL    HW216248   2.876   4.519   4.159  0.0943  1.1992  0.1167
 1538SOL     OW16249   1.370   4.378  16.549  0.0560  0.0052  0.2396
 1538SOL    HW116250   1.386   4.387  16.455  0.7031 -0.3280  0.3164
 1538SOL    HW216251   1.319   4.297  16.549  0.5675 -0.3215 -0.2386
 1539SOL     OW16252   0.366   0.408   9.182 -0.1321  0.2350  0.4141
 1539SOL    HW116253   0.276   0.415   9.212 -0.2507  1.9302 -0.3578
 1539SOL    HW216254   0.361   0.335   9.120  2.1569 -1.2610  1.9672
 1540SOL     OW16255   0.650   3.343  16.891 -0.2143  0.2062 -0.4776
 1540SOL    HW116256   0.709   3.308  16.957  3.1255  1.9027 -2.5331
 1540SOL    HW216257   0.679   3.434  16.882 -3.0259  0.8300 -3.1886
 1541SOL     OW16258   3.562   1.743  10.083  0.4015 -0.1129  0.4426
 1541SOL    HW116259   3.515   1.713  10.161  0.6667 -0.6955  0.3797
 1541SOL    HW216260   3.494   1.738  10.016  1.0116  1.5299 -0.2765
 1542SOL     OW16261   2.347   1.148   2.248  0.5257 -0.0342  0.5742
 1542SOL    HW116262   2.423   1.137   2.191  0.7494 -2.8473  1.3949
 1542SOL    HW216263   2.359   1.087   2.321 -2.5555 -1.0715  0.2343
 1543SOL     OW16264   1.158   3.955   4.609 -0.0625 -0.1298 -0.2284
 1543SOL    HW116265   1.114   4.011   4.673 -0.2348 -1.6760  1.0155
 1543SOL    HW216266   1.084   3.895   4.607  0.1703 -0.4462  0.5838
 1544SOL     OW16267   0.605   2.148   2.842 -0.0967 -0.5443  0.3975
 1544SOL    HW116268   0.649   2.222   2.802 -0.4384 -1.0965 -1.0128
 1544SOL    HW216269   0.686   2.103   2.866  1.1808  0.3109 -2.2844
 1545SOL     OW16270   2.591   1.109   6.045  0.0505 -0.7175  0.2833
 1545SOL    HW116271   2.501   1.079   6.037  0.0343 -0.9386  1.2393
 1545SOL    HW216272   2.632   1.023   6.032 -0.4300 -0.9014 -0.0145
 1546SOL     OW16273   3.063   1.668   3.422 -0.2014  0.3011 -0.0183
 1546SOL    HW116274   3.087   1.616   3.499 -0.6068  1.9847  1.2392
 1546SOL    HW216275   3.113   1.745   3.450 -2.0635  1.1661  0.9608
 1547SOL     OW16276   3.966   4.423   2.244  0.3409  0.5114  0.2023
 1547SOL    HW116277   3.963   4.422   2.148  0.0873 -1.4705  0.2208
 1547SOL    HW216278   4.020   4.348   2.269 -0.3904  0.6323  2.1538
 1548SOL     OW16279   2.801   0.428  14.492 -0.0647 -0.5415 -0.2636
 1548SOL    HW116280   2.832   0.354  14.440  0.3904  0.7005 -1.7671
 1548SOL    HW216281   2.774   0.384  14.572 -0.0841 -0.4027 -0.1933
 1549SOL     OW16282   2.383   0.895   7.366  0.3319  0.0686  0.8560
 1549SOL    HW116283   2.443   0.916   7.294  1.9645 -0.3339  2.0986
 1549SOL    HW216284   2.439   0.910   7.442  1.3043  0.4850  0.0664
 1550SOL     OW16285   0.026   3.303   3.163 -0.2167  0.8398  0.1968
 1550SOL    HW116286   4.676   3.297   3.128  0.7786 -0.4405 -2.1016
 1550SOL    HW216287   0.065   3.361   3.098 -1.0355  0.3244 -0.7489
 1551SOL     OW16288   1.093   0.559   3.797  0.1119  0.0074 -0.2146
 1551SOL    HW116289   1.083   0.654   3.798 -2.1932 -0.2455 -0.2171
 1551SOL    HW216290   1.136   0.538   3.880  1.4020 -0.4639 -1.0052
 1552SOL     OW16291   2.946   4.725   3.031  0.1996 -0.0853 -0.8546
 1552SOL    HW116292   3.003   4.691   2.962  2.4683 -1.6211  1.7573
 1552SOL    HW216293   2.859   4.729   2.992  0.1742  3.0631 -0.4591
 1553SOL     OW16294   3.994   1.375   7.521  0.0547  0.2413  0.1344
 1553SOL    HW116295   4.070   1.336   7.565  0.5836  1.5999  0.4305
 1553SOL    HW216296   4.022   1.365   7.430 -2.6261  1.6582 -0.8286
 1554SOL     OW16297   3.390   3.397  16.898 -0.3558 -0.7200 -0.1136
 1554SOL    HW116298   3.453   3.469  16.899 -0.8017 -0.3322 -0.2535
 1554SOL    HW216299   3.351   3.424  16.815 -0.1373  2.8011  0.9398
 1555SOL     OW16300   1.206   1.023   5.364 -0.5132  0.4466  0.2570
 1555SOL    HW116301   1.269   1.032   5.293 -2.5190  1.4689 -1.4216
 1555SOL    HW216302   1.137   1.082   5.332  0.0198  0.8818 -0.0919
 1556SOL     OW16303   3.481   3.510  15.725 -0.0847 -0.4152  0.0129
 1556SOL    HW116304   3.550   3.449  15.702 -0.9524 -1.9940  1.5890
 1556SOL    HW216305   3.505   3.571  15.656 -0.8302 -2.7097 -2.2618
 1557SOL     OW16306   1.589   3.350   9.203  0.2834  0.0719 -0.1490
 1557SOL    HW116307   1.608   3.436   9.240 -1.4043  0.7892 -0.9212
 1557SOL    HW216308   1.665   3.325   9.151  0.0757  4.0179 -2.3580
 1558SOL     OW16309   4.068   2.512   5.820  0.0328  0.2288  0.1700
 1558SOL    HW116310   4.154   2.542   5.850  0.4503  0.4781 -1.2818
 1558SOL    HW216311   4.076   2.417   5.811  0.8199  0.3730 -0.6359
 1559SOL     OW16312   1.158   3.918  14.977  0.3164  0.4081 -0.2237
 1559SOL    HW116313   1.094   3.989  14.974 -1.0950 -0.8152  0.6928
 1559SOL    HW216314   1.099   3.845  14.958  0.8495 -0.0285 -0.2067
 1560SOL     OW16315   1.630   2.205   8.313 -0.1052 -0.1284  0.3128
 1560SOL    HW116316   1.560   2.142   8.294  2.0756 -2.6352  0.6497
 1560SOL    HW216317   1.584   2.242   8.389 -0.0738  0.3110  0.1164
 1561SOL     OW16318   0.802   3.149   0.804 -0.2316  0.3643  0.2859
 1561SOL    HW116319   0.788   3.228   0.751  0.8500  1.0499  1.0152
 1561SOL    HW216320   0.810   3.079   0.739 -0.7193 -0.4854  1.1361
 1562SOL     OW16321   0.347   0.868   5.040 -0.2299  0.6485  0.1514
 1562SOL    HW116322   0.258   0.898   5.019 -0.0701  0.1345 -1.2400
 1562SOL    HW216323   0.364   0.921   5.118 -0.9586  0.9067  0.1325
 1563SOL     OW16324   4.724   4.473   2.283  0.4758  0.3956 -0.0287
 1563SOL    HW116325   4.731   4.488   2.189  1.0674 -3.4291 -0.5713
 1563SOL    HW216326   0.014   4.555   2.325 -1.1254 -0.6604  3.1294
 1564SOL     OW16327   3.839   1.420   7.126 -0.0760  0.4128  0.1932
 1564SOL    HW116328   3.844   1.326   7.146  0.4294  0.5858  0.8912
 1564SOL    HW216329   3.916   1.458   7.167  1.0339  0.4703 -1.9842
 1565SOL     OW16330   2.712   3.841   0.756  0.6639  0.0797  0.0661
 1565SOL    HW116331   2.649   3.822   0.687  0.1205  0.7984  0.3609
 1565SOL    HW216332   2.692   3.932   0.780 -1.5708 -1.1777  3.0150
 1566SOL     OW16333   1.020   3.463   2.640 -0.2524 -0.4295  0.1167
 1566SOL    HW116334   1.083   3.450   2.568  0.3572  1.2182  0.3481
 1566SOL    HW216335   1.017   3.371   2.668  0.9879 -0.2125  0.9981
 1567SOL     OW16336   2.862   1.796   2.902  0.0570  0.4276  0.0398
 1567SOL    HW116337   2.908   1.863   2.953  0.4354  0.4819 -0.3766
 1567SOL    HW216338   2.796   1.849   2.858 -0.4458  0.0256  0.3149
 1568SOL     OW16339   3.196   0.705   5.456  0.2641 -0.0374 -0.0672
 1568SOL    HW116340   3.199   0.615   5.423 -0.9771  0.4685 -1.5630
 1568SOL    HW216341   3.244   0.763   5.397  1.7561 -0.8067  0.3928
 1569SOL     OW16342   3.036   2.381   2.180  0.4340 -0.2581  0.1619
 1569SOL    HW116343   3.105   2.411   2.122  0.4705  0.3454  0.5132
 1569SOL    HW216344   2.975   2.332   2.125 -0.9299 -0.4613  1.8452
 1570SOL     OW16345   4.238   0.994   4.783  0.1818 -0.3142  0.4210
 1570SOL    HW116346   4.240   0.917   4.840 -1.5412  0.4232  1.4718
 1570SOL    HW216347   4.307   1.052   4.817  3.0081 -1.8415 -2.7040
 1571SOL     OW16348   4.227   2.143   8.843 -0.0416  0.2065 -0.2238
 1571SOL    HW116349   4.252   2.051   8.836  3.1043  1.1773 -1.6815
 1571SOL    HW216350   4.132   2.147   8.834 -0.1734  0.3668  1.2669
 1572SOL     OW16351   1.714   4.415   5.606 -0.4214  0.1181  0.7945
 1572SOL    HW116352   1.762   4.385   5.530  0.1083  1.5701  0.5529
 1572SOL    HW216353   1.774   4.399   5.679 -0.6915  1.4635  1.3305
 1573SOL     OW16354   3.842   3.763   0.934 -0.7814 -0.3777  0.3016
 1573SOL    HW116355   3.870   3.843   0.979 -0.4351 -0.4916  0.2878
 1573SOL    HW216356   3.907   3.766   0.863 -1.6494 -1.1762 -0.5354
 1574SOL     OW16357   2.584   3.625   7.418  0.1827  0.1442 -0.0872
 1574SOL    HW116358   2.493   3.596   7.428 -0.3192  2.2279  1.6422
 1574SOL    HW216359   2.606   3.637   7.511  0.0598  1.0254 -0.1685
 1575SOL     OW16360   0.047   4.715   6.740  0.4355  0.4638 -0.1857
 1575SOL    HW116361   0.123   0.035   6.747  2.7666 -2.6864  0.1652
 1575SOL    HW216362   0.079   4.649   6.679 -1.7865 -1.4308  0.7097
 1576SOL     OW16363   2.487   2.623  11.465 -0.9782  0.1649  0.3740
 1576SOL    HW116364   2.471   2.628  11.559 -3.5539  1.5424 -0.1512
 1576SOL    HW216365   2.583   2.629  11.457 -1.2630  2.1086 -1.5042
 1577SOL     OW16366   4.152   3.409  13.522  0.0506  0.1422  0.3386
 1577SOL    HW116367   4.175   3.343  13.586 -2.2308 -2.8852 -1.9734
 1577SOL    HW216368   4.235   3.425  13.476  1.3097  0.5553  2.7420
 1578SOL     OW16369   1.365   1.869   1.404  0.6137 -0.3939 -0.5536
 1578SOL    HW116370   1.285   1.830   1.439  0.0706  1.4886  0.3357
 1578SOL    HW216371   1.382   1.946   1.458 -1.0986 -0.8405  0.6539
 1579SOL     OW16372   3.029   4.467  10.914 -1.0035  0.1675  0.4056
 1579SOL    HW116373   3.097   4.434  10.854  0.3968 -0.6972  2.4798
 1579SOL    HW216374   3.077   4.541  10.951 -0.4936  0.7740 -1.4379
 1580SOL     OW16375   4.212   1.275  12.246 -0.2952  0.3177  0.1030
 1580SOL    HW116376   4.255   1.211  12.189 -2.1616  0.3938 -1.3749
 1580SOL    HW216377   4.216   1.226  12.329  1.1100  0.8470  0.3424
 1581SOL     OW16378   0.987   0.131  17.425 -0.4887 -0.7080 -0.3124
 1581SOL    HW116379   1.047   0.130  17.350  0.5912  2.3329  0.5103
 1581SOL    HW216380   0.931   0.205  17.399  2.2381  1.3646 -0.3980
 1582SOL     OW16381   0.634   0.389   2.878  0.5142 -0.3278  0.5318
 1582SOL    HW116382   0.652   0.348   2.963  0.9020 -2.6411 -0.6708
 1582SOL    HW216383   0.549   0.357   2.850 -0.4522  1.1234  1.7912
 1583SOL     OW16384   3.500   2.682  10.362 -0.4666  0.1643 -0.1991
 1583SOL    HW116385   3.518   2.590  10.343 -0.5203  0.2048 -0.4514
 1583SOL    HW216386   3.535   2.722  10.282 -0.0494  0.4544  0.1298
 1584SOL     OW16387   4.567   0.096   3.509  0.0722  0.6491 -0.0849
 1584SOL    HW116388   4.656   0.059   3.516 -0.1624  0.2081  0.5833
 1584SOL    HW216389   4.560   0.106   3.414  0.3400  0.3941 -0.1322
 1585SOL     OW16390   2.009   2.325   9.509  0.3876  0.4247 -0.3032
 1585SOL    HW116391   2.048   2.335   9.422 -0.9784 -1.5420 -1.1235
 1585SOL    HW216392   1.953   2.401   9.523  0.2922  0.1214  0.9282
 1586SOL     OW16393   4.632   4.132   9.023  0.5154  0.2155 -0.8304
 1586SOL    HW116394   4.718   4.140   8.982 -0.7796 -2.1461 -4.0033
 1586SOL    HW216395   4.658   4.090   9.105  1.9624  1.0664 -0.8554
 1587SOL     OW16396   4.424   1.810  17.517 -0.0248 -0.0450 -0.1624
 1587SOL    HW116397   4.345   1.818  17.465  0.8261  1.1562 -1.2852
 1587SOL    HW216398   4.491   1.862  17.473 -2.1371  2.8508  0.0525
 1588SOL     OW16399   4.047   3.332  10.322 -0.1910  0.1453 -0.1255
 1588SOL    HW116400   3.972   3.325  10.381  0.2883 -0.7974  0.3659
 1588SOL    HW216401   4.115   3.284  10.369  0.1520 -0.7515 -1.5517
 1589SOL     OW16402   0.234   3.887   0.627 -0.0586  0.0498  0.0753
 1589SOL    HW116403   0.147   3.881   0.666 -1.3218 -0.0983 -2.7635
 1589SOL    HW216404   0.279   3.960   0.670  1.4952 -0.4674 -0.6617
 1590SOL     OW16405   3.605   4.363  14.617 -0.1637  0.3085  0.2678
 1590SOL    HW116406   3.584   4.301  14.688  1.2772 -0.2197  0.2221
 1590SOL    HW216407   3.578   4.315  14.539  0.0045  0.8967 -0.1411
 1591SOL     OW16408   3.153   1.654   9.235  0.2527  0.2747  0.0711
 1591SOL    HW116409   3.088   1.657   9.164  0.1055 -0.2145  0.1859
 1591SOL    HW216410   3.103   1.646   9.316 -1.9444  3.0786 -1.0049
 1592SOL     OW16411   3.791   2.396   8.954 -0.1242  0.6150 -0.1353
 1592SOL    HW116412   3.716   2.340   8.972  0.3613  0.2206  0.6159
 1592SOL    HW216413   3.748   2.461   8.897  2.2565  2.2104 -0.1139
 1593SOL     OW16414   2.266   4.472   5.335  0.2250 -0.1931  0.0955
 1593SOL    HW116415   2.261   4.387   5.292 -1.1105  0.8587 -1.8654
 1593SOL    HW216416   2.254   4.525   5.255  1.5670  0.2489  0.1899
 1594SOL     OW16417   0.655   2.732  17.712  0.3303  0.1769  0.7555
 1594SOL    HW116418   0.726   2.737  17.649  0.8966 -0.6766  1.3232
 1594SOL    HW216419   0.634   2.824  17.727 -2.0905 -0.6685  2.7382
 1595SOL     OW16420   4.171   3.839   3.474  0.4618  0.6907 -0.2218
 1595SOL    HW116421   4.185   3.745   3.487 -0.1695  0.9277  2.1323
 1595SOL    HW216422   4.118   3.864   3.549  0.5212  1.1351 -0.3278
 1596SOL     OW16423   4.441   2.867   4.988  0.5536 -0.1939 -0.3185
 1596SOL    HW116424   4.509   2.834   4.929  0.8816  1.0587 -0.6249
 1596SOL    HW216425   4.376   2.797   4.983 -0.2290  0.6235 -1.3766
 1597SOL     OW16426   3.147   0.309   8.361 -0.7037  0.2836 -0.2153
 1597SOL    HW116427   3.237   0.324   8.334 -0.1074 -0.8970  1.0624
 1597SOL    HW216428   3.116   0.399   8.369  2.6985  1.2081  2.2354
 1598SOL     OW16429   2.058   1.749   8.604  0.2213 -0.4880  0.2294
 1598SOL    HW116430   2.033   1.839   8.625  1.1928 -0.6681  2.1414
 1598SOL    HW216431   1.989   1.701   8.652 -2.8712  2.2657 -1.4893
 1599SOL     OW16432   0.698   3.028   5.811  0.5478 -0.4499  0.3472
 1599SOL    HW116433   0.745   3.050   5.730 -0.9933 -0.5248 -0.5750
 1599SOL    HW216434   0.610   3.008   5.779  0.1248  2.7364 -0.5574
 1600SOL     OW16435   4.409   3.438   2.793 -0.2255  0.1861 -0.3540
 1600SOL    HW116436   4.410   3.431   2.698  1.5579 -0.0509 -0.3248
 1600SOL    HW216437   4.492   3.486   2.794 -0.0161 -0.1678 -0.8322
 1601SOL     OW16438   3.505   0.844   6.710 -0.0564  0.2615  0.2644
 1601SOL    HW116439   3.595   0.816   6.724 -0.0422 -0.0604 -0.4606
 1601SOL    HW216440   3.492   0.818   6.619 -1.2072 -2.6326  1.2721
 1602SOL     OW16441   0.493   4.260   2.432 -1.0558 -0.8894  0.6616
 1602SOL    HW116442   0.564   4.196   2.434 -1.8470 -1.6698  3.5133
 1602SOL    HW216443   0.473   4.260   2.339  1.2041  0.9970  0.1604
 1603SOL     OW16444   1.668   4.348   9.723 -0.0966  0.6295  0.3622
 1603SOL    HW116445   1.672   4.342   9.818 -1.0590  2.1062  0.4973
 1603SOL    HW216446   1.693   4.261   9.693 -1.8491 -0.4446  2.0806
 1604SOL     OW16447   2.932   1.463   4.825  0.2920  0.3844  0.1836
 1604SOL    HW116448   2.876   1.396   4.864 -1.1836  1.5862  0.1233
 1604SOL    HW216449   2.887   1.507   4.753 -1.4697 -1.1514  0.3571
 1605SOL     OW16450   2.665   3.714  11.244 -0.9140  0.1000  0.0564
 1605SOL    HW116451   2.572   3.720  11.263 -0.4318  1.3684  2.0312
 1605SOL    HW216452   2.710   3.724  11.328 -0.0393  0.5043 -0.4513
 1606SOL     OW16453   4.224   4.190   1.912  0.2839 -0.6025  0.3613
 1606SOL    HW116454   4.208   4.208   2.004 -2.3317  2.3206 -0.6369
 1606SOL    HW216455   4.293   4.253   1.890 -1.0362  0.4089 -0.9302
 1607SOL     OW16456   2.044   3.012   5.508 -0.4428  0.2141 -0.0454
 1607SOL    HW116457   2.052   3.106   5.529  2.1860  0.2950 -1.3928
 1607SOL    HW216458   2.051   2.973   5.595 -0.8656 -0.3249 -0.2592
 1608SOL     OW16459   2.819   2.030  17.370 -0.4737  0.2278 -0.2308
 1608SOL    HW116460   2.904   2.061  17.341 -0.9637  0.2143 -1.6611
 1608SOL    HW216461   2.832   1.946  17.414 -1.3369  0.2201  0.0154
 1609SOL     OW16462   0.017   0.190   2.086 -0.6033  0.1748  0.3638
 1609SOL    HW116463   4.702   0.266   2.062 -0.8949 -0.4247 -0.9316
 1609SOL    HW216464   4.726   0.179   2.176  0.1190 -0.7608  0.4842
 1610SOL     OW16465   4.402   2.182  17.412 -0.1546 -0.8804  0.3653
 1610SOL    HW116466   4.457   2.106  17.433 -1.4341 -2.4778 -2.1277
 1610SOL    HW216467   4.420   2.192  17.319 -1.3727  0.5575  0.2832
 1611SOL     OW16468   2.872   4.162  16.023  0.1279  0.0979  0.1163
 1611SOL    HW116469   2.937   4.093  16.038  0.0543 -0.3991 -1.7605
 1611SOL    HW216470   2.820   4.151  16.102 -1.8886  1.1859 -1.0574
 1612SOL     OW16471   1.681   0.074   7.533 -0.1085 -0.2646  0.3556
 1612SOL    HW116472   1.726   4.733   7.564  2.1839  0.2084 -1.7007
 1612SOL    HW216473   1.761   0.124   7.517 -0.6910 -0.3072 -2.7906
 1613SOL     OW16474   1.345   2.429  16.569 -0.3809  0.5619  0.9332
 1613SOL    HW116475   1.281   2.358  16.556 -0.7318  1.0260  0.1107
 1613SOL    HW216476   1.362   2.469  16.484 -1.5196  3.0212  1.8757
 1614SOL     OW16477   4.448   1.919   6.430 -0.8665  0.7970 -0.2537
 1614SOL    HW116478   4.538   1.896   6.454 -1.7857 -1.7265  0.7267
 1614SOL    HW216479   4.392   1.861   6.480  0.0851 -0.6862 -0.8939
 1615SOL     OW16480   1.600   2.039   6.419 -0.7480  0.2807  0.0219
 1615SOL    HW116481   1.634   2.047   6.508  1.3014  1.2055 -0.8488
 1615SOL    HW216482   1.658   1.977   6.375  1.2116  2.0694  0.0678
 1616SOL     OW16483   0.010   2.921   0.092 -0.1402 -0.7345  0.1553
 1616SOL    HW116484   4.716   2.879   0.173 -2.8542  0.3819 -0.3582
 1616SOL    HW216485   4.701   3.004   0.098 -0.0115 -0.5650 -1.3124
 1617SOL     OW16486   4.055   0.479   6.754 -0.2917  0.1439 -0.2623
 1617SOL    HW116487   4.088   0.439   6.835 -0.6629 -1.2325 -0.7947
 1617SOL    HW216488   4.133   0.453   6.704  0.8902  2.2596  0.5145
 1618SOL     OW16489   4.691   1.343   4.735 -0.0420  0.2038 -0.1948
 1618SOL    HW116490   4.608   1.389   4.743 -1.3061 -1.8093 -1.8437
 1618SOL    HW216491   4.680   1.311   4.645 -0.4158  1.0898 -0.4596
 1619SOL     OW16492   4.331   2.486   1.173 -1.0376  0.1915 -0.0704
 1619SOL    HW116493   4.265   2.551   1.149 -1.4428 -0.6431 -1.2450
 1619SOL    HW216494   4.276   2.411   1.194 -0.9053  0.6760  2.0452
 1620SOL     OW16495   0.150   0.149   7.186  0.2375  0.2895 -0.9434
 1620SOL    HW116496   0.064   0.131   7.148  0.4046 -2.5490 -0.0120
 1620SOL    HW216497   0.166   0.234   7.145  0.4832  0.1689 -1.0946
 1621SOL     OW16498   2.263   0.301   5.257  0.2841 -0.3550 -0.4710
 1621SOL    HW116499   2.199   0.289   5.186 -0.8932  0.9288  0.3556
 1621SOL    HW216500   2.336   0.346   5.215  0.0085 -0.2787 -0.8716
 1622SOL     OW16501   1.195   2.514   4.415 -0.4014 -0.6223  0.0808
 1622SOL    HW116502   1.202   2.608   4.429  2.1693 -0.9032  0.7942
 1622SOL    HW216503   1.138   2.510   4.338  1.0180  0.4242 -1.0207
 1623SOL     OW16504   3.441   3.942   4.987 -0.3555 -0.0774  0.1825
 1623SOL    HW116505   3.369   3.897   4.943  0.4973  0.4632 -1.7890
 1623SOL    HW216506   3.389   3.996   5.046 -1.1390 -0.9279  0.2747
 1624SOL     OW16507   4.573   2.660   4.466  0.1353 -0.5593 -0.1590
 1624SOL    HW116508   4.605   2.591   4.524 -0.4103  0.0240  0.8318
 1624SOL    HW216509   4.567   2.614   4.382  0.6037  1.1466 -1.1323
 1625SOL     OW16510   3.680   1.588   3.836 -0.0986 -0.3099  0.0269
 1625SOL    HW116511   3.640   1.639   3.906  0.3151 -0.1805  0.1678
 1625SOL    HW216512   3.649   1.502   3.866  0.4906 -0.2829  0.7002
 1626SOL     OW16513   0.921   3.533   4.150  0.0208 -0.3945  0.3633
 1626SOL    HW116514   0.990   3.586   4.191 -1.4274  1.4836  0.3793
 1626SOL    HW216515   0.874   3.503   4.228 -0.9754 -0.0839 -0.1137
 1627SOL     OW16516   1.865   0.263  16.495  0.1261  0.3390  0.3494
 1627SOL    HW116517   1.870   0.286  16.588 -0.4963  0.3245  0.3916
 1627SOL    HW216518   1.773   0.235  16.488  0.1821  0.1794  0.2546
 1628SOL     OW16519   3.907   1.187   0.193  0.1901  0.4994  0.3456
 1628SOL    HW116520   3.887   1.183   0.099 -0.0521 -0.4091  0.4316
 1628SOL    HW216521   3.862   1.110   0.227  0.0843 -0.1230 -1.1979
 1629SOL     OW16522   4.366   2.731  11.573  0.4921  0.4372  0.4848
 1629SOL    HW116523   4.337   2.702  11.659  2.9480  0.4305  1.3122
 1629SOL    HW216524   4.436   2.670  11.549  0.6514  0.2897  1.3219
 1630SOL     OW16525   4.117   0.523   4.748 -0.1902  0.2139  0.4284
 1630SOL    HW116526   4.029   0.508   4.784 -0.8145  0.3792 -1.0060
 1630SOL    HW216527   4.105   0.522   4.653  3.1727  0.1273  0.0048
 1631SOL     OW16528   4.010   1.291   2.600  0.2686  0.4604 -0.4357
 1631SOL    HW116529   4.052   1.372   2.628 -0.7691  0.6632  0.5437
 1631SOL    HW216530   4.003   1.245   2.684  1.0530  0.3570 -0.4281
 1632SOL     OW16531   1.590   2.735   7.082  0.8339 -0.4210 -0.1839
 1632SOL    HW116532   1.678   2.703   7.061  1.2296  0.4596  0.1539
 1632SOL    HW216533   1.578   2.795   7.009 -1.7689 -0.0382  0.5838
 1633SOL     OW16534   3.583   2.039  11.323  0.1132 -0.6669 -0.0943
 1633SOL    HW116535   3.519   2.109  11.304  0.0407 -1.0702 -1.3036
 1633SOL    HW216536   3.662   2.092  11.307 -0.3085  0.3813  1.2716
 1634SOL     OW16537   3.718   3.839   3.587  0.6899 -0.1799  0.1961
 1634SOL    HW116538   3.807   3.869   3.571 -0.6491  2.4700 -2.2723
 1634SOL    HW216539   3.735   3.791   3.668  1.4861  3.2704  2.0940
 1635SOL     OW16540   1.157   2.426   7.284 -0.7269 -0.3386  0.6708
 1635SOL    HW116541   1.092   2.452   7.349  0.0369  1.8328  0.5594
 1635SOL    HW216542   1.216   2.489   7.324  0.2087 -0.2059 -0.9035
 1636SOL     OW16543   2.475   1.258   7.975 -0.5955 -0.4386 -0.4794
 1636SOL    HW116544   2.561   1.300   7.965 -0.8224 -0.2071 -1.4661
 1636SOL    HW216545   2.426   1.340   7.987  0.2433  0.0447 -0.3483
 1637SOL     OW16546   0.929   4.308   9.675  0.2701  0.1045 -1.0828
 1637SOL    HW116547   0.899   4.356   9.597 -1.4158 -1.6517 -1.5296
 1637SOL    HW216548   0.857   4.325   9.736  0.1645 -1.5774 -0.7350
 1638SOL     OW16549   2.642   0.932   8.190 -0.4117  0.5198  0.0515
 1638SOL    HW116550   2.644   1.003   8.254  1.1612  0.6055 -0.0829
 1638SOL    HW216551   2.723   0.948   8.140  0.3063 -0.7442  0.8061
 1639SOL     OW16552   1.215   3.327  17.661 -0.1809 -0.3380 -0.1288
 1639SOL    HW116553   1.281   3.394  17.644  1.9330 -1.7215  2.6190
 1639SOL    HW216554   1.139   3.382  17.643  0.8215  1.6432  1.6530
 1640SOL     OW16555   0.868   0.354   5.462 -0.1043 -0.4715  0.0202
 1640SOL    HW116556   0.920   0.410   5.403  1.0127 -0.5480  0.9249
 1640SOL    HW216557   0.788   0.402   5.483 -0.2577 -0.6297 -0.2074
 1641SOL     OW16558   4.141   0.711   2.803  0.1926  0.6267 -0.7068
 1641SOL    HW116559   4.202   0.784   2.791  2.2424 -0.8996  0.5997
 1641SOL    HW216560   4.106   0.695   2.715 -1.1451  0.3636 -0.1327
 1642SOL     OW16561   4.276   1.779   7.764 -0.2188 -0.4117 -0.1113
 1642SOL    HW116562   4.366   1.771   7.731 -0.8643 -1.0509 -1.7154
 1642SOL    HW216563   4.255   1.686   7.759 -0.0721 -0.3613 -1.7377
 1643SOL     OW16564   2.813   3.800   2.474  0.4532  0.3819 -0.3172
 1643SOL    HW116565   2.762   3.760   2.545  1.8217 -1.4134 -0.3651
 1643SOL    HW216566   2.844   3.869   2.534  1.2725 -0.6779  0.4901
 1644SOL     OW16567   2.010   0.999   8.636 -0.1303 -0.5411  0.2805
 1644SOL    HW116568   2.000   1.001   8.731  1.5121 -0.5880  0.4517
 1644SOL    HW216569   2.084   1.059   8.627  0.0265 -0.8641 -0.5644
 1645SOL     OW16570   3.826   3.305   3.218  0.0454  0.5231  0.1740
 1645SOL    HW116571   3.869   3.381   3.258 -2.2649  1.2030  1.3821
 1645SOL    HW216572   3.863   3.236   3.273 -1.8205 -0.7254 -0.1127
 1646SOL     OW16573   0.669   4.652   3.997  0.0656  0.0734  0.1522
 1646SOL    HW116574   0.635   4.635   4.085 -1.4905 -0.8231 -0.6323
 1646SOL    HW216575   0.649   0.006   3.985 -2.5520 -0.4730  0.4331
 1647SOL     OW16576   2.501   4.258   3.033 -0.3756 -0.7862  0.7465
 1647SOL    HW116577   2.549   4.334   3.000  0.4709 -1.3460  0.6911
 1647SOL    HW216578   2.547   4.197   2.976 -0.7562  0.5194 -0.9650
 1648SOL     OW16579   1.875   0.061   5.687 -0.2666 -0.5748  0.1750
 1648SOL    HW116580   1.834   0.147   5.690  0.3358 -0.2781 -0.0879
 1648SOL    HW216581   1.807   0.010   5.643 -0.9242  1.8874 -1.6666
 1649SOL     OW16582   2.457   2.243  12.534  0.1500  0.2937  0.1936
 1649SOL    HW116583   2.522   2.175  12.550  0.6280  1.0197  1.2959
 1649SOL    HW216584   2.382   2.184  12.522  1.9329 -1.8040 -0.8370
 1650SOL     OW16585   1.680   0.634   7.695  0.2896 -0.0410  0.0527
 1650SOL    HW116586   1.633   0.572   7.751 -1.2575 -0.2202 -1.4406
 1650SOL    HW216587   1.771   0.620   7.720  0.4542  1.9048  0.5266
 1651SOL     OW16588   4.363   4.183   2.435  0.4323 -0.2720  0.2305
 1651SOL    HW116589   4.453   4.203   2.460  0.4448 -0.1686  0.1011
 1651SOL    HW216590   4.369   4.092   2.405 -2.6614 -0.3225 -0.2942
 1652SOL     OW16591   1.240   1.970   4.819 -0.1336  0.0029 -0.2346
 1652SOL    HW116592   1.294   1.895   4.844  1.9703  1.0391 -1.6789
 1652SOL    HW216593   1.295   2.035   4.862 -1.5302  0.3670  1.0058
 1653SOL     OW16594   4.184   3.587   4.528 -0.2580  0.3882  0.2137
 1653SOL    HW116595   4.223   3.515   4.479  0.4117  0.2865  0.8898
 1653SOL    HW216596   4.243   3.603   4.602 -0.3040  1.7153 -0.0282
 1654SOL     OW16597   0.947   4.710   3.968 -0.0304  0.4037  0.1427
 1654SOL    HW116598   0.869   4.680   4.014  0.4430  2.0342  2.0563
 1654SOL    HW216599   0.977   0.026   4.042 -4.2598  0.4576  1.7941
 1655SOL     OW16600   0.824   3.245   7.077  0.1461  0.4274 -0.3000
 1655SOL    HW116601   0.757   3.304   7.042  0.6497  0.8563 -0.5438
 1655SOL    HW216602   0.793   3.160   7.046  2.4403 -0.6058  0.2618
 1656SOL     OW16603   1.203   4.556   2.074  0.4021  0.0682  0.4721
 1656SOL    HW116604   1.218   4.651   2.067  1.1881 -0.0602  0.4104
 1656SOL    HW216605   1.127   4.545   2.131 -0.7578 -1.3516 -1.3682
 1657SOL     OW16606   3.609   2.652   4.379  0.0179  0.1760  0.1355
 1657SOL    HW116607   3.573   2.570   4.347  0.7406  0.5723 -1.6956
 1657SOL    HW216608   3.550   2.712   4.332 -0.9018 -1.5024 -0.8411
 1658SOL     OW16609   0.316   0.054   2.276  0.2762 -0.7173 -0.0732
 1658SOL    HW116610   0.387   4.732   2.254 -0.3434 -0.7381 -2.0333
 1658SOL    HW216611   0.364   0.097   2.347 -0.1416  0.3112 -0.4209
 1659SOL     OW16612   3.992   1.731  16.331  0.8891 -0.1260 -0.0124
 1659SOL    HW116613   4.021   1.821  16.341  1.0083 -0.4387  2.4371
 1659SOL    HW216614   3.946   1.730  16.247 -0.2828 -0.8370  0.6443
 1660SOL     OW16615   2.060   1.941   1.035 -0.0373  0.3057 -0.0004
 1660SOL    HW116616   1.985   1.992   1.002 -0.3116 -0.4496 -0.5621
 1660SOL    HW216617   2.036   1.854   1.003 -3.1146  0.5885  1.4572
 1661SOL     OW16618   3.866   0.302   7.728 -0.0931  0.1357 -0.3494
 1661SOL    HW116619   3.796   0.263   7.677  0.5798 -1.5202 -0.0027
 1661SOL    HW216620   3.896   0.224   7.774  0.5746  1.2143  1.0350
 1662SOL     OW16621   4.336   3.523   8.403 -0.3852  0.0308 -0.3449
 1662SOL    HW116622   4.426   3.543   8.426  0.0911 -0.0091 -2.1436
 1662SOL    HW216623   4.315   3.451   8.462  0.3641  0.1909  0.1154
 1663SOL     OW16624   3.862   4.045   7.709 -0.4282  0.4973  0.3078
 1663SOL    HW116625   3.822   4.091   7.783  0.5675  2.6301 -0.4942
 1663SOL    HW216626   3.887   3.965   7.756  1.3999  0.1748 -1.2156
 1664SOL     OW16627   1.615   0.949   4.026  0.1325 -0.3445 -0.2002
 1664SOL    HW116628   1.709   0.942   4.012  0.0031  0.5290 -1.4676
 1664SOL    HW216629   1.613   0.912   4.114  0.3537  0.9824  0.3636
 1665SOL     OW16630   0.552   1.022   1.645 -0.4995  0.3081  0.3365
 1665SOL    HW116631   0.464   1.060   1.637 -1.4590 -2.0350 -0.3577
 1665SOL    HW216632   0.560   0.957   1.714 -1.0440  0.7140  0.7814
 1666SOL     OW16633   1.545   2.037  15.973 -0.4076 -0.1023  1.0035
 1666SOL    HW116634   1.591   2.119  15.960 -3.1271  1.1021 -0.9314
 1666SOL    HW216635   1.569   2.009  16.061  2.7510  1.7748  0.7601
 1667SOL     OW16636   1.598   3.348   6.080 -0.2996 -0.1866 -0.4037
 1667SOL    HW116637   1.559   3.417   6.134  1.5648  1.4581 -1.1434
 1667SOL    HW216638   1.691   3.368   6.067 -0.2074 -0.4333 -0.1289
 1668SOL     OW16639   0.465   1.271   6.950  0.1741 -0.4434  0.2724
 1668SOL    HW116640   0.403   1.344   6.941 -1.2465 -1.5672  1.0977
 1668SOL    HW216641   0.447   1.236   6.862  2.0136 -1.0152  0.1233
 1669SOL     OW16642   0.979   1.903   4.236 -0.2547 -0.0517 -0.1265
 1669SOL    HW116643   1.015   1.826   4.193  0.9020  0.7860 -0.6557
 1669SOL    HW216644   1.003   1.967   4.168  1.1936 -0.1306  0.3213
 1670SOL     OW16645   2.605   3.990   8.242 -0.7451  0.1981  0.1139
 1670SOL    HW116646   2.587   4.080   8.268  0.9137  0.9586 -1.4002
 1670SOL    HW216647   2.693   3.979   8.278 -0.0556  1.9624 -1.0645
 1671SOL     OW16648   1.440   4.423   9.540  0.4636 -0.4221 -0.6426
 1671SOL    HW116649   1.507   4.460   9.597  0.5522 -0.0504 -0.9894
 1671SOL    HW216650   1.412   4.346   9.589  0.1681 -1.1598 -1.9563
 1672SOL     OW16651   0.130   4.496   5.989 -0.3703 -0.2614  0.4988
 1672SOL    HW116652   0.222   4.475   6.005 -0.2488 -1.2432 -1.4796
 1672SOL    HW216653   0.145   4.584   5.956  3.9625 -0.8722  0.8345
 1673SOL     OW16654   0.733   4.191  14.546  0.7115  0.3913  0.1621
 1673SOL    HW116655   0.735   4.287  14.542 -0.5335  0.4482  0.8011
 1673SOL    HW216656   0.808   4.161  14.597  0.2827 -0.4070  0.3348
 1674SOL     OW16657   3.694   2.112   6.349  0.2423  0.3116  0.0960
 1674SOL    HW116658   3.774   2.072   6.382  1.2851  0.1263 -2.6220
 1674SOL    HW216659   3.705   2.100   6.255  0.3055  0.3479  0.0988
 1675SOL     OW16660   2.855   2.913   1.104  0.0108  0.2474 -0.4001
 1675SOL    HW116661   2.944   2.931   1.074  0.9306 -0.0678  2.1225
 1675SOL    HW216662   2.877   2.848   1.170  0.4800  1.0801  0.2791
 1676SOL     OW16663   1.497   0.224  10.221  0.0605  1.0598 -0.2500
 1676SOL    HW116664   1.546   0.296  10.261 -2.0415  1.3639  1.7779
 1676SOL    HW216665   1.571   0.172  10.191 -1.0646 -0.1557 -0.9043
 1677SOL     OW16666   0.601   0.568   6.182 -0.1255 -0.0518  0.1715
 1677SOL    HW116667   0.543   0.631   6.140 -1.7784 -0.5754  1.6694
 1677SOL    HW216668   0.618   0.609   6.266 -1.8804  2.0235 -0.4957
 1678SOL     OW16669   2.385   2.519   0.770 -0.2642 -0.7117 -0.1884
 1678SOL    HW116670   2.417   2.432   0.745  2.0223 -0.0856  0.5735
 1678SOL    HW216671   2.453   2.569   0.815 -2.0385  0.8354  0.7604
 1679SOL     OW16672   4.200   3.962   5.531  0.0555 -0.0398 -0.2346
 1679SOL    HW116673   4.143   3.967   5.608 -1.0002 -2.5914 -0.8393
 1679SOL    HW216674   4.139   3.915   5.474 -0.8222 -1.0875  1.5815
 1680SOL     OW16675   0.136   4.300  12.774 -0.0691 -0.3672  0.2671
 1680SOL    HW116676   0.087   4.349  12.707 -2.0338 -1.3867  0.9474
 1680SOL    HW216677   0.226   4.314  12.746  0.9511 -0.8618  3.3647
 1681SOL     OW16678   1.539   3.903   9.741  0.4222 -0.4853 -0.0231
 1681SOL    HW116679   1.590   3.978   9.709  0.1115 -0.5373 -0.6349
 1681SOL    HW216680   1.467   3.954   9.777  2.1227  0.7190  1.6909
 1682SOL     OW16681   4.735   1.494  10.094 -0.5721  0.3679 -0.3257
 1682SOL    HW116682   0.075   1.549  10.087  0.9346 -1.8808 -0.9525
 1682SOL    HW216683   0.028   1.407  10.118  1.9349  1.6506  1.1324
 1683SOL     OW16684   0.950   2.746   0.470 -0.3825  0.7379  0.0321
 1683SOL    HW116685   1.043   2.748   0.447 -1.1474  2.9970 -2.8861
 1683SOL    HW216686   0.923   2.837   0.458 -1.1389  0.3514 -1.2933
 1684SOL     OW16687   0.190   2.194   0.692  0.2208  0.1028 -0.2761
 1684SOL    HW116688   0.140   2.162   0.617  0.3023 -0.3436 -0.1408
 1684SOL    HW216689   0.118   2.245   0.730  0.3299  1.6093 -2.1160
 1685SOL     OW16690   1.807   3.850   7.466 -0.1844  0.3798 -0.1219
 1685SOL    HW116691   1.715   3.831   7.448  0.0816  0.4717 -1.6150
 1685SOL    HW216692   1.846   3.831   7.381 -1.1856 -0.6782 -0.3479
 1686SOL     OW16693   4.367   2.365   8.705 -0.1082  0.2999 -0.0402
 1686SOL    HW116694   4.392   2.287   8.755  0.8111 -0.7543 -2.1445
 1686SOL    HW216695   4.449   2.414   8.699  1.2424 -1.7278  1.5615
 1687SOL     OW16696   4.468   2.161   3.399  0.4304 -0.0214  0.4434
 1687SOL    HW116697   4.560   2.146   3.417  0.7504 -1.1794 -2.1623
 1687SOL    HW216698   4.455   2.243   3.447  2.3886  1.5786 -1.7978
 1688SOL     OW16699   0.988   1.224  15.878 -0.0805 -0.2068  0.1806
 1688SOL    HW116700   1.027   1.270  15.804  1.6347 -0.7992  0.6954
 1688SOL    HW216701   1.068   1.213  15.930  0.2077 -0.2549 -0.2807
 1689SOL     OW16702   3.728   4.690  11.620  0.3731  0.2829  0.2363
 1689SOL    HW116703   3.801   4.638  11.655 -0.9438  1.2865  4.4366
 1689SOL    HW216704   3.659   4.676  11.684  2.5907  1.2649  2.8678
 1690SOL     OW16705   2.541   1.062   3.986  0.4375 -0.2435 -0.3088
 1690SOL    HW116706   2.602   1.070   3.913  0.0382  0.9550 -0.5106
 1690SOL    HW216707   2.474   1.119   3.948  0.3005 -0.5172 -0.4738
 1691SOL     OW16708   1.413   2.926   3.333  0.2341 -0.3219  0.0220
 1691SOL    HW116709   1.424   2.999   3.395  0.5388 -0.4685  0.1402
 1691SOL    HW216710   1.322   2.904   3.352  0.3888  0.9095  2.2341
 1692SOL     OW16711   2.404   0.041   6.489  0.3788  0.1724 -0.6559
 1692SOL    HW116712   2.374   0.047   6.398 -0.9026 -0.5117 -0.2912
 1692SOL    HW216713   2.499   0.047   6.485  0.2660  1.3629 -1.5150
 1693SOL     OW16714   2.804   0.583   6.862  0.0309  0.3632 -0.3657
 1693SOL    HW116715   2.891   0.603   6.897 -0.2283  0.3257  0.2871
 1693SOL    HW216716   2.762   0.668   6.861 -0.1351  0.2816  0.0150
 1694SOL     OW16717   0.786   2.153   6.446 -0.4206  0.3449  0.2059
 1694SOL    HW116718   0.798   2.112   6.361  2.5789  1.0721  0.2607
 1694SOL    HW216719   0.724   2.223   6.423 -0.3537  0.3957  0.1796
 1695SOL     OW16720   1.880   1.723   6.707  0.7030 -0.8649  0.4705
 1695SOL    HW116721   1.891   1.800   6.651 -0.7688 -0.4733  0.7086
 1695SOL    HW216722   1.829   1.762   6.778  0.9550  2.3624 -1.0926
 1696SOL     OW16723   2.557   3.720  17.494 -0.1445  0.4882 -0.0344
 1696SOL    HW116724   2.504   3.777  17.438  0.7876  0.8311 -0.5699
 1696SOL    HW216725   2.632   3.708  17.435 -0.3480  1.5644 -0.5112
 1697SOL     OW16726   2.038   1.807   8.293 -0.0677 -0.2015 -0.3415
 1697SOL    HW116727   2.033   1.714   8.317  1.9015  0.0651  1.0894
 1697SOL    HW216728   1.970   1.856   8.339 -0.1999 -0.4524 -0.2662
 1698SOL     OW16729   3.321   3.058   6.711 -0.1411 -0.3859  0.4348
 1698SOL    HW116730   3.246   3.099   6.754 -0.8866 -2.0324  0.6858
 1698SOL    HW216731   3.275   2.987   6.666 -0.6980 -0.1540  0.6464
 1699SOL     OW16732   4.334   2.081   2.713  0.1609  0.0166  0.1951
 1699SOL    HW116733   4.392   2.026   2.660 -0.1617  1.4331 -1.6378
 1699SOL    HW216734   4.253   2.033   2.697  1.1477 -1.3174 -0.7594
 1700SOL     OW16735   3.418   0.348   8.300 -0.1331 -0.9085 -0.0460
 1700SOL    HW116736   3.402   0.403   8.223  0.7766 -0.3724  0.1442
 1700SOL    HW216737   3.432   0.260   8.263 -0.6109 -2.0388  2.4882
 1701SOL     OW16738   1.153   2.112   2.731  0.0418 -0.0029 -0.0531
 1701SOL    HW116739   1.097   2.084   2.659  0.8491  0.4370 -0.8449
 1701SOL    HW216740   1.239   2.083   2.702  0.3373  1.3599 -0.5093
 1702SOL     OW16741   3.335   2.697   3.259 -0.4667 -0.2785  0.4603
 1702SOL    HW116742   3.253   2.742   3.239 -0.9248 -2.0996 -1.7684
 1702SOL    HW216743   3.312   2.604   3.256 -1.7778  0.0702 -0.1279
 1703SOL     OW16744   2.217   1.058   4.433 -0.2931  0.0436  0.0533
 1703SOL    HW116745   2.137   1.086   4.477  0.1984 -0.2107  1.0957
 1703SOL    HW216746   2.216   1.115   4.356 -1.8578 -0.3534 -0.2196
 1704SOL     OW16747   0.472   3.647   0.339 -0.0125 -0.7855 -0.2220
 1704SOL    HW116748   0.446   3.715   0.277 -0.4934 -0.1349  0.6842
 1704SOL    HW216749   0.493   3.579   0.275  1.2088  0.4413 -1.1241
 1705SOL     OW16750   2.798   2.373   9.153 -0.0383  0.3502  0.2496
 1705SOL    HW116751   2.863   2.303   9.147 -1.1661 -0.6535 -0.1622
 1705SOL    HW216752   2.728   2.314   9.180  0.9118 -0.4514  0.9667
 1706SOL     OW16753   2.525   4.725  16.224 -0.3297 -0.5519  0.0879
 1706SOL    HW116754   2.523   0.025  16.312 -1.5429  1.7780 -0.9600
 1706SOL    HW216755   2.520   0.061  16.164 -0.5436 -0.4359  0.2468
 1707SOL     OW16756   1.381   1.922   2.662  0.3789  0.3711  0.0646
 1707SOL    HW116757   1.395   1.871   2.582  1.5227  0.9722 -0.1184
 1707SOL    HW216758   1.337   1.863   2.722  0.4502  0.1215 -0.1305
 1708SOL     OW16759   0.408   1.380  15.339  0.4109 -0.0418 -0.6025
 1708SOL    HW116760   0.353   1.304  15.323  0.8765 -0.0777 -2.0715
 1708SOL    HW216761   0.359   1.440  15.394  1.2130 -0.0057  0.0746
 1709SOL     OW16762   2.808   1.598   5.601  0.8473  0.6240  0.0828
 1709SOL    HW116763   2.731   1.606   5.544  1.3753  0.2015 -0.6973
 1709SOL    HW216764   2.812   1.503   5.611  1.9044  0.6325 -0.1872
 1710SOL     OW16765   0.454   0.380   6.561  0.0725 -0.4030 -0.2017
 1710SOL    HW116766   0.500   0.304   6.526  2.1992  0.1134  1.4464
 1710SOL    HW216767   0.365   0.349   6.577  0.0050  0.4646  1.0577
 1711SOL     OW16768   0.693   1.356  16.343 -0.0025  0.4087 -0.1676
 1711SOL    HW116769   0.738   1.337  16.261 -1.9607  0.9822 -1.3810
 1711SOL    HW216770   0.743   1.429  16.379  0.0913  0.0514  0.4295
 1712SOL     OW16771   3.164   1.136   1.789 -0.0007 -0.1071 -0.3345
 1712SOL    HW116772   3.071   1.146   1.810 -0.4397 -2.1969 -1.2865
 1712SOL    HW216773   3.172   1.052   1.744 -0.2586  0.4892 -1.4950
 1713SOL     OW16774   3.715   1.914   5.810 -0.4209 -0.4449 -0.3685
 1713SOL    HW116775   3.747   1.850   5.874 -1.8549 -0.0270  0.7613
 1713SOL    HW216776   3.799   1.937   5.770 -0.3103 -0.6382 -0.2503
 1714SOL     OW16777   3.074   3.996  16.153  0.1749  0.3938 -0.1365
 1714SOL    HW116778   3.135   3.933  16.117 -1.0637 -0.5883 -0.5229
 1714SOL    HW216779   3.006   3.944  16.198  0.2380  0.3750 -0.0622
 1715SOL     OW16780   2.321   3.295   5.743  0.2109 -0.5121  0.4531
 1715SOL    HW116781   2.276   3.371   5.707  0.6483 -0.6539 -0.3932
 1715SOL    HW216782   2.378   3.333   5.810 -1.3122 -2.3795  2.8183
 1716SOL     OW16783   0.196   3.073   5.020  0.6186 -0.2754  0.2269
 1716SOL    HW116784   0.289   3.087   5.003  0.3004 -0.9078 -2.0379
 1716SOL    HW216785   0.195   2.979   5.041 -0.2112  0.0468  1.6159
 1717SOL     OW16786   2.280   2.120   3.854 -0.4422  0.2789 -0.3302
 1717SOL    HW116787   2.362   2.079   3.881 -0.1132  0.9646 -0.2900
 1717SOL    HW216788   2.282   2.090   3.763  0.6345 -0.1049 -0.1785
 1718SOL     OW16789   0.599   1.989   3.062  0.2151 -0.0330 -0.1829
 1718SOL    HW116790   0.581   1.978   2.969  1.3091 -0.4976 -0.3388
 1718SOL    HW216791   0.585   2.081   3.085 -1.5650 -0.3089 -0.1817
 1719SOL     OW16792   0.392   1.118  14.788  0.8393  0.4624 -0.2728
 1719SOL    HW116793   0.329   1.180  14.825 -0.4600 -2.3137  2.1160
 1719SOL    HW216794   0.355   1.031  14.803  0.8752  0.4681 -0.1557
 1720SOL     OW16795   2.455   3.723  10.272 -0.0259 -0.1602 -0.0665
 1720SOL    HW116796   2.421   3.795  10.220 -0.8903  0.2778  1.0876
 1720SOL    HW216797   2.372   3.680  10.295 -0.4277  0.8400  0.3592
 1721SOL     OW16798   4.044   1.603   8.580 -0.1822 -0.3941 -0.1909
 1721SOL    HW116799   4.094   1.554   8.515  0.0433 -0.6165  0.1563
 1721SOL    HW216800   3.962   1.565   8.547 -0.4375 -2.0500  2.4233
 1722SOL     OW16801   3.419   4.080   3.708 -0.4638 -0.2432 -0.8519
 1722SOL    HW116802   3.478   4.052   3.638 -1.4656 -0.5731 -1.5509
 1722SOL    HW216803   3.467   4.060   3.789 -0.4131  0.8430 -0.6119
 1723SOL     OW16804   0.140   2.589  14.949 -0.1504 -0.2538 -0.0991
 1723SOL    HW116805   0.155   2.684  14.945  1.2717 -0.3883  2.1100
 1723SOL    HW216806   0.138   2.589  15.045  1.0179 -0.9712 -0.0829
 1724SOL     OW16807   1.921   0.949   4.252 -0.4408 -0.6717 -0.4743
 1724SOL    HW116808   1.928   1.036   4.213  0.2122 -1.1022 -1.3261
 1724SOL    HW216809   1.829   0.953   4.277 -0.4738  0.8175 -0.8133
 1725SOL     OW16810   2.963   0.002   4.731  0.0304 -0.9187 -0.4502
 1725SOL    HW116811   2.871   4.733   4.704 -0.2664  1.2549 -0.0387
 1725SOL    HW216812   2.968   4.658   4.781 -1.5267 -0.2373  0.8492
 1726SOL     OW16813   1.025   0.634  11.092  0.0392  0.1631 -0.7852
 1726SOL    HW116814   1.109   0.588  11.097  1.6035  3.1403  0.6888
 1726SOL    HW216815   1.054   0.712  11.045  1.9116 -0.4677 -0.6929
 1727SOL     OW16816   2.175   0.261   1.449  0.0669  0.2993 -0.0496
 1727SOL    HW116817   2.160   0.282   1.541  1.2886  0.8231  0.0267
 1727SOL    HW216818   2.162   0.166   1.447 -1.1418  0.4214  1.3819
 1728SOL     OW16819   0.689   0.482   7.179 -0.0785  0.0583  0.0942
 1728SOL    HW116820   0.690   0.484   7.274  3.1810  2.3089  0.0168
 1728SOL    HW216821   0.678   0.576   7.164  0.3612  0.4504  2.1741
 1729SOL     OW16822   2.686   0.589   2.879 -0.0501 -0.2872 -0.4254
 1729SOL    HW116823   2.680   0.586   2.783 -1.5900  0.3681 -0.3560
 1729SOL    HW216824   2.777   0.566   2.893 -0.5402 -1.1405  1.3159
 1730SOL     OW16825   1.535   3.564  14.018 -0.4618  0.0822 -0.0519
 1730SOL    HW116826   1.590   3.501  14.064 -2.3061 -0.3664  1.5006
 1730SOL    HW216827   1.577   3.566  13.932 -1.9591 -0.2917 -0.7985
 1731SOL     OW16828   2.786   2.610   6.492 -0.2818  0.2680  0.3235
 1731SOL    HW116829   2.855   2.637   6.432  2.4675 -0.6065  3.1292
 1731SOL    HW216830   2.711   2.600   6.432  0.0024  0.7200 -0.1049
 1732SOL     OW16831   3.648   0.649   7.216  0.0839 -0.0960  0.3179
 1732SOL    HW116832   3.680   0.705   7.287  2.2444 -0.7885 -0.1122
 1732SOL    HW216833   3.567   0.694   7.194  1.0601  0.9512 -1.1378
 1733SOL     OW16834   0.220   4.491  15.897  0.2984 -0.0471  0.1076
 1733SOL    HW116835   0.206   4.581  15.869  2.0729  0.0084 -0.5847
 1733SOL    HW216836   0.233   4.448  15.812 -1.3090  0.5604 -0.4419
 1734SOL     OW16837   0.462   0.207   2.448  0.5071  0.0626  0.2278
 1734SOL    HW116838   0.432   0.217   2.538  1.0711  0.5943  0.3595
 1734SOL    HW216839   0.433   0.291   2.415  2.4448  0.8837  0.5966
 1735SOL     OW16840   2.219   1.819   4.919  0.0055  0.1961  0.3209
 1735SOL    HW116841   2.193   1.727   4.920  2.6715 -0.5583 -0.1543
 1735SOL    HW216842   2.209   1.845   5.010 -0.3952 -0.9165  0.5908
 1736SOL     OW16843   0.255   2.796   2.954 -0.4612  0.0909  0.0363
 1736SOL    HW116844   0.263   2.707   2.988 -0.8513  0.9343  2.3605
 1736SOL    HW216845   0.345   2.826   2.970 -0.7859  0.9022  0.3593
 1737SOL     OW16846   3.378   1.565   0.405  0.9915  0.2070  0.1132
 1737SOL    HW116847   3.447   1.534   0.347  1.7771  1.2717  0.4868
 1737SOL    HW216848   3.334   1.635   0.356  1.9867  1.2833  0.7519
 1738SOL     OW16849   2.370   0.932   1.204 -0.9826 -0.0296 -0.0835
 1738SOL    HW116850   2.277   0.953   1.196 -0.2504  2.8101 -1.2200
 1738SOL    HW216851   2.363   0.848   1.160  1.1734 -0.2701  0.0362
 1739SOL     OW16852   2.893   4.368   7.458 -0.2246  0.1432 -0.1658
 1739SOL    HW116853   2.814   4.348   7.509 -0.3558  1.2431  0.0639
 1739SOL    HW216854   2.876   4.456   7.425 -0.7221  0.0256 -0.2198
 1740SOL     OW16855   3.288   0.064   3.046 -0.0867  0.3546 -0.0282
 1740SOL    HW116856   3.309   0.157   3.037 -2.3733  0.9040  0.1344
 1740SOL    HW216857   3.269   0.052   2.953  0.7456 -0.3054 -0.1124
 1741SOL     OW16858   2.359   3.765   1.333 -0.3120 -0.4686  0.0481
 1741SOL    HW116859   2.368   3.673   1.310  0.3497 -0.4438  0.1968
 1741SOL    HW216860   2.448   3.799   1.344 -1.2884  1.9606  0.5803
 1742SOL     OW16861   3.054   1.742   8.459  0.0721  0.1498 -0.8244
 1742SOL    HW116862   2.982   1.800   8.435 -0.9626 -0.9440 -0.3368
 1742SOL    HW216863   3.045   1.674   8.392 -1.7719  0.5418 -0.9657
 1743SOL     OW16864   1.949   1.523   4.056 -0.6902 -0.2239 -0.5465
 1743SOL    HW116865   2.029   1.528   4.004  0.3091 -1.8304  0.8407
 1743SOL    HW216866   1.927   1.431   4.042  1.7078 -1.4002  3.3140
 1744SOL     OW16867   2.615   3.187   7.819  0.9622 -0.4156 -0.5893
 1744SOL    HW116868   2.664   3.229   7.889 -1.9933  2.3109 -0.1353
 1744SOL    HW216869   2.624   3.095   7.842  2.0786 -0.5164 -1.4353
 1745SOL     OW16870   2.676   3.485  11.974  0.1988  0.2453 -0.9995
 1745SOL    HW116871   2.685   3.417  11.908  3.6875  0.4762 -0.7414
 1745SOL    HW216872   2.763   3.517  11.998  0.4842 -0.0946 -1.5949
 1746SOL     OW16873   3.881   3.471   3.585  0.6508 -0.2565 -0.2241
 1746SOL    HW116874   3.931   3.533   3.637  4.2190 -1.9406 -1.6182
 1746SOL    HW216875   3.913   3.394   3.631 -1.9958 -2.0355 -1.3567
 1747SOL     OW16876   1.428   3.073   5.753 -0.6662 -0.1504 -0.2022
 1747SOL    HW116877   1.347   3.100   5.794 -2.3893 -3.1660 -1.6028
 1747SOL    HW216878   1.481   3.070   5.833  0.1398 -0.7794 -0.7548
 1748SOL     OW16879   0.780   0.735   0.664  0.3388 -0.2432  0.0156
 1748SOL    HW116880   0.854   0.792   0.643 -0.8444  0.8292 -1.2679
 1748SOL    HW216881   0.837   0.660   0.681  1.9599  1.2825  1.2637
 1749SOL     OW16882   1.054   3.458   2.300  0.3929 -0.4571  0.3543
 1749SOL    HW116883   1.133   3.408   2.321  1.2510  0.2031 -1.2874
 1749SOL    HW216884   1.093   3.544   2.284 -3.0051  0.6792 -1.7720
 1750SOL     OW16885   2.456   2.443   8.618  0.4311  0.0628 -0.2578
 1750SOL    HW116886   2.366   2.472   8.607  0.4920  1.0542  1.9115
 1750SOL    HW216887   2.453   2.384   8.543 -0.4796  0.1306 -0.2756
 1751SOL     OW16888   0.773   0.112   4.303  0.5865 -0.2056 -0.1816
 1751SOL    HW116889   0.788   0.181   4.238 -3.3352 -0.0688 -0.9513
 1751SOL    HW216890   0.798   0.162   4.380 -0.3919  3.1116 -2.0110
 1752SOL     OW16891   4.174   0.710   1.969  0.6291  0.2458 -0.5000
 1752SOL    HW116892   4.265   0.732   1.946  0.0126  1.3477 -1.8946
 1752SOL    HW216893   4.171   0.730   2.062  2.6638 -0.0901 -0.3627
 1753SOL     OW16894   2.336   2.098   7.970  0.2877  0.5104  0.0115
 1753SOL    HW116895   2.357   2.080   8.061 -0.5292 -2.3004 -0.3608
 1753SOL    HW216896   2.258   2.043   7.960  2.1333 -2.1153  0.0971
 1754SOL     OW16897   4.414   4.412   8.288 -0.1554  0.3664  0.0045
 1754SOL    HW116898   4.413   4.318   8.305 -1.7706 -0.0777 -2.5324
 1754SOL    HW216899   4.466   4.411   8.208 -1.7823 -0.3531 -1.0229
 1755SOL     OW16900   0.148   0.701   5.339  0.3434  0.2756 -0.0532
 1755SOL    HW116901   0.109   0.787   5.353 -3.8319 -1.8229  1.2106
 1755SOL    HW216902   0.242   0.718   5.340  0.7646 -2.2512  3.0845
 1756SOL     OW16903   4.464   1.435   7.233  0.2693  0.5455 -0.2767
 1756SOL    HW116904   4.528   1.506   7.229  2.1669 -1.0358  2.0477
 1756SOL    HW216905   4.380   1.478   7.248  0.0198  0.1189 -0.4496
 1757SOL     OW16906   0.966   1.751   8.338  0.1445  0.1495 -0.2679
 1757SOL    HW116907   0.961   1.655   8.346 -1.5925  0.3051  0.5558
 1757SOL    HW216908   0.933   1.775   8.425  0.3984 -1.4310  0.2858
 1758SOL     OW16909   0.339   0.831  11.469 -0.2552  0.3412  0.5157
 1758SOL    HW116910   0.326   0.821  11.563  2.9683  0.0004  0.9099
 1758SOL    HW216911   0.382   0.916  11.472 -1.2115  0.8928 -1.3679
 1759SOL     OW16912   0.561   1.500   4.123  0.2064  0.4776  0.2543
 1759SOL    HW116913   0.623   1.531   4.058 -0.3808  0.0331 -0.5107
 1759SOL    HW216914   0.490   1.469   4.067  0.0257  0.6737  0.3762
 1760SOL     OW16915   4.068   3.106  14.260  0.2852  0.5340  0.5876
 1760SOL    HW116916   3.989   3.053  14.254  1.5230 -1.3272  0.4052
 1760SOL    HW216917   4.059   3.164  14.185 -0.7161  0.7325  0.8715
 1761SOL     OW16918   2.310   3.062   5.387 -0.0064 -0.4468  0.0148
 1761SOL    HW116919   2.318   3.157   5.397 -0.8528 -0.1238 -2.5196
 1761SOL    HW216920   2.337   3.067   5.295 -2.4648 -2.8935 -0.8140
 1762SOL     OW16921   2.752   1.374  10.633 -0.2084 -0.1275 -0.1914
 1762SOL    HW116922   2.806   1.404  10.559 -0.5173 -0.0300 -0.3765
 1762SOL    HW216923   2.671   1.425  10.629 -0.2083 -0.3681 -3.2870
 1763SOL     OW16924   3.804   0.756  16.754 -1.0743  0.3038 -0.2846
 1763SOL    HW116925   3.896   0.732  16.743 -0.2231  2.8884  1.3088
 1763SOL    HW216926   3.770   0.709  16.678  1.3432 -2.4355  0.2968
 1764SOL     OW16927   3.056   3.844  16.477  0.9183  0.3993  0.4983
 1764SOL    HW116928   2.974   3.794  16.473 -0.3154  2.5352 -0.8999
 1764SOL    HW216929   3.027   3.931  16.450  2.2416  0.1429 -1.6846
 1765SOL     OW16930   2.708   0.269   6.670 -0.1374  0.0153 -0.4895
 1765SOL    HW116931   2.623   0.312   6.657 -1.0376 -1.6907 -0.2249
 1765SOL    HW216932   2.743   0.335   6.730 -2.6356  0.3482  0.6135
 1766SOL     OW16933   4.163   1.269   7.697 -0.4837 -0.4808 -0.4497
 1766SOL    HW116934   4.162   1.178   7.670 -0.2827  0.0133 -2.0955
 1766SOL    HW216935   4.147   1.264   7.792 -0.2607 -0.1716 -0.3947
 1767SOL     OW16936   2.478   3.463   4.483 -0.3721  0.2813  0.1194
 1767SOL    HW116937   2.543   3.444   4.551  2.4047  1.4077 -2.2152
 1767SOL    HW216938   2.476   3.375   4.445 -0.2912  0.8889 -1.3101
 1768SOL     OW16939   0.203   1.105   3.118 -0.1314  0.5330  0.1740
 1768SOL    HW116940   0.195   1.047   3.193  1.1277 -0.4261 -0.4364
 1768SOL    HW216941   0.288   1.091   3.075  0.8573  0.2802  2.2029
 1769SOL     OW16942   2.300   1.918  14.397 -0.0510 -0.3274 -0.5109
 1769SOL    HW116943   2.387   1.890  14.368  0.9182  1.5326  0.6134
 1769SOL    HW216944   2.288   1.983  14.328 -0.5294  0.6695  0.4998
 1770SOL     OW16945   3.637   2.554   5.422 -0.3226 -0.1826 -0.3024
 1770SOL    HW116946   3.712   2.547   5.481  0.1063 -1.2104 -0.9558
 1770SOL    HW216947   3.562   2.542   5.479 -0.2742  1.8378  0.1680
 1771SOL     OW16948   0.426   4.594   6.566 -0.0757  0.3000 -0.5029
 1771SOL    HW116949   0.358   4.527   6.561  1.3258 -1.2062  0.3723
 1771SOL    HW216950   0.387   4.657   6.628 -1.0192 -0.9911  0.2197
 1772SOL     OW16951   2.614   3.503   2.439  0.1645 -0.1740  0.5575
 1772SOL    HW116952   2.538   3.527   2.492 -1.0735  1.3461 -1.8935
 1772SOL    HW216953   2.582   3.534   2.355  0.7040  0.8098  0.7099
 1773SOL     OW16954   3.168   4.612   8.312  0.9613 -0.0164  0.1514
 1773SOL    HW116955   3.106   4.684   8.322  2.5597  1.3249  0.5036
 1773SOL    HW216956   3.252   4.646   8.343  0.6281  0.9832 -0.0461
 1774SOL     OW16957   4.132   3.359   8.843  0.2125  0.1812 -0.0108
 1774SOL    HW116958   4.165   3.390   8.927  0.1460 -1.2203  0.5251
 1774SOL    HW216959   4.047   3.404   8.840 -0.6987 -1.6692 -2.1072
 1775SOL     OW16960   0.433   3.043   5.727  0.0989  0.1347  0.0749
 1775SOL    HW116961   0.372   2.988   5.678 -1.7583  1.0140  1.4050
 1775SOL    HW216962   0.383   3.072   5.803 -1.0783 -1.3228 -0.1462
 1776SOL     OW16963   4.120   1.776   5.449  0.1472 -0.1971 -0.2044
 1776SOL    HW116964   4.171   1.806   5.374  0.5036 -1.5008 -0.4876
 1776SOL    HW216965   4.131   1.681   5.446 -2.6424 -0.5429  0.7587
 1777SOL     OW16966   2.380   4.083   0.641 -0.4726 -0.4026 -0.2338
 1777SOL    HW116967   2.321   4.154   0.666  1.4228 -0.1912  3.7193
 1777SOL    HW216968   2.439   4.082   0.716 -0.1583 -0.2842 -0.4785
 1778SOL     OW16969   2.166   2.467   8.246  0.4301  0.2233  0.3692
 1778SOL    HW116970   2.131   2.389   8.203  0.8701  0.4978 -0.4689
 1778SOL    HW216971   2.252   2.474   8.205 -0.3355 -1.8480 -1.5829
 1779SOL     OW16972   1.990   3.927   3.920  0.1015  0.0987 -0.2721
 1779SOL    HW116973   2.050   4.000   3.933  1.4943 -1.2218  0.7017
 1779SOL    HW216974   1.908   3.971   3.945 -0.1766 -0.6410  0.1229
 1780SOL     OW16975   0.687   0.380   3.590  0.2207  0.1905 -0.1979
 1780SOL    HW116976   0.776   0.359   3.618  0.0186 -0.7201 -0.2422
 1780SOL    HW216977   0.674   0.302   3.535  0.0581 -0.8497  1.3360
 1781SOL     OW16978   1.579   0.320   4.720  0.0183 -0.3505 -0.1023
 1781SOL    HW116979   1.629   0.402   4.720  0.8645 -0.8760 -0.5308
 1781SOL    HW216980   1.655   0.262   4.726  0.8420  0.7994  0.8325
 1782SOL     OW16981   4.417   1.887   2.534 -0.1137 -0.6172 -0.1954
 1782SOL    HW116982   4.467   1.871   2.454  1.0427 -2.6457  0.9279
 1782SOL    HW216983   4.341   1.830   2.526 -0.5350 -0.3787  2.1138
 1783SOL     OW16984   2.329   0.567  15.080  0.2506  0.2039  0.3830
 1783SOL    HW116985   2.236   0.547  15.080 -0.0001  1.3530 -0.0061
 1783SOL    HW216986   2.370   0.482  15.065 -2.5381 -1.0440 -0.0154
 1784SOL     OW16987   2.955   0.238   3.978 -0.5240 -0.3528  0.1435
 1784SOL    HW116988   2.934   0.201   4.064 -1.4267 -0.4150 -0.1039
 1784SOL    HW216989   2.942   0.155   3.931  1.7231  0.6960 -2.2779
 1785SOL     OW16990   2.391   1.390   5.172  0.3644  0.0614  0.2384
 1785SOL    HW116991   2.478   1.367   5.205  1.9106  2.2443 -2.4212
 1785SOL    HW216992   2.402   1.376   5.078 -0.9234  0.1496  0.0701
 1786SOL     OW16993   1.713   1.153   1.738  0.0728 -0.4769 -0.1727
 1786SOL    HW116994   1.805   1.155   1.762  0.0868 -1.7505 -0.0721
 1786SOL    HW216995   1.682   1.232   1.782  1.7370 -0.7124  1.4220
 1787SOL     OW16996   0.885   3.893   1.300  0.8441  0.0959 -0.5880
 1787SOL    HW116997   0.926   3.863   1.382  0.6364 -0.8270 -0.8265
 1787SOL    HW216998   0.799   3.903   1.341  0.4702 -2.1515 -0.7990
 1788SOL     OW16999   1.137   0.356   5.145  0.2380 -0.0271  0.1445
 1788SOL    HW117000   1.088   0.392   5.071 -1.6944  0.3595  1.6275
 1788SOL    HW217001   1.103   0.398   5.224 -1.0257  0.1827 -0.5121
 1789SOL     OW17002   4.000   1.515   7.954  0.2770 -0.6925  0.0359
 1789SOL    HW117003   4.001   1.420   7.959 -0.5947 -0.5158  3.2485
 1789SOL    HW217004   3.910   1.533   7.925  0.7139  1.2652 -0.1317
 1790SOL     OW17005   3.179   3.219   3.865  0.2575 -0.1627  0.3315
 1790SOL    HW117006   3.253   3.199   3.807 -0.1481  2.8796 -1.2417
 1790SOL    HW217007   3.119   3.266   3.807  0.1207  1.8724  2.1681
 1791SOL     OW17008   0.803   2.533   1.354 -0.5883 -0.3300  0.0815
 1791SOL    HW117009   0.859   2.610   1.340 -0.0109 -0.6300  0.7515
 1791SOL    HW217010   0.811   2.486   1.271  1.0928 -2.1120  1.2665
 1792SOL     OW17011   3.350   0.964   9.077 -0.2843 -0.2921 -0.3325
 1792SOL    HW117012   3.374   1.037   9.019  2.6699 -0.9910 -0.0157
 1792SOL    HW217013   3.314   0.897   9.019  2.4850 -1.5636 -0.5783
 1793SOL     OW17014   1.388   3.188  17.283 -0.1512 -0.3817 -0.0561
 1793SOL    HW117015   1.412   3.098  17.261  2.2192  0.0194  0.8896
 1793SOL    HW217016   1.450   3.237  17.229 -1.4228  0.9567 -0.3085
 1794SOL     OW17017   1.265   0.227   2.357  0.1334 -0.0820  0.1130
 1794SOL    HW117018   1.335   0.197   2.300  0.6601  1.6882 -0.1721
 1794SOL    HW217019   1.294   0.183   2.437 -2.1666 -1.4440  0.2036
 1795SOL     OW17020   3.647   3.754   1.172  0.1126  0.0211  0.2111
 1795SOL    HW117021   3.559   3.749   1.135  1.3750 -0.8948 -2.6508
 1795SOL    HW217022   3.689   3.673   1.145  3.7072  1.6015  1.0634
 1796SOL     OW17023   3.919   4.610   5.248  0.2229  0.1536 -0.0472
 1796SOL    HW117024   3.923   4.672   5.175 -2.6052  0.3376 -0.0703
 1796SOL    HW217025   4.009   4.581   5.233 -0.2180 -1.7969  1.2066
 1797SOL     OW17026   1.753   1.906   6.079  0.3158  0.2039  0.2843
 1797SOL    HW117027   1.690   1.977   6.077 -0.0354 -0.0277  2.2748
 1797SOL    HW217028   1.751   1.885   6.173  0.2532 -1.0211  0.0118
 1798SOL     OW17029   3.690   1.612  13.934 -0.4014 -0.0906 -0.0170
 1798SOL    HW117030   3.644   1.563  13.866  2.2955 -0.6745 -1.4169
 1798SOL    HW217031   3.758   1.549  13.957 -0.4413 -0.7643 -1.7685
 1799SOL     OW17032   2.915   0.054   8.666  0.4265  0.2770  0.0145
 1799SOL    HW117033   2.837   4.738   8.662  0.1142  0.7551 -0.3648
 1799SOL    HW217034   2.949   0.054   8.576  1.6385 -1.5364  0.4652
 1800SOL     OW17035   0.062   0.467   8.244  0.0813 -0.3574  0.2802
 1800SOL    HW117036   0.121   0.484   8.171 -2.6940  1.6885 -1.4617
 1800SOL    HW217037   4.716   0.502   8.216  0.9338  1.9963  0.6172
 1801SOL     OW17038   4.104   3.361  10.714 -0.5526  0.0614  0.4598
 1801SOL    HW117039   4.045   3.295  10.750 -1.3043 -0.8420 -2.4636
 1801SOL    HW217040   4.069   3.441  10.753 -1.3944 -1.3946  2.7068
 1802SOL     OW17041   3.189   0.917   6.807 -0.0031 -0.3108 -0.7153
 1802SOL    HW117042   3.161   0.878   6.724 -0.8374 -1.9283  0.3266
 1802SOL    HW217043   3.184   0.837   6.860  2.2833 -0.8992 -1.4182
 1803SOL     OW17044   1.741   1.879   4.431  0.5023 -0.0824  0.1774
 1803SOL    HW117045   1.736   1.801   4.486  1.9367  0.8775  1.6867
 1803SOL    HW217046   1.707   1.946   4.490  1.9541  0.3328  0.5504
 1804SOL     OW17047   0.219   3.508   6.831  0.3192  0.1235 -0.5278
 1804SOL    HW117048   0.208   3.575   6.898  0.4924 -1.4696  1.0820
 1804SOL    HW217049   0.128   3.485   6.810  0.4075 -0.6703 -0.0518
 1805SOL     OW17050   3.890   3.467  13.423 -0.1646  0.3130  0.8721
 1805SOL    HW117051   3.849   3.393  13.468  1.8943 -1.1635  0.3138
 1805SOL    HW217052   3.985   3.460  13.432 -0.1135 -0.0761 -0.0614
 1806SOL     OW17053   1.075   3.441  11.352  0.1356 -0.4726  0.6481
 1806SOL    HW117054   1.010   3.508  11.376  0.9863  0.4388  0.4053
 1806SOL    HW217055   1.061   3.372  11.416 -0.3705 -0.5413  0.4622
 1807SOL     OW17056   3.435   4.028   6.432 -0.4883  0.2662  0.0866
 1807SOL    HW117057   3.504   4.001   6.371  1.2519  0.3779  2.0299
 1807SOL    HW217058   3.457   3.992   6.518  0.2864  0.2441 -0.1235
 1808SOL     OW17059   2.452   4.473   9.346  0.1417  0.5811  0.0430
 1808SOL    HW117060   2.451   4.563   9.313 -0.7281  1.2595  1.9105
 1808SOL    HW217061   2.408   4.485   9.430  0.5912  2.0100  0.0751
 1809SOL     OW17062   1.539   3.096   8.660 -0.5332  0.3139  0.2015
 1809SOL    HW117063   1.559   3.024   8.600 -3.5671 -0.0523 -0.3848
 1809SOL    HW217064   1.487   3.157   8.608 -2.4600 -0.0734  1.6517
 1810SOL     OW17065   4.334   0.645   7.925  0.3637  0.2100 -0.4070
 1810SOL    HW117066   4.429   0.631   7.915 -0.2929 -2.4769 -2.7741
 1810SOL    HW217067   4.341   0.627   8.018  1.1264  0.3733 -0.4267
 1811SOL     OW17068   1.639   1.922  16.528  0.2686  0.1715 -0.0475
 1811SOL    HW117069   1.721   1.970  16.534  1.2777 -1.4830 -0.4552
 1811SOL    HW217070   1.588   1.972  16.591 -0.2198  1.2995 -1.3590
 1812SOL     OW17071   0.523   2.739   1.638 -0.1053  0.3042  0.0992
 1812SOL    HW117072   0.555   2.790   1.564 -0.6799 -0.7036 -0.8443
 1812SOL    HW217073   0.601   2.691   1.667  1.1054  1.6765 -0.9156
 1813SOL     OW17074   4.124   3.114  10.911 -0.6117 -0.5941 -0.3426
 1813SOL    HW117075   4.142   3.071  10.827 -0.6782  0.4288 -0.8816
 1813SOL    HW217076   4.211   3.156  10.909  0.5800 -3.0610 -0.3354
 1814SOL     OW17077   4.132   2.574  13.527  0.1507 -0.7755 -0.5608
 1814SOL    HW117078   4.173   2.495  13.561  0.7361  0.2673  1.1847
 1814SOL    HW217079   4.094   2.540  13.446  0.4808  2.2404 -2.0072
 1815SOL     OW17080   3.536   4.604   9.564  0.5124 -0.6256  0.1396
 1815SOL    HW117081   3.499   4.617   9.651 -1.5203 -2.5748 -0.4368
 1815SOL    HW217082   3.476   4.536   9.534  0.3496 -0.3639 -0.1274
 1816SOL     OW17083   4.005   4.467   3.243 -0.1080 -0.3571  0.0624
 1816SOL    HW117084   4.017   4.464   3.148 -1.0052 -0.1251 -0.0608
 1816SOL    HW217085   4.067   4.534   3.272  1.0803 -1.1184 -0.7524
 1817SOL     OW17086   0.722   2.293   6.043  0.4678  0.7734  0.4405
 1817SOL    HW117087   0.682   2.264   5.960 -1.3548  1.7490  0.9720
 1817SOL    HW217088   0.747   2.205   6.069  1.3092  0.9348  0.1707
 1818SOL     OW17089   2.529   2.323  16.698 -0.0629  0.0635  0.0946
 1818SOL    HW117090   2.445   2.350  16.661 -0.7626  0.2296  1.8262
 1818SOL    HW217091   2.583   2.401  16.685 -0.4901  0.4295  0.5228
 1819SOL     OW17092   0.142   4.559   7.579  0.2291  0.3547  0.6337
 1819SOL    HW117093   0.191   4.478   7.565 -0.3287 -0.0798  1.2168
 1819SOL    HW217094   0.053   4.534   7.602 -0.6755  1.9797 -1.1231
 1820SOL     OW17095   2.310   3.858   5.827  0.9956 -0.4757  0.0451
 1820SOL    HW117096   2.223   3.860   5.867  0.7027  2.7374 -0.7153
 1820SOL    HW217097   2.364   3.908   5.889 -0.9529  1.7502 -0.0426
 1821SOL     OW17098   1.986   3.598   4.352 -0.1590  0.5976  0.7085
 1821SOL    HW117099   1.955   3.605   4.262  2.0972  1.9839  0.0363
 1821SOL    HW217100   1.948   3.513   4.371  1.0982 -0.2429 -0.5633
 1822SOL     OW17101   3.889   4.142   5.761  0.3501 -0.8291 -0.2180
 1822SOL    HW117102   3.900   4.236   5.753 -0.9857 -0.6594  0.0993
 1822SOL    HW217103   3.797   4.126   5.743 -0.2232  0.8735  1.2678
 1823SOL     OW17104   0.320   4.188   6.437 -0.1663 -0.5915  0.7264
 1823SOL    HW117105   0.395   4.214   6.383 -1.6833 -0.0408 -1.1023
 1823SOL    HW217106   0.259   4.158   6.369 -1.3276  0.5315  1.2678
 1824SOL     OW17107   1.218   2.873  11.926 -0.1072  0.2083  0.5784
 1824SOL    HW117108   1.281   2.898  11.858  1.2904 -3.4829  0.5192
 1824SOL    HW217109   1.174   2.795  11.893 -0.8718  1.6445 -1.7657
 1825SOL     OW17110   0.768   3.266  17.132 -0.0550  0.2329  0.2026
 1825SOL    HW117111   0.856   3.266  17.168  0.9372 -0.0635 -2.1789
 1825SOL    HW217112   0.727   3.181  17.148 -0.7114  0.3168 -0.9794
 1826SOL     OW17113   2.545   0.979   7.155 -0.2310  0.9385 -0.4271
 1826SOL    HW117114   2.641   0.981   7.157 -0.2820  2.2753  0.3235
 1826SOL    HW217115   2.521   1.061   7.198  0.5905  1.9203 -1.8420
 1827SOL     OW17116   0.632   3.175   4.460  0.3371  0.1318  0.2153
 1827SOL    HW117117   0.683   3.154   4.538 -1.0782  0.9226  1.3509
 1827SOL    HW217118   0.697   3.226   4.412 -2.2438  1.6852 -1.6290
 1828SOL     OW17119   3.259   1.421   3.277  0.3276 -0.1716  0.0912
 1828SOL    HW117120   3.276   1.380   3.192  0.8525 -0.2882  0.2519
 1828SOL    HW217121   3.184   1.481   3.271  1.5841  1.4093  0.1631
 1829SOL     OW17122   2.055   0.294   5.748 -0.2479 -0.2681  0.0666
 1829SOL    HW117123   2.088   0.254   5.829  0.7280 -0.1262 -0.2536
 1829SOL    HW217124   2.049   0.224   5.683  1.8345  0.8929 -1.3824
 1830SOL     OW17125   4.285   3.147   3.332 -0.1733  0.0098 -0.1316
 1830SOL    HW117126   4.295   3.156   3.237 -1.1951 -1.2130 -0.3480
 1830SOL    HW217127   4.200   3.105   3.339  0.1506 -0.9168 -1.7426
 1831SOL     OW17128   4.366   2.787   6.746  0.0758  0.7962  0.0936
 1831SOL    HW117129   4.297   2.813   6.684  0.5126 -0.6097 -0.9834
 1831SOL    HW217130   4.446   2.812   6.699  0.1937 -0.7917 -0.5372
 1832SOL     OW17131   3.757   4.304   3.214 -0.3174 -0.4273  0.1577
 1832SOL    HW117132   3.746   4.211   3.233  2.4783 -0.7198  0.3462
 1832SOL    HW217133   3.849   4.322   3.234 -0.7687  0.1091  1.7157
 1833SOL     OW17134   2.281   4.463   9.857 -0.5340 -0.3080 -0.3301
 1833SOL    HW117135   2.212   4.476   9.923 -0.5305  2.2230 -0.8294
 1833SOL    HW217136   2.324   4.547   9.867 -0.2955 -0.3747 -0.8494
 1834SOL     OW17137   0.973   0.345   5.716 -0.0161 -0.6332  0.4652
 1834SOL    HW117138   0.976   0.348   5.620  0.4722 -0.8047  0.4736
 1834SOL    HW217139   0.881   0.372   5.716 -0.2959 -1.5771 -0.3957
 1835SOL     OW17140   3.933   0.351  12.444 -0.2837 -0.3983  0.6440
 1835SOL    HW117141   3.972   0.389  12.523  1.0169 -3.0464  1.2686
 1835SOL    HW217142   3.912   0.261  12.467 -0.4798 -0.3317  0.7262
 1836SOL     OW17143   2.275   4.265   5.542  0.3099 -0.1088  0.1109
 1836SOL    HW117144   2.299   4.177   5.570  1.3356 -0.3519 -1.5554
 1836SOL    HW217145   2.180   4.264   5.530  0.2039 -0.3302  1.0095
 1837SOL     OW17146   1.054   1.006   7.995  0.1899 -0.9644 -0.2769
 1837SOL    HW117147   1.101   1.065   7.937 -1.7851 -0.5464 -1.4691
 1837SOL    HW217148   1.110   0.929   7.982  2.6336  1.0359 -1.5014
 1838SOL     OW17149   3.982   0.974   1.616 -0.6833  0.0380 -0.1016
 1838SOL    HW117150   3.998   1.051   1.562 -0.6550 -0.0940 -0.2832
 1838SOL    HW217151   4.036   0.990   1.694 -0.0203 -2.6980 -0.0058
 1839SOL     OW17152   3.276   3.081   0.313  0.3383 -0.4202 -0.1702
 1839SOL    HW117153   3.288   3.127   0.396 -1.0758  1.4447 -1.0138
 1839SOL    HW217154   3.284   2.988   0.337 -0.5047 -0.7047 -1.0166
 1840SOL     OW17155   0.926   0.859   8.446 -0.3481 -0.4200  0.1882
 1840SOL    HW117156   0.923   0.764   8.432  0.1164  0.0750 -3.2927
 1840SOL    HW217157   0.918   0.883   8.354 -0.2643 -0.3379  0.2021
 1841SOL     OW17158   1.153   3.180  11.124  0.4423  0.0476 -0.4092
 1841SOL    HW117159   1.164   3.273  11.104  0.9829  0.1187  0.2227
 1841SOL    HW217160   1.175   3.171  11.217  0.9686  2.0276 -0.3221
 1842SOL     OW17161   1.673   2.143   1.212 -0.2851  0.3780 -0.0287
 1842SOL    HW117162   1.692   2.184   1.297 -0.5432  1.2701 -0.3937
 1842SOL    HW217163   1.716   2.060   1.228  2.2066  1.9804  1.6339
 1843SOL     OW17164   4.683   2.549  17.480  0.5775 -0.1045 -0.5030
 1843SOL    HW117165   4.729   2.484  17.426 -0.7495  0.6329 -2.5230
 1843SOL    HW217166   4.592   2.520  17.470  0.5490 -0.5733  1.1101
 1844SOL     OW17167   0.440   0.794   4.054 -0.5202  0.0170 -0.3773
 1844SOL    HW117168   0.464   0.763   3.967 -1.8355 -3.2258  0.4062
 1844SOL    HW217169   0.394   0.716   4.084  2.0100 -0.3431  2.6685
 1845SOL     OW17170   2.910   3.368  15.989 -0.1543  0.3496  0.7216
 1845SOL    HW117171   2.924   3.447  15.937 -0.2265 -0.9832 -1.3040
 1845SOL    HW217172   2.903   3.305  15.918 -1.0944  0.1048  1.0325
 1846SOL     OW17173   0.161   0.564  12.664 -0.0355 -0.1520 -0.3521
 1846SOL    HW117174   0.242   0.514  12.650 -0.5398 -0.9655 -0.3803
 1846SOL    HW217175   0.196   0.626  12.728 -1.9203 -2.0431  2.4988
 1847SOL     OW17176   3.180   1.380   4.969  0.0641  0.0038 -0.4714
 1847SOL    HW117177   3.170   1.290   5.000  2.4594 -0.5624 -1.3110
 1847SOL    HW217178   3.126   1.383   4.890  0.8342 -0.1958 -1.0073
 1848SOL     OW17179   3.739   2.467   5.190  0.3449  0.6449 -0.3151
 1848SOL    HW117180   3.702   2.519   5.262 -3.7687 -0.7226 -1.4326
 1848SOL    HW217181   3.655   2.457   5.144 -1.7346  1.9941  3.1623
 1849SOL     OW17182   1.554   1.322   7.176  0.2819  0.0742  0.6148
 1849SOL    HW117183   1.620   1.299   7.110 -1.2521  0.5504 -1.1025
 1849SOL    HW217184   1.484   1.348   7.116 -0.8727 -1.2841  1.3720
 1850SOL     OW17185   2.550   2.114   1.282  0.2495 -0.0146  0.0181
 1850SOL    HW117186   2.465   2.072   1.271  0.4604 -0.2409 -0.7370
 1850SOL    HW217187   2.569   2.136   1.191 -0.4799 -1.2317 -0.4242
 1851SOL     OW17188   1.783   3.878   8.586  0.7172  0.3822  0.8385
 1851SOL    HW117189   1.846   3.860   8.656 -1.2001 -2.2936  1.8800
 1851SOL    HW217190   1.781   3.973   8.593  2.0577  0.4955 -0.2760
 1852SOL     OW17191   1.566   2.855   5.604  0.1647  0.0037 -0.7019
 1852SOL    HW117192   1.522   2.923   5.655  3.3184  2.2946 -1.0452
 1852SOL    HW217193   1.563   2.778   5.661  0.0353 -1.4108 -2.6295
 1853SOL     OW17194   0.994   1.248   4.591  0.1338  0.5078 -0.3609
 1853SOL    HW117195   0.965   1.173   4.539  0.0273 -0.4510  1.0652
 1853SOL    HW217196   0.936   1.234   4.666 -1.4424 -3.0796 -2.2455
 1854SOL     OW17197   0.592   3.713   6.269  0.0002  0.0404 -0.4015
 1854SOL    HW117198   0.538   3.791   6.277  0.5384  0.3833 -0.1694
 1854SOL    HW217199   0.625   3.726   6.180  0.8498 -0.4662 -0.1571
 1855SOL     OW17200   3.118   4.689   1.668  0.2471  0.1450  0.7324
 1855SOL    HW117201   3.118   4.595   1.649 -1.2953  0.1735  0.5883
 1855SOL    HW217202   3.082   4.720   1.585  2.2801  2.5142  0.7446
 1856SOL     OW17203   4.151   4.382  16.954 -0.2942  0.3107  0.3574
 1856SOL    HW117204   4.141   4.332  16.873  0.8103  1.6341 -0.5852
 1856SOL    HW217205   4.061   4.412  16.963 -1.3055 -2.9524  1.3495
 1857SOL     OW17206   2.449   1.618   5.755  0.4366 -0.2113  0.5196
 1857SOL    HW117207   2.497   1.698   5.733  1.4965 -1.2139 -0.8456
 1857SOL    HW217208   2.363   1.659   5.767  0.2067 -0.8512  1.0418
 1858SOL     OW17209   0.334   1.521  10.117 -0.5362  0.2673 -0.0544
 1858SOL    HW117210   0.275   1.571  10.173 -1.0046 -0.2303 -0.0993
 1858SOL    HW217211   0.381   1.477  10.188 -3.0648 -0.7046  1.0046
 1859SOL     OW17212   1.856   3.266   9.829  0.0900 -0.2082 -0.2833
 1859SOL    HW117213   1.816   3.315   9.901 -3.3855 -1.0934 -1.6259
 1859SOL    HW217214   1.846   3.333   9.762 -0.5047 -0.1457 -0.1323
 1860SOL     OW17215   4.520   4.338   7.508 -0.2525 -0.1719 -0.4711
 1860SOL    HW117216   4.477   4.256   7.484 -2.9039  1.1132 -0.1285
 1860SOL    HW217217   4.607   4.312   7.538 -0.0489  1.4607  0.3309
 1861SOL     OW17218   0.398   4.592   9.434  0.0793  0.6630 -0.2813
 1861SOL    HW117219   0.453   4.668   9.450  1.3734  0.1004 -2.0389
 1861SOL    HW217220   0.308   4.623   9.426  0.0621  0.7079  0.0673
 1862SOL     OW17221   3.487   0.266   6.454 -0.0043 -0.6285 -0.5646
 1862SOL    HW117222   3.561   0.279   6.395 -0.2102  0.8488 -0.5026
 1862SOL    HW217223   3.488   0.349   6.501  3.2512 -0.0916 -1.5791
 1863SOL     OW17224   0.867   3.127   4.080 -0.4868  0.5041 -0.0702
 1863SOL    HW117225   0.794   3.186   4.094 -0.3419  0.4485  0.9028
 1863SOL    HW217226   0.926   3.193   4.043  0.6107 -0.1453  0.5189
 1864SOL     OW17227   0.908   0.344  17.249 -0.2446 -0.3048 -0.2304
 1864SOL    HW117228   0.938   0.313  17.164 -2.2626 -0.6087 -0.8151
 1864SOL    HW217229   0.989   0.386  17.280 -0.3616 -0.1523 -0.1298
 1865SOL     OW17230   4.279   0.505   7.273  0.0729  0.1937 -0.8326
 1865SOL    HW117231   4.254   0.466   7.357  1.7596 -1.2012 -0.9992
 1865SOL    HW217232   4.288   0.416   7.240 -0.4904 -0.0886 -0.2221
 1866SOL     OW17233   3.629   1.541   0.869  0.0739 -0.1993  0.1790
 1866SOL    HW117234   3.626   1.529   0.774 -4.2168 -1.4709  0.4753
 1866SOL    HW217235   3.580   1.623   0.871  1.8940  0.8713  0.3192
 1867SOL     OW17236   0.454   2.982   8.466  0.7750 -0.0603 -0.0863
 1867SOL    HW117237   0.459   3.071   8.502  1.5280 -1.1332  2.4720
 1867SOL    HW217238   0.510   2.984   8.388  0.9478  1.6316  0.0781
 1868SOL     OW17239   4.734   0.751   6.718  0.2754 -0.5874  0.6232
 1868SOL    HW117240   0.017   0.680   6.778  0.4695 -3.1768 -2.5039
 1868SOL    HW217241   4.698   0.814   6.781 -2.4868 -1.1475 -0.3928
 1869SOL     OW17242   2.954   0.993   7.039  0.2074  0.3520  1.0182
 1869SOL    HW117243   2.925   1.084   7.036  0.0596  0.2438 -0.7402
 1869SOL    HW217244   2.934   0.954   6.954  2.1709 -1.0942  1.2371
 1870SOL     OW17245   0.021   3.295  13.519 -0.0235  0.1882  0.0553
 1870SOL    HW117246   0.047   3.322  13.431  1.6230 -0.8354  0.2215
 1870SOL    HW217247   0.040   3.374  13.569  0.4713  1.1749 -1.7138
 1871SOL     OW17248   2.037   2.732   2.274  0.5291  0.1569 -0.1911
 1871SOL    HW117249   2.116   2.683   2.298  0.5738 -0.4840 -1.6519
 1871SOL    HW217250   2.023   2.794   2.345 -0.7776 -0.6724  0.2541
 1872SOL     OW17251   2.871   0.329   4.849  0.0018  0.2277 -0.5899
 1872SOL    HW117252   2.952   0.282   4.828  1.3392  1.1923  2.3712
 1872SOL    HW217253   2.881   0.338   4.944  1.1853  1.4632 -0.8446
 1873SOL     OW17254   1.896   2.178   8.989 -0.2763  0.1467  0.0110
 1873SOL    HW117255   1.879   2.219   8.905  2.1624 -0.4755 -0.7893
 1873SOL    HW217256   1.991   2.179   9.001 -0.2120  0.3148 -0.5213
 1874SOL     OW17257   0.141   0.678   4.461 -0.1291 -0.2205  0.0465
 1874SOL    HW117258   0.179   0.590   4.466 -2.3032 -1.1815 -0.7256
 1874SOL    HW217259   0.216   0.738   4.467  0.0179 -0.4089  0.0939
 1875SOL     OW17260   3.920   3.266   9.187  0.1363  0.2297  0.0251
 1875SOL    HW117261   3.987   3.200   9.170 -0.5865 -0.8852  1.4996
 1875SOL    HW217262   3.910   3.296   9.097 -0.3783  0.5604  0.1908
 1876SOL     OW17263   1.918   3.589   2.970  0.2750 -0.0282  0.5942
 1876SOL    HW117264   1.829   3.613   2.995 -0.1923 -0.0575 -1.0463
 1876SOL    HW217265   1.953   3.673   2.939  0.8076 -0.5093 -0.1294
 1877SOL     OW17266   2.207   4.464   6.909  0.0532  0.3384 -0.5995
 1877SOL    HW117267   2.260   4.487   6.986 -0.9289  0.9782 -0.1186
 1877SOL    HW217268   2.265   4.501   6.842 -0.2749 -0.0236 -1.0802
 1878SOL     OW17269   4.088   3.628   2.905  0.5681 -0.1628 -0.4106
 1878SOL    HW117270   4.127   3.598   2.822  1.5442  2.5068 -0.9264
 1878SOL    HW217271   4.013   3.673   2.866  1.3985 -0.0157 -1.8358
 1879SOL     OW17272   1.447   0.775  13.160  0.4241 -0.0282  0.3889
 1879SOL    HW117273   1.503   0.786  13.083 -0.2494  0.4498 -0.0403
 1879SOL    HW217274   1.466   0.689  13.196  0.6014 -0.6886 -1.2826
 1880SOL     OW17275   0.921   3.222   2.962 -0.1055  0.5926  0.0460
 1880SOL    HW117276   0.993   3.179   2.916 -2.0145 -0.1258 -2.2599
 1880SOL    HW217277   0.938   3.190   3.051  0.3180  1.8204  0.3912
 1881SOL     OW17278   0.448   1.902   6.631  0.1101 -0.5529 -1.0791
 1881SOL    HW117279   0.436   1.905   6.536  0.6214 -1.4974 -1.1769
 1881SOL    HW217280   0.542   1.881   6.628  0.1477 -0.3309 -1.5338
 1882SOL     OW17281   1.970   3.324   7.899  0.3261  0.1889  0.0680
 1882SOL    HW117282   1.903   3.278   7.949  1.1897 -2.5197 -1.2662
 1882SOL    HW217283   2.042   3.342   7.959 -0.7928  1.3846  1.0394
 1883SOL     OW17284   0.576   2.069  15.337 -0.5054  0.3107 -0.2283
 1883SOL    HW117285   0.525   2.133  15.388  1.6347  1.6880  0.1764
 1883SOL    HW217286   0.638   2.044  15.405 -0.1475  2.6662  0.3383
 1884SOL     OW17287   1.603   2.585   4.811 -0.8842  0.2887  0.5513
 1884SOL    HW117288   1.523   2.595   4.862 -0.5856  0.0673  1.0689
 1884SOL    HW217289   1.588   2.497   4.774  2.0472  0.6280 -1.5092
 1885SOL     OW17290   0.873   1.041   4.451  0.1089 -0.2635  0.2675
 1885SOL    HW117291   0.895   1.015   4.362  2.8337  0.1418  0.8428
 1885SOL    HW217292   0.784   1.006   4.447  0.6469 -1.6541  0.6680
 1886SOL     OW17293   3.641   2.240   3.623  0.0441 -0.6631 -0.7133
 1886SOL    HW117294   3.715   2.212   3.678  0.8108 -0.4446 -1.6224
 1886SOL    HW217295   3.687   2.313   3.580  0.0413  0.5180  1.2859
 1887SOL     OW17296   2.137   4.044   0.440 -0.3592 -0.4513  0.8395
 1887SOL    HW117297   2.165   3.979   0.375 -0.2808  0.3647  0.0661
 1887SOL    HW217298   2.171   4.004   0.520  1.2035  0.5927  0.6962
 1888SOL     OW17299   0.384   2.475   4.214  0.0010 -0.3146  0.2389
 1888SOL    HW117300   0.432   2.454   4.295 -2.1626 -1.5530  1.1836
 1888SOL    HW217301   0.294   2.467   4.246 -0.2970  1.1070 -0.2527
 1889SOL     OW17302   1.994   2.349   1.521 -0.2090 -0.2393 -0.0655
 1889SOL    HW117303   1.999   2.399   1.439  0.0554 -0.3690 -0.1277
 1889SOL    HW217304   1.916   2.393   1.554  1.2768  0.9419  1.8714
 1890SOL     OW17305   3.240   0.752   4.190 -0.0619  0.4312  0.3322
 1890SOL    HW117306   3.333   0.755   4.167 -0.1855  2.3593  0.0297
 1890SOL    HW217307   3.250   0.753   4.285  1.6219 -0.9801  0.1693
 1891SOL     OW17308   4.199   4.160   7.805  0.4262  0.2299  0.8713
 1891SOL    HW117309   4.210   4.253   7.823  0.3285  0.0595  1.8395
 1891SOL    HW217310   4.110   4.157   7.769  0.3426  1.0164  1.0058
 1892SOL     OW17311   2.077   0.646   9.223 -0.1134  0.2778  0.6847
 1892SOL    HW117312   2.128   0.696   9.286  0.5887  1.6612 -0.9935
 1892SOL    HW217313   2.145   0.642   9.156  0.7619  2.7613  1.4396
 1893SOL     OW17314   3.200   4.229   4.677  0.6755  0.3956  0.0914
 1893SOL    HW117315   3.257   4.153   4.661  1.1837  0.8751 -0.3855
 1893SOL    HW217316   3.199   4.264   4.588 -0.4385  2.7597  1.0221
 1894SOL     OW17317   3.704   1.761   0.671  0.2519  0.2699  0.1925
 1894SOL    HW117318   3.609   1.747   0.669  0.1643  0.7709  0.7240
 1894SOL    HW217319   3.719   1.717   0.587  0.6745  0.7954 -0.0000
 1895SOL     OW17320   2.927   1.646   3.181 -0.0331 -0.0698 -0.0682
 1895SOL    HW117321   2.954   1.728   3.138  0.8236 -0.1823  0.2376
 1895SOL    HW217322   2.982   1.645   3.259  0.1205 -1.4970 -0.2024
 1896SOL     OW17323   1.059   1.519   7.322 -0.2290 -0.5084  0.5858
 1896SOL    HW117324   1.035   1.445   7.266  1.1439 -1.2298  0.9294
 1896SOL    HW217325   1.144   1.487   7.351 -0.4482 -1.0154  0.6732
 1897SOL     OW17326   0.907   4.255   3.086 -0.3231  0.5179 -0.1661
 1897SOL    HW117327   0.858   4.176   3.063  0.5508  0.4052 -1.5951
 1897SOL    HW217328   0.973   4.253   3.017 -0.7104  0.7163 -0.5423
 1898SOL     OW17329   3.841   0.663  12.496  0.4815 -0.5112 -0.5352
 1898SOL    HW117330   3.892   0.610  12.434  2.7797 -1.3090  2.0640
 1898SOL    HW217331   3.762   0.611  12.509 -0.4721  0.7756 -1.1555
 1899SOL     OW17332   4.202   0.901  12.213 -0.2582 -0.3629  1.0561
 1899SOL    HW117333   4.279   0.957  12.200 -1.1784  0.4764 -0.8815
 1899SOL    HW217334   4.158   0.945  12.286  2.1859  0.8666  1.7847
 1900SOL     OW17335   2.410   2.753   1.187 -0.3436  0.1215  0.8768
 1900SOL    HW117336   2.354   2.696   1.134  0.2683  0.1727  0.1860
 1900SOL    HW217337   2.357   2.832   1.187  0.6694  0.7953 -1.1040
 1901SOL     OW17338   3.867   0.986   8.149 -0.2385 -0.2341 -0.4354
 1901SOL    HW117339   3.892   1.072   8.184 -1.3159  0.5638 -1.6227
 1901SOL    HW217340   3.774   0.984   8.168  0.1580 -2.4104  1.3348
 1902SOL     OW17341   1.116   1.179   0.700  0.0343  0.4544 -0.1766
 1902SOL    HW117342   1.173   1.124   0.753 -1.6030 -1.0592  0.0149
 1902SOL    HW217343   1.078   1.241   0.763 -2.2330 -0.5210 -0.6008
 1903SOL     OW17344   1.226   4.647  17.264  0.0528  0.0802 -0.4515
 1903SOL    HW117345   1.232   0.003  17.244 -1.9567  0.6201  1.4891
 1903SOL    HW217346   1.285   4.650  17.339  1.1450 -0.1812 -1.2992
 1904SOL     OW17347   3.489   2.229  12.394  0.0872  0.0159  0.2458
 1904SOL    HW117348   3.452   2.142  12.376  0.0868 -0.1047  0.8369
 1904SOL    HW217349   3.473   2.255  12.303  0.9976 -1.1949 -0.2680
 1905SOL     OW17350   0.502   3.523   2.319  0.2588  0.0116  0.0834
 1905SOL    HW117351   0.597   3.509   2.326 -0.0962 -2.1046  0.5632
 1905SOL    HW217352   0.479   3.607   2.359 -0.3041  0.3503 -0.9417
 1906SOL     OW17353   0.324   2.006   3.938 -0.1634 -0.3602 -0.4173
 1906SOL    HW117354   0.390   2.075   3.938 -1.1043  0.5456 -0.2314
 1906SOL    HW217355   0.321   1.969   3.850 -2.8669  0.1259 -0.5261
 1907SOL     OW17356   1.935   4.059  17.202 -0.3962  0.2615 -0.4185
 1907SOL    HW117357   1.879   4.127  17.164  0.6540  2.1493  1.4265
 1907SOL    HW217358   2.015   4.108  17.224  0.9820 -2.0320 -0.3642
 1908SOL     OW17359   3.054   1.847  10.274 -0.2525  0.6135 -0.2315
 1908SOL    HW117360   3.122   1.810  10.218 -1.4878 -0.3571 -1.0707
 1908SOL    HW217361   2.990   1.893  10.221  0.1037  0.6551 -0.6262
 1909SOL     OW17362   0.943   3.774   8.001 -0.2330 -0.5675 -0.2710
 1909SOL    HW117363   0.863   3.800   7.955 -0.4392 -0.3935  0.1827
 1909SOL    HW217364   1.005   3.836   7.963  0.3326  0.5648  2.5488
 1910SOL     OW17365   3.992   1.436  12.102  0.3191  0.4708 -0.5996
 1910SOL    HW117366   4.065   1.377  12.121  0.7538  1.1646 -0.1286
 1910SOL    HW217367   4.014   1.514  12.154  0.5231  0.2924 -0.4171
 1911SOL     OW17368   4.354   0.258   3.328 -0.3121 -0.2475  0.1290
 1911SOL    HW117369   4.364   0.326   3.262 -1.4187  1.1877  1.4288
 1911SOL    HW217370   4.425   0.201   3.298  2.0750  2.7562 -0.0069
 1912SOL     OW17371   1.176   0.855  13.195 -0.2827 -0.2053  0.0458
 1912SOL    HW117372   1.269   0.847  13.172 -0.2315  0.3046  0.0727
 1912SOL    HW217373   1.172   0.922  13.263  0.3308 -2.7750  2.6230
 1913SOL     OW17374   1.305   1.595   4.221  0.0011 -0.6013  0.0079
 1913SOL    HW117375   1.377   1.657   4.205 -0.3060 -0.4379 -0.7332
 1913SOL    HW217376   1.285   1.607   4.313 -1.7842 -0.0440 -0.4459
 1914SOL     OW17377   4.327   1.489   8.497 -0.4771 -0.8646  0.4806
 1914SOL    HW117378   4.393   1.510   8.431 -3.2780  2.9591 -1.1412
 1914SOL    HW217379   4.382   1.468   8.573  1.7776  1.7114 -0.4128
 1915SOL     OW17380   4.153   0.435   5.690  0.5876 -0.0112  0.2659
 1915SOL    HW117381   4.174   0.453   5.598  0.0277 -0.6087  0.0204
 1915SOL    HW217382   4.072   0.486   5.694  0.8160  0.3584  0.2263
 1916SOL     OW17383   4.165   4.606   2.316  0.2091  0.6654 -0.4037
 1916SOL    HW117384   4.180   4.565   2.402 -2.9721 -0.9054 -0.5905
 1916SOL    HW217385   4.105   4.540   2.281 -1.6489  1.6133  0.9216
 1917SOL     OW17386   3.373   3.523  11.401 -0.5645  0.8450 -0.3011
 1917SOL    HW117387   3.286   3.494  11.429  0.2670 -1.8835 -0.5711
 1917SOL    HW217388   3.427   3.477  11.466 -1.5633  0.7222  0.4506
 1918SOL     OW17389   4.635   4.493   5.502  0.4041  0.4530 -0.0748
 1918SOL    HW117390   4.627   4.405   5.465 -0.3738  0.8668 -0.9135
 1918SOL    HW217391   4.706   4.477   5.563 -0.3968  0.0020  0.7345
 1919SOL     OW17392   2.653   1.879  13.925  0.0856 -0.2541 -0.7721
 1919SOL    HW117393   2.565   1.842  13.927  0.0333 -0.1272 -0.7291
 1919SOL    HW217394   2.648   1.938  14.000 -0.3334 -0.5612 -0.5571
 1920SOL     OW17395   2.137   2.387   4.479  0.1362  0.2051  0.9589
 1920SOL    HW117396   2.209   2.444   4.505  0.3010 -0.3067  1.6233
 1920SOL    HW217397   2.089   2.368   4.560  0.7457 -0.7983  1.0803
 1921SOL     OW17398   0.245   2.340  11.975  0.3426  0.0278 -0.3580
 1921SOL    HW117399   0.254   2.296  12.060 -3.0843 -0.1462 -0.1021
 1921SOL    HW217400   0.317   2.301  11.925  0.3077 -0.6663  0.1168
 1922SOL     OW17401   0.307   1.288   4.832 -0.1618 -0.3240 -0.2451
 1922SOL    HW117402   0.261   1.219   4.785 -1.5600 -1.6861  3.0982
 1922SOL    HW217403   0.306   1.356   4.765  1.0831 -0.9084 -0.8362
 1923SOL     OW17404   3.766   3.253   1.993 -1.1290 -0.2833 -0.3569
 1923SOL    HW117405   3.728   3.327   1.946 -0.4220  1.5506  1.9773
 1923SOL    HW217406   3.713   3.183   1.955 -1.5058  0.2732 -0.8600
 1924SOL     OW17407   1.112   4.227   2.922  0.6486  0.0665 -0.3951
 1924SOL    HW117408   1.180   4.293   2.931 -1.1348  1.3526  3.2639
 1924SOL    HW217409   1.131   4.206   2.830 -1.3398 -1.2677 -0.5000
 1925SOL     OW17410   3.490   0.726  13.575  0.5744 -0.0321 -0.1352
 1925SOL    HW117411   3.550   0.684  13.513 -2.5068 -1.8832 -1.8661
 1925SOL    HW217412   3.519   0.683  13.655  0.6099  0.5249  0.1511
 1926SOL     OW17413   3.445   2.563  16.709 -0.2869 -0.0205  0.0131
 1926SOL    HW117414   3.403   2.583  16.793  0.2113 -0.4330  0.3564
 1926SOL    HW217415   3.371   2.513  16.674 -2.6148  1.4920  2.8205
 1927SOL     OW17416   2.225   4.482   8.721  0.5633  0.3173  0.1778
 1927SOL    HW117417   2.292   4.537   8.761 -0.8701  2.6078 -0.5893
 1927SOL    HW217418   2.238   4.396   8.761 -1.6561 -1.2991 -2.5395
 1928SOL     OW17419   1.915   3.604  16.515  0.0100 -0.6380 -0.3243
 1928SOL    HW117420   1.853   3.612  16.587  0.3521 -0.6132 -0.0318
 1928SOL    HW217421   1.888   3.514  16.496 -0.2860 -0.5011 -0.5430
 1929SOL     OW17422   2.447   3.732  12.237  0.2236  0.0125 -0.6709
 1929SOL    HW117423   2.501   3.805  12.207  0.4255  0.4775  0.8187
 1929SOL    HW217424   2.493   3.711  12.318  0.4630 -0.5864 -0.9613
 1930SOL     OW17425   2.395   3.352   4.076  0.8698 -0.0733  0.6721
 1930SOL    HW117426   2.332   3.323   4.143 -0.0110 -0.3897 -0.3061
 1930SOL    HW217427   2.456   3.279   4.089  1.1300 -0.1082 -0.7731
 1931SOL     OW17428   2.631   1.861   4.523  0.3809 -0.7445 -0.0529
 1931SOL    HW117429   2.719   1.853   4.558  0.9556  2.6573 -0.6654
 1931SOL    HW217430   2.582   1.781   4.540  1.5979 -1.1934  1.3227
 1932SOL     OW17431   0.669   1.804  14.779  0.3031  0.3155  0.6189
 1932SOL    HW117432   0.664   1.769  14.867  1.6387 -1.4457 -0.0128
 1932SOL    HW217433   0.764   1.810  14.762  0.5011 -1.3558  1.1710
 1933SOL     OW17434   0.014   2.532   7.298  0.3658 -0.2947  0.0608
 1933SOL    HW117435   0.046   2.518   7.209 -1.3501  0.0310 -0.6074
 1933SOL    HW217436   4.732   2.440   7.316 -1.3331  0.1543  0.4644
 1934SOL     OW17437   0.072   1.209   5.207 -0.1361  0.3444 -0.0922
 1934SOL    HW117438   0.128   1.286   5.212 -1.7049  1.4002  1.1964
 1934SOL    HW217439   0.035   1.243   5.126 -1.5471 -0.4390  0.2274
 1935SOL     OW17440   2.995   1.979   4.711  0.6172 -0.3518 -0.5588
 1935SOL    HW117441   2.945   2.002   4.632  1.4995 -0.5898 -1.1974
 1935SOL    HW217442   3.013   1.886   4.696  1.4357  0.0310 -2.0143
 1936SOL     OW17443   1.056   2.960  12.957 -0.1294  0.2191 -0.2452
 1936SOL    HW117444   1.019   3.037  13.001 -2.5776  0.9027 -3.4897
 1936SOL    HW217445   1.097   2.917  13.032  2.5010  0.7461 -1.3761
 1937SOL     OW17446   3.804   1.592   5.420  0.0053 -0.4467  0.3505
 1937SOL    HW117447   3.862   1.647   5.366 -1.4078  0.9226  0.2240
 1937SOL    HW217448   3.860   1.519   5.446 -1.4211 -1.9205 -0.7094
 1938SOL     OW17449   2.196   1.504   3.925 -0.1589 -0.2771 -0.1860
 1938SOL    HW117450   2.214   1.514   3.832 -0.0826  2.4089  0.1312
 1938SOL    HW217451   2.258   1.567   3.963  0.7490  0.5872 -3.1342
 1939SOL     OW17452   3.029   2.466   3.958  0.6460  0.1502 -0.2220
 1939SOL    HW117453   3.049   2.425   4.043 -0.9847 -0.3564 -0.0889
 1939SOL    HW217454   3.111   2.513   3.942  0.0741  1.7658  1.5171
 1940SOL     OW17455   3.046   3.823   4.713  0.6057 -0.0444 -0.1393
 1940SOL    HW117456   3.051   3.728   4.703  2.1964 -0.1811  2.0806
 1940SOL    HW217457   3.122   3.836   4.769 -1.6090 -1.5641  3.2445
 1941SOL     OW17458   4.543   0.703   5.236  0.4809 -0.4412 -0.1223
 1941SOL    HW117459   4.619   0.661   5.195 -1.2195 -2.1294 -1.5661
 1941SOL    HW217460   4.477   0.634   5.230 -0.5690  0.6805 -1.4282
 1942SOL     OW17461   2.537   0.459   4.409  0.2675 -0.4828 -0.3129
 1942SOL    HW117462   2.524   0.506   4.326 -1.2612 -0.4145 -0.0235
 1942SOL    HW217463   2.518   0.520   4.480 -0.2593 -0.5122 -0.4311
 1943SOL     OW17464   3.170   4.180   6.248  0.0756  0.3194  0.0852
 1943SOL    HW117465   3.253   4.209   6.209  0.7522  1.3390  2.2780
 1943SOL    HW217466   3.148   4.259   6.297  1.5386 -0.1714  1.5403
 1944SOL     OW17467   4.499   0.735   3.030  0.5268  0.8518  0.4870
 1944SOL    HW117468   4.457   0.809   2.986 -0.4074 -0.2272 -0.4260
 1944SOL    HW217469   4.574   0.773   3.077  0.6707  0.2058  0.7825
 1945SOL     OW17470   0.143   2.831   7.862  0.0192  0.1087 -0.4428
 1945SOL    HW117471   0.234   2.843   7.890 -0.4097 -3.3941  2.5257
 1945SOL    HW217472   0.141   2.735   7.869 -2.0277  0.2895  1.5877
 1946SOL     OW17473   3.331   0.761   2.906  0.6434  0.4314  0.0168
 1946SOL    HW117474   3.366   0.720   2.827  1.0301 -1.3352  1.1053
 1946SOL    HW217475   3.262   0.817   2.871  0.0701 -0.8756 -0.9293
 1947SOL     OW17476   4.252   4.237   8.840  0.5532  0.5743  0.3655
 1947SOL    HW117477   4.333   4.217   8.793  1.2680 -2.0061  2.7215
 1947SOL    HW217478   4.233   4.326   8.809 -0.7428  0.2609  0.2402
 1948SOL     OW17479   0.529   4.573  16.908  0.6924  1.0157  0.2444
 1948SOL    HW117480   0.444   4.553  16.948  0.8648 -0.3096 -0.0550
 1948SOL    HW217481   0.559   4.650  16.956 -0.0995  1.2341  0.3951
 1949SOL     OW17482   4.258   2.673   4.926  0.4535  0.4150 -0.1230
 1949SOL    HW117483   4.200   2.616   4.977 -0.8118  2.2834  0.5053
 1949SOL    HW217484   4.206   2.694   4.849  1.1274 -0.6562 -0.8756
 1950SOL     OW17485   2.824   4.366   2.589  0.3885  0.5688  0.2476
 1950SOL    HW117486   2.858   4.364   2.500 -0.9902 -0.5410 -0.2455
 1950SOL    HW217487   2.836   4.459   2.608  1.8647  0.1429  1.4305
 1951SOL     OW17488   2.961   1.645   8.979  0.0630  0.5756  0.1948
 1951SOL    HW117489   2.868   1.637   8.958 -0.0932 -2.4361  2.0162
 1951SOL    HW217490   2.996   1.654   8.890 -3.3991  1.2972 -1.0990
 1952SOL     OW17491   1.984   3.039   7.087 -0.2268  0.4429 -0.2146
 1952SOL    HW117492   1.912   3.055   7.027 -0.5762 -2.2159 -0.5340
 1952SOL    HW217493   2.031   2.975   7.032  2.0626  2.2092 -0.3151
 1953SOL     OW17494   0.794   1.369   5.881  0.6601  0.1862  0.1623
 1953SOL    HW117495   0.722   1.330   5.930 -0.9783  0.6192 -1.9138
 1953SOL    HW217496   0.850   1.418   5.942 -2.0743  3.1375  0.3075
 1954SOL     OW17497   2.476   0.471   5.248 -0.2673 -0.4640  0.1709
 1954SOL    HW117498   2.521   0.525   5.183  2.2367 -1.8662  0.7012
 1954SOL    HW217499   2.544   0.454   5.313 -0.8600 -1.9120  0.4221
 1955SOL     OW17500   2.796   1.501   9.714 -0.2397 -0.0160 -0.6378
 1955SOL    HW117501   2.870   1.494   9.776 -3.0298 -3.0041  2.3635
 1955SOL    HW217502   2.773   1.592   9.731 -1.0315 -0.1644 -0.9284
 1956SOL     OW17503   2.450   1.476  16.508 -0.2897 -0.0733 -0.4918
 1956SOL    HW117504   2.362   1.511  16.496  1.2536  3.6524 -1.1661
 1956SOL    HW217505   2.506   1.527  16.449 -3.1559  2.1208 -1.3263
 1957SOL     OW17506   2.588   2.579   3.388 -0.4922  0.8567  0.5792
 1957SOL    HW117507   2.677   2.605   3.412 -0.0488  0.4417 -0.6028
 1957SOL    HW217508   2.566   2.546   3.475 -1.9277  1.5007  0.4475
 1958SOL     OW17509   0.034   3.057  15.783  0.1761  0.6440 -0.4736
 1958SOL    HW117510   4.723   3.115  15.840  0.3154 -0.1572  0.4495
 1958SOL    HW217511   0.118   3.056  15.829  0.7917  0.1356 -1.5957
 1959SOL     OW17512   1.873   4.105   9.098  0.1944  0.4070 -0.4110
 1959SOL    HW117513   1.896   4.107   9.005  0.2846 -0.0186 -0.3989
 1959SOL    HW217514   1.840   4.193   9.116 -0.3200  0.1929 -0.3086
 1960SOL     OW17515   3.354   3.706   0.849 -0.2388  0.4206  0.0051
 1960SOL    HW117516   3.289   3.650   0.807 -0.4087  0.3704  0.3360
 1960SOL    HW217517   3.298   3.784   0.860  1.2196  1.6622 -1.3186
 1961SOL     OW17518   2.367   2.875   4.535  0.1100 -0.4377  0.3561
 1961SOL    HW117519   2.386   2.848   4.625 -1.5676 -1.0679  0.5145
 1961SOL    HW217520   2.445   2.857   4.482 -0.1861 -1.3807  0.2397
 1962SOL     OW17521   1.774   2.459   6.784 -0.3655  0.0334 -0.1261
 1962SOL    HW117522   1.861   2.497   6.788 -0.0834 -0.4208 -1.9682
 1962SOL    HW217523   1.773   2.418   6.871 -3.1382  0.9225  0.2802
 1963SOL     OW17524   2.231   4.578  12.862 -0.2543 -0.2099 -0.2309
 1963SOL    HW117525   2.326   4.566  12.856 -0.5480 -2.1341 -1.0577
 1963SOL    HW217526   2.201   4.488  12.852 -3.2395  1.2153 -4.4910
 1964SOL     OW17527   3.615   4.661   6.806 -0.0092 -0.6027  0.4411
 1964SOL    HW117528   3.589   4.721   6.876 -2.3401 -1.3069  0.1902
 1964SOL    HW217529   3.532   4.668   6.758  0.2259  0.2281  0.1627
 1965SOL     OW17530   1.351   4.601   3.223  0.9058 -0.3550 -0.1015
 1965SOL    HW117531   1.331   4.612   3.316 -0.3716  2.3278 -0.6794
 1965SOL    HW217532   1.413   4.673   3.208  0.7634 -0.1438  0.3191
 1966SOL     OW17533   4.445   0.449  13.087  0.0408  0.1425 -0.3880
 1966SOL    HW117534   4.401   0.531  13.066  0.1559  0.6159  1.1965
 1966SOL    HW217535   4.397   0.419  13.165  1.8295 -1.0096  0.2742
 1967SOL     OW17536   1.050   0.913   8.686 -0.4451 -0.1724  0.0896
 1967SOL    HW117537   0.993   0.863   8.628 -0.1054  2.0600 -2.1978
 1967SOL    HW217538   1.034   0.857   8.762 -1.7435  2.9544  2.1531
 1968SOL     OW17539   1.672   3.007   1.964  0.0997  0.2663 -0.6943
 1968SOL    HW117540   1.579   3.029   1.954  0.0323  0.1285 -0.3635
 1968SOL    HW217541   1.709   3.089   1.997 -2.6218  0.4727  1.9088
 1969SOL     OW17542   2.084   0.673   6.457  0.2581 -0.3618  0.2570
 1969SOL    HW117543   2.034   0.721   6.523 -1.2753 -0.1817 -1.0386
 1969SOL    HW217544   2.097   0.740   6.389  1.9210 -0.0925  0.8213
 1970SOL     OW17545   0.251   1.086   1.565  0.0955 -0.2530 -0.0983
 1970SOL    HW117546   0.224   1.148   1.633  0.4319 -0.0750 -0.1230
 1970SOL    HW217547   0.212   1.124   1.486  1.3852 -0.2492 -0.7473
 1971SOL     OW17548   2.955   1.404  11.328 -0.0825  0.2053  0.2418
 1971SOL    HW117549   2.976   1.453  11.249 -1.6648  0.1646 -0.2031
 1971SOL    HW217550   3.035   1.405  11.381 -0.0569  0.9937  0.1915
 1972SOL     OW17551   3.233   3.313   9.962  0.2623  0.2143  0.1330
 1972SOL    HW117552   3.256   3.405   9.979 -0.3367 -0.1062  2.5558
 1972SOL    HW217553   3.308   3.263   9.994 -0.3054 -0.2320  0.7568
 1973SOL     OW17554   2.036   3.808   5.913  0.8625  0.1438  0.6661
 1973SOL    HW117555   1.976   3.834   5.844  1.8500  1.3955  0.2821
 1973SOL    HW217556   1.978   3.759   5.971 -0.6570  0.0958 -0.9271
 1974SOL     OW17557   3.807   2.979   9.460  0.1693  0.5074 -0.2115
 1974SOL    HW117558   3.886   3.030   9.444  1.4518 -1.2077  0.6362
 1974SOL    HW217559   3.784   2.954   9.371 -2.6330  1.6628  0.1827
 1975SOL     OW17560   4.527   0.506   8.842 -0.3053  0.4957  0.0941
 1975SOL    HW117561   4.525   0.593   8.881 -1.1002  0.4322  0.2055
 1975SOL    HW217562   4.592   0.462   8.896 -0.9633  1.5180  1.7029
 1976SOL     OW17563   0.118   1.454   3.595 -0.3467 -0.1224  0.2038
 1976SOL    HW117564   0.085   1.496   3.515  1.1096  0.8181  0.0893
 1976SOL    HW217565   0.079   1.513   3.660 -2.9414  0.0446 -1.4838
 1977SOL     OW17566   0.037   4.177   7.156 -0.5892  0.1120  0.0003
 1977SOL    HW117567   4.721   4.106   7.121  1.3606 -0.3437 -2.0990
 1977SOL    HW217568   4.712   4.247   7.140  0.4581  0.5602 -2.1878
 1978SOL     OW17569   2.909   3.841   1.454  0.0062  0.5801  0.0158
 1978SOL    HW117570   2.930   3.932   1.434  0.1995  0.8751  1.5984
 1978SOL    HW217571   2.952   3.788   1.386  1.2261  1.8540 -0.1968
 1979SOL     OW17572   1.496   3.578  13.334  0.5943 -0.1745 -0.6388
 1979SOL    HW117573   1.460   3.490  13.349  0.2392 -0.2713 -2.0369
 1979SOL    HW217574   1.539   3.589  13.419  0.2681  1.7217 -0.7138
 1980SOL     OW17575   4.601   3.422   5.982  0.4821  0.0406 -0.2983
 1980SOL    HW117576   4.692   3.442   5.960  0.9071 -0.2383  1.2107
 1980SOL    HW217577   4.559   3.439   5.898  0.4108  1.0842 -0.0486
 1981SOL     OW17578   2.856   3.419  10.173  0.2128 -0.2228 -0.3335
 1981SOL    HW117579   2.859   3.371  10.091  0.8814  2.2105 -1.7401
 1981SOL    HW217580   2.875   3.349  10.236  1.1037  1.1288  0.9211
 1982SOL     OW17581   3.035   2.928  14.485  0.2578 -0.1721  0.1134
 1982SOL    HW117582   3.024   2.975  14.568 -0.6564  0.5408 -0.4307
 1982SOL    HW217583   3.058   2.839  14.513  0.7890  0.0200  0.3042
 1983SOL     OW17584   2.698   4.377  14.857 -0.4063  0.1402 -0.3060
 1983SOL    HW117585   2.643   4.453  14.840  0.7782  1.1930  0.6142
 1983SOL    HW217586   2.690   4.342  14.768  1.0044 -1.6297  0.2663
 1984SOL     OW17587   0.487   3.503   0.127 -0.0911 -0.3759  0.6106
 1984SOL    HW117588   0.407   3.461   0.096  0.0703  0.2577 -0.6892
 1984SOL    HW217589   0.534   3.529   0.048 -1.2723  2.1858  0.7417
 1985SOL     OW17590   0.444   4.577   3.231  0.3575  0.2016 -0.3668
 1985SOL    HW117591   0.367   4.626   3.260  0.9671  1.3429 -0.6697
 1985SOL    HW217592   0.489   4.575   3.316 -0.3477 -1.8329 -0.0557
 1986SOL     OW17593   3.683   1.102   5.253  0.0656  0.3341  0.0518
 1986SOL    HW117594   3.618   1.137   5.314 -0.6156 -1.2972  0.2781
 1986SOL    HW217595   3.622   1.105   5.179  2.0994  1.2022 -1.5725
 1987SOL     OW17596   0.314   4.304   6.850 -0.6606  0.2526  0.4989
 1987SOL    HW117597   0.398   4.292   6.895 -0.8161  0.8748  0.9555
 1987SOL    HW217598   0.282   4.217   6.875  2.6977 -1.1722 -0.1057
 1988SOL     OW17599   3.921   2.416   5.006 -0.3226 -0.1623 -0.4185
 1988SOL    HW117600   3.844   2.443   5.056  0.4692  1.2838 -0.0051
 1988SOL    HW217601   3.898   2.337   4.956 -1.2013  1.0221 -1.8787
 1989SOL     OW17602   1.419   2.286   9.094  0.5557  0.0213 -0.0743
 1989SOL    HW117603   1.402   2.300   9.187 -2.7179 -0.8946 -0.5117
 1989SOL    HW217604   1.360   2.347   9.049 -0.8746  0.2557  2.0948
 1990SOL     OW17605   2.437   1.692  10.971  0.1362  0.0281 -0.5235
 1990SOL    HW117606   2.348   1.666  10.995  0.4237  0.6077  1.1630
 1990SOL    HW217607   2.456   1.761  11.035  0.1616 -0.0379 -0.4603
 1991SOL     OW17608   1.214   2.416   3.048  0.0544  0.4566  0.2044
 1991SOL    HW117609   1.178   2.437   3.135  1.3158  0.6807  0.6634
 1991SOL    HW217610   1.138   2.415   2.990 -0.0167  0.3968  0.2986
 1992SOL     OW17611   2.829   1.718   7.351 -0.4779 -0.5192  0.0422
 1992SOL    HW117612   2.889   1.672   7.409  0.8229  0.4465 -0.5430
 1992SOL    HW217613   2.890   1.727   7.278 -0.8166 -1.4811 -0.3618
 1993SOL     OW17614   2.378   1.367   9.390 -0.4105 -0.0463 -0.1440
 1993SOL    HW117615   2.348   1.306   9.458  0.4896  0.2378  0.4981
 1993SOL    HW217616   2.399   1.438   9.450  1.3906 -2.4967  2.1149
 1994SOL     OW17617   2.611   4.406  10.288 -0.0534 -0.3856  0.2725
 1994SOL    HW117618   2.698   4.368  10.298  0.3717  0.5413  0.1174
 1994SOL    HW217619   2.580   4.388  10.377  0.5043  0.1000  0.5658
 1995SOL     OW17620   3.572   3.147   8.330  1.0065  0.0690  0.4526
 1995SOL    HW117621   3.532   3.227   8.364  1.6195  1.4609 -2.0925
 1995SOL    HW217622   3.636   3.185   8.269  0.5186 -0.0804 -0.1466
 1996SOL     OW17623   0.905   4.506   7.970  0.1364 -0.3562  0.4658
 1996SOL    HW117624   0.945   4.554   8.043  0.4441  1.1499 -0.7006
 1996SOL    HW217625   0.884   4.566   7.899  0.3306  1.6280  2.0940
 1997SOL     OW17626   2.581   2.265   5.813 -0.5483 -0.1143 -0.4577
 1997SOL    HW117627   2.640   2.217   5.754 -1.4660  0.0036 -1.4621
 1997SOL    HW217628   2.612   2.239   5.900  0.4664  0.1166 -0.7528
 1998SOL     OW17629   1.637   4.140   5.524  0.3763  0.1753  0.1335
 1998SOL    HW117630   1.616   4.224   5.483  0.0788 -1.0199 -2.1438
 1998SOL    HW217631   1.729   4.158   5.546 -0.3278  1.7556  1.8066
 1999SOL     OW17632   2.194   0.353   7.003 -0.2354  0.0611  0.4942
 1999SOL    HW117633   2.198   0.266   7.043 -1.4750  0.8483  2.3660
 1999SOL    HW217634   2.251   0.393   7.069  0.5191  2.1208 -1.4379
 2000SOL     OW17635   4.730   3.586   7.267 -0.5477 -0.3186 -0.4532
 2000SOL    HW117636   0.030   3.610   7.182 -0.2747  0.6020 -0.0735
 2000SOL    HW217637   4.736   3.493   7.249  0.5352 -0.6431  1.5687
 2001SOL     OW17638   1.964   3.559   5.281  0.2968  0.4634  0.0323
 2001SOL    HW117639   1.900   3.535   5.348  0.4038  0.5313  0.1582
 2001SOL    HW217640   2.018   3.480   5.285 -0.1685  0.1990  0.9375
 2002SOL     OW17641   3.559   0.584   5.712  0.3704  0.2934 -0.3666
 2002SOL    HW117642   3.465   0.577   5.696 -0.0351 -0.4537  2.2934
 2002SOL    HW217643   3.590   0.523   5.646 -2.2932 -2.2687  0.7545
 2003SOL     OW17644   2.132   2.044   1.427  0.6108  0.0319  0.2866
 2003SOL    HW117645   2.191   1.984   1.381 -0.5111  0.2834 -1.4946
 2003SOL    HW217646   2.159   2.129   1.391 -2.5283  0.8709 -0.1325
 2004SOL     OW17647   3.299   1.260  17.743  0.4772 -0.6782  0.2326
 2004SOL    HW117648   3.238   1.201  17.697 -1.9813  1.7502  0.3934
 2004SOL    HW217649   3.359   1.267  17.669 -3.2956  0.2346 -2.7538
 2005SOL     OW17650   4.660   3.557  12.378  0.4600 -0.1060  0.1402
 2005SOL    HW117651   0.012   3.587  12.387  0.8407 -0.5562 -2.2339
 2005SOL    HW217652   4.674   3.466  12.351 -3.9623 -1.1368  1.3085
 2006SOL     OW17653   3.413   0.216   5.546  0.3280 -0.1905  0.4683
 2006SOL    HW117654   3.370   0.246   5.467  1.1994  2.3829  0.9821
 2006SOL    HW217655   3.359   0.140   5.569 -0.1613 -0.7769 -2.7235
 2007SOL     OW17656   0.185   3.643  12.512 -0.3624  0.1531  0.5069
 2007SOL    HW117657   0.270   3.600  12.508 -0.8793 -0.9198  1.1655
 2007SOL    HW217658   0.204   3.695  12.434 -0.2744  1.1810  1.2004
 2008SOL     OW17659   1.918   1.333   1.551 -0.0843 -0.1738  0.4196
 2008SOL    HW117660   1.867   1.409   1.524 -1.2402 -1.5372 -1.2761
 2008SOL    HW217661   1.893   1.314   1.641 -0.2491  0.6271  0.5413
 2009SOL     OW17662   2.221   2.678   1.723  0.4232 -0.8455  0.2308
 2009SOL    HW117663   2.146   2.623   1.746  0.2814  0.0122  1.8144
 2009SOL    HW217664   2.174   2.760   1.714  0.6430 -0.7457 -0.0149
 2010SOL     OW17665   4.377   3.744   7.629 -0.0514 -0.3014  0.3303
 2010SOL    HW117666   4.402   3.700   7.548  1.1869  1.2795 -0.1435
 2010SOL    HW217667   4.459   3.790   7.649  0.6161 -1.9361  1.3798
 2011SOL     OW17668   1.851   4.255   5.062  0.0087  0.3616  0.2388
 2011SOL    HW117669   1.868   4.177   5.114  0.6146 -0.2426 -0.8623
 2011SOL    HW217670   1.757   4.246   5.045  0.2498 -1.3936 -0.1629
 2012SOL     OW17671   3.642   4.529   3.659 -0.0216  0.2824  0.1262
 2012SOL    HW117672   3.549   4.545   3.646  0.0539  0.3883 -0.2757
 2012SOL    HW217673   3.688   4.549   3.577 -0.6045 -1.8830 -0.7256
 2013SOL     OW17674   2.319   1.168   5.949 -0.0989  0.1306 -0.3797
 2013SOL    HW117675   2.354   1.253   5.975 -0.0978  0.2549 -0.8020
 2013SOL    HW217676   2.240   1.186   5.899 -0.3505 -0.6877 -0.2787
 2014SOL     OW17677   4.365   4.378  13.188  0.3050  0.3892  0.2260
 2014SOL    HW117678   4.278   4.339  13.191  1.0212 -0.8999  4.5455
 2014SOL    HW217679   4.400   4.328  13.114  0.3440  0.0492  0.4734
 2015SOL     OW17680   0.480   1.208  17.144 -0.5943 -0.2146  0.6577
 2015SOL    HW117681   0.534   1.167  17.211  1.4894 -2.2349 -2.2659
 2015SOL    HW217682   0.540   1.209  17.070  2.2241 -0.1981  2.9174
 2016SOL     OW17683   4.360   0.553  16.957  0.1510  0.1481  0.2360
 2016SOL    HW117684   4.450   0.571  16.984  0.1478 -0.5107  0.6848
 2016SOL    HW217685   4.329   0.503  17.032  0.9070 -1.6769 -0.6538
 2017SOL     OW17686   0.144   2.640  16.674  0.1731  0.5444  0.1780
 2017SOL    HW117687   0.209   2.697  16.632  1.3308 -1.5838 -0.9865
 2017SOL    HW217688   0.099   2.595  16.602 -2.2923  1.2249  1.3016
 2018SOL     OW17689   2.370   1.323   2.657 -0.3741  0.2456  0.0014
 2018SOL    HW117690   2.321   1.339   2.577  1.5557  1.2528 -0.9884
 2018SOL    HW217691   2.326   1.395   2.703 -1.5895 -0.6746  0.2628
 2019SOL     OW17692   3.736   3.775   8.382 -0.5421  0.2752  0.6361
 2019SOL    HW117693   3.737   3.696   8.436  1.6827  0.7939  1.3404
 2019SOL    HW217694   3.676   3.744   8.314  0.7199 -1.1805  0.1894
 2020SOL     OW17695   1.898   0.921   3.938 -0.1016 -0.7370 -0.3568
 2020SOL    HW117696   1.969   0.916   4.001  0.3092  2.3303 -0.5606
 2020SOL    HW217697   1.935   0.981   3.873  2.7817  0.1589  2.1242
 2021SOL     OW17698   4.405   1.167   6.177  0.2788  0.3926 -0.5139
 2021SOL    HW117699   4.435   1.076   6.180  0.4330  0.4932  1.4017
 2021SOL    HW217700   4.438   1.204   6.259 -0.7987 -0.2428  0.2128
 2022SOL     OW17701   1.384   2.589   5.502  0.0134  0.2776 -0.3482
 2022SOL    HW117702   1.447   2.661   5.515  0.2301 -0.7537  4.2068
 2022SOL    HW217703   1.349   2.597   5.590 -0.2831 -1.2958 -0.3321
 2023SOL     OW17704   3.984   4.596   4.625  0.2533  0.2973  0.1291
 2023SOL    HW117705   3.980   4.525   4.689 -0.1674  0.4727  0.2945
 2023SOL    HW217706   3.943   4.554   4.549 -0.0817  1.8526 -0.5496
 2024SOL     OW17707   3.016   0.591   4.196 -0.9713  0.5826  0.2513
 2024SOL    HW117708   3.025   0.512   4.248  0.5724  1.5020  1.3862
 2024SOL    HW217709   3.098   0.638   4.211  0.5640 -1.9958 -0.1359
 2025SOL     OW17710   1.475   3.703   7.749 -0.4875  0.1948  0.1762
 2025SOL    HW117711   1.510   3.614   7.752 -1.8279 -0.3744 -1.4241
 2025SOL    HW217712   1.493   3.728   7.659 -1.1965  0.8850  0.2297
 2026SOL     OW17713   2.162   3.436   8.702  0.1994 -0.4792  0.4131
 2026SOL    HW117714   2.230   3.432   8.635 -0.3433  2.0487 -0.3046
 2026SOL    HW217715   2.213   3.418   8.781  2.0107  1.8080 -0.2296
 2027SOL     OW17716   0.102   3.143   9.670  0.4097  1.1697  0.5528
 2027SOL    HW117717   0.163   3.090   9.722  0.5562 -1.4435 -2.3218
 2027SOL    HW217718   0.027   3.134   9.730 -0.0409  1.7463  0.0730
 2028SOL     OW17719   2.547   1.839  14.340  0.2889  0.4540  0.6765
 2028SOL    HW117720   2.596   1.917  14.312  0.9166 -0.1208  0.1917
 2028SOL    HW217721   2.568   1.830  14.433  0.3738 -0.3967  0.5714
 2029SOL     OW17722   2.073   3.646  15.661 -0.1851 -0.2071  0.0813
 2029SOL    HW117723   1.987   3.683  15.678  0.8315  1.5925  1.2538
 2029SOL    HW217724   2.138   3.714  15.677 -1.2424  0.5229  1.2141
 2030SOL     OW17725   1.397   4.495  15.310  0.9120  0.0026 -0.1488
 2030SOL    HW117726   1.464   4.545  15.355  0.0015  1.0445  0.0382
 2030SOL    HW217727   1.393   4.531  15.222  1.0071  0.2949 -0.0314
 2031SOL     OW17728   3.797   3.009   1.053  0.3556 -0.5722 -0.2020
 2031SOL    HW117729   3.732   3.075   1.030  1.3881  0.0232 -1.4496
 2031SOL    HW217730   3.850   3.029   0.976  1.1740  2.6643  1.2027
 2032SOL     OW17731   0.279   3.622   8.437 -0.2608 -0.0602  0.0709
 2032SOL    HW117732   0.334   3.700   8.434  0.7516 -0.7923 -0.3179
 2032SOL    HW217733   0.260   3.625   8.343 -2.5174  0.8433  0.5525
 2033SOL     OW17734   1.401   0.849  13.838 -0.3506 -0.4159 -0.3304
 2033SOL    HW117735   1.378   0.758  13.857  0.2530 -0.5387 -0.1746
 2033SOL    HW217736   1.359   0.863  13.753 -0.4324 -0.0262 -0.2267
 2034SOL     OW17737   3.994   4.136   4.081  0.4842  0.0719  0.2469
 2034SOL    HW117738   3.909   4.169   4.112  0.2921 -0.1485 -0.0425
 2034SOL    HW217739   4.002   4.051   4.124  0.5469  0.2273  0.5443
 2035SOL     OW17740   1.178   0.756  12.381 -0.1476  0.5943  0.0503
 2035SOL    HW117741   1.113   0.782  12.315  0.2352 -0.3101 -0.6754
 2035SOL    HW217742   1.243   0.712  12.327 -1.1824  0.5928 -1.2026
 2036SOL     OW17743   3.112   0.752   3.928 -0.0201  0.5488  0.3706
 2036SOL    HW117744   3.184   0.711   3.881  1.6791  0.1484  3.2709
 2036SOL    HW217745   3.140   0.747   4.020 -1.0909 -1.5018  0.5894
 2037SOL     OW17746   1.694   4.064   2.870 -0.5529 -0.4051 -0.0911
 2037SOL    HW117747   1.785   4.053   2.841 -0.6311  0.6357 -0.7077
 2037SOL    HW217748   1.699   4.035   2.962 -1.3824  1.5565  0.5795
 2038SOL     OW17749   0.968   4.506   1.415  0.1924 -0.3672  0.6564
 2038SOL    HW117750   1.038   4.446   1.389 -1.2604 -0.7596 -2.3215
 2038SOL    HW217751   0.958   4.496   1.510  0.9806 -1.4340  0.6174
 2039SOL     OW17752   3.826   4.496  14.664 -0.6669  0.4351  0.5862
 2039SOL    HW117753   3.805   4.552  14.590 -0.6925 -2.0879 -1.3445
 2039SOL    HW217754   3.746   4.443  14.661  0.5749 -1.3996 -0.0363
 2040SOL     OW17755   1.473   0.551   3.970  0.2463  0.3032  0.1168
 2040SOL    HW117756   1.536   0.512   4.031  0.0129  0.4188  0.4340
 2040SOL    HW217757   1.480   0.478   3.909  1.5594  0.9842 -0.5481
 2041SOL     OW17758   3.867   2.456   6.981 -0.1715  0.1874 -0.7639
 2041SOL    HW117759   3.888   2.524   6.917  0.3500  0.1493 -0.6349
 2041SOL    HW217760   3.839   2.384   6.924 -0.7754  0.6968 -1.1089
 2042SOL     OW17761   1.854   4.211  16.991  0.2693 -0.4964 -0.2584
 2042SOL    HW117762   1.904   4.188  16.913  2.7180 -3.5863  2.2203
 2042SOL    HW217763   1.780   4.157  16.964 -0.1604  0.5564 -1.1894
 2043SOL     OW17764   0.877   3.689   2.217  0.2148  0.4157 -0.0339
 2043SOL    HW117765   0.925   3.769   2.238  2.0872 -0.9197  0.7498
 2043SOL    HW217766   0.944   3.629   2.184  0.4847  0.8092 -0.2063
 2044SOL     OW17767   2.581   2.398  16.268 -0.7412 -0.1047  0.1177
 2044SOL    HW117768   2.532   2.327  16.228  0.7087 -1.0131 -0.0470
 2044SOL    HW217769   2.514   2.456  16.305  0.0408  0.4491  0.6524
 2045SOL     OW17770   2.568   0.416   9.208 -0.3773 -0.4953 -0.4674
 2045SOL    HW117771   2.572   0.512   9.217  0.4104 -0.5902  0.2140
 2045SOL    HW217772   2.538   0.411   9.117  0.4025 -0.3009 -0.7374
 2046SOL     OW17773   3.452   3.275   6.287  0.0834  0.4265  0.3050
 2046SOL    HW117774   3.371   3.273   6.236  0.1530  1.6962  0.1412
 2046SOL    HW217775   3.496   3.354   6.257  0.0595  0.9443  1.6257
 2047SOL     OW17776   2.600   3.822   5.293  0.3132  0.2766  0.5716
 2047SOL    HW117777   2.533   3.878   5.254 -0.5719  0.3403  2.1762
 2047SOL    HW217778   2.634   3.888   5.354  1.7215 -1.1946  1.3781
 2048SOL     OW17779   1.440   2.831   2.802  0.0088 -0.6583  0.0054
 2048SOL    HW117780   1.357   2.826   2.755 -0.4380 -1.9630  0.9394
 2048SOL    HW217781   1.412   2.863   2.888 -0.6140 -0.6567 -0.1997
 2049SOL     OW17782   2.314   4.482   9.557  0.1968  0.4108  0.1870
 2049SOL    HW117783   2.310   4.569   9.596 -1.9102 -0.5069  1.9521
 2049SOL    HW217784   2.241   4.433   9.596 -0.7291  2.5540  1.1117
 2050SOL     OW17785   2.092   0.379   4.596 -0.0662  0.2696  0.1770
 2050SOL    HW117786   2.012   0.429   4.581 -0.4775 -0.6845 -0.7806
 2050SOL    HW217787   2.152   0.443   4.560  2.5184 -2.4068 -0.2768
 2051SOL     OW17788   2.037   2.193  15.717 -0.0392  0.1091 -0.1883
 2051SOL    HW117789   2.081   2.271  15.682 -0.1724  0.5285  0.5905
 2051SOL    HW217790   2.003   2.160  15.634  0.6357  0.6333 -0.6703
 2052SOL     OW17791   1.086   2.662  14.523 -0.0172 -0.8174  0.4950
 2052SOL    HW117792   1.111   2.649  14.615  1.1374  0.7503  0.3957
 2052SOL    HW217793   1.006   2.609  14.523 -0.0026 -0.8456  1.3479
 2053SOL     OW17794   2.747   0.919   9.025 -0.3771 -0.1527  0.2461
 2053SOL    HW117795   2.821   0.966   9.063  0.2829 -0.3728 -0.7882
 2053SOL    HW217796   2.780   0.922   8.936  1.7649  1.2865  1.1029
 2054SOL     OW17797   3.092   0.313   8.990  0.0233 -0.1530 -0.2003
 2054SOL    HW117798   3.115   0.343   8.902 -0.6904 -0.0228 -0.3458
 2054SOL    HW217799   3.173   0.264   9.004  1.1965  1.7122 -0.5206
 2055SOL     OW17800   1.718   1.896   0.988 -0.3295 -0.2742 -0.5000
 2055SOL    HW117801   1.625   1.898   1.008 -0.2285 -1.5466  0.0885
 2055SOL    HW217802   1.754   1.859   1.069  2.0243  4.2474  0.4948
 2056SOL     OW17803   1.686   2.257   5.856 -0.1038 -0.3858 -0.3852
 2056SOL    HW117804   1.780   2.270   5.865 -0.2866  1.9496 -1.7284
 2056SOL    HW217805   1.683   2.187   5.922  0.3191 -0.7450 -0.7497
 2057SOL     OW17806   4.690   4.053   2.289  0.0573  0.0715  0.4646
 2057SOL    HW117807   4.670   3.980   2.347 -1.8020  0.3865  0.2325
 2057SOL    HW217808   4.668   4.128   2.345  0.7070 -0.3137  1.2290
 2058SOL     OW17809   1.595   2.085   9.361 -0.4966  0.1621 -0.1712
 2058SOL    HW117810   1.518   2.141   9.366  1.1183  2.3260  0.5505
 2058SOL    HW217811   1.645   2.137   9.298  0.5852 -0.9948 -0.2886
 2059SOL     OW17812   0.501   2.021  14.977 -0.5895  0.1883 -0.0749
 2059SOL    HW117813   0.478   2.112  14.991 -2.2817 -0.2070 -0.2190
 2059SOL    HW217814   0.453   1.977  15.047 -0.4911  2.7078  1.5699
 2060SOL     OW17815   0.513   0.706   0.495  0.2008 -0.0145  0.1925
 2060SOL    HW117816   0.605   0.704   0.466 -0.1389 -0.7074 -0.8429
 2060SOL    HW217817   0.521   0.664   0.580  1.3775 -0.4065 -0.1042
 2061SOL     OW17818   1.808   3.594   7.877 -0.0429  0.3981 -0.0194
 2061SOL    HW117819   1.724   3.552   7.858  0.0559  0.8302 -1.4018
 2061SOL    HW217820   1.837   3.529   7.941 -1.6049 -0.8530 -0.5695
 2062SOL     OW17821   2.509   3.680  15.836  0.0888 -0.3638 -0.2057
 2062SOL    HW117822   2.598   3.693  15.868  0.6357  1.2559 -2.4495
 2062SOL    HW217823   2.527   3.624  15.761  1.4776 -0.4099  0.1648
 2063SOL     OW17824   0.863   4.035  15.767 -0.2729 -0.2252 -0.1114
 2063SOL    HW117825   0.857   3.952  15.813  0.3190 -0.7666 -1.0275
 2063SOL    HW217826   0.935   4.019  15.706 -0.4430 -1.7292  0.0936
 2064SOL     OW17827   4.499   4.115   3.985 -0.2583 -0.4135 -0.3163
 2064SOL    HW117828   4.429   4.124   3.920  1.1331  1.8483 -1.5019
 2064SOL    HW217829   4.451   4.140   4.064 -1.7277 -2.8214 -0.4353
 2065SOL     OW17830   1.899   3.637   4.907  0.3205  0.2289  0.0628
 2065SOL    HW117831   1.896   3.604   4.817  0.7681 -0.2840  0.2393
 2065SOL    HW217832   1.831   3.704   4.916 -0.7237 -0.6124 -1.4481
 2066SOL     OW17833   0.415   3.325  12.217  0.4503 -1.0822 -0.0135
 2066SOL    HW117834   0.423   3.230  12.208 -2.0250 -0.9838 -3.3542
 2066SOL    HW217835   0.470   3.358  12.146  0.3935 -1.1628 -0.0942
 2067SOL     OW17836   4.476   3.087   6.610 -0.1631 -0.8254  0.4673
 2067SOL    HW117837   4.524   3.011   6.643  0.6737 -0.1280  0.8846
 2067SOL    HW217838   4.550   3.149   6.606  0.5720 -1.5837  2.2256
 2068SOL     OW17839   0.940   1.502   8.422  0.6813  0.5341 -0.1588
 2068SOL    HW117840   0.853   1.472   8.447  0.7874 -1.0313 -1.7289
 2068SOL    HW217841   0.990   1.431   8.462  1.8919  1.6107  0.2304
 2069SOL     OW17842   4.689   1.543   8.815  0.3335 -0.2194  0.4498
 2069SOL    HW117843   4.689   1.457   8.857  1.3220  0.0659  1.0320
 2069SOL    HW217844   4.738   1.595   8.878 -0.6949 -0.9000  1.7918
 2070SOL     OW17845   4.637   2.649   2.618 -0.2261  0.3965  0.2205
 2070SOL    HW117846   4.554   2.656   2.572 -1.0225 -1.7237  1.3562
 2070SOL    HW217847   4.654   2.742   2.632 -0.9975  0.4297  0.9058
 2071SOL     OW17848   0.587   0.777   2.701  0.1383  0.5752 -0.0046
 2071SOL    HW117849   0.621   0.723   2.773  2.8944 -0.6539 -2.2561
 2071SOL    HW217850   0.660   0.837   2.695  1.2332 -0.6637  0.8611
 2072SOL     OW17851   1.318   4.467   5.207  0.0653 -0.1196 -0.6464
 2072SOL    HW117852   1.315   4.428   5.119  1.1337 -2.4713  0.3668
 2072SOL    HW217853   1.250   4.419   5.253 -1.1439  2.4629  0.2683
 2073SOL     OW17854   2.990   0.440   6.222 -0.3334 -0.6248  0.1731
 2073SOL    HW117855   2.921   0.415   6.284 -1.6433  0.9316 -0.6289
 2073SOL    HW217856   3.023   0.354   6.198  1.7006  0.4144 -0.7587
 2074SOL     OW17857   4.658   1.401   6.644  0.1512 -0.1892  0.2564
 2074SOL    HW117858   0.014   1.387   6.633  0.5669 -0.6050  4.1917
 2074SOL    HW217859   4.664   1.497   6.645  0.1862 -0.1891  0.0268
 2075SOL     OW17860   0.609   3.540  10.428 -0.3605  0.2131  0.3546
 2075SOL    HW117861   0.533   3.505  10.474  0.2796  1.1198  2.0947
 2075SOL    HW217862   0.688   3.502  10.467  1.5580  1.4228 -2.2862
 2076SOL     OW17863   3.205   0.615   2.502 -0.6503  0.8632 -0.1135
 2076SOL    HW117864   3.177   0.704   2.479 -1.1063  1.3387  2.3028
 2076SOL    HW217865   3.274   0.635   2.565 -0.9755  1.6701 -0.0196
 2077SOL     OW17866   3.725   2.544   8.005 -0.4600 -0.2424 -0.1696
 2077SOL    HW117867   3.796   2.602   7.977 -3.0207  2.3440 -1.2341
 2077SOL    HW217868   3.693   2.598   8.077 -4.8652  0.0799 -2.3771
 2078SOL     OW17869   1.642   1.966   2.459 -0.1506  0.3603 -0.2317
 2078SOL    HW117870   1.561   1.916   2.443  0.4803 -0.8199  0.2314
 2078SOL    HW217871   1.633   2.043   2.403 -0.7053 -0.1440 -0.8378
 2079SOL     OW17872   0.315   1.638   2.637  0.1874  0.5509  0.1547
 2079SOL    HW117873   0.233   1.668   2.677 -1.3300  1.2541 -3.5269
 2079SOL    HW217874   0.321   1.672   2.548  0.5515  2.8445  1.0408
 2080SOL     OW17875   0.344   1.676  17.602 -0.4689 -0.2216 -0.5390
 2080SOL    HW117876   0.340   1.624  17.683  1.0768 -2.1694 -1.7259
 2080SOL    HW217877   0.301   1.757  17.629 -0.2387 -1.3067  3.1002
 2081SOL     OW17878   2.598   2.872  17.070 -0.1288  0.2915  0.1691
 2081SOL    HW117879   2.662   2.931  17.030  0.0903 -0.0773 -0.0277
 2081SOL    HW217880   2.606   2.789  17.022  2.3147 -0.0650  1.2148
 2082SOL     OW17881   0.331   2.557   6.653 -0.0715  0.5989 -0.4975
 2082SOL    HW117882   0.303   2.506   6.577 -1.1652  1.1797 -0.4899
 2082SOL    HW217883   0.243   2.583   6.681 -0.3895 -0.7766 -0.2304
 2083SOL     OW17884   0.437   2.989   1.964  0.4662  0.4576  0.4557
 2083SOL    HW117885   0.530   2.998   1.943  0.1638  1.2920 -0.5591
 2083SOL    HW217886   0.424   3.057   2.029 -0.2578  1.2272 -0.4877
 2084SOL     OW17887   4.609   2.975   8.503 -0.0612 -0.3391 -0.3108
 2084SOL    HW117888   4.523   2.932   8.501 -0.4618  0.4552 -0.4103
 2084SOL    HW217889   4.613   3.023   8.585 -0.5199 -0.4378 -0.2271
 2085SOL     OW17890   3.607   0.849   8.739 -0.2126  0.0601 -0.1065
 2085SOL    HW117891   3.574   0.773   8.788 -0.0719  0.4875  0.6437
 2085SOL    HW217892   3.635   0.903   8.813 -1.6319  0.2512  0.2898
 2086SOL     OW17893   3.104   2.697  14.644  0.4608  0.4745 -0.4549
 2086SOL    HW117894   3.014   2.683  14.673  0.9277  0.7167  1.1096
 2086SOL    HW217895   3.139   2.608  14.640  1.8130  0.9943 -0.3232
 2087SOL     OW17896   1.122   1.192  17.451 -0.3526 -0.3405  0.1803
 2087SOL    HW117897   1.162   1.234  17.526 -1.5177 -0.6773  0.9975
 2087SOL    HW217898   1.029   1.196  17.475  0.0238  3.4475  1.0091
 2088SOL     OW17899   4.178   3.947   0.832 -0.7505  0.0303 -0.4873
 2088SOL    HW117900   4.101   3.962   0.776 -1.6686 -1.9913  0.2363
 2088SOL    HW217901   4.236   3.926   0.759 -2.0927 -1.9542 -0.9663
 2089SOL     OW17902   3.014   2.629  14.242 -0.2139 -0.2994  0.3654
 2089SOL    HW117903   3.094   2.630  14.295 -0.0201  2.9581  0.0586
 2089SOL    HW217904   2.960   2.575  14.299  0.1459 -0.0715  0.9218
 2090SOL     OW17905   1.696   3.914   3.637 -0.3898 -0.0890  0.2563
 2090SOL    HW117906   1.727   3.825   3.622  2.0452  0.5968  1.2067
 2090SOL    HW217907   1.730   3.962   3.562 -0.2839 -0.8380 -0.1801
 2091SOL     OW17908   2.071   0.838   5.791  0.0778  0.2212 -0.2307
 2091SOL    HW117909   2.119   0.894   5.730  1.7768  0.0277  0.9351
 2091SOL    HW217910   2.013   0.793   5.730 -0.0984  1.8204 -1.2238
 2092SOL     OW17911   3.993   4.377  14.835  0.0827 -0.6371 -0.0837
 2092SOL    HW117912   4.028   4.337  14.756 -0.3280 -0.2840 -0.4479
 2092SOL    HW217913   3.924   4.428  14.792  0.1109  0.2147  0.8538
 2093SOL     OW17914   0.419   4.206   8.769 -0.1247  0.1440 -0.1534
 2093SOL    HW117915   0.509   4.238   8.767  0.0966 -0.5048 -0.5232
 2093SOL    HW217916   0.373   4.260   8.705 -0.3211 -1.3675 -1.2617
 2094SOL     OW17917   2.606   2.242  13.088 -0.5810 -0.2412  0.2612
 2094SOL    HW117918   2.609   2.333  13.059  0.5120 -0.3401  0.0761
 2094SOL    HW217919   2.684   2.246  13.143 -0.5436  0.6997  0.1365
 2095SOL     OW17920   1.059   3.547   8.558 -0.4748 -0.1443  0.1553
 2095SOL    HW117921   1.066   3.454   8.535  1.2691  0.5970 -2.3229
 2095SOL    HW217922   1.145   3.566   8.595 -1.6475 -0.6659  3.1525
 2096SOL     OW17923   0.821   4.302   6.269 -0.9476  0.2590  0.2298
 2096SOL    HW117924   0.810   4.335   6.180  0.6310 -0.4447 -0.2234
 2096SOL    HW217925   0.895   4.355   6.297 -0.8463  0.7335 -0.9630
 2097SOL     OW17926   2.958   2.476  16.869 -0.2507 -0.8057  0.0051
 2097SOL    HW117927   2.895   2.405  16.876  0.1384 -1.3022 -1.4637
 2097SOL    HW217928   2.918   2.527  16.940  0.2500 -1.0917  0.4899
 2098SOL     OW17929   1.727   1.655   4.550 -0.4428 -0.3197  0.0491
 2098SOL    HW117930   1.660   1.673   4.615  0.5128  1.1770  0.6196
 2098SOL    HW217931   1.678   1.600   4.489  1.0981  0.0171 -1.4995
 2099SOL     OW17932   2.912   1.718   3.787 -0.3565  0.4345  0.9218
 2099SOL    HW117933   2.851   1.686   3.720 -0.9511  2.5874  0.4417
 2099SOL    HW217934   2.874   1.681   3.867 -2.7079 -0.4478 -0.5909
 2100SOL     OW17935   3.218   2.212   0.713  0.5386 -0.0471  0.0331
 2100SOL    HW117936   3.242   2.171   0.630 -0.7326 -0.1928 -0.2651
 2100SOL    HW217937   3.132   2.176   0.734  1.0298 -1.2697 -0.0870
 2101SOL     OW17938   4.071   3.345  17.107 -0.3987 -0.2418  0.1009
 2101SOL    HW117939   4.087   3.372  17.198  0.4376  1.8506 -0.6566
 2101SOL    HW217940   4.156   3.352  17.065  0.0056 -1.6735  0.6720
 2102SOL     OW17941   3.786   3.124   6.199 -0.3407  0.5072  0.1308
 2102SOL    HW117942   3.838   3.161   6.270 -0.3096 -0.6825  0.7308
 2102SOL    HW217943   3.758   3.206   6.159 -3.4070 -0.9824 -0.7806
 2103SOL     OW17944   2.694   1.957   2.786  0.2206  0.3040  0.2542
 2103SOL    HW117945   2.747   1.987   2.712 -0.9346  2.0540  0.1439
 2103SOL    HW217946   2.607   1.947   2.746  0.5513  2.2238 -0.9189
 2104SOL     OW17947   4.306   3.715  14.172  0.1618 -0.3661 -0.3367
 2104SOL    HW117948   4.324   3.804  14.144 -0.3352 -0.1912 -0.0853
 2104SOL    HW217949   4.380   3.669  14.133  0.7747 -0.1934  0.6213
 2105SOL     OW17950   2.659   2.216   5.265  0.0124 -0.5572  0.1027
 2105SOL    HW117951   2.625   2.147   5.208 -1.2426  0.0435  0.1247
 2105SOL    HW217952   2.624   2.291   5.219  1.1936 -2.2447 -3.5259
 2106SOL     OW17953   0.377   2.344   5.859  0.4314  0.4612  0.0156
 2106SOL    HW117954   0.471   2.332   5.849 -0.1565 -1.6636 -3.1765
 2106SOL    HW217955   0.348   2.349   5.767 -0.6046 -0.6064  0.2868
 2107SOL     OW17956   0.936   3.018   8.065  0.4266 -0.0577  0.5246
 2107SOL    HW117957   0.861   2.959   8.060 -0.1392  0.7664 -0.6306
 2107SOL    HW217958   0.888   3.095   8.094  0.2937  0.5874 -1.4251
 2108SOL     OW17959   0.414   1.509   4.974  0.3859 -0.4158 -0.0454
 2108SOL    HW117960   0.393   1.423   4.939  1.4249  0.0583 -1.8485
 2108SOL    HW217961   0.338   1.560   4.945 -0.4975 -2.7436 -1.7568
 2109SOL     OW17962   3.937   2.279   5.342  0.5189 -0.3004 -0.0966
 2109SOL    HW117963   3.889   2.335   5.280 -0.9496 -2.5306 -0.9708
 2109SOL    HW217964   3.940   2.202   5.285  0.0587 -0.7951  0.5568
 2110SOL     OW17965   4.245   0.184  13.164  0.4924  0.6314 -0.3596
 2110SOL    HW117966   4.269   0.093  13.144  0.1748  0.2188  1.1068
 2110SOL    HW217967   4.291   0.193  13.247  0.2460 -2.7307  0.1736
 2111SOL     OW17968   0.397   2.004  13.893 -0.1815 -0.6127 -0.0865
 2111SOL    HW117969   0.435   2.068  13.953 -1.3792 -0.2587  0.2939
 2111SOL    HW217970   0.310   2.033  13.865 -0.4819 -0.4405  1.0229
 2112SOL     OW17971   1.593   2.644   5.765  0.6067  0.0360 -0.0998
 2112SOL    HW117972   1.667   2.628   5.824  0.2340  1.9808  0.9020
 2112SOL    HW217973   1.538   2.699   5.821  0.7206 -1.5915  1.6012
 2113SOL     OW17974   0.286   1.068   0.298  0.0201  0.3250  0.2047
 2113SOL    HW117975   0.266   0.982   0.261  1.4268 -0.1202  0.4997
 2113SOL    HW217976   0.194   1.096   0.304  0.2259  1.2294 -0.9725
 2114SOL     OW17977   1.389   1.772   6.243 -0.1250  0.4879  0.4137
 2114SOL    HW117978   1.399   1.819   6.325 -0.9487  0.2611  0.6412
 2114SOL    HW217979   1.371   1.681   6.269  1.9696  0.0005  0.1653
 2115SOL     OW17980   2.347   0.753   6.608  0.5900  0.1207 -0.4749
 2115SOL    HW117981   2.405   0.829   6.603  1.2076 -0.1738  2.1496
 2115SOL    HW217982   2.261   0.787   6.584  1.1597  2.0004  0.1444
 2116SOL     OW17983   3.383   1.436   6.639  0.4613  0.2842  0.1309
 2116SOL    HW117984   3.444   1.395   6.577  0.8251  0.6984  0.2136
 2116SOL    HW217985   3.431   1.518   6.638 -2.1229  1.7992  1.0144
 2117SOL     OW17986   0.954   1.060   9.030  0.0168  0.2230 -0.4900
 2117SOL    HW117987   0.910   1.034   9.111 -0.9589  0.1805 -1.0359
 2117SOL    HW217988   1.039   1.093   9.060 -0.2599 -0.0645  0.6158
 2118SOL     OW17989   2.458   3.569  16.553  0.5665  0.4211 -0.0595
 2118SOL    HW117990   2.526   3.624  16.516  0.3634  0.4159 -0.4408
 2118SOL    HW217991   2.418   3.644  16.596  1.3282 -0.4059  2.1073
 2119SOL     OW17992   1.980   1.946  12.101  0.3563  0.3294  0.3648
 2119SOL    HW117993   1.984   1.953  12.197 -0.4555  1.8425  0.2992
 2119SOL    HW217994   2.059   1.893  12.093  0.2361 -0.1366  2.2322
 2120SOL     OW17995   2.540   2.313   3.251  0.6130 -0.5216  0.0766
 2120SOL    HW117996   2.561   2.399   3.287  0.9649 -0.9991  1.0013
 2120SOL    HW217997   2.603   2.304   3.179  2.4338  1.1264  1.4770
 2121SOL     OW17998   0.345   2.536  16.357  0.2670  0.5230  0.6415
 2121SOL    HW117999   0.417   2.598  16.365  1.5641 -0.7187 -1.4985
 2121SOL    HW218000   0.318   2.555  16.267 -0.3213 -2.1290  0.2611
 2122SOL     OW18001   3.295   4.188   1.527  0.0112  0.2127 -0.2501
 2122SOL    HW118002   3.294   4.284   1.529 -1.2755  0.1946 -0.0425
 2122SOL    HW218003   3.317   4.180   1.435 -1.5196  1.9868 -0.7645
 2123SOL     OW18004   3.744   1.770   0.393 -0.4041 -0.3395  0.2071
 2123SOL    HW118005   3.730   1.680   0.363 -2.6528  0.3353 -0.7676
 2123SOL    HW218006   3.838   1.788   0.384 -0.5290  0.3101  0.2055
 2124SOL     OW18007   0.221   0.738  11.212 -1.0979  0.3957 -0.3325
 2124SOL    HW118008   0.204   0.832  11.212 -2.1245  0.2148 -0.9918
 2124SOL    HW218009   0.255   0.725  11.301 -0.4546  3.2128 -0.1841
 2125SOL     OW18010   1.681   0.908   1.859  0.5134 -0.1695 -0.0322
 2125SOL    HW118011   1.660   0.985   1.806  0.4355 -0.3448 -0.2592
 2125SOL    HW218012   1.735   0.854   1.801  0.9916  0.4057 -0.1232
 2126SOL     OW18013   0.650   0.780   8.591 -0.1253  0.3522 -0.5924
 2126SOL    HW118014   0.668   0.871   8.613  0.7027  0.2633 -0.8993
 2126SOL    HW218015   0.664   0.781   8.496  1.8028  1.1065 -0.2955
 2127SOL     OW18016   0.583   2.197   2.185  0.1082 -0.0939 -0.1561
 2127SOL    HW118017   0.594   2.228   2.275 -3.2525 -0.9203  0.5528
 2127SOL    HW218018   0.616   2.107   2.192  0.7867 -0.0826 -3.0317
 2128SOL     OW18019   0.544   2.143   4.229 -0.0862  0.2387 -0.1660
 2128SOL    HW118020   0.604   2.215   4.212 -0.4677 -0.1924 -3.2766
 2128SOL    HW218021   0.526   2.110   4.141  1.9249  1.5798 -1.0619
 2129SOL     OW18022   3.355   3.847   9.086 -0.1768 -0.8891 -0.5304
 2129SOL    HW118023   3.286   3.783   9.107  0.2467 -0.1669  3.0953
 2129SOL    HW218024   3.308   3.898   9.021  1.9761  2.5888  0.6708
 2130SOL     OW18025   3.468   0.007   3.404 -0.1629 -0.3082 -0.2754
 2130SOL    HW118026   3.464   0.091   3.358 -0.0870  0.1470  0.5446
 2130SOL    HW218027   3.469   4.682   3.332 -1.7066 -1.1551  0.4395
 2131SOL     OW18028   1.844   0.846   3.584  0.1346 -0.2478 -0.5168
 2131SOL    HW118029   1.937   0.844   3.559  0.3947 -0.6193  0.4397
 2131SOL    HW218030   1.814   0.934   3.566 -0.3579 -0.5636 -1.2174
 2132SOL     OW18031   0.862   1.521   6.619 -0.2322  0.1382  0.0286
 2132SOL    HW118032   0.863   1.599   6.674  1.7420  0.0944  0.0456
 2132SOL    HW218033   0.866   1.452   6.686 -1.2901 -0.9697 -1.0474
 2133SOL     OW18034   2.557   0.549   6.392 -0.0992 -0.8299 -0.0156
 2133SOL    HW118035   2.526   0.479   6.335 -0.2871 -0.5854 -0.2158
 2133SOL    HW218036   2.538   0.506   6.476 -1.1955 -0.3214  0.0017
 2134SOL     OW18037   3.525   3.930   0.497  0.4812  0.3410  0.2474
 2134SOL    HW118038   3.488   3.917   0.410 -1.3854 -0.0493  1.1180
 2134SOL    HW218039   3.459   3.989   0.534  1.2398  1.3913 -0.0551
 2135SOL     OW18040   3.819   4.250   8.140  0.1078  0.5306 -0.5367
 2135SOL    HW118041   3.913   4.260   8.157 -0.2291  3.6312 -0.5359
 2135SOL    HW218042   3.784   4.270   8.226  0.3484 -1.2326 -0.0358
 2136SOL     OW18043   1.183   2.693  13.407 -0.3321 -0.1715 -0.5954
 2136SOL    HW118044   1.231   2.629  13.460  2.1630  0.6587 -1.8545
 2136SOL    HW218045   1.109   2.712  13.463 -0.8063 -1.3219 -0.8216
 2137SOL     OW18046   3.957   1.882   4.438 -0.0222 -0.5829 -0.2159
 2137SOL    HW118047   4.017   1.912   4.506 -1.1944 -0.9515  0.9690
 2137SOL    HW218048   3.967   1.955   4.377 -2.0199 -0.5439 -0.4818
 2138SOL     OW18049   3.000   0.061   8.369 -0.5719  0.1180 -0.0838
 2138SOL    HW118050   2.906   0.074   8.358 -0.7888 -1.1141  0.2805
 2138SOL    HW218051   3.043   0.146   8.366 -1.3021  0.4484 -1.1398
 2139SOL     OW18052   3.078   4.533   8.917 -0.6370  0.4724 -0.4461
 2139SOL    HW118053   3.109   4.500   8.832 -2.4150 -1.0458 -0.5036
 2139SOL    HW218054   3.144   4.601   8.928 -0.6794  0.4169  0.1093
 2140SOL     OW18055   3.432   0.699  10.887 -0.3392  0.4895  0.5405
 2140SOL    HW118056   3.378   0.621  10.874  0.1542  0.1469  0.5304
 2140SOL    HW218057   3.443   0.693  10.982 -2.3315  0.2687  0.7657
 2141SOL     OW18058   3.134   3.247   7.070 -0.2027 -0.2644  0.1394
 2141SOL    HW118059   3.161   3.164   7.110 -1.4112  0.0753  1.6535
 2141SOL    HW218060   3.073   3.279   7.136 -2.3974 -0.7349 -1.6255
 2142SOL     OW18061   3.718   4.444  16.238  0.5186  0.3112  0.3777
 2142SOL    HW118062   3.724   4.455  16.143 -0.4870 -1.4444  0.0931
 2142SOL    HW218063   3.791   4.485  16.283 -0.3095  2.2786 -0.0795
 2143SOL     OW18064   0.416   1.442   3.766 -0.7817 -0.3797 -0.5080
 2143SOL    HW118065   0.460   1.525   3.744 -1.5887  0.5316  1.2941
 2143SOL    HW218066   0.480   1.379   3.735 -0.8149  0.0392 -1.4470
 2144SOL     OW18067   1.944   1.955   4.652  0.0041  0.3922  0.1510
 2144SOL    HW118068   1.871   1.975   4.594  1.0372  1.0642 -0.9089
 2144SOL    HW218069   2.011   1.974   4.586 -2.0455  0.7907 -1.7982
 2145SOL     OW18070   2.412   2.417  10.796 -0.7826 -0.4976  0.3634
 2145SOL    HW118071   2.460   2.499  10.786  0.6312 -1.2703  0.7826
 2145SOL    HW218072   2.447   2.397  10.883  1.0517  1.3055  0.0359
 2146SOL     OW18073   1.699   4.457   6.668  0.4745  0.6546 -0.5604
 2146SOL    HW118074   1.638   4.482   6.737  1.3359  2.4583 -0.4455
 2146SOL    HW218075   1.636   4.400   6.624 -0.8978 -1.4371  4.1227
 2147SOL     OW18076   1.861   2.412  17.465 -0.3850  0.4729 -0.3515
 2147SOL    HW118077   1.906   2.497  17.460  0.0539  0.3340  1.3736
 2147SOL    HW218078   1.824   2.421  17.553  0.5341 -2.0912  0.2632
 2148SOL     OW18079   0.879   2.039  15.997 -0.3657  0.5222 -0.4411
 2148SOL    HW118080   0.970   2.047  15.969  1.1149 -1.3025  3.8667
 2148SOL    HW218081   0.863   2.131  16.021  1.1362  1.3769 -2.7428
 2149SOL     OW18082   3.372   3.738   3.036  0.4832  0.2649 -0.4554
 2149SOL    HW118083   3.437   3.758   2.969  1.3306  0.2306  0.3671
 2149SOL    HW218084   3.301   3.736   2.971  0.8724 -0.7643 -0.8358
 2150SOL     OW18085   1.451   0.445   1.989  0.5186 -0.2491  0.0010
 2150SOL    HW118086   1.391   0.515   2.011  0.8859  0.4841 -1.3351
 2150SOL    HW218087   1.537   0.488   1.997  0.2595  0.3208 -0.3201
 2151SOL     OW18088   0.148   3.736   9.007 -0.5844  0.0881  0.5361
 2151SOL    HW118089   0.228   3.688   8.985 -0.8748  1.1448 -2.9684
 2151SOL    HW218090   0.183   3.824   9.023 -1.1910  0.1594  1.4679
 2152SOL     OW18091   0.501   3.341   5.679  0.6796  0.2471 -0.1624
 2152SOL    HW118092   0.412   3.373   5.696  0.0384 -0.2362 -2.5682
 2152SOL    HW218093   0.487   3.248   5.667  0.5504  0.4078 -1.2685
 2153SOL     OW18094   4.028   3.361   7.604 -0.1800 -0.3955  0.1916
 2153SOL    HW118095   4.021   3.407   7.688  0.2418  0.3611 -0.1844
 2153SOL    HW218096   4.053   3.273   7.630 -2.0994 -0.6172  1.3157
 2154SOL     OW18097   1.770   1.314   2.129 -0.0068 -0.0078 -0.1620
 2154SOL    HW118098   1.703   1.364   2.081  1.0994  1.1426 -0.4981
 2154SOL    HW218099   1.833   1.380   2.156 -0.0967  0.2819 -0.6457
 2155SOL     OW18100   1.120   4.274  13.743 -0.2628 -0.5925 -0.1044
 2155SOL    HW118101   1.063   4.341  13.779  0.7030  0.9385 -1.4061
 2155SOL    HW218102   1.088   4.194  13.784  0.3501 -1.1191 -0.6583
 2156SOL     OW18103   2.012   4.681  11.972  0.4163  0.1970 -0.5581
 2156SOL    HW118104   2.085   4.667  11.911  1.8264 -0.3027  1.2433
 2156SOL    HW218105   2.052   0.019  12.013 -0.1090  1.0376 -1.5888
 2157SOL     OW18106   4.199   0.144   6.928 -0.3959 -0.1179  0.6886
 2157SOL    HW118107   4.214   0.126   6.835  0.1487  0.1487  0.7195
 2157SOL    HW218108   4.104   0.133   6.933 -0.3008 -0.1226  2.4614
 2158SOL     OW18109   1.122   1.034   1.755 -0.0526  0.0500 -0.3129
 2158SOL    HW118110   1.214   1.059   1.759  0.2230 -1.0278  0.4462
 2158SOL    HW218111   1.128   0.943   1.785  1.4474  0.7085  1.3798
 2159SOL     OW18112   1.820   1.868   1.232 -0.0988 -0.2653 -0.0490
 2159SOL    HW118113   1.790   1.807   1.299  2.1217  0.2785  1.4321
 2159SOL    HW218114   1.909   1.887   1.263  0.1077  0.1895 -0.9165
 2160SOL     OW18115   2.780   3.439   0.478 -0.0279 -0.4136  0.7411
 2160SOL    HW118116   2.843   3.445   0.550  2.3960 -2.5277 -1.2082
 2160SOL    HW218117   2.799   3.521   0.432  0.3629 -1.1937 -0.4812
 2161SOL     OW18118   2.300   0.941  12.054 -0.1502 -0.4808 -0.5597
 2161SOL    HW118119   2.389   0.905  12.057  0.3466  0.7646 -0.6174
 2161SOL    HW218120   2.287   0.946  11.960  0.2459  0.2995 -0.5738
 2162SOL     OW18121   1.595   1.915   2.927 -0.3792  0.1101  1.0046
 2162SOL    HW118122   1.594   1.897   2.833  0.9560 -1.4440  1.2965
 2162SOL    HW218123   1.514   1.963   2.946 -1.2281 -0.9100 -0.0313
 2163SOL     OW18124   3.789   0.259   4.571 -0.2481  0.5735  0.6375
 2163SOL    HW118125   3.779   0.347   4.606  0.5864  0.4936  1.0966
 2163SOL    HW218126   3.879   0.235   4.595 -0.3896 -2.0176 -1.3633
 2164SOL     OW18127   4.253   2.562   4.477  0.1382  0.1101  0.5367
 2164SOL    HW118128   4.302   2.554   4.395  0.2978  0.3350  0.6095
 2164SOL    HW218129   4.248   2.469   4.499 -0.6240  0.4581  1.8279
 2165SOL     OW18130   0.905   2.004  13.174  0.2176  0.3977  0.2579
 2165SOL    HW118131   0.896   2.045  13.088  2.3743  2.9056  1.2524
 2165SOL    HW218132   0.826   2.038  13.215 -0.0621  2.4391 -1.9356
 2166SOL     OW18133   4.378   0.311  14.323  0.3547  0.1001  0.2354
 2166SOL    HW118134   4.374   0.221  14.291 -1.1183 -0.2408  1.4240
 2166SOL    HW218135   4.402   0.367  14.249  2.0926  0.5352  1.1112
 2167SOL     OW18136   3.287   1.965   0.514 -0.1130  0.4541 -0.0453
 2167SOL    HW118137   3.282   1.912   0.435  0.1092 -0.8204  0.7902
 2167SOL    HW218138   3.235   1.914   0.577  2.8945  1.7008  3.4266
 2168SOL     OW18139   3.431   1.096  14.607 -0.3268  0.0158 -0.1510
 2168SOL    HW118140   3.387   1.011  14.617 -0.9066  0.1294 -1.7714
 2168SOL    HW218141   3.354   1.151  14.620 -0.2119  0.4066 -1.1717
 2169SOL     OW18142   3.028   4.358   9.862  0.3185 -0.0252 -0.7149
 2169SOL    HW118143   3.042   4.371   9.956 -0.8208 -4.0104  0.0417
 2169SOL    HW218144   3.018   4.263   9.857  1.0489 -0.2185  1.5463
 2170SOL     OW18145   3.735   0.091   3.127  0.0246  0.5384 -0.5422
 2170SOL    HW118146   3.816   0.112   3.174 -0.5876 -1.0935  1.2299
 2170SOL    HW218147   3.749   0.001   3.097  2.3665  0.9113 -0.5910
 2171SOL     OW18148   4.187   4.631  13.179  0.0339 -0.6779 -0.3247
 2171SOL    HW118149   4.250   4.561  13.195  0.9824  0.5632  1.3714
 2171SOL    HW218150   4.136   4.630  13.260  2.6134  3.7546  1.3536
 2172SOL     OW18151   4.428   0.271   8.791  0.0570 -0.4475  0.3581
 2172SOL    HW118152   4.364   0.277   8.720 -0.1771 -1.8384  0.4544
 2172SOL    HW218153   4.445   0.365   8.801 -0.6904 -0.0565 -2.0848
 2173SOL     OW18154   3.056   0.052   4.419 -0.3876  0.4795  0.2996
 2173SOL    HW118155   3.039   4.715   4.475  2.2250  1.0518  1.8454
 2173SOL    HW218156   3.043   0.130   4.473 -1.2489  0.7481 -0.2930
 2174SOL     OW18157   1.850   3.414   3.796  0.1754  0.3741  0.1593
 2174SOL    HW118158   1.894   3.342   3.751  1.3136  2.0567 -1.3857
 2174SOL    HW218159   1.915   3.480   3.820 -0.3259  0.3478  1.6166
 2175SOL     OW18160   0.564   4.280   7.923  0.4699 -0.5940 -0.4361
 2175SOL    HW118161   0.488   4.221   7.919  1.0050 -1.4135  1.2856
 2175SOL    HW218162   0.609   4.265   8.006 -1.0081 -0.3719  0.4005
 2176SOL     OW18163   2.539   3.408   9.253  0.0123  0.4278  0.0553
 2176SOL    HW118164   2.515   3.383   9.163 -0.5798 -2.9395  1.1457
 2176SOL    HW218165   2.579   3.493   9.234  0.4749  0.1650 -0.1650
 2177SOL     OW18166   4.012   0.454   3.651  0.2814  0.0738 -0.6994
 2177SOL    HW118167   4.026   0.545   3.677  0.7916  0.0353 -0.8423
 2177SOL    HW218168   3.933   0.460   3.596  0.4733  0.3730 -0.9439
 2178SOL     OW18169   3.547   4.448   1.257 -0.3757  0.2280  0.6251
 2178SOL    HW118170   3.640   4.425   1.248  0.1407  2.3023  0.5715
 2178SOL    HW218171   3.529   4.507   1.184  0.5150 -1.3567 -0.8680
 2179SOL     OW18172   2.285   0.102   4.995 -0.4914 -0.2207  0.2167
 2179SOL    HW118173   2.247   0.110   4.907  1.0547 -0.5570 -0.4806
 2179SOL    HW218174   2.328   0.188   4.995  1.0888 -1.0058 -2.1603
 2180SOL     OW18175   1.148   2.212  10.725 -0.3298 -0.1718 -0.5205
 2180SOL    HW118176   1.064   2.230  10.768  0.8606 -0.8224  2.0769
 2180SOL    HW218177   1.198   2.197  10.805 -0.3568  1.8539 -0.1021
 2181SOL     OW18178   4.273   4.024   6.251  0.0197 -0.3460 -0.2669
 2181SOL    HW118179   4.223   3.945   6.231  0.6201 -0.4981 -1.1536
 2181SOL    HW218180   4.274   4.065   6.165  0.1916  0.3506  0.0593
 2182SOL     OW18181   2.586   3.771  11.981  0.1083 -0.8992 -0.7830
 2182SOL    HW118182   2.639   3.824  12.040 -2.8679 -0.2998  1.3357
 2182SOL    HW218183   2.590   3.686  12.026  4.0518  1.2725  2.9213
 2183SOL     OW18184   2.776   2.674   4.179 -0.7257 -0.0088  0.2456
 2183SOL    HW118185   2.758   2.756   4.133  2.1085 -0.3175 -1.3664
 2183SOL    HW218186   2.870   2.663   4.169 -1.0242 -1.5938 -0.7485
 2184SOL     OW18187   2.454   2.192   6.582 -0.4660 -0.4125 -0.1135
 2184SOL    HW118188   2.451   2.162   6.491  0.5244 -0.2937 -0.1872
 2184SOL    HW218189   2.541   2.233   6.587 -0.6061 -0.2113  0.6678
 2185SOL     OW18190   0.757   1.135   6.402  0.0010  0.1287  0.0159
 2185SOL    HW118191   0.844   1.150   6.365 -0.1926 -0.1153 -0.5326
 2185SOL    HW218192   0.781   1.069   6.468  2.8331 -0.8688 -1.9760
 2186SOL     OW18193   2.094   3.718   2.750  0.5585  0.5817 -0.2950
 2186SOL    HW118194   2.136   3.804   2.744  0.5936  0.5666 -0.2653
 2186SOL    HW218195   2.144   3.673   2.682  1.0286 -1.3370  1.3442
 2187SOL     OW18196   1.770   3.256   2.306  0.8722 -0.3829 -0.0077
 2187SOL    HW118197   1.808   3.264   2.218 -2.8321 -0.2059 -1.5659
 2187SOL    HW218198   1.748   3.347   2.327 -1.6397 -0.6904 -1.3813
 2188SOL     OW18199   4.080   3.411   2.434 -0.8749  0.4421  0.2266
 2188SOL    HW118200   4.157   3.373   2.392 -0.2520  0.6588  1.1738
 2188SOL    HW218201   4.036   3.417   2.349 -0.8453  0.4126  0.2093
 2189SOL     OW18202   0.431   2.390   2.868  0.9906 -0.1836 -0.3664
 2189SOL    HW118203   0.444   2.297   2.889  1.5507  0.0676  0.3854
 2189SOL    HW218204   0.345   2.386   2.825  0.8647 -2.4069  0.1113
 2190SOL     OW18205   2.538   3.830   3.040  0.0136 -0.6453  0.1794
 2190SOL    HW118206   2.476   3.856   3.108  1.8359 -0.7089  1.8693
 2190SOL    HW218207   2.551   3.738   3.064 -0.6802 -0.6942  0.3549
 2191SOL     OW18208   3.152   4.663   6.846 -0.8768 -0.4022 -0.3921
 2191SOL    HW118209   3.099   4.673   6.925  0.5237 -0.6918  0.5703
 2191SOL    HW218210   3.088   4.613   6.794  1.5547  0.3130 -4.0848
 2192SOL     OW18211   3.479   3.646  10.369 -0.0154 -0.1477 -0.0329
 2192SOL    HW118212   3.478   3.731  10.325 -0.8728  1.0711  2.3384
 2192SOL    HW218213   3.388   3.635  10.398  0.3968 -1.1940  0.8855
 2193SOL     OW18214   4.098   3.990   8.064  0.0546 -0.3957 -0.4189
 2193SOL    HW118215   4.098   3.958   7.974 -2.3547 -0.0015 -0.5769
 2193SOL    HW218216   4.049   3.925   8.116  1.0965  0.5315  1.7282
 2194SOL     OW18217   0.609   1.254   6.023  0.2069  0.0272  0.3393
 2194SOL    HW118218   0.595   1.239   6.116  0.7576 -0.4134  0.3560
 2194SOL    HW218219   0.524   1.232   5.985  0.2191  0.2975  0.1609
 2195SOL     OW18220   4.121   4.489   1.559 -0.4605 -0.1427 -0.1309
 2195SOL    HW118221   4.113   4.402   1.599 -2.3784  0.6350  1.2070
 2195SOL    HW218222   4.213   4.513   1.559 -0.2347 -0.9840  1.0896
 2196SOL     OW18223   3.414   2.350   1.824  0.4752 -0.3760  0.0995
 2196SOL    HW118224   3.432   2.292   1.750 -1.3832 -0.3288 -0.3893
 2196SOL    HW218225   3.494   2.393   1.856 -0.6379  0.9245  1.1400
 2197SOL     OW18226   3.570   1.810   0.935 -0.4881 -0.1030  0.4956
 2197SOL    HW118227   3.503   1.846   0.992 -1.2169  0.6588 -0.8343
 2197SOL    HW218228   3.547   1.858   0.855  1.1402 -1.0909 -0.5904
 2198SOL     OW18229   1.015   1.231  11.433 -0.1495 -0.2255 -0.0894
 2198SOL    HW118230   1.019   1.252  11.339  0.3013  1.5321  0.3212
 2198SOL    HW218231   0.992   1.138  11.428  0.9359 -0.6008  2.2711
 2199SOL     OW18232   3.315   1.352   6.277  0.2174 -0.0703  0.1958
 2199SOL    HW118233   3.243   1.393   6.230  0.0677 -2.4385 -1.6116
 2199SOL    HW218234   3.313   1.266   6.236 -0.0374 -0.4588  1.0322
 2200SOL     OW18235   1.521   1.226   9.066 -0.0830 -0.2971 -0.1569
 2200SOL    HW118236   1.490   1.297   9.123  2.0274  0.9871 -0.5888
 2200SOL    HW218237   1.569   1.287   9.011  1.2301  0.1060  1.4280
 2201SOL     OW18238   3.872   0.473   6.325  0.2559  0.0729  0.1050
 2201SOL    HW118239   3.788   0.459   6.282 -0.1817  1.2028  0.5878
 2201SOL    HW218240   3.920   0.392   6.305  0.4777  0.3298 -0.3969
 2202SOL     OW18241   2.187   3.539   9.490  0.3100  0.1167 -0.8612
 2202SOL    HW118242   2.157   3.450   9.473  0.0935 -0.1586  1.0358
 2202SOL    HW218243   2.280   3.523   9.472  0.3559 -0.2844 -0.2294
 2203SOL     OW18244   3.197   0.736  14.255 -0.3542  0.2251  0.1863
 2203SOL    HW118245   3.137   0.802  14.288 -0.3873  0.3970 -0.2148
 2203SOL    HW218246   3.260   0.743  14.327  1.0626 -0.4913 -0.9625
 2204SOL     OW18247   0.959   1.813   5.639 -0.2001 -0.3147  0.1801
 2204SOL    HW118248   0.992   1.834   5.726  1.4910  0.8813 -0.7532
 2204SOL    HW218249   1.004   1.730   5.621  0.4594 -0.1815  1.2164
 2205SOL     OW18250   1.533   4.300   6.523  0.0447  0.3417 -0.0483
 2205SOL    HW118251   1.464   4.234   6.531 -2.1278  2.4959 -0.9567
 2205SOL    HW218252   1.596   4.233   6.497 -0.9359 -0.7663  0.4256
 2206SOL     OW18253   3.495   4.118   7.613  0.5758  0.1602  0.0379
 2206SOL    HW118254   3.565   4.101   7.550  1.5158  4.0330  0.0220
 2206SOL    HW218255   3.451   4.036   7.634  0.9001  0.4513  1.7890
 2207SOL     OW18256   3.240   0.427   7.781  0.4071 -0.0951 -0.7009
 2207SOL    HW118257   3.182   0.502   7.764 -0.9497 -0.8423  0.7153
 2207SOL    HW218258   3.183   0.351   7.777  1.4372 -0.8983  0.0294
 2208SOL     OW18259   3.918   2.949   5.454 -0.6534 -1.0669 -0.0339
 2208SOL    HW118260   3.990   2.994   5.410 -1.3490  0.1501  0.0770
 2208SOL    HW218261   3.911   2.881   5.386  0.1993  1.0932 -2.2731
 2209SOL     OW18262   1.170   2.012   1.793  0.1128  0.1128 -0.2417
 2209SOL    HW118263   1.242   1.999   1.731 -0.7804 -2.2886 -0.7684
 2209SOL    HW218264   1.120   2.083   1.753 -1.2748  0.5096  2.2197
 2210SOL     OW18265   2.179   1.839   9.270 -0.7200  0.5028 -0.7041
 2210SOL    HW118266   2.245   1.889   9.222 -0.3221  0.6073 -0.0516
 2210SOL    HW218267   2.199   1.747   9.254 -1.1386  0.4152 -0.7335
 2211SOL     OW18268   2.473   1.428  10.853 -0.2206 -0.2309 -0.1462
 2211SOL    HW118269   2.478   1.457  10.762 -0.6710  1.9985  0.5331
 2211SOL    HW218270   2.453   1.500  10.913  0.0321 -2.4630  2.6322
 2212SOL     OW18271   3.163   3.556  12.889 -0.3272  0.9317  0.4423
 2212SOL    HW118272   3.232   3.496  12.857 -1.2228 -0.6794  1.5279
 2212SOL    HW218273   3.222   3.630  12.904 -0.8430  1.5119 -0.4344
 2213SOL     OW18274   2.908   2.094   2.643  0.4162  0.6218 -0.4688
 2213SOL    HW118275   2.981   2.033   2.630  1.1524  1.7779 -1.6817
 2213SOL    HW218276   2.878   2.099   2.552 -3.5681 -1.9530  0.6983
 2214SOL     OW18277   0.792   3.417   0.184 -0.0971 -0.0447 -0.2954
 2214SOL    HW118278   0.746   3.417   0.099  0.6029 -1.8799 -0.6716
 2214SOL    HW218279   0.782   3.508   0.212 -2.2974 -0.8733  1.6010
 2215SOL     OW18280   4.007   1.815   1.892 -0.2183 -0.2496  0.7434
 2215SOL    HW118281   4.002   1.907   1.865  0.9769 -1.0030 -2.1025
 2215SOL    HW218282   4.101   1.800   1.895  0.1314  1.4353 -1.5508
 2216SOL     OW18283   3.236   4.187  16.438 -0.1150 -1.1772  0.4345
 2216SOL    HW118284   3.201   4.270  16.404  0.0211 -0.5747  1.7605
 2216SOL    HW218285   3.156   4.136  16.450 -0.2842 -0.7566  1.0748
 2217SOL     OW18286   1.953   1.162   6.897 -0.0250  0.1311 -0.0159
 2217SOL    HW118287   2.025   1.121   6.943  0.9728  1.1848 -0.6455
 2217SOL    HW218288   1.882   1.100   6.913 -0.2729  0.2422 -0.6491
 2218SOL     OW18289   4.504   1.591   3.234 -0.2081  0.2470 -0.1819
 2218SOL    HW118290   4.521   1.685   3.230  1.6279 -0.1520 -1.7209
 2218SOL    HW218291   4.427   1.593   3.291  0.7611  2.9669  1.0301
 2219SOL     OW18292   2.023   3.923   9.416 -0.4019  0.5645  0.0168
 2219SOL    HW118293   1.929   3.913   9.397 -0.1378 -1.1109 -0.3706
 2219SOL    HW218294   2.028   4.018   9.414 -1.9261  0.5794 -3.7862
 2220SOL     OW18295   0.062   4.601   4.161 -0.4072 -0.0318 -0.4111
 2220SOL    HW118296   0.025   4.528   4.210 -0.4574  0.2492 -0.0242
 2220SOL    HW218297   0.030   4.671   4.218  1.5095 -0.5212  1.2871
 2221SOL     OW18298   3.111   4.042   9.227 -0.1170 -0.8854 -0.3669
 2221SOL    HW118299   3.065   4.125   9.241  1.1242 -0.1531 -0.6325
 2221SOL    HW218300   3.152   4.076   9.148 -2.9777 -0.2387 -1.5779
 2222SOL     OW18301   1.862   4.231   2.266 -0.1265 -0.3943  0.0075
 2222SOL    HW118302   1.822   4.241   2.352 -0.1156  1.5627 -0.2034
 2222SOL    HW218303   1.813   4.306   2.231 -0.4624 -1.4610 -1.7984
 2223SOL     OW18304   3.097   1.347   7.475  0.5570  0.3664 -0.2262
 2223SOL    HW118305   3.014   1.302   7.458  0.4727 -0.0130  1.2178
 2223SOL    HW218306   3.067   1.404   7.546  0.7193 -0.2960  0.3750
 2224SOL     OW18307   0.154   0.583   1.312  0.0345  0.3185  0.3441
 2224SOL    HW118308   0.100   0.645   1.361  0.7429  0.4838  0.9064
 2224SOL    HW218309   0.193   0.639   1.244  1.2262  0.2438  0.9806
 2225SOL     OW18310   0.224   1.729   6.315  0.0487  0.4053 -0.0345
 2225SOL    HW118311   0.310   1.723   6.274 -1.2221 -2.0636 -2.2930
 2225SOL    HW218312   0.221   1.637   6.339 -1.3085 -0.0128 -1.8396
 2226SOL     OW18313   2.602   1.586   5.427  0.1233  0.4106 -0.0117
 2226SOL    HW118314   2.615   1.496   5.398 -1.1553  0.7696 -1.6996
 2226SOL    HW218315   2.525   1.606   5.374 -1.0013  2.8760  2.5775
 2227SOL     OW18316   2.763   0.671   4.163 -0.4783  0.1169  0.2215
 2227SOL    HW118317   2.852   0.641   4.185 -0.8465 -0.8380  0.4255
 2227SOL    HW218318   2.754   0.666   4.068 -0.3650 -0.1928  0.2263
 2228SOL     OW18319   0.618   0.826   3.243  0.3956  0.5503  0.4320
 2228SOL    HW118320   0.577   0.763   3.183 -0.8401  1.3428  0.4552
 2228SOL    HW218321   0.703   0.795   3.275  0.9634  1.1706 -0.4556
 2229SOL     OW18322   1.771   2.354   2.675  0.3321 -0.0099 -0.2597
 2229SOL    HW118323   1.800   2.419   2.739 -0.4483  0.3631 -0.2834
 2229SOL    HW218324   1.803   2.272   2.713  0.1207 -0.3878 -0.9073
 2230SOL     OW18325   4.526   0.939   6.209 -0.2652 -0.1402 -0.4913
 2230SOL    HW118326   4.524   0.864   6.149 -1.2911 -1.5981  1.3718
 2230SOL    HW218327   4.567   0.903   6.288  0.0350  1.0592 -0.1101
 2231SOL     OW18328   4.558   1.302   2.203  0.0905 -0.0026  0.3327
 2231SOL    HW118329   4.601   1.232   2.252  0.0163  0.2385  0.7392
 2231SOL    HW218330   4.620   1.373   2.185  0.1535  0.0811  0.8690
 2232SOL     OW18331   0.902   2.920  13.270 -0.5198 -0.2000  0.4450
 2232SOL    HW118332   0.910   2.999  13.216  0.4975 -0.1457  0.6735
 2232SOL    HW218333   0.810   2.922  13.298 -0.6474 -0.6129  0.0336
 2233SOL     OW18334   2.014   0.946  10.985  0.8764  0.1572 -0.1883
 2233SOL    HW118335   2.091   0.999  10.964  1.2058 -0.4460 -0.5215
 2233SOL    HW218336   1.971   0.993  11.056  1.2730 -1.7147  1.2981
 2234SOL     OW18337   0.446   0.170   8.101 -0.0216 -0.0400  0.1385
 2234SOL    HW118338   0.525   0.128   8.065  0.3252 -0.9960  2.0406
 2234SOL    HW218339   0.474   0.255   8.066 -0.8137 -0.4516 -1.5126
 2235SOL     OW18340   1.842   3.467   0.947 -0.2035 -0.1989 -0.0101
 2235SOL    HW118341   1.821   3.559   0.931  1.1686  0.1913  0.4610
 2235SOL    HW218342   1.768   3.449   1.005 -0.6621 -0.6049 -0.7192
 2236SOL     OW18343   1.402   1.024   9.354  0.1465  0.2636 -0.5370
 2236SOL    HW118344   1.469   0.986   9.298  0.3392 -1.4395  0.8426
 2236SOL    HW218345   1.436   1.001   9.441 -0.0031 -0.4230 -0.6586
 2237SOL     OW18346   2.356   3.998   5.593 -0.7755  0.7897  0.2053
 2237SOL    HW118347   2.443   3.961   5.578 -1.9948 -2.0762  0.2268
 2237SOL    HW218348   2.330   3.962   5.678 -1.1830  3.5835  1.2696
 2238SOL     OW18349   0.346   2.299   8.961  0.3119 -0.3754  0.4436
 2238SOL    HW118350   0.250   2.298   8.971  0.4140  3.2522  1.6856
 2238SOL    HW218351   0.369   2.380   9.006  0.6135 -1.3633  2.0787
 2239SOL     OW18352   3.251   3.146   1.209  0.5967 -0.0314  0.2478
 2239SOL    HW118353   3.314   3.103   1.151 -0.2009  2.4193 -2.4559
 2239SOL    HW218354   3.169   3.134   1.161  0.0309 -0.6237  1.3475
 2240SOL     OW18355   2.829   3.868  16.206 -0.0498  0.8356  0.3417
 2240SOL    HW118356   2.826   3.857  16.111  0.9076 -0.5541  0.4790
 2240SOL    HW218357   2.738   3.842  16.220  0.9458 -2.6762  0.2560
 2241SOL     OW18358   0.763   4.417   3.922  0.2271  0.2310 -0.3567
 2241SOL    HW118359   0.734   4.494   3.970 -1.1831 -0.6596  0.2167
 2241SOL    HW218360   0.816   4.447   3.848  1.5235 -0.4977  0.2647
 2242SOL     OW18361   1.451   0.989   8.714  0.2593  0.1651  0.0467
 2242SOL    HW118362   1.446   0.965   8.807  0.1363 -1.4956 -0.3905
 2242SOL    HW218363   1.439   1.083   8.725 -0.7417  0.0049  0.2682
 2243SOL     OW18364   2.661   0.150   1.931 -0.7609  0.5938 -0.0537
 2243SOL    HW118365   2.610   0.100   1.868 -0.8662 -0.8754  1.2016
 2243SOL    HW218366   2.626   0.112   2.012 -2.3917 -3.9613 -2.9125
 2244SOL     OW18367   2.330   4.388  14.956 -0.2830  0.1238 -0.3412
 2244SOL    HW118368   2.355   4.344  14.874 -2.9027 -0.1860 -0.9583
 2244SOL    HW218369   2.279   4.313  14.988  0.6946 -0.1995  0.4800
 2245SOL     OW18370   0.578   0.708   4.356 -0.5623  0.1646 -0.1327
 2245SOL    HW118371   0.661   0.671   4.388 -1.4028 -1.6303  0.0128
 2245SOL    HW218372   0.534   0.623   4.344 -1.9654  1.1236 -1.7503
 2246SOL     OW18373   0.002   3.178   5.555  0.1005 -0.4420 -0.0073
 2246SOL    HW118374   0.037   3.089   5.556  2.2182  0.3146 -4.4444
 2246SOL    HW218375   4.652   3.162   5.520  0.2178  1.1307 -1.0489
 2247SOL     OW18376   0.071   2.309  10.562  0.2815 -0.1638 -0.1574
 2247SOL    HW118377   0.152   2.360  10.560 -0.9537  1.7807  0.0046
 2247SOL    HW218378   0.038   2.321  10.473 -2.0878  0.0153  0.7544
 2248SOL     OW18379   2.910   3.044   3.332 -0.2807 -0.0920 -0.2635
 2248SOL    HW118380   2.983   3.079   3.384  0.5504 -0.8142 -0.9343
 2248SOL    HW218381   2.850   3.003   3.393 -0.3713  0.8302  0.2746
 2249SOL     OW18382   0.834   0.241   9.930 -0.2656 -0.1061  0.3333
 2249SOL    HW118383   0.897   0.262   9.998  1.1874 -2.0532 -0.4191
 2249SOL    HW218384   0.775   0.182   9.978 -0.3429  0.9775  1.5796
 2250SOL     OW18385   2.791   3.281   2.964  0.0732  0.1831  0.2552
 2250SOL    HW118386   2.717   3.237   3.007 -0.0306  1.3640  1.2804
 2250SOL    HW218387   2.775   3.242   2.878 -1.9946  2.9311 -0.5788
 2251SOL     OW18388   1.430   2.060   1.968  0.2110 -0.1413 -0.2473
 2251SOL    HW118389   1.430   2.016   1.882  4.1704  0.1707 -0.4232
 2251SOL    HW218390   1.521   2.053   1.997 -0.2898 -1.9637  0.9022
 2252SOL     OW18391   2.604   4.240   8.427  0.3911  0.3216  0.1740
 2252SOL    HW118392   2.599   4.309   8.493 -0.8281  0.8005 -0.4278
 2252SOL    HW218393   2.617   4.288   8.345  2.3757  0.1162  0.3735
 2253SOL     OW18394   2.338   3.525  12.793 -0.0638 -0.2119 -0.5372
 2253SOL    HW118395   2.331   3.431  12.774  0.1279 -0.2974 -0.1701
 2253SOL    HW218396   2.253   3.555  12.762  0.4749 -0.4533 -2.2521
 2254SOL     OW18397   0.297   0.215   1.495  0.1328 -0.1397 -0.1973
 2254SOL    HW118398   0.219   0.268   1.475  0.1437  0.4001  1.1988
 2254SOL    HW218399   0.369   0.271   1.466 -1.0932  2.4268  1.7300
 2255SOL     OW18400   0.428   3.844   8.386 -0.4298  0.0583  0.4601
 2255SOL    HW118401   0.460   3.802   8.306  0.5430 -1.6983  1.7676
 2255SOL    HW218402   0.498   3.822   8.448  0.4229  1.8571  0.1262
 2256SOL     OW18403   4.481   2.286  15.171 -0.5686 -0.2267  0.1053
 2256SOL    HW118404   4.406   2.282  15.111 -2.2825  0.5842  2.2077
 2256SOL    HW218405   4.463   2.351  15.238 -3.0126 -1.1289  0.3464
 2257SOL     OW18406   0.183   4.705   1.407  0.4334 -0.1321 -0.2693
 2257SOL    HW118407   0.222   0.054   1.407 -0.1013  0.1098  0.3366
 2257SOL    HW218408   0.203   4.669   1.494 -1.9456 -0.4547  0.1249
 2258SOL     OW18409   1.213   2.065   6.947  0.2788  0.0799  0.2372
 2258SOL    HW118410   1.209   2.157   6.972  1.8123  0.3205 -0.3876
 2258SOL    HW218411   1.204   2.018   7.030 -0.4763 -0.3001 -0.0642
 2259SOL     OW18412   1.529   2.215   7.078 -0.1824 -0.1900  0.1680
 2259SOL    HW118413   1.467   2.145   7.057  1.2901 -1.5276  0.2768
 2259SOL    HW218414   1.559   2.188   7.165 -0.7967  1.5210  0.9193
 2260SOL     OW18415   2.811   4.499   5.180 -0.2616  0.1293 -0.3304
 2260SOL    HW118416   2.740   4.534   5.127  0.0700  0.6617 -0.4183
 2260SOL    HW218417   2.798   4.407   5.155  0.7529 -0.2633  0.5682
 2261SOL     OW18418   1.764   0.604   8.350 -0.2717 -0.3584 -0.1156
 2261SOL    HW118419   1.707   0.680   8.347 -0.1407 -0.2319  0.7680
 2261SOL    HW218420   1.787   0.597   8.443  2.1268 -2.8616 -0.8860
 2262SOL     OW18421   2.666   2.505   2.002 -0.3906 -0.4415  0.9914
 2262SOL    HW118422   2.680   2.504   2.097  0.2222 -0.4557  0.9016
 2262SOL    HW218423   2.578   2.468   1.998 -0.7877  0.3862  1.9577
 2263SOL     OW18424   0.626   0.149  16.677  0.4309 -0.5183 -0.6652
 2263SOL    HW118425   0.564   0.219  16.697  2.1635  0.5306  0.9498
 2263SOL    HW218426   0.562   0.080  16.662  0.0620  0.1422 -2.0933
 2264SOL     OW18427   4.733   0.599   4.249  0.2532 -0.3311 -0.0737
 2264SOL    HW118428   4.648   0.639   4.268  0.3654  0.4376 -1.2057
 2264SOL    HW218429   0.037   0.613   4.334  3.4710  1.7388 -2.0164
 2265SOL     OW18430   1.104   4.671   4.387 -0.0095  0.0679  0.4984
 2265SOL    HW118431   1.195   4.693   4.369 -0.3435  0.0801 -1.2063
 2265SOL    HW218432   1.065   4.729   4.321 -0.7224 -0.2077  0.6759
 2266SOL     OW18433   0.338   2.983   6.325 -0.5640 -0.6152  0.5461
 2266SOL    HW118434   0.245   2.959   6.328 -0.9094  0.3876 -1.7093
 2266SOL    HW218435   0.375   2.914   6.379  0.9467  0.3139  0.6885
 2267SOL     OW18436   4.267   0.854   1.539 -0.1309 -0.2718 -0.7429
 2267SOL    HW118437   4.274   0.829   1.447 -0.9075  0.3563 -0.9729
 2267SOL    HW218438   4.190   0.808   1.573 -0.3625  0.8758  0.2878
 2268SOL     OW18439   3.548   0.091   2.439 -0.3129 -0.1339  0.1813
 2268SOL    HW118440   3.479   0.145   2.401 -1.2341 -0.2978  1.6120
 2268SOL    HW218441   3.500   0.014   2.472 -0.8543  0.2484  0.2899
 2269SOL     OW18442   3.957   3.511   6.670  0.1304  0.7114 -0.4613
 2269SOL    HW118443   3.896   3.439   6.676  2.3546 -1.1779 -0.5642
 2269SOL    HW218444   3.946   3.550   6.757  2.4475  1.9610 -0.7184
 2270SOL     OW18445   4.452   1.817   4.867  0.4439  0.2973  0.1304
 2270SOL    HW118446   4.363   1.854   4.868  0.4586  0.3707 -1.0563
 2270SOL    HW218447   4.504   1.887   4.906 -0.6262  0.5316  1.1686
 2271SOL     OW18448   1.117   2.307   6.234 -0.7802 -0.2437  0.0901
 2271SOL    HW118449   1.028   2.307   6.271  0.0124  3.0626  2.0327
 2271SOL    HW218450   1.145   2.398   6.237 -0.4032 -0.3107 -1.7452
 2272SOL     OW18451   4.625   2.001  17.439  0.0976  0.0406 -0.1491
 2272SOL    HW118452   4.656   2.048  17.516  2.6828 -1.7446 -0.0935
 2272SOL    HW218453   4.644   2.071  17.376  0.2469  0.9205  0.8833
 2273SOL     OW18454   3.657   3.173   9.150 -0.3914  0.1778 -0.1753
 2273SOL    HW118455   3.661   3.079   9.166  2.0366  0.0588 -1.6101
 2273SOL    HW218456   3.742   3.210   9.174 -0.2677 -0.2459  0.0366
 2274SOL     OW18457   4.372   0.007   8.622 -0.4876 -0.6880  0.5528
 2274SOL    HW118458   4.448   0.009   8.679  0.1554  0.7546 -0.3544
 2274SOL    HW218459   4.405   0.034   8.536 -1.3703 -1.6998 -0.1091
 2275SOL     OW18460   0.315   2.261   2.411 -0.0205 -0.4744  0.0039
 2275SOL    HW118461   0.379   2.213   2.463 -0.0222 -0.3136  0.1541
 2275SOL    HW218462   0.239   2.204   2.424 -0.2181  0.0758  1.2182
 2276SOL     OW18463   2.062   2.314   8.447 -0.1968 -0.7200 -0.3222
 2276SOL    HW118464   1.976   2.351   8.429 -0.6413 -1.2400  0.6819
 2276SOL    HW218465   2.109   2.346   8.370  0.9268  1.3578  1.2075
 2277SOL     OW18466   2.803   4.588   6.611  0.5813 -0.7734  0.2959
 2277SOL    HW118467   2.871   4.528   6.642  0.8189 -1.6579 -1.9340
 2277SOL    HW218468   2.740   4.520   6.589 -1.1720  1.1828 -0.7412
 2278SOL     OW18469   4.506   0.172   2.509 -0.1705 -0.0363 -1.2533
 2278SOL    HW118470   4.453   0.152   2.585 -0.7970 -1.0836 -1.9582
 2278SOL    HW218471   4.579   0.224   2.542  0.1833 -0.8094 -0.8239
 2279SOL     OW18472   4.172   3.227  14.621 -0.0268  0.0008 -0.0528
 2279SOL    HW118473   4.166   3.272  14.536  0.8038 -1.3801 -0.8501
 2279SOL    HW218474   4.218   3.149  14.590 -1.2356 -1.0619  0.8069
 2280SOL     OW18475   4.074   1.499   5.388  0.5688 -0.2381  0.3182
 2280SOL    HW118476   4.139   1.440   5.349  0.8380 -0.0842  0.5310
 2280SOL    HW218477   4.011   1.470   5.322 -0.9712  0.0678  1.6677
 2281SOL     OW18478   1.782   3.936   9.312  0.0691  0.6182  0.1044
 2281SOL    HW118479   1.688   3.938   9.331  0.2077 -1.9807  1.0157
 2281SOL    HW218480   1.783   3.993   9.235  2.0073  2.0202  1.1787
 2282SOL     OW18481   1.026   2.323   1.987 -0.0795 -0.2551 -0.5593
 2282SOL    HW118482   0.986   2.292   1.906 -1.1986  1.1949 -0.5780
 2282SOL    HW218483   1.058   2.409   1.960 -0.4473 -0.7203 -2.4944
 2283SOL     OW18484   1.358   0.558  12.291  0.0392 -0.0405  0.0108
 2283SOL    HW118485   1.423   0.494  12.320 -0.8865  0.4923  3.2413
 2283SOL    HW218486   1.414   0.599  12.225  2.6573 -0.1650  2.1763
 2284SOL     OW18487   3.758   0.015   9.658 -0.3474  0.1744  0.0214
 2284SOL    HW118488   3.737   0.074   9.731 -3.3274 -0.6378 -0.1839
 2284SOL    HW218489   3.676   4.735   9.614  0.9431  0.2119 -2.3686
 2285SOL     OW18490   1.197   1.071  16.950  0.3632  0.1524  0.7253
 2285SOL    HW118491   1.123   1.129  16.967  0.2994 -0.0688  1.1992
 2285SOL    HW218492   1.150   0.988  16.937 -1.2335  0.9154  1.5783
 2286SOL     OW18493   3.314   4.385   5.686 -0.1130 -0.0338  0.3794
 2286SOL    HW118494   3.379   4.354   5.749  1.3898  0.5353 -0.8959
 2286SOL    HW218495   3.260   4.437   5.744  1.9140  1.3682  1.0077
 2287SOL     OW18496   3.028   0.206   5.819  0.1519 -0.1800  0.1533
 2287SOL    HW118497   2.956   0.146   5.798  0.6542 -0.6115 -0.3457
 2287SOL    HW218498   3.081   0.203   5.739 -0.6098 -0.8097 -0.3274
 2288SOL     OW18499   1.732   0.829   6.326 -0.1627 -1.1724 -0.4956
 2288SOL    HW118500   1.809   0.865   6.372 -1.0066  1.6110 -1.2309
 2288SOL    HW218501   1.756   0.855   6.237 -0.8092  2.1213  0.2700
 2289SOL     OW18502   1.501   1.576   7.603  0.3629  0.4207  0.6638
 2289SOL    HW118503   1.543   1.542   7.682  0.5544  1.1910  0.8882
 2289SOL    HW218504   1.547   1.519   7.540 -0.0322  1.2880 -0.4011
 2290SOL     OW18505   4.238   3.236   3.584  0.5624  0.3575 -0.1070
 2290SOL    HW118506   4.150   3.203   3.567  0.2719  1.2438 -0.3129
 2290SOL    HW218507   4.274   3.230   3.496 -1.4342  1.0796 -0.9692
 2291SOL     OW18508   2.603   3.500  12.728 -0.0565  0.4887  0.1024
 2291SOL    HW118509   2.609   3.417  12.774 -0.3666  0.2095 -0.3644
 2291SOL    HW218510   2.515   3.517  12.761  0.5909  2.1530  0.9735
 2292SOL     OW18511   4.353   3.723  10.322 -0.4346 -0.3332 -0.1972
 2292SOL    HW118512   4.333   3.747  10.412 -2.0251 -0.4397 -0.5231
 2292SOL    HW218513   4.329   3.801  10.272  0.2128  0.4686  0.7405
 2293SOL     OW18514   1.763   2.691   1.321  0.8972 -0.0094 -0.4446
 2293SOL    HW118515   1.802   2.776   1.303 -1.6357  0.9119 -1.5299
 2293SOL    HW218516   1.785   2.670   1.411 -1.5883  0.3939  0.2484
 2294SOL     OW18517   0.211   0.510   5.803  0.3326 -0.7950  0.1150
 2294SOL    HW118518   0.243   0.561   5.878  0.4094  1.9179 -1.7909
 2294SOL    HW218519   0.118   0.533   5.810  0.5814  0.1202  0.4669
 2295SOL     OW18520   2.956   3.470   5.133 -0.3489  0.5446  0.6685
 2295SOL    HW118521   3.033   3.526   5.138 -1.0643  1.6852 -0.9388
 2295SOL    HW218522   2.881   3.528   5.148 -1.1183 -0.6577  1.4754
 2296SOL     OW18523   3.816   3.035   3.318 -0.6678 -0.3973 -0.3384
 2296SOL    HW118524   3.773   3.008   3.398 -1.4793  0.8278 -0.3618
 2296SOL    HW218525   3.773   2.989   3.246  0.2844 -0.6669 -0.7368
 2297SOL     OW18526   3.697   0.076   8.158  0.3387 -0.2201 -0.5607
 2297SOL    HW118527   3.731   4.733   8.196  3.1760  1.1988 -0.0337
 2297SOL    HW218528   3.608   0.049   8.136  0.1355  1.6018 -1.9391
 2298SOL     OW18529   0.248   0.790   9.225  0.0972 -0.1386  0.7476
 2298SOL    HW118530   0.221   0.750   9.143 -2.5530 -2.5766  2.7972
 2298SOL    HW218531   0.158   0.799   9.257 -0.1762 -0.9533  0.1823
 2299SOL     OW18532   3.446   0.478   7.281  0.3439  0.4681  0.2016
 2299SOL    HW118533   3.453   0.454   7.373  2.9974  0.5212  0.0026
 2299SOL    HW218534   3.502   0.555   7.284  0.7933  0.1456  0.0088
 2300SOL     OW18535   3.033   1.567   4.463  0.0470 -0.0566  0.2850
 2300SOL    HW118536   2.997   1.572   4.375 -2.0252 -0.1574  1.1089
 2300SOL    HW218537   2.962   1.518   4.506  1.8469 -1.0993  2.0865
 2301SOL     OW18538   3.777   1.893   7.793  0.3489 -0.2458  0.6043
 2301SOL    HW118539   3.735   1.913   7.877  2.0533  0.6970  1.2404
 2301SOL    HW218540   3.862   1.858   7.818 -0.3336  0.0263  3.3842
 2302SOL     OW18541   1.258   3.831  14.441 -0.0128  0.1713  0.1896
 2302SOL    HW118542   1.339   3.855  14.395  0.5156 -2.1637 -0.1292
 2302SOL    HW218543   1.200   3.781  14.384 -2.2256  0.9483  1.7584
 2303SOL     OW18544   4.376   3.172   1.597 -0.0516 -0.0035  0.5121
 2303SOL    HW118545   4.432   3.195   1.523 -0.3516 -1.1673 -0.0877
 2303SOL    HW218546   4.292   3.162   1.551 -0.3745 -0.5673  1.2251
 2304SOL     OW18547   3.207   2.236   2.590 -0.0433 -0.0072 -0.1195
 2304SOL    HW118548   3.247   2.231   2.677  0.6265 -0.3829 -0.4435
 2304SOL    HW218549   3.282   2.259   2.535 -0.4015  1.5897  0.0664
 2305SOL     OW18550   2.091   2.386   3.120  0.2805  0.2681 -0.0256
 2305SOL    HW118551   2.086   2.405   3.213  0.9427 -1.2374  0.3138
 2305SOL    HW218552   2.160   2.320   3.121  0.9710  0.9882  0.2273
 2306SOL     OW18553   1.531   2.116   6.084 -0.2236  0.4428  0.7188
 2306SOL    HW118554   1.565   2.190   6.134  1.7619 -0.1204  0.2048
 2306SOL    HW218555   1.437   2.129   6.096 -0.4786  0.1213 -0.9749
 2307SOL     OW18556   4.234   0.080  11.873 -0.2845 -0.1110 -0.3181
 2307SOL    HW118557   4.270   0.156  11.827  1.0558 -0.8822 -0.5680
 2307SOL    HW218558   4.141   0.088  11.854  0.0648  1.9829 -1.0942
 2308SOL     OW18559   0.065   0.104  11.852 -0.6057  0.2809  0.3726
 2308SOL    HW118560   0.013   0.100  11.932 -0.0717 -0.6205  0.6747
 2308SOL    HW218561   0.015   0.169  11.802 -3.2603 -0.8387  1.5653
 2309SOL     OW18562   0.041   1.492   3.302 -0.0336 -0.0821  0.3069
 2309SOL    HW118563   4.690   1.518   3.280 -0.5665 -1.8717  0.3477
 2309SOL    HW218564   0.077   1.471   3.215  0.4214  3.6671 -0.4199
 2310SOL     OW18565   4.480   2.959   3.140 -0.5908 -0.0443 -0.1078
 2310SOL    HW118566   4.544   2.988   3.076 -0.2097  0.6044  0.5681
 2310SOL    HW218567   4.401   2.994   3.097 -0.6278 -0.6654 -0.5365
 2311SOL     OW18568   4.407   3.932   4.249 -0.3621 -0.0683  0.5200
 2311SOL    HW118569   4.330   3.901   4.202  0.9052 -0.5901 -1.2391
 2311SOL    HW218570   4.477   3.888   4.198 -0.5608 -0.2233  0.3800
 2312SOL     OW18571   1.515   1.905  11.572 -0.8251 -0.6225 -0.3827
 2312SOL    HW118572   1.575   1.929  11.501 -0.8956 -1.6233 -0.7766
 2312SOL    HW218573   1.446   1.970  11.559 -0.8209 -0.5943 -0.2657
 2313SOL     OW18574   2.653   1.950  11.040  0.0480 -0.3367 -0.1616
 2313SOL    HW118575   2.578   1.988  11.085  0.8570 -1.8547  2.4630
 2313SOL    HW218576   2.658   1.991  10.954 -1.6897  3.0390  1.3595
 2314SOL     OW18577   2.359   2.252  13.787  0.3682 -0.5168  0.1093
 2314SOL    HW118578   2.362   2.165  13.825  0.4899 -1.0067 -1.0361
 2314SOL    HW218579   2.269   2.263  13.758  0.1895  0.2585  0.9278
 2315SOL     OW18580   1.623   1.928   7.242 -0.4218  0.2918 -0.1051
 2315SOL    HW118581   1.700   1.978   7.219 -1.8458 -0.7882 -7.1308
 2315SOL    HW218582   1.646   1.848   7.195 -1.0323 -0.6893  1.2324
 2316SOL     OW18583   0.643   4.413   7.678 -0.8155 -0.1004 -1.0982
 2316SOL    HW118584   0.705   4.471   7.722 -0.8050  1.2347 -2.8710
 2316SOL    HW218585   0.590   4.381   7.751  0.9110 -1.9722 -0.6564
 2317SOL     OW18586   0.038   1.753  16.587 -0.3334 -0.2145 -0.0888
 2317SOL    HW118587   0.097   1.704  16.644 -1.9819 -1.1189  0.8224
 2317SOL    HW218588   0.031   1.680  16.525  1.9243 -0.8269  0.3726
 2318SOL     OW18589   0.668   1.771  15.326 -0.3568  0.1503  0.5023
 2318SOL    HW118590   0.592   1.715  15.345 -1.0308  0.7316 -0.4638
 2318SOL    HW218591   0.678   1.821  15.407  0.5944 -0.2923  0.6608
 2319SOL     OW18592   0.977   0.002   5.064 -0.1384  0.4359  0.3690
 2319SOL    HW118593   0.888   4.729   5.095 -0.5562  2.2610 -0.1525
 2319SOL    HW218594   1.018   0.042   5.141  1.4211  1.8090 -1.1606
 2320SOL     OW18595   1.088   0.797   4.047 -0.1462 -0.1299 -0.1125
 2320SOL    HW118596   1.108   0.883   4.084 -0.5372  0.5322 -1.4527
 2320SOL    HW218597   1.172   0.759   4.023 -0.8003 -0.1489 -2.3708
 2321SOL     OW18598   3.983   4.118   3.173  0.2053 -0.6544 -0.6487
 2321SOL    HW118599   3.907   4.063   3.156 -0.5524  0.7065 -1.6675
 2321SOL    HW218600   4.004   4.135   3.081  0.6641 -0.0715 -0.4376
 2322SOL     OW18601   3.633   2.336   2.087  0.2463  0.4756  0.1979
 2322SOL    HW118602   3.610   2.421   2.050  1.8098  1.8316  2.3169
 2322SOL    HW218603   3.627   2.361   2.180 -1.1273 -0.3912  0.3371
 2323SOL     OW18604   1.976   0.473   1.363  0.4281  0.3628  0.3788
 2323SOL    HW118605   2.037   0.399   1.363 -1.0689 -0.8577 -2.6798
 2323SOL    HW218606   2.013   0.536   1.425  4.6039 -0.3923 -1.3808
 2324SOL     OW18607   3.244   3.236  10.839  0.2479  0.1942 -0.5859
 2324SOL    HW118608   3.260   3.148  10.805  1.5839  0.0089  0.4798
 2324SOL    HW218609   3.212   3.217  10.928  1.6708 -1.5086 -0.4406
 2325SOL     OW18610   1.093   3.429   7.402 -0.1798 -0.1619  0.4887
 2325SOL    HW118611   1.175   3.386   7.378  0.8507  1.4822  1.0531
 2325SOL    HW218612   1.049   3.433   7.317  0.1757  0.5358  0.3360
 2326SOL     OW18613   2.990   2.848   0.329 -0.9144  0.0207  0.3139
 2326SOL    HW118614   3.018   2.870   0.418 -1.2041  0.1057  0.3852
 2326SOL    HW218615   3.075   2.852   0.285 -1.5953  0.4368 -0.9516
 2327SOL     OW18616   2.570   1.116   7.456  0.5456 -0.1280  0.1716
 2327SOL    HW118617   2.527   1.180   7.514 -0.2096 -0.0736 -0.4523
 2327SOL    HW218618   2.559   1.167   7.375 -0.8020  2.0721  1.7232
 2328SOL     OW18619   3.449   3.823   1.895 -0.2157  0.2756 -0.4111
 2328SOL    HW118620   3.443   3.873   1.976 -1.2629 -2.8235  1.4080
 2328SOL    HW218621   3.453   3.902   1.841 -1.7151  1.6448  1.5312
 2329SOL     OW18622   0.829   1.260   0.543 -0.0718 -0.4548  0.4836
 2329SOL    HW118623   0.748   1.305   0.518 -0.6980 -1.9293 -0.1220
 2329SOL    HW218624   0.895   1.319   0.507 -0.7459  0.4168  0.6636
 2330SOL     OW18625   1.717   2.533  13.880 -0.3054 -0.5025 -0.6088
 2330SOL    HW118626   1.803   2.525  13.840  0.6774  0.4151  1.2949
 2330SOL    HW218627   1.743   2.554  13.970  0.3604 -0.3835 -0.8334
 2331SOL     OW18628   3.465   1.057   1.520 -0.1987  0.2967  0.8206
 2331SOL    HW118629   3.454   1.151   1.511  1.2241  0.6120  2.3684
 2331SOL    HW218630   3.498   1.055   1.610  2.1492 -1.3760 -0.1014
 2332SOL     OW18631   0.448   0.270   4.560 -0.1473 -0.5391 -0.1171
 2332SOL    HW118632   0.432   0.176   4.551 -1.1973 -0.3426 -0.3089
 2332SOL    HW218633   0.430   0.276   4.654 -0.1898 -0.2080 -0.1473
 2333SOL     OW18634   2.995   4.426   6.771 -0.3702 -0.7683 -0.7277
 2333SOL    HW118635   3.074   4.375   6.752 -0.5196 -0.8974 -1.0030
 2333SOL    HW218636   2.960   4.376   6.844 -0.7873  1.0917  0.3475
 2334SOL     OW18637   0.108   3.287   4.492  0.1599 -0.2259 -0.2393
 2334SOL    HW118638   0.100   3.216   4.429  0.1481  0.1049 -0.6111
 2334SOL    HW218639   0.068   3.251   4.571  0.4183 -2.3109 -1.0760
 2335SOL     OW18640   3.872   3.668   9.077 -0.5020 -0.0515  0.2106
 2335SOL    HW118641   3.909   3.707   9.156 -1.0917 -1.7223  1.3034
 2335SOL    HW218642   3.784   3.707   9.069  0.0630  1.7332  2.9197
 2336SOL     OW18643   3.827   2.527  14.991 -0.1651  0.0459  0.0551
 2336SOL    HW118644   3.813   2.453  15.050  1.4584 -1.8894 -2.0230
 2336SOL    HW218645   3.757   2.582  15.028 -0.8965  0.2623 -1.6762
 2337SOL     OW18646   2.477   0.772   6.254  0.3884 -0.2936 -0.1571
 2337SOL    HW118647   2.382   0.769   6.265  0.3043 -1.6285 -1.2986
 2337SOL    HW218648   2.499   0.703   6.317 -0.9918 -0.5820  0.0102
 2338SOL     OW18649   1.355   0.546   5.694 -0.2335  0.6069  0.6403
 2338SOL    HW118650   1.274   0.576   5.735 -1.3341  0.0522 -1.1320
 2338SOL    HW218651   1.385   0.480   5.757  0.3504  0.4440  0.1937
 2339SOL     OW18652   3.792   2.105   1.624  0.4045 -0.3201 -0.1263
 2339SOL    HW118653   3.751   2.139   1.545 -0.8268 -0.4634  0.4492
 2339SOL    HW218654   3.720   2.057   1.665 -0.3042  2.7337  2.1783
 2340SOL     OW18655   2.035   1.957  12.370  0.5964  0.8159 -0.1804
 2340SOL    HW118656   2.067   1.880  12.417 -0.5178  0.1885 -0.4458
 2340SOL    HW218657   1.956   1.972  12.423  0.6738 -0.2576  0.2320
 2341SOL     OW18658   2.224   3.712   7.447  0.2731  0.0441 -0.0001
 2341SOL    HW118659   2.157   3.644   7.442 -0.1784  0.4021  1.2214
 2341SOL    HW218660   2.243   3.721   7.353 -1.1412  1.4630 -0.1435
 2342SOL     OW18661   4.246   3.053  17.039  0.2162  0.2482  0.0721
 2342SOL    HW118662   4.313   2.998  17.000  1.1162  1.1170  0.3901
 2342SOL    HW218663   4.168   2.998  17.042 -0.2126  0.9219  1.2965
 2343SOL     OW18664   0.530   0.727   1.656  0.1711  0.2060 -0.2911
 2343SOL    HW118665   0.480   0.760   1.582 -0.6119  0.0235  0.1616
 2343SOL    HW218666   0.461   0.693   1.713 -0.7705 -0.3876 -1.7896
 2344SOL     OW18667   4.484   0.183  10.428 -0.4195  0.1328 -0.0826
 2344SOL    HW118668   4.404   0.158  10.383  0.4498 -0.9856 -1.0037
 2344SOL    HW218669   4.539   0.111  10.397 -1.2223  0.2467 -1.7250
 2345SOL     OW18670   0.650   3.929   9.662 -0.2129  0.1294  0.2435
 2345SOL    HW118671   0.705   3.970   9.728  0.0799  0.9201 -0.4884
 2345SOL    HW218672   0.717   3.873   9.624 -0.2662 -0.5113  1.1102
 2346SOL     OW18673   0.299   0.898  14.181  0.0992  0.3585  0.5134
 2346SOL    HW118674   0.279   0.819  14.131  0.9056  0.2469  0.3687
 2346SOL    HW218675   0.392   0.909  14.160 -0.2680 -0.5973 -1.6407
 2347SOL     OW18676   2.954   3.343  12.166  0.4964 -0.8711 -0.1128
 2347SOL    HW118677   3.023   3.410  12.165 -0.2174 -0.1479 -0.1667
 2347SOL    HW218678   2.954   3.331  12.261  1.0043  4.1989  0.5313
 2348SOL     OW18679   4.639   3.506  10.742 -0.3295 -0.0130 -0.1941
 2348SOL    HW118680   4.639   3.601  10.733 -2.4065  0.0294  0.3430
 2348SOL    HW218681   4.688   3.496  10.824  1.3394 -1.0585 -1.3059
 2349SOL     OW18682   1.323   2.686   3.089 -0.2470 -0.1402 -0.3125
 2349SOL    HW118683   1.377   2.659   3.163  1.4408  1.3601 -1.0005
 2349SOL    HW218684   1.317   2.607   3.035 -0.1790 -0.9857  0.9227
 2350SOL     OW18685   0.046   3.198   3.433  0.2616  0.5831  0.6187
 2350SOL    HW118686   0.024   3.222   3.343 -0.7244  0.2410  0.7621
 2350SOL    HW218687   4.704   3.154   3.462  0.3689 -1.6374 -2.5978
 2351SOL     OW18688   4.450   3.953  14.136 -0.2110  0.4940 -0.3649
 2351SOL    HW118689   4.529   3.917  14.097 -1.4210 -1.3194 -1.1121
 2351SOL    HW218690   4.482   3.970  14.225  0.6637 -0.9087 -0.4026
 2352SOL     OW18691   1.515   4.064   3.803 -0.1374 -0.6155  0.5003
 2352SOL    HW118692   1.431   4.054   3.757  0.5207 -3.4316 -0.1140
 2352SOL    HW218693   1.575   4.027   3.739  2.5370  3.2380  0.7784
 2353SOL     OW18694   0.495   1.050   4.874  0.0018  0.2406 -0.8330
 2353SOL    HW118695   0.422   1.112   4.866 -0.1585  0.1194 -0.2782
 2353SOL    HW218696   0.454   0.981   4.926 -1.4286  0.9883 -0.9790
 2354SOL     OW18697   3.792   0.406   3.466 -0.1453 -0.9012  0.1497
 2354SOL    HW118698   3.825   0.325   3.426  1.5275  0.0461 -0.3901
 2354SOL    HW218699   3.720   0.441   3.414  0.7836  0.6885 -0.0422
 2355SOL     OW18700   1.538   4.534   9.959 -0.2160  0.1258  0.3943
 2355SOL    HW118701   1.606   4.568   9.901 -2.3237 -2.1408 -3.4261
 2355SOL    HW218702   1.569   4.444   9.970  0.8784  0.6259  1.4116
 2356SOL     OW18703   3.618   0.199  11.565 -0.6442 -0.3810  0.2523
 2356SOL    HW118704   3.692   0.222  11.509 -1.1823 -0.0647 -0.3281
 2356SOL    HW218705   3.640   0.108  11.584  1.9942 -0.3372 -2.7376
 2357SOL     OW18706   2.734   1.382   1.694  0.5685  0.7591 -0.4565
 2357SOL    HW118707   2.678   1.457   1.676 -2.0993 -0.5144  2.5802
 2357SOL    HW218708   2.673   1.328   1.745 -1.1544  3.2296  0.0609
 2358SOL     OW18709   3.757   1.679   5.037  0.5907 -0.1156  0.5188
 2358SOL    HW118710   3.730   1.767   5.010 -1.4932 -0.9273 -0.0040
 2358SOL    HW218711   3.825   1.704   5.099  0.0780  0.9066  0.6697
 2359SOL     OW18712   1.545   4.108   9.312  0.4166 -0.5163  0.6973
 2359SOL    HW118713   1.469   4.116   9.370 -1.5757 -3.0037 -1.5882
 2359SOL    HW218714   1.518   4.055   9.238 -1.3718  0.7202  0.4536
 2360SOL     OW18715   2.053   3.682   7.039  0.0380 -0.0766  0.0956
 2360SOL    HW118716   2.083   3.755   6.984 -0.1258  0.1565  0.3153
 2360SOL    HW218717   2.041   3.609   6.979  0.0229  0.1150 -0.1366
 2361SOL     OW18718   0.724   3.991   1.885  0.3544  0.0365  0.1047
 2361SOL    HW118719   0.630   4.001   1.875  0.9896  4.3431 -1.5381
 2361SOL    HW218720   0.744   3.900   1.861  1.5368  0.5654 -0.9045
 2362SOL     OW18721   1.492   0.545   8.521 -0.5558  0.2978 -0.3083
 2362SOL    HW118722   1.571   0.495   8.543 -1.1678 -0.5168  0.0427
 2362SOL    HW218723   1.519   0.627   8.562 -0.8069  0.0383  0.3776
 2363SOL     OW18724   2.879   0.634   6.053 -0.0557  0.3265  0.9295
 2363SOL    HW118725   2.961   0.676   6.028  1.0205 -2.3211  0.0579
 2363SOL    HW218726   2.900   0.578   6.128 -0.4643 -2.7886 -1.2738
 2364SOL     OW18727   4.524   1.091   3.916 -0.1638  0.5414  0.2236
 2364SOL    HW118728   4.584   1.149   3.963 -0.0785  0.6286  0.0086
 2364SOL    HW218729   4.482   1.042   3.986  0.0158  1.2493  0.8264
 2365SOL     OW18730   3.731   0.986   0.622  0.0162 -0.4748  0.7908
 2365SOL    HW118731   3.647   0.939   0.628  0.4144 -1.5736 -2.2167
 2365SOL    HW218732   3.794   0.925   0.661  2.0448  0.7667 -0.5471
 2366SOL     OW18733   2.763   0.181  16.257  0.1502 -0.5032  0.1135
 2366SOL    HW118734   2.726   0.240  16.192  0.2816  0.3966  0.8604
 2366SOL    HW218735   2.855   0.188  16.229 -0.4137  0.9234 -1.3781
 2367SOL     OW18736   3.677   1.924   4.974  0.0576 -0.1073  0.2477
 2367SOL    HW118737   3.593   1.892   4.942 -0.9693 -0.4031  3.2729
 2367SOL    HW218738   3.664   2.003   5.027 -2.2458 -1.2163  1.3272
 2368SOL     OW18739   1.479   2.294   6.813 -0.0395 -0.6295  0.6293
 2368SOL    HW118740   1.518   2.290   6.900  1.7190 -2.9982 -0.2509
 2368SOL    HW218741   1.481   2.388   6.796 -0.6199 -0.7700 -0.1858
 2369SOL     OW18742   4.308   1.558  17.079 -0.4254 -0.1099 -0.1259
 2369SOL    HW118743   4.375   1.580  17.144  0.5998 -2.3681 -0.3990
 2369SOL    HW218744   4.334   1.471  17.048 -2.1289 -0.4133 -0.6915
 2370SOL     OW18745   2.892   3.743   1.829  0.0181 -0.6971  0.3829
 2370SOL    HW118746   2.959   3.716   1.766 -0.2704 -1.3606  0.3683
 2370SOL    HW218747   2.948   3.771   1.901 -0.8983  2.9132 -0.2985
 2371SOL     OW18748   2.119   4.571   4.610  0.2132 -1.3529  0.5291
 2371SOL    HW118749   2.034   4.552   4.651  0.0347 -1.1306  0.2668
 2371SOL    HW218750   2.141   4.663   4.622 -0.3544 -0.7664 -3.0628
 2372SOL     OW18751   1.572   0.410   7.263  0.3179  0.0134 -0.9323
 2372SOL    HW118752   1.586   0.431   7.171  2.1748  1.2681 -0.3691
 2372SOL    HW218753   1.487   0.366   7.264  0.2204  0.2178  2.1194
 2373SOL     OW18754   1.132   2.522   3.313 -0.4180  0.7006 -0.0105
 2373SOL    HW118755   1.041   2.551   3.309 -0.0067  1.7442 -1.6995
 2373SOL    HW218756   1.141   2.456   3.382  2.1159 -1.0807 -2.0324
 2374SOL     OW18757   3.021   0.716   1.359 -0.5083  0.2458 -0.2319
 2374SOL    HW118758   2.928   0.705   1.377 -0.8972  0.0516 -2.3748
 2374SOL    HW218759   3.023   0.780   1.288  0.1008 -0.2285 -0.6401
 2375SOL     OW18760   2.625   2.996   8.001 -0.3990 -0.1262  0.3826
 2375SOL    HW118761   2.712   3.006   8.038  0.2183 -3.6181 -0.1744
 2375SOL    HW218762   2.562   3.036   8.062  0.2373 -1.0539  1.6371
 2376SOL     OW18763   4.211   4.594   8.346  0.6897 -0.4814 -1.0602
 2376SOL    HW118764   4.180   4.522   8.401 -0.8687  1.6721  0.8623
 2376SOL    HW218765   4.295   4.562   8.315 -0.4229 -2.5075 -1.9789
 2377SOL     OW18766   2.567   3.046  17.703  0.0072 -0.7740 -0.0759
 2377SOL    HW118767   2.541   3.020  17.615 -0.0227  0.7003 -0.5084
 2377SOL    HW218768   2.515   2.985   0.004  0.4742 -0.6951  0.4873
 2378SOL     OW18769   2.254   0.785   9.008  0.2120 -0.0166  0.0909
 2378SOL    HW118770   2.274   0.805   8.917 -0.4501 -0.9538 -0.2715
 2378SOL    HW218771   2.256   0.690   9.019 -2.4021 -0.1466 -0.4015
 2379SOL     OW18772   1.483   3.566   2.385 -0.4257  0.0315  0.4404
 2379SOL    HW118773   1.526   3.569   2.299 -2.0498 -1.2292 -0.4283
 2379SOL    HW218774   1.554   3.523   2.433  0.5758 -0.3318 -1.3400
 2380SOL     OW18775   4.167   0.562   5.433  1.0583 -0.0839  0.1385
 2380SOL    HW118776   4.103   0.507   5.387 -0.5383  2.9886 -1.2913
 2380SOL    HW218777   4.113   0.640   5.442  1.5356  0.5100 -2.1733
 2381SOL     OW18778   2.208   0.658   5.970  0.2255  0.0360 -0.1218
 2381SOL    HW118779   2.136   0.709   5.935 -0.6369 -0.6989  0.5769
 2381SOL    HW218780   2.243   0.622   5.889  2.6776 -1.5957  1.6625
 2382SOL     OW18781   1.795   4.540   8.768 -0.5057 -0.0937  0.3341
 2382SOL    HW118782   1.849   4.604   8.721  0.0684  0.2852  1.5035
 2382SOL    HW218783   1.780   4.584   8.852 -1.1220  2.9344 -1.3729
 2383SOL     OW18784   0.709   3.259   6.565 -0.0191 -0.1414  0.7908
 2383SOL    HW118785   0.716   3.327   6.497 -0.2954  2.9440  3.8584
 2383SOL    HW218786   0.615   3.247   6.579  0.0163  0.3415  1.4254
 2384SOL     OW18787   0.207   3.916  10.577 -1.0601  0.4956  0.3960
 2384SOL    HW118788   0.131   3.870  10.542 -0.1624  0.0944 -1.0101
 2384SOL    HW218789   0.163   3.990  10.618 -1.3824  0.6341 -0.2076
 2385SOL     OW18790   2.439   2.165   8.746  0.0491 -0.1535 -0.3180
 2385SOL    HW118791   2.491   2.245   8.738 -1.8399  1.2668  1.5676
 2385SOL    HW218792   2.415   2.152   8.654  0.2921 -1.7544 -0.1590
 2386SOL     OW18793   1.595   1.400   8.892  0.0998 -0.0499  0.1463
 2386SOL    HW118794   1.605   1.333   8.824 -1.1456  0.6880 -0.7591
 2386SOL    HW218795   1.534   1.467   8.862 -1.2963 -1.9247 -1.2127
 2387SOL     OW18796   3.575   0.577   7.774 -0.0014 -0.8377 -0.1769
 2387SOL    HW118797   3.636   0.567   7.847  0.9011 -0.6847 -0.9141
 2387SOL    HW218798   3.572   0.670   7.754  3.0626 -0.4806  0.9482
 2388SOL     OW18799   0.496   3.635   8.202 -0.1149  0.2697 -0.1477
 2388SOL    HW118800   0.499   3.581   8.123  1.9286  0.3728 -0.1392
 2388SOL    HW218801   0.589   3.654   8.211  0.4203 -2.6036  0.2678
 2389SOL     OW18802   2.336   2.519  12.220  1.4129 -0.1681 -0.2047
 2389SOL    HW118803   2.376   2.534  12.305  1.2222 -2.7487  0.3452
 2389SOL    HW218804   2.309   2.427  12.218 -1.1904  0.5575  2.1988
 2390SOL     OW18805   4.080   4.487   6.023  0.3398 -0.1549  0.7853
 2390SOL    HW118806   4.013   4.448   5.966 -0.3627  1.1913  0.6913
 2390SOL    HW218807   4.164   4.456   5.988  0.4194  0.4667  0.4089
 2391SOL     OW18808   1.145   2.885   6.493  0.7089  0.2773 -0.0020
 2391SOL    HW118809   1.049   2.884   6.496  0.6498  0.3739 -2.3807
 2391SOL    HW218810   1.155   2.929   6.409  0.6354  1.7672  0.7647
 2392SOL     OW18811   4.101   3.094  16.402 -0.6312 -0.1209  0.1504
 2392SOL    HW118812   4.135   3.160  16.341  1.8040 -2.0845 -0.6582
 2392SOL    HW218813   4.141   3.117  16.486  1.2296 -0.6350 -0.5783
 2393SOL     OW18814   0.235   1.424   9.446  0.1014 -0.1605  0.2857
 2393SOL    HW118815   0.177   1.360   9.487  0.9216 -0.1993  1.3863
 2393SOL    HW218816   0.317   1.395   9.486  0.5312  1.0723  0.3164
 2394SOL     OW18817   1.141   4.715   6.229 -0.1270  0.3001  0.1109
 2394SOL    HW118818   1.220   4.716   6.282 -0.4410  0.3666  0.5772
 2394SOL    HW218819   1.187   4.670   6.158 -1.1481 -0.9807  0.2604
 2395SOL     OW18820   4.575   2.032   2.333  0.2359  0.3317 -0.1256
 2395SOL    HW118821   4.541   2.042   2.243 -0.6391 -0.6363  0.0968
 2395SOL    HW218822   4.529   2.105   2.374 -1.3292 -0.0394 -1.1786
 2396SOL     OW18823   4.536   3.547   6.217  0.1531  0.6610 -0.2787
 2396SOL    HW118824   4.455   3.500   6.234  0.1019  0.8022 -0.1360
 2396SOL    HW218825   4.564   3.509   6.134 -1.5679 -2.1480  0.4545
 2397SOL     OW18826   1.301   2.190   5.007 -0.5739 -0.1576  0.4363
 2397SOL    HW118827   1.206   2.201   4.996 -0.3540  1.6146  0.4287
 2397SOL    HW218828   1.305   2.136   5.086  2.1692 -1.8338 -0.8436
 2398SOL     OW18829   0.841   0.184   2.692  0.8808  0.0104  0.0413
 2398SOL    HW118830   0.818   0.233   2.614 -1.7643 -0.2468  0.6755
 2398SOL    HW218831   0.851   0.259   2.750 -0.0290  0.4279 -0.3568
 2399SOL     OW18832   0.264   4.274   0.529 -0.2550 -0.2450 -0.0175
 2399SOL    HW118833   0.343   4.222   0.513 -2.0892 -3.6234  1.9294
 2399SOL    HW218834   0.203   4.232   0.468 -0.5647  0.5482 -0.2484
 2400SOL     OW18835   3.463   0.180   1.520 -0.0303  0.1991  0.5365
 2400SOL    HW118836   3.442   0.181   1.427  1.3072 -0.2436  0.2291
 2400SOL    HW218837   3.479   0.087   1.537 -0.6670 -0.1165 -0.6115
 2401SOL     OW18838   0.889   4.681   2.566  0.0112 -0.0295  0.0301
 2401SOL    HW118839   0.818   4.719   2.515  1.8060  1.3308 -1.4556
 2401SOL    HW218840   0.903   0.018   2.623  0.1427  0.0962 -0.1675
 2402SOL     OW18841   4.312   3.455  13.950  0.2403  0.6921  0.1482
 2402SOL    HW118842   4.228   3.485  13.916 -0.2877 -0.1496  0.7227
 2402SOL    HW218843   4.371   3.462  13.875 -0.0848  0.5095 -0.1259
 2403SOL     OW18844   3.183   2.894  15.724 -0.1179  0.2453  0.7028
 2403SOL    HW118845   3.231   2.909  15.642 -1.3820  0.2985 -0.0353
 2403SOL    HW218846   3.195   2.974  15.773  2.3734  0.1687  0.2064
 2404SOL     OW18847   1.270   1.883   4.364 -0.8522 -0.3346  0.1767
 2404SOL    HW118848   1.181   1.911   4.345 -0.5741  0.4982  0.0686
 2404SOL    HW218849   1.317   1.931   4.295  0.4082 -0.3802  1.0117
 2405SOL     OW18850   4.146   4.283  14.606 -0.0047 -0.7018 -0.0656
 2405SOL    HW118851   4.136   4.256  14.515  0.4273 -0.6056 -0.1392
 2405SOL    HW218852   4.145   4.198  14.652  0.6209  0.8988  2.8983
 2406SOL     OW18853   1.181   4.290   3.308  0.5991  0.4699 -0.0569
 2406SOL    HW118854   1.088   4.278   3.326  0.0696  1.8984 -1.8385
 2406SOL    HW218855   1.191   4.250   3.222  1.5165 -0.5682  0.5393
 2407SOL     OW18856   0.690   1.352  11.898  0.2894 -0.6804  0.0830
 2407SOL    HW118857   0.652   1.265  11.887 -0.0566 -0.2493 -2.0932
 2407SOL    HW218858   0.768   1.318  11.941 -0.6208  0.1425  2.4316
 2408SOL     OW18859   1.398   1.796   4.955  0.2971 -0.0433  0.4551
 2408SOL    HW118860   1.343   1.736   5.005  1.2506 -0.9018  0.4589
 2408SOL    HW218861   1.485   1.774   4.989 -0.0544 -0.1088  1.3330
 2409SOL     OW18862   2.612   3.275   6.645 -0.5229 -0.1185 -0.2780
 2409SOL    HW118863   2.559   3.319   6.711 -0.2177 -0.0107 -0.1021
 2409SOL    HW218864   2.591   3.327   6.567  0.1365  0.6565  0.0556
 2410SOL     OW18865   3.146   3.806  10.036 -0.1745  0.4702 -0.2660
 2410SOL    HW118866   3.207   3.736  10.013 -0.2954  0.0160  0.7987
 2410SOL    HW218867   3.068   3.760  10.067 -0.0594  0.0792 -0.5455
 2411SOL     OW18868   2.258   1.911   7.724 -0.7155  0.0179 -0.0659
 2411SOL    HW118869   2.295   1.929   7.637 -0.8626  0.5913 -0.0091
 2411SOL    HW218870   2.337   1.880   7.768  0.9609  2.5579 -1.3128
 2412SOL     OW18871   3.264   2.419  13.336  0.4746 -0.4740  0.2816
 2412SOL    HW118872   3.275   2.440  13.243  2.3180 -0.9379  0.4042
 2412SOL    HW218873   3.335   2.357  13.353  1.3844  1.0406  1.9193
 2413SOL     OW18874   3.305   0.247   5.252 -0.0581  0.5711  0.4225
 2413SOL    HW118875   3.268   0.173   5.204  0.2456  0.2608  0.6659
 2413SOL    HW218876   3.399   0.235   5.241  0.2466  2.6280  0.8426
 2414SOL     OW18877   3.907   3.261   6.398  0.1042  0.2869  0.1405
 2414SOL    HW118878   3.897   3.356   6.406  3.5245  0.3995  2.9351
 2414SOL    HW218879   3.863   3.242   6.481  1.0006 -1.6946  0.1335
 2415SOL     OW18880   3.252   3.923   7.671 -0.0707 -0.4381  0.3096
 2415SOL    HW118881   3.197   3.942   7.595 -0.3204  1.1701  0.8963
 2415SOL    HW218882   3.312   3.855   7.640 -1.2249 -0.9261 -0.8756
 2416SOL     OW18883   2.099   2.243   2.743 -0.4245  0.2386 -0.0154
 2416SOL    HW118884   2.078   2.302   2.816  0.3211  1.3482 -0.7030
 2416SOL    HW218885   2.174   2.287   2.704 -0.2309  0.5428  0.6916
 2417SOL     OW18886   4.480   0.301   9.670  0.4256  0.2051  0.1493
 2417SOL    HW118887   4.437   0.245   9.605 -0.0210  0.7098  0.0085
 2417SOL    HW218888   4.397   0.309   9.718  3.2185 -0.9304  5.1581
 2418SOL     OW18889   2.865   4.455   4.867  0.0018  0.3926 -0.5540
 2418SOL    HW118890   2.811   4.445   4.945  1.7274 -0.2586  0.5562
 2418SOL    HW218891   2.820   4.398   4.804 -2.6567  1.3275  0.5320
 2419SOL     OW18892   3.968   2.170  12.078 -0.1724 -0.1475  0.1423
 2419SOL    HW118893   3.876   2.162  12.054 -0.4017  3.4480 -0.2575
 2419SOL    HW218894   3.983   2.081  12.110  1.1225 -0.4814 -1.3711
 2420SOL     OW18895   3.843   0.879  11.694 -0.2885  0.5060 -0.0059
 2420SOL    HW118896   3.907   0.845  11.631 -0.6285  1.3546 -0.8214
 2420SOL    HW218897   3.776   0.812  11.682  2.4513 -2.0116 -1.0268
 2421SOL     OW18898   3.297   3.085   2.354 -0.2250  0.2262 -0.5737
 2421SOL    HW118899   3.357   3.011   2.352  1.4926  1.6100 -0.1005
 2421SOL    HW218900   3.359   3.155   2.373  1.0932 -1.3718  0.9482
 2422SOL     OW18901   1.789   0.212   6.073  0.1845  0.2020  0.6120
 2422SOL    HW118902   1.768   0.120   6.085 -0.2963  0.2736  0.3288
 2422SOL    HW218903   1.699   0.243   6.065 -0.3695 -1.8267 -0.9944
 2423SOL     OW18904   4.322   2.274   6.034  0.3053 -0.0621  0.1946
 2423SOL    HW118905   4.329   2.194   6.086  0.2359 -0.3646 -0.2559
 2423SOL    HW218906   4.362   2.248   5.951  0.6429 -0.2651  0.4231
 2424SOL     OW18907   2.103   0.175  12.092 -0.2228  0.6679 -0.4846
 2424SOL    HW118908   2.017   0.209  12.114 -0.5817 -2.4343  2.8084
 2424SOL    HW218909   2.133   0.238  12.026  0.0971  1.5089  0.4615
 2425SOL     OW18910   4.584   1.392   7.665 -0.5321  0.4696 -0.3746
 2425SOL    HW118911   4.618   1.461   7.609 -2.7393 -1.1559 -3.6950
 2425SOL    HW218912   4.639   1.319   7.635 -2.1675 -1.4000  1.2048
 2426SOL     OW18913   4.599   1.993   4.995 -0.6446 -0.2423  0.0456
 2426SOL    HW118914   4.667   2.051   5.030 -0.7200 -0.6080  0.7865
 2426SOL    HW218915   4.616   1.918   5.052 -0.4671 -1.1211 -1.1581
 2427SOL     OW18916   2.708   2.782   5.364  0.1497 -0.0735  0.2431
 2427SOL    HW118917   2.617   2.755   5.352  0.7547 -3.1348  2.4792
 2427SOL    HW218918   2.696   2.862   5.415  1.2731  1.0024 -1.1840
 2428SOL     OW18919   1.488   4.672  17.468 -0.0535 -0.5707 -0.2588
 2428SOL    HW118920   1.463   0.012  17.517 -2.1504 -1.6880  0.4854
 2428SOL    HW218921   1.567   4.635  17.507  0.0709  0.8933  0.8819
 2429SOL     OW18922   2.197   3.582   9.069 -0.1149 -0.1427  0.3303
 2429SOL    HW118923   2.243   3.499   9.077  1.2180  0.4237 -1.6030
 2429SOL    HW218924   2.125   3.542   9.021  0.6292 -1.5040  0.3474
 2430SOL     OW18925   3.305   2.197   2.829  0.5276  0.9316  0.0452
 2430SOL    HW118926   3.309   2.278   2.879 -1.4611 -0.6597  2.7720
 2430SOL    HW218927   3.390   2.158   2.847  0.7657  0.7815 -1.4410
 2431SOL     OW18928   0.391   0.900   6.784  0.1764 -0.3068  0.2602
 2431SOL    HW118929   0.388   0.808   6.758 -0.5302  0.2091 -1.4611
 2431SOL    HW218930   0.316   0.921   6.840  0.8856 -0.6119  1.3404
 2432SOL     OW18931   1.913   3.684   4.067 -0.4346 -0.2081 -0.3590
 2432SOL    HW118932   1.946   3.762   4.023 -1.7459 -0.0748 -1.1137
 2432SOL    HW218933   1.941   3.621   4.001 -0.5147  1.5279 -2.0430
 2433SOL     OW18934   4.021   3.727   1.741  0.4623  0.2943  0.3898
 2433SOL    HW118935   4.062   3.644   1.716  0.8274 -0.0092  2.0471
 2433SOL    HW218936   4.085   3.793   1.715 -0.4797  0.5314 -1.3712
 2434SOL     OW18937   1.324   4.161   6.199 -0.1298 -0.5166 -0.5267
 2434SOL    HW118938   1.416   4.183   6.184 -0.1855 -0.9606 -1.5583
 2434SOL    HW218939   1.330   4.067   6.180  1.6711 -0.6754  0.8692
 2435SOL     OW18940   1.472   0.529   1.444  0.1470  0.1663 -0.0199
 2435SOL    HW118941   1.489   0.480   1.524  0.8745  1.2507  0.4885
 2435SOL    HW218942   1.447   0.464   1.378  2.4510  0.6385 -1.3415
 2436SOL     OW18943   0.208   1.830   5.970 -0.6520  0.0984 -0.2120
 2436SOL    HW118944   0.221   1.776   5.892 -2.2085 -0.0728 -0.3578
 2436SOL    HW218945   0.177   1.907   5.923 -0.4395  0.0479 -0.4302
 2437SOL     OW18946   4.524   1.607  17.266 -0.2737 -0.5001  0.2362
 2437SOL    HW118947   4.517   1.573  17.355  1.7144 -3.0824 -0.5817
 2437SOL    HW218948   4.614   1.584  17.241  0.6794  2.4631  0.8658
 2438SOL     OW18949   1.969   3.126  10.003  0.4734  0.2795  0.2344
 2438SOL    HW118950   1.894   3.085  10.045 -0.5779 -0.9169 -2.7770
 2438SOL    HW218951   1.927   3.170   9.929 -0.6697  0.2675  0.8781
 2439SOL     OW18952   2.591   2.969   1.307 -0.0350 -0.3083  0.3343
 2439SOL    HW118953   2.549   2.884   1.324  0.0649 -0.3204  0.5153
 2439SOL    HW218954   2.648   2.935   1.238  1.4358 -1.3105  2.0638
 2440SOL     OW18955   3.199   2.178   4.204  0.1445  0.0384  0.3309
 2440SOL    HW118956   3.252   2.250   4.237  0.1718 -1.1487  2.8958
 2440SOL    HW218957   3.121   2.203   4.254  1.1240 -1.5021  2.6602
 2441SOL     OW18958   0.536   3.145  11.443  0.5986 -0.1241  0.1528
 2441SOL    HW118959   0.464   3.202  11.415 -0.3678 -0.9742  0.9367
 2441SOL    HW218960   0.586   3.150  11.361  0.5348  2.7154  0.2978
 2442SOL     OW18961   2.497   3.961   9.892  0.2155 -0.0179  0.0789
 2442SOL    HW118962   2.486   4.055   9.905 -0.4568  0.3889 -3.3644
 2442SOL    HW218963   2.592   3.954   9.882  0.2872 -0.7768  1.2535
 2443SOL     OW18964   3.682   1.737  17.406  0.2886 -0.5870 -0.3301
 2443SOL    HW118965   3.735   1.662  17.436 -0.7973 -1.5178 -0.7367
 2443SOL    HW218966   3.681   1.718  17.312  0.0329  1.0350 -0.6475
 2444SOL     OW18967   3.320   1.082  15.569 -0.0262  0.3568 -0.1956
 2444SOL    HW118968   3.378   1.136  15.624  0.2168  1.2393 -1.3110
 2444SOL    HW218969   3.276   1.019  15.626  0.9954 -1.1742 -1.0997
 2445SOL     OW18970   2.819   4.572   8.848 -0.2442  0.2692  0.0868
 2445SOL    HW118971   2.788   4.630   8.918 -1.2703  0.5137 -0.5708
 2445SOL    HW218972   2.911   4.595   8.840 -0.3087  0.7906  0.7886
 2446SOL     OW18973   3.341   2.766   6.801 -0.4173  1.0535 -0.0900
 2446SOL    HW118974   3.422   2.761   6.749 -1.2501 -1.2359 -1.1307
 2446SOL    HW218975   3.275   2.780   6.734 -0.5830 -0.1731 -0.1646
 2447SOL     OW18976   2.103   0.203  14.875 -0.2637  0.1278 -0.5112
 2447SOL    HW118977   2.044   0.165  14.810 -2.9442  1.4904  1.1578
 2447SOL    HW218978   2.104   0.293  14.844  2.6562 -0.9316 -3.5857
 2448SOL     OW18979   1.365   2.137  12.456  0.6339  0.4027  0.0694
 2448SOL    HW118980   1.299   2.158  12.522 -1.0827 -1.8570 -0.9631
 2448SOL    HW218981   1.312   2.124  12.378  0.0448  1.2185  0.3325
 2449SOL     OW18982   4.599   4.598   2.639  0.1352  0.0555 -0.2197
 2449SOL    HW118983   4.686   4.572   2.667  0.5648  0.3191 -1.3127
 2449SOL    HW218984   4.606   4.622   2.547 -4.1173  0.6780 -0.4049
 2450SOL     OW18985   0.503   2.488  14.779 -0.6474  0.0702 -0.3262
 2450SOL    HW118986   0.529   2.431  14.852 -2.6655 -1.3406 -0.7383
 2450SOL    HW218987   0.542   2.448  14.701  1.1440  2.4403 -0.6427
 2451SOL     OW18988   3.386   1.131   7.489  0.1308 -0.1201  0.3436
 2451SOL    HW118989   3.307   1.105   7.443 -1.2285  0.4865  2.3174
 2451SOL    HW218990   3.343   1.149   7.573 -0.3890  0.1216  0.0275
 2452SOL     OW18991   1.630   3.823  17.744  0.5355 -0.1364 -0.5471
 2452SOL    HW118992   1.631   3.828   0.089  0.4714 -0.3382 -0.5339
 2452SOL    HW218993   1.723   3.840  17.729  0.4936  1.5174  1.0707
 2453SOL     OW18994   1.435   3.417  14.392  0.3884  0.3901  0.2354
 2453SOL    HW118995   1.404   3.462  14.313  1.4120  0.0720 -0.3637
 2453SOL    HW218996   1.435   3.329  14.353  0.2814  0.2795  0.4883
 2454SOL     OW18997   1.805   3.340   4.167  0.1544 -0.1195  1.0988
 2454SOL    HW118998   1.769   3.394   4.097  1.4169 -0.7895 -0.0528
 2454SOL    HW218999   1.879   3.301   4.121  0.7958  2.7435 -0.2889
 2455SOL     OW19000   3.933   1.404   3.735  0.0621 -0.3779  0.1385
 2455SOL    HW119001   4.004   1.449   3.782  0.0456 -0.1006 -0.1037
 2455SOL    HW219002   3.863   1.462   3.766  2.9992  2.3727  1.6211
 2456SOL     OW19003   4.712   1.964   1.759  0.0558 -0.1358 -0.1330
 2456SOL    HW119004   4.706   2.055   1.788 -1.4868  0.1311 -1.2515
 2456SOL    HW219005   0.064   1.953   1.731  0.9731  0.6906  2.4660
 2457SOL     OW19006   2.926   0.811  10.980 -0.3915  0.4764  0.0371
 2457SOL    HW119007   2.895   0.787  11.068 -1.0032  3.0979  0.5695
 2457SOL    HW219008   2.998   0.748  10.972 -1.3838 -0.4268 -1.6725
 2458SOL     OW19009   3.212   0.913   7.658  0.0064 -0.4310 -0.2222
 2458SOL    HW119010   3.254   0.985   7.705 -1.1650  0.0483  0.1042
 2458SOL    HW219011   3.199   0.967   7.579 -3.4077  1.9892  1.9729
 2459SOL     OW19012   1.359   4.178   7.551 -0.3704 -0.1067  0.2647
 2459SOL    HW119013   1.354   4.274   7.555  1.9907  0.0142  0.3728
 2459SOL    HW219014   1.280   4.150   7.598 -0.9499 -0.4035 -0.8873
 2460SOL     OW19015   4.029   1.070   5.340 -0.0812  0.1037 -1.2875
 2460SOL    HW119016   3.980   1.057   5.258 -2.3393 -1.0100  0.2271
 2460SOL    HW219017   3.997   1.156   5.368 -0.1211 -0.9003  1.7693
 2461SOL     OW19018   0.180   2.331  13.944  0.2818  0.6965  0.0230
 2461SOL    HW119019   0.271   2.344  13.973  0.6829 -1.0694 -0.4574
 2461SOL    HW219020   0.132   2.276  14.006 -2.3439  1.3629 -1.4229
 2462SOL     OW19021   2.782   1.155   5.108 -0.2318 -0.4530 -0.3810
 2462SOL    HW119022   2.827   1.086   5.158  2.1405 -0.1809 -2.1316
 2462SOL    HW219023   2.804   1.233   5.158 -1.5787 -0.6983  0.6101
 2463SOL     OW19024   2.624   1.719   8.159 -0.2945 -0.1648  0.2000
 2463SOL    HW119025   2.681   1.648   8.128 -1.6383  0.1384 -3.0520
 2463SOL    HW219026   2.636   1.717   8.254 -0.6638 -1.4893  0.2239
 2464SOL     OW19027   3.484   1.230   3.644  0.9159 -0.1727  0.2816
 2464SOL    HW119028   3.539   1.199   3.572 -1.7785 -1.6779 -1.1100
 2464SOL    HW219029   3.404   1.257   3.600 -0.0530 -1.5579  1.1987
 2465SOL     OW19030   0.242   4.198   3.325 -0.5200 -0.5451  0.1168
 2465SOL    HW119031   0.221   4.104   3.317  0.2206 -0.7153  0.1723
 2465SOL    HW219032   0.262   4.222   3.235 -0.2641 -0.3939  0.2151
 2466SOL     OW19033   0.601   2.922   8.174 -0.7239  0.1211  0.2361
 2466SOL    HW119034   0.636   3.010   8.163 -0.9386  0.0436 -1.0963
 2466SOL    HW219035   0.651   2.886   8.248  0.1795 -1.2943 -1.0458
 2467SOL     OW19036   1.734   1.894   6.878  0.4028 -0.0509  0.2688
 2467SOL    HW119037   1.725   1.958   6.808 -1.0298  1.8246  2.2009
 2467SOL    HW219038   1.766   1.950   6.948 -2.0997  1.8162 -0.1041
 2468SOL     OW19039   4.339   0.490   6.943 -0.6828 -1.1261  0.0440
 2468SOL    HW119040   4.330   0.574   6.898  1.3360 -1.3951 -0.8746
 2468SOL    HW219041   4.277   0.503   7.015 -0.7381  0.6325 -0.3260
 2469SOL     OW19042   1.508   0.210  14.253 -0.4014 -0.0936  0.4515
 2469SOL    HW119043   1.518   0.115  14.257 -0.4946 -0.2170 -2.2895
 2469SOL    HW219044   1.591   0.235  14.213 -1.4548  2.1651 -0.2821
 2470SOL     OW19045   2.392   0.959   9.676 -0.4010 -0.6934 -0.2080
 2470SOL    HW119046   2.310   1.003   9.655  0.3333  0.6079 -0.4297
 2470SOL    HW219047   2.451   1.022   9.633 -4.1485  1.9746 -1.3750
 2471SOL     OW19048   1.353   2.175   8.772  0.8826 -0.0884  0.2343
 2471SOL    HW119049   1.338   2.094   8.821  0.0952 -1.2372 -1.9219
 2471SOL    HW219050   1.299   2.230   8.828  0.6211  1.3864 -1.4580
 2472SOL     OW19051   0.570   3.462  17.199  0.3920 -0.0054  0.2986
 2472SOL    HW119052   0.648   3.407  17.204 -1.7731 -2.9407  1.4067
 2472SOL    HW219053   0.603   3.530  17.140  0.2112 -0.1730  0.0080
 2473SOL     OW19054   0.916   1.963   5.426  0.2252 -0.1685 -0.0765
 2473SOL    HW119055   0.939   1.919   5.508 -0.8820  0.8248  0.7590
 2473SOL    HW219056   0.981   1.917   5.373 -0.0323 -0.1843 -0.3729
 2474SOL     OW19057   2.636   2.779   4.452 -0.1661 -0.5651 -0.1086
 2474SOL    HW119058   2.709   2.721   4.474  1.4119  0.8144 -1.7033
 2474SOL    HW219059   2.607   2.726   4.377  1.5278 -2.1504  0.3451
 2475SOL     OW19060   4.358   3.539  15.766  0.1226  0.2663 -0.5285
 2475SOL    HW119061   4.393   3.574  15.848 -1.2659 -1.2359  0.7217
 2475SOL    HW219062   4.287   3.480  15.791 -0.2898  0.3466 -1.5305
 2476SOL     OW19063   1.272   1.001   2.968 -0.1923 -0.0731 -0.3736
 2476SOL    HW119064   1.231   1.087   2.956  1.3504  0.5450 -1.2335
 2476SOL    HW219065   1.192   0.962   3.004  0.6584  0.5404  2.2239
 2477SOL     OW19066   2.701   1.369   7.814 -0.0358 -0.3095 -0.3354
 2477SOL    HW119067   2.678   1.462   7.818  1.3464 -0.1275  3.6903
 2477SOL    HW219068   2.696   1.354   7.720 -3.1139  3.0400 -0.7058
 2478SOL     OW19069   4.691   3.273  10.603  0.2040  0.4058  0.0179
 2478SOL    HW119070   4.608   3.233  10.628  0.0751 -0.1670 -1.3231
 2478SOL    HW219071   4.684   3.348  10.663 -0.9130  0.2125  0.1291
 2479SOL     OW19072   3.543   4.671  10.672 -0.2215  0.6005  0.0471
 2479SOL    HW119073   3.487   0.010  10.670 -1.2465 -0.1806 -1.9724
 2479SOL    HW219074   3.477   4.607  10.698  0.7614 -1.0773 -1.5605
 2480SOL     OW19075   0.058   0.664   3.614  0.4766 -0.4942  0.4596
 2480SOL    HW119076   0.085   0.582   3.654  2.3252 -0.4123 -0.6427
 2480SOL    HW219077   0.113   0.728   3.659 -0.4057  0.3077  0.4056
 2481SOL     OW19078   2.765   4.149  15.259 -0.1113  0.2822 -0.3518
 2481SOL    HW119079   2.702   4.204  15.213  0.5464  0.4141 -1.1017
 2481SOL    HW219080   2.757   4.178  15.349 -0.1190 -0.6276 -0.0534
 2482SOL     OW19081   2.788   2.659   4.982  0.1474 -0.3473  0.0698
 2482SOL    HW119082   2.793   2.625   4.893  0.4470 -1.5663  0.5423
 2482SOL    HW219083   2.698   2.691   4.979 -0.1440 -0.8104  3.7635
 2483SOL     OW19084   0.081   1.940  10.086 -0.3094  0.6505  0.0141
 2483SOL    HW119085   0.153   1.928  10.025  0.0023 -0.1662  0.5350
 2483SOL    HW219086   0.120   1.968  10.169  4.0436 -0.4887 -1.6588
 2484SOL     OW19087   3.205   2.376  10.389 -0.3798  0.0145  0.5660
 2484SOL    HW119088   3.195   2.402  10.298 -0.6771  0.7066  0.7926
 2484SOL    HW219089   3.135   2.311  10.390  0.5091 -0.9183  1.3778
 2485SOL     OW19090   0.345   4.106   7.938  0.5137  0.1256  0.2153
 2485SOL    HW119091   0.251   4.092   7.927  0.5572  1.2018 -1.4159
 2485SOL    HW219092   0.378   4.017   7.924 -4.2338 -0.9896 -3.7057
 2486SOL     OW19093   4.423   4.658   3.642  0.1133 -0.5035  0.4368
 2486SOL    HW119094   4.486   4.660   3.714  0.5617 -2.1233  0.0905
 2486SOL    HW219095   4.464   4.726   3.588  0.7236  0.2983  1.9128
 2487SOL     OW19096   3.799   2.630   2.255 -0.0129  0.0661 -0.2478
 2487SOL    HW119097   3.891   2.610   2.235  1.4773  5.1845  1.3264
 2487SOL    HW219098   3.787   2.711   2.204 -1.1187  0.8468  1.2644
 2488SOL     OW19099   3.352   4.000   4.634 -0.3268 -0.1931 -0.1394
 2488SOL    HW119100   3.303   3.918   4.636  0.9919 -0.9511  1.1662
 2488SOL    HW219101   3.366   4.000   4.539 -0.0622 -0.7519 -0.0995
 2489SOL     OW19102   0.253   1.495   2.226 -0.3885 -0.2054  0.1568
 2489SOL    HW119103   0.207   1.434   2.283  0.2432 -4.5197 -3.9344
 2489SOL    HW219104   0.330   1.446   2.197  0.6083  1.4850 -0.0916
 2490SOL     OW19105   2.311   1.645  11.823 -0.0149 -0.0116  0.5298
 2490SOL    HW119106   2.333   1.729  11.864  0.8845  0.3546 -0.7149
 2490SOL    HW219107   2.342   1.585  11.892  0.1942  1.3888  1.6629
 2491SOL     OW19108   1.867   1.715  14.406 -0.8524  0.3217  0.0987
 2491SOL    HW119109   1.809   1.787  14.379 -1.4058  0.2273  1.0457
 2491SOL    HW219110   1.840   1.706  14.497 -0.5357 -0.0789  0.1528
 2492SOL     OW19111   0.736   0.183   1.729  0.0949  0.3896 -0.5381
 2492SOL    HW119112   0.671   0.112   1.732 -0.3820  0.7033 -4.2154
 2492SOL    HW219113   0.670   0.247   1.704 -0.0303  0.5695  0.2309
 2493SOL     OW19114   3.430   4.065   9.239 -0.6003  0.1405  0.8756
 2493SOL    HW119115   3.496   4.050   9.170  0.7510  0.5979  2.0640
 2493SOL    HW219116   3.383   3.982   9.243  0.4797 -0.5521 -0.6206
 2494SOL     OW19117   1.086   0.465   2.542 -0.0268  0.5097  0.1748
 2494SOL    HW119118   1.110   0.418   2.621  0.2816 -0.0941 -0.2812
 2494SOL    HW219119   1.009   0.414   2.515 -0.3328  0.5557  0.9549
 2495SOL     OW19120   2.904   1.988   0.118 -0.6547  0.1191 -0.0300
 2495SOL    HW119121   2.927   2.058   0.180 -1.2835  1.3474 -1.1656
 2495SOL    HW219122   2.990   1.968   0.081  0.6510  0.7108  2.6796
 2496SOL     OW19123   0.801   0.007   3.720 -0.7280  0.9027 -0.3591
 2496SOL    HW119124   0.827   4.675   3.780 -1.9815  0.8626  0.1334
 2496SOL    HW219125   0.769   0.075   3.780  1.6138 -0.0973  1.9997
 2497SOL     OW19126   2.517   0.484   1.393 -0.3371 -0.1338  0.4097
 2497SOL    HW119127   2.571   0.537   1.452 -0.0087 -0.0789  0.0570
 2497SOL    HW219128   2.495   0.534   1.315 -0.4698  0.3080  0.7338
 2498SOL     OW19129   0.295   2.703  17.252 -0.5118 -0.3235  0.9044
 2498SOL    HW119130   0.217   2.665  17.212  1.3217 -1.6459 -1.4483
 2498SOL    HW219131   0.277   2.668  17.340 -2.6138  0.3732  0.7565
 2499SOL     OW19132   2.640   3.102   8.526 -0.0868  0.2276  0.0371
 2499SOL    HW119133   2.557   3.064   8.499 -0.0042  0.2044 -0.1842
 2499SOL    HW219134   2.684   3.032   8.572 -0.7195 -0.1794  0.0192
 2500SOL     OW19135   3.380   1.759   2.304 -0.4039  0.0180  0.2434
 2500SOL    HW119136   3.474   1.746   2.321 -0.3349  1.7741  1.2271
 2500SOL    HW219137   3.387   1.854   2.302 -2.6043  0.1733  0.6576
 2501SOL     OW19138   2.394   3.255   6.860 -0.5762  0.7153  0.0698
 2501SOL    HW119139   2.309   3.260   6.817 -1.2089  0.2784  1.2730
 2501SOL    HW219140   2.366   3.252   6.951  1.6244 -1.1669  0.6921
 2502SOL     OW19141   0.341   3.397   4.376  0.6623  0.4896  0.6259
 2502SOL    HW119142   0.261   3.382   4.427  1.6015 -3.0604  1.0834
 2502SOL    HW219143   0.399   3.427   4.446  1.8020 -1.4133  0.5151
 2503SOL     OW19144   4.687   4.011   0.463 -0.0140  0.0545 -0.5729
 2503SOL    HW119145   4.722   3.922   0.464 -1.3377 -0.4525  0.1214
 2503SOL    HW219146   4.660   4.034   0.552 -1.4581  0.1078 -1.0341
 2504SOL     OW19147   2.979   3.128  14.686 -0.3554  0.2030  0.0702
 2504SOL    HW119148   2.913   3.169  14.741 -0.0571 -0.8283  1.1935
 2504SOL    HW219149   3.060   3.162  14.724 -0.4897 -0.3636  0.8616
 2505SOL     OW19150   1.545   2.682   0.181 -0.8971 -0.0687  0.6692
 2505SOL    HW119151   1.479   2.696   0.249 -2.0508 -3.2031  0.1878
 2505SOL    HW219152   1.492   2.648   0.109  0.7977  0.8383 -0.9943
 2506SOL     OW19153   0.807   3.343  10.536 -0.2084  0.0238  0.0328
 2506SOL    HW119154   0.873   3.393  10.583  0.2457  1.3630 -2.0258
 2506SOL    HW219155   0.864   3.281  10.489  0.1644 -0.4772  1.1592
 2507SOL     OW19156   0.389   0.861   8.130  0.5779  0.2129  0.2779
 2507SOL    HW119157   0.390   0.905   8.215 -0.9635  1.6343 -0.4428
 2507SOL    HW219158   0.468   0.807   8.133  0.7336  0.4233 -0.1319
 2508SOL     OW19159   3.123   1.408   2.565 -0.0394 -0.4218 -0.1943
 2508SOL    HW119160   3.029   1.406   2.583  0.5418  0.5715  3.0460
 2508SOL    HW219161   3.138   1.488   2.516  0.4208 -0.1411  0.4011
 2509SOL     OW19162   0.528   2.611   7.885 -0.3883 -0.1156  0.4709
 2509SOL    HW119163   0.534   2.522   7.919  0.3593  0.5052  1.9779
 2509SOL    HW219164   0.605   2.651   7.925 -0.4136  0.5667 -0.1629
 2510SOL     OW19165   1.048   1.326   3.355  0.2034  0.3558 -0.3039
 2510SOL    HW119166   1.098   1.267   3.412 -1.0848 -0.1197  0.3144
 2510SOL    HW219167   0.994   1.379   3.413  1.1711  0.9640  0.0368
 2511SOL     OW19168   3.947   3.555  16.008 -0.3566  0.6475  0.3422
 2511SOL    HW119169   4.039   3.540  16.033 -0.6857 -2.1382 -0.0578
 2511SOL    HW219170   3.961   3.600  15.925  0.1157 -1.2395 -0.6188
 2512SOL     OW19171   0.201   1.614  14.516 -0.4849 -0.0260 -0.6171
 2512SOL    HW119172   0.195   1.536  14.460 -3.3502 -0.3880  0.2092
 2512SOL    HW219173   0.159   1.580  14.594 -0.9626  1.3998 -0.2685
 2513SOL     OW19174   1.979   0.534   1.760  0.3608 -0.0699  0.8326
 2513SOL    HW119175   1.970   0.470   1.831 -0.5689  0.7815  1.4859
 2513SOL    HW219176   1.927   0.606   1.796 -3.6961 -2.4468 -0.3153
 2514SOL     OW19177   4.249   3.356   9.099 -0.1690  0.0978  0.0611
 2514SOL    HW119178   4.252   3.263   9.078 -0.9829  0.2571 -0.7682
 2514SOL    HW219179   4.338   3.392   9.102 -0.1959  0.0699  0.9880
 2515SOL     OW19180   4.371   2.537   5.471 -0.9619 -0.1966  0.2768
 2515SOL    HW119181   4.432   2.501   5.535 -1.3178  0.2673  0.8783
 2515SOL    HW219182   4.374   2.462   5.412 -0.8196 -0.4395  0.5964
 2516SOL     OW19183   0.335   0.917   8.738  0.5451  0.5415 -0.0833
 2516SOL    HW119184   0.333   0.834   8.691  0.1289 -0.3085  1.4425
 2516SOL    HW219185   0.396   0.896   8.809 -0.8365  0.5236  1.0941
 2517SOL     OW19186   2.157   4.578   6.048  0.0492  0.5580  0.1635
 2517SOL    HW119187   2.165   4.485   6.026 -1.4862  0.0085  1.9678
 2517SOL    HW219188   2.203   4.588   6.131  0.2892 -1.3958  0.2808
 2518SOL     OW19189   0.971   3.810   4.028  0.0855  0.3390 -0.1044
 2518SOL    HW119190   0.936   3.741   4.085  0.0330  1.9529  1.7898
 2518SOL    HW219191   0.914   3.808   3.951 -0.6623  2.5969  0.4041
 2519SOL     OW19192   2.148   1.933  11.066  0.2460 -0.3692 -0.3860
 2519SOL    HW119193   2.219   1.892  11.115  0.8343 -0.1694 -1.0704
 2519SOL    HW219194   2.088   1.860  11.049 -0.7249  0.2083  0.5744
 2520SOL     OW19195   3.453   1.607   1.385  0.3054 -0.1535  0.3785
 2520SOL    HW119196   3.497   1.623   1.301  1.9990  0.3064  1.3547
 2520SOL    HW219197   3.423   1.517   1.377  2.0222 -0.7552  0.7412
 2521SOL     OW19198   0.515   4.697   2.770  0.1713  0.1377 -0.6250
 2521SOL    HW119199   0.546   4.622   2.719 -0.6069  0.3961 -1.4846
 2521SOL    HW219200   0.570   4.684   2.847  1.5606 -1.8210 -1.9531
 2522SOL     OW19201   3.224   1.828   2.929 -0.0694 -0.1940 -0.5358
 2522SOL    HW119202   3.287   1.862   2.991 -0.8036  0.7661 -0.3248
 2522SOL    HW219203   3.246   1.857   2.840 -2.6208  0.3810 -0.9847
 2523SOL     OW19204   2.445   4.737   4.601 -0.4024 -0.2880  1.1910
 2523SOL    HW119205   2.481   4.657   4.563  0.7628  2.2583 -3.0139
 2523SOL    HW219206   2.527   0.036   4.633  0.0558 -0.5198  0.2626
 2524SOL     OW19207   4.135   0.177   5.767  0.1652 -0.6544  1.3613
 2524SOL    HW119208   4.121   0.264   5.731 -0.8868 -0.9126  1.1395
 2524SOL    HW219209   4.051   0.140   5.739  0.9560 -0.8952 -0.6546
 2525SOL     OW19210   3.733   1.824   4.588  0.2828 -0.1788  0.1270
 2525SOL    HW119211   3.680   1.894   4.549 -0.2788 -0.7140 -0.0833
 2525SOL    HW219212   3.797   1.822   4.517  0.6001 -0.0555  0.4121
 2526SOL     OW19213   2.815   0.177   2.540 -0.1355 -0.0809  0.2521
 2526SOL    HW119214   2.759   0.237   2.589  0.4328 -0.2419  1.1222
 2526SOL    HW219215   2.905   0.194   2.569 -0.1984 -1.0764  1.0510
 2527SOL     OW19216   0.080   4.259  13.032  0.0607 -0.2429  0.4251
 2527SOL    HW119217   4.723   4.274  13.027  0.2241  1.5467  3.1939
 2527SOL    HW219218   0.109   4.266  12.941  0.7596  0.5652  0.7195
 2528SOL     OW19219   1.032   2.003   8.230 -0.2241  0.1069  0.0574
 2528SOL    HW119220   1.106   1.974   8.177 -0.9736 -0.1522 -0.8513
 2528SOL    HW219221   0.999   1.923   8.272 -0.9901 -0.3119 -1.3610
 2529SOL     OW19222   1.140   0.555   9.185  0.0408 -0.2648 -0.0777
 2529SOL    HW119223   1.081   0.489   9.223  0.1589  0.7112  1.7546
 2529SOL    HW219224   1.167   0.592   9.269  1.2827  3.2526 -2.0392
 2530SOL     OW19225   2.759   1.998   7.448 -0.1460  0.0860 -0.1953
 2530SOL    HW119226   2.720   1.911   7.455 -0.1603  0.0390 -0.8264
 2530SOL    HW219227   2.704   2.050   7.506 -1.1333 -0.5036 -0.6085
 2531SOL     OW19228   4.445   3.156   7.902 -0.1392  0.7128  0.2365
 2531SOL    HW119229   4.441   3.247   7.931 -0.3695  0.2376  1.6719
 2531SOL    HW219230   4.538   3.156   7.880 -0.7861  2.0097 -2.5273
 2532SOL     OW19231   2.679   0.374   6.969  0.1389  0.3119 -0.3037
 2532SOL    HW119232   2.716   0.451   6.927  1.3895 -0.3617 -0.4438
 2532SOL    HW219233   2.661   0.406   7.057  1.2738  1.6673 -0.5766
 2533SOL     OW19234   0.886   4.711   6.052  0.1246 -0.2618 -0.0272
 2533SOL    HW119235   0.893   4.720   5.957  0.4082  1.7541  0.1777
 2533SOL    HW219236   0.977   4.719   6.083  0.5253  0.1566 -1.2855
 2534SOL     OW19237   3.228   3.442   3.527  0.0309 -0.4063 -0.6275
 2534SOL    HW119238   3.316   3.409   3.510  0.0686 -1.6042  1.9237
 2534SOL    HW219239   3.260   3.525   3.561 -1.0185 -0.2832  0.0665
 2535SOL     OW19240   2.058   2.542   7.140  0.5662  0.4754  0.1847
 2535SOL    HW119241   2.084   2.634   7.138  2.9723 -0.2047 -0.2959
 2535SOL    HW219242   2.145   2.503   7.128  0.6675  1.3432 -1.9796
 2536SOL     OW19243   2.295   3.089   2.547  0.0640  0.0496  0.0620
 2536SOL    HW119244   2.203   3.080   2.574 -0.4797  2.0708 -1.1048
 2536SOL    HW219245   2.305   3.184   2.557 -1.5944  0.0530  1.6518
 2537SOL     OW19246   0.740   3.746   3.849 -0.2797 -0.0947  0.1302
 2537SOL    HW119247   0.667   3.695   3.885  0.3286 -0.3806  0.9437
 2537SOL    HW219248   0.700   3.765   3.764 -2.3864 -1.2783  0.8535
 2538SOL     OW19249   2.699   4.576   1.753  0.1420  0.6443 -0.1096
 2538SOL    HW119250   2.695   4.500   1.811 -0.3451 -0.7793 -1.9786
 2538SOL    HW219251   2.756   4.636   1.801  1.8241  0.0774 -1.3896
 2539SOL     OW19252   1.637   0.871   4.280 -0.3001  0.0099 -0.1919
 2539SOL    HW119253   1.653   0.786   4.321 -0.4573 -0.8409 -1.9221
 2539SOL    HW219254   1.588   0.916   4.348 -0.3358  1.4243 -1.1539
 2540SOL     OW19255   4.435   3.637  15.024  0.2237 -0.0629  0.3863
 2540SOL    HW119256   4.340   3.642  15.016  0.1760 -2.7050 -0.8397
 2540SOL    HW219257   4.451   3.549  15.059 -1.0949  0.0344  1.2269
 2541SOL     OW19258   0.539   1.205  10.057  0.6475 -0.0625 -0.4937
 2541SOL    HW119259   0.574   1.278  10.006 -0.4145  1.1318  0.4661
 2541SOL    HW219260   0.456   1.188  10.014  0.0966 -0.8809  0.8703
 2542SOL     OW19261   3.606   4.280   2.932  0.4822  0.4792  0.6015
 2542SOL    HW119262   3.534   4.219   2.948  0.3178  0.2017 -1.2528
 2542SOL    HW219263   3.646   4.281   3.019 -0.4161 -1.4899  1.0513
 2543SOL     OW19264   1.964   1.725   5.998 -0.3960  0.1791  0.3908
 2543SOL    HW119265   1.910   1.802   6.016  0.8224  0.6439  2.0180
 2543SOL    HW219266   1.941   1.670   6.073 -2.4599 -0.1593 -0.4909
 2544SOL     OW19267   2.928   3.107   4.408  0.0638 -0.1354 -0.4724
 2544SOL    HW119268   2.975   3.094   4.491  0.7534  1.3596 -0.6280
 2544SOL    HW219269   2.999   3.146   4.356  0.4157  0.9614  0.8252
 2545SOL     OW19270   2.071   2.085   4.443 -0.2340  0.0227 -0.0019
 2545SOL    HW119271   2.097   2.089   4.350 -0.2167  0.8661  0.0367
 2545SOL    HW219272   2.059   2.180   4.444  1.9572  0.2473  4.5727
 2546SOL     OW19273   2.449   0.424  10.624  0.0216  0.0439  0.2408
 2546SOL    HW119274   2.518   0.489  10.610 -0.2643  0.1726 -0.5909
 2546SOL    HW219275   2.492   0.339  10.626  1.0706  0.5566 -0.4543
 2547SOL     OW19276   0.292   3.997   3.618  0.2700 -0.0758  0.1123
 2547SOL    HW119277   0.309   4.091   3.621 -0.9293  0.1221  1.1345
 2547SOL    HW219278   0.369   3.959   3.659 -0.0481  0.5485  1.3183
 2548SOL     OW19279   0.053   4.448   3.729  0.4453  0.2943 -0.5920
 2548SOL    HW119280   0.074   4.397   3.651  1.3593  1.9265 -1.4240
 2548SOL    HW219281   0.069   4.379   3.793  0.9533 -0.1413 -1.1832
 2549SOL     OW19282   4.488   3.215   6.117  0.7832 -0.6125 -1.3360
 2549SOL    HW119283   4.531   3.291   6.078 -0.3742 -0.7702 -2.8884
 2549SOL    HW219284   4.410   3.258   6.153  1.1376 -0.3858 -0.8289
 2550SOL     OW19285   3.356   3.336   8.738  0.8830 -1.0361  0.4482
 2550SOL    HW119286   3.402   3.301   8.814  3.6804  1.9286  0.1445
 2550SOL    HW219287   3.344   3.429   8.756 -3.6759 -1.3946 -0.9211
 2551SOL     OW19288   3.497   3.770   6.259  0.1501 -0.2633 -0.4612
 2551SOL    HW119289   3.582   3.733   6.283  0.3631  0.2798 -0.3737
 2551SOL    HW219290   3.512   3.862   6.236 -0.9333 -0.8072 -3.3128
 2552SOL     OW19291   2.334   1.075   8.663 -0.6805 -0.5612  0.1380
 2552SOL    HW119292   2.352   0.984   8.684  0.6188 -0.1993  0.6411
 2552SOL    HW219293   2.346   1.073   8.568 -2.6565  0.8154 -0.1334
 2553SOL     OW19294   4.109   1.631  17.240  0.2085  0.2959 -0.2693
 2553SOL    HW119295   4.189   1.616  17.190 -0.5931 -1.5986 -0.9946
 2553SOL    HW219296   4.128   1.715  17.281 -2.6975 -0.3104  2.3652
 2554SOL     OW19297   0.364   4.217   2.668  0.7678  0.7639 -0.1141
 2554SOL    HW119298   0.449   4.254   2.690  0.3770  2.3330 -1.1528
 2554SOL    HW219299   0.373   4.214   2.572  1.1958 -2.5025  0.0539
 2555SOL     OW19300   0.206   0.862  15.509  0.0573 -0.3572 -0.8849
 2555SOL    HW119301   0.293   0.825  15.493 -0.8718 -2.4172 -1.1930
 2555SOL    HW219302   0.207   0.901  15.596 -1.3315  0.7301 -1.3539
 2556SOL     OW19303   1.327   4.046   2.008  0.3380 -0.1912  0.3213
 2556SOL    HW119304   1.333   4.037   1.913 -0.9137 -1.1980  0.3359
 2556SOL    HW219305   1.242   4.089   2.017 -0.4789 -1.0269 -3.3422
 2557SOL     OW19306   1.839   2.662   7.031 -0.4889  0.1872 -0.2537
 2557SOL    HW119307   1.883   2.692   6.952 -3.1432 -0.4230 -1.9916
 2557SOL    HW219308   1.883   2.581   7.057 -1.4152 -0.2960 -0.1831
 2558SOL     OW19309   2.482   3.757   8.239  0.6080  0.3954  0.4345
 2558SOL    HW119310   2.559   3.730   8.187  0.6022  0.7140  0.2581
 2558SOL    HW219311   2.503   3.850   8.233  0.7253  0.3749  0.5389
 2559SOL     OW19312   0.017   1.355   4.995 -0.3514 -0.0290  0.6638
 2559SOL    HW119313   0.018   1.334   4.902 -0.5258  0.7202  0.4908
 2559SOL    HW219314   0.087   1.419   5.009  0.7308 -1.2669  0.9444
 2560SOL     OW19315   0.238   1.831  17.007  0.4307  0.1853 -0.5089
 2560SOL    HW119316   0.236   1.845  17.102  1.0504  2.2001 -0.7871
 2560SOL    HW219317   0.309   1.891  16.984  0.2986  0.9488  1.0313
 2561SOL     OW19318   1.704   3.865   7.065  0.0462  0.5740 -0.4434
 2561SOL    HW119319   1.665   3.800   7.006 -0.3532 -0.3770  0.8680
 2561SOL    HW219320   1.763   3.806   7.112  0.1490 -0.6717 -2.1504
 2562SOL     OW19321   0.218   3.261  16.244 -0.0945 -0.1924  0.7277
 2562SOL    HW119322   0.262   3.331  16.195 -2.0350  0.1081 -0.6069
 2562SOL    HW219323   0.142   3.239  16.191  0.7456  1.4071 -1.1262
 2563SOL     OW19324   0.235   3.469  16.026  0.0044 -0.0888 -0.1102
 2563SOL    HW119325   0.263   3.527  16.097 -1.9572 -1.0107  1.4347
 2563SOL    HW219326   0.233   3.536  15.957 -1.9281 -2.6644 -2.5623
 2564SOL     OW19327   0.927   2.239   2.232  0.4391  0.0840 -0.4348
 2564SOL    HW119328   0.946   2.263   2.141 -0.9465  1.9773 -0.2113
 2564SOL    HW219329   0.921   2.326   2.271  1.3147 -1.5319  3.2738
 2565SOL     OW19330   0.946   3.991  10.661 -0.2262  0.3056  0.9589
 2565SOL    HW119331   0.978   4.049  10.593  2.5551 -0.0827  1.9299
 2565SOL    HW219332   0.892   4.052  10.712 -0.4617  0.7325  0.1996
 2566SOL     OW19333   2.725   2.201  10.510  0.5171  0.5947 -0.1707
 2566SOL    HW119334   2.720   2.208  10.606  0.0778 -0.2504 -0.1313
 2566SOL    HW219335   2.682   2.280  10.478  0.6547  0.8877  0.3702
 2567SOL     OW19336   3.928   3.022   7.430  0.3795 -0.1760  0.0386
 2567SOL    HW119337   3.927   2.927   7.441 -0.7695 -0.0201  1.2504
 2567SOL    HW219338   4.010   3.049   7.472 -0.5619  0.0993  1.6797
 2568SOL     OW19339   0.698   3.392  10.903  0.0074  0.2321  0.2137
 2568SOL    HW119340   0.734   3.405  10.991 -1.3456  2.7960  0.3906
 2568SOL    HW219341   0.705   3.485  10.880 -0.8677 -0.6940 -3.8023
 2569SOL     OW19342   2.045   1.721   2.352 -0.2270 -0.0959 -0.0626
 2569SOL    HW119343   2.138   1.719   2.378 -0.0784 -0.2559 -0.6113
 2569SOL    HW219344   2.010   1.746   2.437 -0.1722 -1.7978  0.4684
 2570SOL     OW19345   2.536   1.550   4.879 -0.5554  0.5673 -0.6176
 2570SOL    HW119346   2.601   1.483   4.899 -1.2650  0.0429 -0.0900
 2570SOL    HW219347   2.499   1.518   4.797 -1.0533 -2.0343  0.6217
 2571SOL     OW19348   0.338   2.093   2.116  0.7732  0.0997 -0.4773
 2571SOL    HW119349   0.432   2.107   2.106  0.9852 -0.1497  1.1337
 2571SOL    HW219350   0.322   2.154   2.188 -1.9534 -0.7899 -0.3316
 2572SOL     OW19351   4.064   0.617  12.274  0.3191  0.1470  0.4593
 2572SOL    HW119352   4.113   0.629  12.356  2.0168  0.5839 -0.6284
 2572SOL    HW219353   4.100   0.534  12.244 -1.6493 -1.2457  1.9497
 2573SOL     OW19354   4.509   3.638   4.228 -0.0141 -0.4510 -0.2864
 2573SOL    HW119355   4.451   3.604   4.160 -1.4862 -0.7221  1.1062
 2573SOL    HW219356   4.484   3.578   4.298 -0.7893  0.3967  0.1644
 2574SOL     OW19357   3.333   0.691   0.351 -0.2920 -0.3290 -0.4580
 2574SOL    HW119358   3.351   0.649   0.268  1.6574  0.2285 -0.3211
 2574SOL    HW219359   3.294   0.770   0.314 -1.1884 -0.0459  1.0688
 2575SOL     OW19360   4.681   2.107   5.994  0.3195  0.6672  0.0613
 2575SOL    HW119361   4.693   2.119   6.088  0.2444 -1.2532  0.3081
 2575SOL    HW219362   0.032   2.109   5.960  0.6887  0.6689  1.0394
 2576SOL     OW19363   1.513   2.874   2.434 -0.9237  0.2034 -0.1161
 2576SOL    HW119364   1.510   2.820   2.355 -0.1688  0.0667 -0.0481
 2576SOL    HW219365   1.504   2.807   2.501  0.6733  0.5971  0.4742
 2577SOL     OW19366   2.567   0.710  17.161  0.5250 -0.2746 -0.7842
 2577SOL    HW119367   2.487   0.665  17.187 -0.3448  0.7686 -1.6235
 2577SOL    HW219368   2.569   0.707  17.065  2.4616 -1.8715 -0.6884
 2578SOL     OW19369   3.490   1.841   8.605 -0.6996 -0.4889 -0.1216
 2578SOL    HW119370   3.449   1.910   8.658  0.0190  0.5708 -0.9219
 2578SOL    HW219371   3.432   1.824   8.531  0.6733  0.5600 -1.4568
 2579SOL     OW19372   0.125   3.905   4.544  0.0887  0.1206  0.7819
 2579SOL    HW119373   0.085   3.825   4.579 -0.5466  1.0354  2.1606
 2579SOL    HW219374   0.215   3.874   4.528 -0.2617 -0.1505 -0.6382
 2580SOL     OW19375   4.729   1.296   4.481  0.0094 -0.4154 -0.0097
 2580SOL    HW119376   0.056   1.271   4.416  0.1751  0.4907 -0.1954
 2580SOL    HW219377   4.732   1.391   4.478 -0.1263 -0.4092  0.0250
 2581SOL     OW19378   0.739   1.635  15.002 -0.2050 -0.7280  0.1076
 2581SOL    HW119379   0.746   1.634  15.097  0.7390  0.3915  0.0514
 2581SOL    HW219380   0.810   1.576  14.977  0.4079  0.9262 -2.1256
 2582SOL     OW19381   4.339   0.897   1.256 -0.6875  0.1810 -0.5609
 2582SOL    HW119382   4.300   0.941   1.181 -0.8300 -0.3411 -0.7948
 2582SOL    HW219383   4.382   0.968   1.304 -1.7348  1.1206 -0.9901
 2583SOL     OW19384   3.637   2.813   7.460  0.0751 -0.4239  0.8701
 2583SOL    HW119385   3.587   2.746   7.413  1.4116 -0.8683  0.0733
 2583SOL    HW219386   3.725   2.795   7.428 -0.1159  2.7532 -1.4557
 2584SOL     OW19387   3.792   0.544   4.599 -0.4807 -0.3746 -0.3626
 2584SOL    HW119388   3.740   0.583   4.529  0.6406  0.4658 -0.7268
 2584SOL    HW219389   3.809   0.618   4.658  0.9564 -0.5057 -0.6143
 2585SOL     OW19390   2.968   3.474   3.051  0.3712 -0.0687  0.8172
 2585SOL    HW119391   3.049   3.428   3.077 -0.7100 -1.5626  1.5834
 2585SOL    HW219392   2.919   3.404   3.007 -1.5458  1.5036  0.4639
 2586SOL     OW19393   4.256   3.686   4.829  0.2231  0.0442 -0.6652
 2586SOL    HW119394   4.162   3.671   4.819 -0.2391  1.9883  0.8036
 2586SOL    HW219395   4.262   3.781   4.828 -2.3315  0.2198  0.6698
 2587SOL     OW19396   3.231   3.747   2.109 -0.2483  0.3073 -0.2886
 2587SOL    HW119397   3.284   3.706   2.041  1.1669  0.9785  0.3978
 2587SOL    HW219398   3.303   3.773   2.166  0.9337 -2.3733 -0.5731
 2588SOL     OW19399   1.037   3.427   4.650 -0.4127  0.6872  0.4949
 2588SOL    HW119400   1.088   3.346   4.648  1.0369  1.5989  0.6797
 2588SOL    HW219401   0.963   3.408   4.708 -0.8613  0.4220 -0.1568
 2589SOL     OW19402   2.405   2.422   8.122 -0.2401 -0.0494 -0.5217
 2589SOL    HW119403   2.444   2.350   8.072 -1.7041 -0.0738 -1.6136
 2589SOL    HW219404   2.370   2.480   8.055 -0.7407  0.7444  0.4326
 2590SOL     OW19405   1.561   4.709   4.163 -0.4471  0.1113  0.2959
 2590SOL    HW119406   1.633   0.027   4.191 -0.8338  1.3929 -1.2648
 2590SOL    HW219407   1.599   4.676   4.081  0.7196 -0.8534  1.2445
 2591SOL     OW19408   0.272   4.697   5.531 -0.0692  0.4823  0.2826
 2591SOL    HW119409   0.189   4.731   5.565 -0.7172  0.3830 -1.1790
 2591SOL    HW219410   0.268   4.718   5.438 -2.2056 -2.9252 -0.4107
 2592SOL     OW19411   3.429   0.754  17.413  0.5482  0.0389  0.0774
 2592SOL    HW119412   3.359   0.781  17.353  0.9188  2.2692  0.6569
 2592SOL    HW219413   3.385   0.719  17.491  3.2536  1.4749  2.2353
 2593SOL     OW19414   0.027   2.593   5.431 -0.7044 -0.4578  0.6870
 2593SOL    HW119415   0.072   2.522   5.384  2.0660  1.7107  0.0488
 2593SOL    HW219416   0.026   2.552   5.517  0.2883 -1.2922  0.2956
 2594SOL     OW19417   3.883   2.222   2.220 -0.3318 -0.3881 -0.2169
 2594SOL    HW119418   3.964   2.224   2.168  1.4461 -0.7417  2.5198
 2594SOL    HW219419   3.822   2.168   2.170  0.3503 -0.0736 -1.4060
 2595SOL     OW19420   2.620   0.995   1.273  0.1277 -0.5527  0.4762
 2595SOL    HW119421   2.599   1.040   1.355  3.6907 -0.4592  1.3696
 2595SOL    HW219422   2.529   0.972   1.255  0.2533 -0.1316 -0.7122
 2596SOL     OW19423   1.541   2.749   9.989  0.3045  0.1185 -0.7504
 2596SOL    HW119424   1.597   2.680   9.953  0.9938  1.1353 -1.6251
 2596SOL    HW219425   1.553   2.823   9.930 -1.2284  0.5512 -0.5013
 2597SOL     OW19426   0.024   1.060  14.657 -0.0476 -0.9143 -0.2050
 2597SOL    HW119427   0.013   1.080  14.750 -1.7794 -0.5207 -0.5044
 2597SOL    HW219428   4.704   1.117  14.606 -1.6380 -3.5012 -1.2924
 2598SOL     OW19429   0.341   1.957  12.347 -0.1696  0.3333 -0.4370
 2598SOL    HW119430   0.429   1.983  12.374 -0.6915  3.6350 -1.9452
 2598SOL    HW219431   0.292   1.957  12.429 -1.0169 -2.0536 -0.9254
 2599SOL     OW19432   0.420   3.433  13.559  0.0556 -0.0145 -0.3741
 2599SOL    HW119433   0.440   3.508  13.615 -1.8409 -0.6299  1.1484
 2599SOL    HW219434   0.435   3.359  13.617 -1.1334 -0.2203 -0.3350
 2600SOL     OW19435   1.475   3.550   6.210 -0.2773 -0.6909 -0.4164
 2600SOL    HW119436   1.393   3.531   6.256 -0.4120  0.5085 -0.1599
 2600SOL    HW219437   1.519   3.602   6.278 -0.3739 -0.9120 -0.1819
 2601SOL     OW19438   0.065   3.260   2.098  0.6493 -0.4953  0.1845
 2601SOL    HW119439   0.057   3.300   2.011 -1.8413 -1.6443 -0.1248
 2601SOL    HW219440   0.031   3.171   2.089  1.2362 -0.7585  0.5771
 2602SOL     OW19441   2.753   0.150   5.214 -1.0622 -0.5869  0.5177
 2602SOL    HW119442   2.806   0.094   5.157  1.1327  0.5948  1.3991
 2602SOL    HW219443   2.664   0.115   5.214 -0.6857 -1.6036 -3.1508
 2603SOL     OW19444   2.281   1.299  14.807 -0.1695 -0.4135 -0.3989
 2603SOL    HW119445   2.305   1.288  14.899 -1.8526 -1.3494 -0.0621
 2603SOL    HW219446   2.201   1.349  14.827 -0.0541 -1.5725  2.8672
 2604SOL     OW19447   4.458   3.473   2.267  0.3949 -0.1159  0.3563
 2604SOL    HW119448   4.445   3.473   2.172  0.8465  3.6417  0.2946
 2604SOL    HW219449   4.553   3.489   2.269  0.3958 -0.0683 -0.0330
 2605SOL     OW19450   1.628   4.165  11.446 -0.2261  0.1011  0.0866
 2605SOL    HW119451   1.665   4.210  11.521  1.1223 -0.9368  0.0385
 2605SOL    HW219452   1.627   4.231  11.377  1.8336  0.7369  0.6892
 2606SOL     OW19453   4.114   2.851   3.974  0.1342 -0.2590  0.8265
 2606SOL    HW119454   4.189   2.835   3.917 -0.1948 -1.2101  0.6638
 2606SOL    HW219455   4.052   2.781   3.956  1.3952 -1.2819  0.4071
 2607SOL     OW19456   2.315   4.317   1.445  0.2003  0.0382  0.2993
 2607SOL    HW119457   2.396   4.266   1.435 -0.3796 -0.6048 -1.1250
 2607SOL    HW219458   2.328   4.370   1.367 -0.0081  0.4271  0.5300
 2608SOL     OW19459   1.591   1.943   3.653 -0.1101  0.3504 -0.4587
 2608SOL    HW119460   1.617   1.921   3.564  0.5648 -0.1842 -0.1238
 2608SOL    HW219461   1.560   2.032   3.638 -0.6182 -0.1732 -2.5431
 2609SOL     OW19462   3.722   2.871   7.760  0.5027  0.1870  0.2551
 2609SOL    HW119463   3.777   2.809   7.809 -0.2674 -1.9210 -1.5168
 2609SOL    HW219464   3.707   2.814   7.684 -1.0914  0.7777  0.1446
 2610SOL     OW19465   0.286   2.773  12.130  0.1933 -0.2902 -0.3448
 2610SOL    HW119466   0.378   2.751  12.116 -0.2565 -2.0759 -0.4816
 2610SOL    HW219467   0.254   2.686  12.154 -0.1777 -0.0855 -0.0985
 2611SOL     OW19468   2.777   2.876  14.412  0.3391  0.1377 -0.0534
 2611SOL    HW119469   2.870   2.884  14.435  0.7501 -2.5504 -0.8500
 2611SOL    HW219470   2.783   2.928  14.332  1.3548  1.5118  0.9017
 2612SOL     OW19471   0.932   3.370  11.683 -0.4942  0.0145  0.5697
 2612SOL    HW119472   0.850   3.397  11.640  0.3962  0.5993 -0.7711
 2612SOL    HW219473   0.892   3.363  11.770 -2.2603  0.8065 -0.1778
 2613SOL     OW19474   0.824   1.255   9.433  0.5343  0.7688 -0.1705
 2613SOL    HW119475   0.775   1.214   9.504 -2.7458  0.0409 -2.8280
 2613SOL    HW219476   0.910   1.239   9.471 -0.4960 -0.8023  1.5143
 2614SOL     OW19477   1.946   1.449   6.206 -0.6599  0.3391 -1.0171
 2614SOL    HW119478   1.967   1.360   6.233 -0.4682  0.7096  0.0488
 2614SOL    HW219479   1.961   1.497   6.287 -0.0876  0.2536 -1.0683
 2615SOL     OW19480   4.433   3.704  11.090  0.3770  0.4059 -0.2402
 2615SOL    HW119481   4.512   3.654  11.111 -0.7007 -1.0264  0.4560
 2615SOL    HW219482   4.477   3.784  11.062  0.0255  1.0084  0.9454
 2616SOL     OW19483   1.534   0.753  10.487  0.1725  0.6738  0.3317
 2616SOL    HW119484   1.606   0.800  10.446 -0.8847 -0.3229 -2.7170
 2616SOL    HW219485   1.572   0.666  10.503  0.6862  1.0091  0.9265
 2617SOL     OW19486   4.589   4.222   5.422  0.9359  0.5790  0.0546
 2617SOL    HW119487   4.665   4.166   5.407  0.6501  0.0244  0.6476
 2617SOL    HW219488   4.527   4.176   5.366 -0.1431  1.0915  0.8218
 2618SOL     OW19489   2.886   2.666   1.295  0.0973 -0.2353 -0.1009
 2618SOL    HW119490   2.920   2.686   1.382  0.5839  1.4514 -0.6697
 2618SOL    HW219491   2.792   2.678   1.311  0.6462  0.6303  2.5163
 2619SOL     OW19492   4.189   2.866  16.743 -0.2842  0.0778 -0.0419
 2619SOL    HW119493   4.110   2.918  16.733 -0.5460 -0.5264 -1.1039
 2619SOL    HW219494   4.162   2.787  16.695  0.5409  1.3403 -2.6016
 2620SOL     OW19495   0.139   4.045   7.546  0.0100 -0.0995 -0.1835
 2620SOL    HW119496   0.090   3.997   7.480  0.1913 -0.2682 -0.1947
 2620SOL    HW219497   0.087   4.020   7.622  1.3082 -0.5730  0.5511
 2621SOL     OW19498   3.961   3.843   7.864 -0.1647 -0.5555  0.0657
 2621SOL    HW119499   4.011   3.784   7.808  0.0450 -0.7916  0.5065
 2621SOL    HW219500   3.902   3.786   7.912 -2.8709  2.1892  0.0191
 2622SOL     OW19501   1.977   4.306   6.981 -0.0316 -0.3330 -0.0041
 2622SOL    HW119502   2.048   4.346   6.931 -0.9300 -0.1390 -1.1266
 2622SOL    HW219503   1.993   4.211   6.987 -0.4866 -0.4618 -0.9087
 2623SOL     OW19504   0.609   4.310   4.772 -0.1062 -0.5178  0.4758
 2623SOL    HW119505   0.680   4.334   4.714  0.8764 -1.6538  1.2050
 2623SOL    HW219506   0.636   4.349   4.855 -0.7730  0.1507  0.3712
 2624SOL     OW19507   1.692   3.126   5.048 -0.2459  0.4019 -0.1356
 2624SOL    HW119508   1.733   3.187   4.987  1.3070 -1.5119 -1.0200
 2624SOL    HW219509   1.697   3.170   5.133  0.1271  2.6474 -1.3180
 2625SOL     OW19510   2.067   3.062   8.193  0.0201  0.3031  0.3519
 2625SOL    HW119511   2.143   3.010   8.168 -0.4126  0.1098 -0.5919
 2625SOL    HW219512   2.067   3.045   8.287  0.9144 -1.7462 -0.0168
 2626SOL     OW19513   3.241   4.205  16.058 -0.2843 -0.0385 -0.0093
 2626SOL    HW119514   3.175   4.263  16.096  1.6592  2.5991 -0.6410
 2626SOL    HW219515   3.230   4.125  16.109 -1.5495 -0.5567 -1.0891
 2627SOL     OW19516   0.026   0.262   5.811  0.6114 -0.0197 -0.2231
 2627SOL    HW119517   0.035   0.194   5.745  0.2239 -1.2405  0.9817
 2627SOL    HW219518   0.086   0.331   5.783  2.8282 -1.2591  1.4732
 2628SOL     OW19519   4.696   0.694  10.746  0.0890  0.5756 -0.2382
 2628SOL    HW119520   4.726   0.630  10.682  1.1478  0.4275  0.4197
 2628SOL    HW219521   4.664   0.639  10.817  0.5341 -0.7010 -1.0278
 2629SOL     OW19522   4.487   1.120   4.444 -0.0464  0.1141  0.0414
 2629SOL    HW119523   4.411   1.170   4.416 -0.8814 -0.7591  0.7616
 2629SOL    HW219524   4.537   1.188   4.489 -2.4544  2.1597 -0.3777
 2630SOL     OW19525   4.223   1.694   2.535 -0.4625 -0.1245 -0.2332
 2630SOL    HW119526   4.276   1.614   2.541 -0.2748  0.1280  1.6308
 2630SOL    HW219527   4.153   1.666   2.594  1.4345  1.2859  2.7316
 2631SOL     OW19528   4.109   4.170  17.292 -0.4057 -0.5341 -0.4667
 2631SOL    HW119529   4.025   4.142  17.328 -0.7943 -1.3974 -2.0326
 2631SOL    HW219530   4.152   4.153  17.376  0.6818 -2.8384 -1.5052
 2632SOL     OW19531   2.699   0.284   8.455  0.5419  0.2076  0.1413
 2632SOL    HW119532   2.695   0.190   8.440 -0.2544 -0.0868  2.2402
 2632SOL    HW219533   2.613   0.302   8.494  0.4927  0.4631 -0.0815
 2633SOL     OW19534   1.013   3.685   9.137  0.2236  0.9720 -0.0996
 2633SOL    HW119535   1.089   3.659   9.189 -0.2959  0.7059  0.5350
 2633SOL    HW219536   0.940   3.639   9.179  0.0433  1.6302  0.3097
 2634SOL     OW19537   1.042   3.315   9.829 -0.0570 -0.0986 -0.3207
 2634SOL    HW119538   0.979   3.310   9.758 -0.6036  1.1694  0.0839
 2634SOL    HW219539   1.013   3.257   9.900  1.4025 -0.5812 -0.1117
 2635SOL     OW19540   4.483   4.613   7.476 -0.1292  0.0045  0.5669
 2635SOL    HW119541   4.491   4.518   7.469  0.4711 -0.0520  1.9217
 2635SOL    HW219542   4.390   4.616   7.497 -0.6748 -0.8244 -1.8317
 2636SOL     OW19543   3.485   1.370   7.995 -0.2880 -0.4981  0.5673
 2636SOL    HW119544   3.540   1.303   7.954 -3.6905 -2.7542 -0.3105
 2636SOL    HW219545   3.433   1.409   7.925  0.3081 -0.5530  0.1008
 2637SOL     OW19546   4.368   1.780   5.620  0.0765  0.1632 -0.6193
 2637SOL    HW119547   4.353   1.690   5.650  0.6692  0.6047  0.9691
 2637SOL    HW219548   4.281   1.818   5.608 -0.6266 -1.9144 -2.2885
 2638SOL     OW19549   0.622   3.844   2.221 -0.1014 -0.3792  0.1655
 2638SOL    HW119550   0.674   3.764   2.225  1.5117  0.5983 -1.2101
 2638SOL    HW219551   0.563   3.833   2.295 -0.0336  1.3340  0.4932
 2639SOL     OW19552   1.763   3.076   6.947 -0.0151  0.5071  0.2893
 2639SOL    HW119553   1.683   3.025   6.962  2.2553 -3.0179  0.1867
 2639SOL    HW219554   1.740   3.104   6.858 -0.5319 -1.0396 -0.0625
 2640SOL     OW19555   0.018   1.676   6.544 -0.1639 -0.0708 -0.3425
 2640SOL    HW119556   0.106   1.675   6.581 -0.0157 -0.0874 -0.6950
 2640SOL    HW219557   4.695   1.708   6.610  0.2895  1.6026 -0.7121
 2641SOL     OW19558   2.210   0.261   6.569  0.2836 -0.2098  0.1441
 2641SOL    HW119559   2.134   0.275   6.625  0.1748  1.7804 -0.5156
 2641SOL    HW219560   2.230   0.169   6.589  0.2130 -0.5428 -1.2867
 2642SOL     OW19561   2.136   4.195   3.910 -0.0177 -0.3560  0.3815
 2642SOL    HW119562   2.227   4.164   3.916  0.3935  0.8336  0.3194
 2642SOL    HW219563   2.119   4.218   3.819 -2.0235 -1.3264  0.5219
 2643SOL     OW19564   2.435   4.511   7.659 -0.3767  0.1309 -0.1498
 2643SOL    HW119565   2.497   4.486   7.728  0.2535  2.2299  0.0479
 2643SOL    HW219566   2.371   4.563   7.708 -0.9641 -2.1169  1.4633
 2644SOL     OW19567   4.289   1.369   3.895 -0.0411  0.1095  0.2281
 2644SOL    HW119568   4.323   1.368   3.806 -0.8942  0.1359 -0.0946
 2644SOL    HW219569   4.373   1.393   3.933  2.3313 -1.8270 -3.7481
 2645SOL     OW19570   3.371   3.488  14.852 -0.0574  0.7418 -0.3385
 2645SOL    HW119571   3.413   3.509  14.768  0.1654  1.3144 -0.0883
 2645SOL    HW219572   3.325   3.568  14.877 -1.1406  0.2700 -0.8447
 2646SOL     OW19573   2.822   3.002   3.070 -0.0710  0.4790 -0.1820
 2646SOL    HW119574   2.727   3.007   3.061 -0.4168 -0.6573  2.8962
 2646SOL    HW219575   2.846   3.041   3.154 -0.8577 -1.5002  0.9661
 2647SOL     OW19576   4.460   0.801  16.845 -0.3563 -0.2998 -0.8625
 2647SOL    HW119577   4.509   0.757  16.915 -0.9279 -0.8949 -0.8364
 2647SOL    HW219578   4.391   0.735  16.837 -0.8712 -0.0842  1.5517
 2648SOL     OW19579   0.878   2.846   5.876 -0.3238  0.1724  0.3562
 2648SOL    HW119580   0.838   2.820   5.960  1.4213  1.7786  1.6932
 2648SOL    HW219581   0.838   2.932   5.865 -0.2416  0.0948 -0.5000
 2649SOL     OW19582   4.186   1.378   4.597  0.4959  0.0868  0.5161
 2649SOL    HW119583   4.236   1.340   4.525 -0.3164 -3.3200  1.7737
 2649SOL    HW219584   4.094   1.357   4.581  1.1600 -1.5428 -1.2031
 2650SOL     OW19585   1.142   2.493   5.365  0.1525  0.0042  0.1771
 2650SOL    HW119586   1.117   2.580   5.333 -0.8322 -0.3351  0.0339
 2650SOL    HW219587   1.233   2.515   5.386  0.2132 -1.2111  1.2361
 2651SOL     OW19588   4.513   0.762  12.184 -0.2258  0.2865 -0.2859
 2651SOL    HW119589   4.424   0.744  12.155  0.5646 -1.9945 -1.3009
 2651SOL    HW219590   4.540   0.699  12.251 -0.9416 -0.3183 -0.5652
 2652SOL     OW19591   4.196   2.968   0.491  0.1123 -0.2183  0.4896
 2652SOL    HW119592   4.142   2.907   0.542  2.2451 -1.1823  1.6559
 2652SOL    HW219593   4.220   2.926   0.408 -1.0681  0.1432 -0.0255
 2653SOL     OW19594   3.100   2.408   4.710  0.1431  0.2898  0.3011
 2653SOL    HW119595   3.148   2.346   4.764 -0.0028  0.5719  0.7489
 2653SOL    HW219596   3.050   2.456   4.775 -0.0253  1.3240 -0.5843
 2654SOL     OW19597   3.398   1.095  15.291 -0.0903  0.6760 -0.3019
 2654SOL    HW119598   3.366   1.093  15.381 -0.1089 -1.1464 -0.3438
 2654SOL    HW219599   3.320   1.074  15.239  1.0463  1.5113 -2.3421
 2655SOL     OW19600   3.037   0.835   6.568 -0.2429  0.0077 -0.0451
 2655SOL    HW119601   3.092   0.844   6.490 -1.1269 -2.8837 -1.0340
 2655SOL    HW219602   2.984   0.763   6.532 -0.8944 -0.8545  2.6761
 2656SOL     OW19603   3.543   4.115   4.788 -0.1655  0.3235 -0.2251
 2656SOL    HW119604   3.482   4.084   4.721 -1.3372 -1.9254  1.8797
 2656SOL    HW219605   3.519   4.058   4.861 -0.2459  0.4822 -0.1283
 2657SOL     OW19606   1.585   1.489   4.372 -0.7291 -0.0053 -0.4541
 2657SOL    HW119607   1.579   1.463   4.280  0.0992 -1.7789  0.0140
 2657SOL    HW219608   1.565   1.417   4.432  0.0429 -1.7923 -2.3677
 2658SOL     OW19609   1.595   0.039   5.323  0.2865 -0.2602  0.2483
 2658SOL    HW119610   1.512   0.056   5.279  0.2330 -1.8201 -0.2528
 2658SOL    HW219611   1.657   0.051   5.251  0.9854  1.3050  1.1059
 2659SOL     OW19612   1.885   4.530   4.759  0.4754 -0.5060 -0.1656
 2659SOL    HW119613   1.800   4.492   4.782 -1.1124  2.9063 -0.3636
 2659SOL    HW219614   1.918   4.528   4.849  0.2943  2.0533 -0.0310
 2660SOL     OW19615   2.522   1.708   6.570 -0.1392 -0.2988  0.0882
 2660SOL    HW119616   2.469   1.638   6.608 -0.7984  0.3521  0.3625
 2660SOL    HW219617   2.456   1.775   6.555 -0.0047 -0.2499 -0.2902
 2661SOL     OW19618   2.716   2.893   0.254  0.2026 -0.4522 -0.1198
 2661SOL    HW119619   2.799   2.882   0.301  0.2200 -2.2504 -0.5530
 2661SOL    HW219620   2.734   2.959   0.188 -0.5228 -0.7742 -0.6467
 2662SOL     OW19621   4.119   1.743   0.265 -0.3785 -0.0203  0.0958
 2662SOL    HW119622   4.079   1.773   0.347 -0.4677  0.8297 -0.2682
 2662SOL    HW219623   4.109   1.647   0.269 -0.5797  0.0347  0.9415
 2663SOL     OW19624   1.417   1.446   3.000 -0.3988  0.4795  0.1218
 2663SOL    HW119625   1.463   1.409   2.925  1.4236  1.1111  0.9084
 2663SOL    HW219626   1.367   1.368   3.025 -0.6865  0.7436  0.3687
 2664SOL     OW19627   0.377   1.081  11.087 -0.7706 -0.2750 -0.2235
 2664SOL    HW119628   0.422   1.085  11.172 -0.1619 -2.6136 -0.4281
 2664SOL    HW219629   0.297   1.037  11.117 -1.4378  1.1463  0.0753
 2665SOL     OW19630   2.578   2.255   9.217 -0.3392  0.7518  0.2315
 2665SOL    HW119631   2.497   2.301   9.236 -0.6678  0.1771  0.2127
 2665SOL    HW219632   2.548   2.176   9.173 -1.3849  1.0898  0.3416
 2666SOL     OW19633   3.995   3.519   4.029  0.2372 -0.1994  0.0854
 2666SOL    HW119634   3.968   3.598   4.074  1.6311 -0.7527  1.9244
 2666SOL    HW219635   3.998   3.457   4.102 -0.3264 -0.4101 -0.0700
 2667SOL     OW19636   0.886   0.146   9.452 -0.2948  0.2502  0.0426
 2667SOL    HW119637   0.865   0.227   9.498  0.4508 -0.3165  1.3657
 2667SOL    HW219638   0.895   0.079   9.519  0.8065  0.1332 -0.2252
 2668SOL     OW19639   1.597   1.104   7.534 -0.1680  0.7062 -0.1239
 2668SOL    HW119640   1.631   1.017   7.553  0.9265  0.9642 -0.8906
 2668SOL    HW219641   1.503   1.089   7.530 -0.4804  2.5238  0.3496
 2669SOL     OW19642   3.131   2.804  12.136 -0.4507  0.4732 -0.1934
 2669SOL    HW119643   3.213   2.840  12.171 -1.5200  2.8678 -0.1459
 2669SOL    HW219644   3.081   2.883  12.117 -2.2697  0.4452  4.4320
 2670SOL     OW19645   3.109   3.991  12.257 -0.6079 -0.5002 -0.1793
 2670SOL    HW119646   3.029   3.997  12.206 -1.9085  0.8164  2.0032
 2670SOL    HW219647   3.071   4.004  12.344  0.2170 -1.3955  0.3193
 2671SOL     OW19648   3.106   4.648   2.536  0.1037 -0.3299 -0.2641
 2671SOL    HW119649   3.095   4.702   2.458  0.0118 -0.9699 -0.6972
 2671SOL    HW219650   3.030   4.591   2.532 -0.4811  0.4098  0.3861
 2672SOL     OW19651   2.114   2.143   6.524 -0.2288 -1.0529  0.5882
 2672SOL    HW119652   2.118   2.234   6.554  1.0037 -1.3968  1.4671
 2672SOL    HW219653   2.058   2.155   6.447  2.3812  0.6799 -1.0485
 2673SOL     OW19654   1.270   1.285  10.676  0.1298 -0.3235  0.0558
 2673SOL    HW119655   1.355   1.247  10.653 -0.6789 -1.9938 -0.1894
 2673SOL    HW219656   1.207   1.212  10.671 -1.1177  0.7285  0.5174
 2674SOL     OW19657   2.523   4.311  11.966  0.2495 -0.0625  0.8850
 2674SOL    HW119658   2.436   4.335  11.934  1.1999  1.3839 -0.6182
 2674SOL    HW219659   2.562   4.267  11.890 -0.6902 -1.7400  1.3479
 2675SOL     OW19660   3.394   2.172   4.503 -0.2498 -0.2995  0.3592
 2675SOL    HW119661   3.335   2.240   4.471  1.1722  1.5235  1.6119
 2675SOL    HW219662   3.347   2.097   4.467  2.1816 -1.0518 -1.2611
 2676SOL     OW19663   2.576   1.087  12.329 -0.6791 -0.5849 -0.9021
 2676SOL    HW119664   2.499   1.136  12.358  0.4842  0.3395  0.6335
 2676SOL    HW219665   2.640   1.136  12.381  0.6050 -2.6108 -0.5563
 2677SOL     OW19666   4.307   0.453  11.635  0.1178 -1.0043 -0.0149
 2677SOL    HW119667   4.235   0.511  11.657  1.0340  1.2669 -2.9696
 2677SOL    HW219668   4.263   0.369  11.624 -2.4767  0.1790  1.3329
 2678SOL     OW19669   0.643   0.017  10.294  0.1663  0.0353 -0.1154
 2678SOL    HW119670   0.705   0.039  10.363 -0.3785 -1.4926  0.8416
 2678SOL    HW219671   0.564   4.732  10.342  0.5600 -2.7940 -0.8015
 2679SOL     OW19672   2.355   4.123  10.179 -0.7910 -0.5117  0.3797
 2679SOL    HW119673   2.366   4.217  10.166  1.0265 -1.0206 -1.7313
 2679SOL    HW219674   2.308   4.121  10.262  3.1971  0.5542  2.6367
 2680SOL     OW19675   0.385   3.176   2.827  0.1862  0.1501 -0.0917
 2680SOL    HW119676   0.477   3.180   2.853 -0.1480  1.0200  0.9417
 2680SOL    HW219677   0.340   3.161   2.909  0.1970 -1.2681 -0.3272
 2681SOL     OW19678   2.872   0.905   8.787 -0.0001 -0.2619 -0.4339
 2681SOL    HW119679   2.915   0.884   8.704 -0.4566 -0.9475 -0.4967
 2681SOL    HW219680   2.856   0.999   8.778 -0.0687 -0.0965  1.4869
 2682SOL     OW19681   4.453   1.137   4.873 -0.0954 -0.0939  0.1578
 2682SOL    HW119682   4.525   1.188   4.836  1.1503 -0.3754  2.2368
 2682SOL    HW219683   4.500   1.054   4.874 -0.6652 -0.4399 -2.4189
 2683SOL     OW19684   0.494   0.446   9.440 -0.0929 -0.7496  0.6527
 2683SOL    HW119685   0.445   0.447   9.359 -0.0243  0.0273  0.6201
 2683SOL    HW219686   0.577   0.490   9.419 -0.1172 -1.1498 -0.2539
 2684SOL     OW19687   1.886   1.093   3.352 -0.1288 -0.7480 -0.0469
 2684SOL    HW119688   1.960   1.091   3.412  1.6561  1.2575 -2.1789
 2684SOL    HW219689   1.911   1.016   3.300 -0.5173 -0.6279 -0.4120
 2685SOL     OW19690   1.407   1.778   2.142  0.2056 -0.7761  0.1425
 2685SOL    HW119691   1.377   1.868   2.153 -0.4867 -0.7401 -2.0925
 2685SOL    HW219692   1.337   1.750   2.083 -0.4012  1.8674 -0.3732
 2686SOL     OW19693   2.669   0.203   3.501  0.2907  0.9672  0.2403
 2686SOL    HW119694   2.724   0.230   3.574 -1.5314  2.1410  1.1844
 2686SOL    HW219695   2.615   0.281   3.487  0.5494  1.2025  0.5597
 2687SOL     OW19696   4.457   2.660  13.630  0.0431 -0.1111 -0.3875
 2687SOL    HW119697   4.409   2.623  13.704 -1.5724  1.8586 -0.4300
 2687SOL    HW219698   4.531   2.695  13.678 -1.6298 -0.9502  2.7982
 2688SOL     OW19699   2.314   1.979   5.849 -0.7538  0.7251  0.0537
 2688SOL    HW119700   2.239   2.024   5.888 -1.4205  0.6680 -1.1728
 2688SOL    HW219701   2.280   1.891   5.836  0.9443  0.0847 -0.0349
 2689SOL     OW19702   0.181   1.909   5.080  0.0764 -0.1211  0.7360
 2689SOL    HW119703   0.222   1.903   4.993  0.3262 -0.2506  0.8638
 2689SOL    HW219704   0.167   2.002   5.091 -0.1284 -0.0017 -0.5069
 2690SOL     OW19705   3.577   2.590   7.312  0.0480  0.1675 -0.0261
 2690SOL    HW119706   3.656   2.538   7.291 -1.0738 -2.2975  1.8477
 2690SOL    HW219707   3.517   2.517   7.327 -1.7290  2.1965  2.6471
 2691SOL     OW19708   2.956   0.269   1.482 -0.0191  0.1599 -0.0940
 2691SOL    HW119709   3.000   0.342   1.439  0.6152  0.5208  1.1969
 2691SOL    HW219710   2.936   0.307   1.567 -3.1545  0.5126 -0.9725
 2692SOL     OW19711   0.629   0.208   3.117 -0.2402 -0.1725 -1.2052
 2692SOL    HW119712   0.644   0.119   3.086  2.5236  0.4109 -1.5362
 2692SOL    HW219713   0.534   0.202   3.130  0.0579  0.0622  1.0615
 2693SOL     OW19714   0.281   1.313  15.902  0.1629  0.3142  0.3358
 2693SOL    HW119715   0.242   1.389  15.944  1.0466  0.4813  0.8744
 2693SOL    HW219716   0.324   1.356  15.828  0.6103 -1.5740 -0.5056
 2694SOL     OW19717   2.438   0.012   1.390  1.0157  0.2968 -0.4387
 2694SOL    HW119718   2.373   4.722   1.454  0.9412 -0.3947 -0.8192
 2694SOL    HW219719   2.380   0.073   1.343  0.5920 -0.8895 -1.4658
 2695SOL     OW19720   0.604   1.360  15.135  0.0848 -0.4862 -0.1282
 2695SOL    HW119721   0.550   1.305  15.192 -0.1454  0.8143  0.8987
 2695SOL    HW219722   0.546   1.435  15.118  0.0998 -0.7743 -1.4268
 2696SOL     OW19723   1.287   2.373   3.714  0.0038 -0.4083 -0.3554
 2696SOL    HW119724   1.363   2.361   3.656  0.4706  1.9346 -0.2326
 2696SOL    HW219725   1.220   2.360   3.647 -0.0622 -0.0102 -0.3668
 2697SOL     OW19726   2.332   2.022  13.937  0.2547  0.4601 -0.1674
 2697SOL    HW119727   2.337   2.048  14.029 -3.4314 -1.7195  0.6394
 2697SOL    HW219728   2.335   1.926  13.940  0.3223  0.4187 -1.9259
 2698SOL     OW19729   0.961   0.786  15.171 -0.6818  0.4730  0.5659
 2698SOL    HW119730   1.006   0.870  15.158 -0.0659 -0.2151 -1.7144
 2698SOL    HW219731   0.895   0.790  15.102 -0.5005 -2.1979  0.2455
 2699SOL     OW19732   3.620   4.281  11.904 -0.2649 -0.1661 -0.3668
 2699SOL    HW119733   3.690   4.252  11.845 -0.1945 -1.5335  0.4054
 2699SOL    HW219734   3.634   4.376  11.909  1.0396 -0.4562  1.4823
 2700SOL     OW19735   2.904   3.764  10.658 -0.4011 -0.3617 -0.0220
 2700SOL    HW119736   2.844   3.708  10.609  0.8357 -0.5163 -1.3560
 2700SOL    HW219737   2.953   3.710  10.720  0.5066 -0.3265 -0.7078
 2701SOL     OW19738   1.883   4.631   5.380  0.1607 -0.5843 -0.9086
 2701SOL    HW119739   1.898   4.653   5.288 -1.6722  1.3245 -0.7376
 2701SOL    HW219740   1.793   4.663   5.385 -0.2276 -1.7665 -0.3958
 2702SOL     OW19741   2.240   3.500  17.717  0.3413 -0.0093  0.5701
 2702SOL    HW119742   2.322   3.534  17.681  0.6491 -0.7126  0.6248
 2702SOL    HW219743   2.242   3.407  17.694  1.1584 -0.0917  0.9864
 2703SOL     OW19744   3.261   3.658   8.829  0.0741  0.0489  0.3017
 2703SOL    HW119745   3.193   3.681   8.765  0.8766 -0.1199 -0.6059
 2703SOL    HW219746   3.322   3.731   8.841  1.1474 -0.7417 -0.4324
 2704SOL     OW19747   1.806   3.685  12.539 -0.5442 -0.7007  0.1755
 2704SOL    HW119748   1.786   3.721  12.453 -0.7922  0.8721  0.9027
 2704SOL    HW219749   1.733   3.625  12.552 -0.2526 -0.9162  0.8597
 2705SOL     OW19750   0.693   1.421   1.481 -0.1280 -0.0191 -0.1024
 2705SOL    HW119751   0.623   1.485   1.494  0.0713  1.1218 -4.6186
 2705SOL    HW219752   0.676   1.362   1.554 -0.6129  0.8104  0.4534
 2706SOL     OW19753   2.356   2.057   7.187  0.3258  0.5067 -0.5475
 2706SOL    HW119754   2.381   2.145   7.158  1.5542 -0.4247 -2.3005
 2706SOL    HW219755   2.438   2.032   7.230 -1.2635  0.0316  2.2374
 2707SOL     OW19756   2.922   0.768   2.243 -0.5075  0.3899  0.1063
 2707SOL    HW119757   2.936   0.835   2.176 -2.1724  0.1186 -0.5050
 2707SOL    HW219758   2.982   0.796   2.312  0.3910 -1.4260  0.0640
 2708SOL     OW19759   2.960   2.614   6.278  0.3301 -0.1160  0.4744
 2708SOL    HW119760   2.920   2.538   6.236  0.0406  0.4694 -0.3056
 2708SOL    HW219761   3.042   2.578   6.312 -0.6936 -3.2037 -0.3870
 2709SOL     OW19762   1.836   0.274  12.135 -0.1716 -0.4845 -0.0863
 2709SOL    HW119763   1.793   0.189  12.142  0.3063 -0.6843  0.4223
 2709SOL    HW219764   1.765   0.332  12.107 -0.4105 -0.7447 -0.0207
 2710SOL     OW19765   1.222   3.251   1.864 -0.0029 -0.2184  0.1858
 2710SOL    HW119766   1.208   3.321   1.928  1.0194 -0.9903  1.2526
 2710SOL    HW219767   1.196   3.171   1.910  4.6649 -0.4919  2.4372
 2711SOL     OW19768   0.688   1.622   5.311  0.0996 -0.9295  0.0288
 2711SOL    HW119769   0.692   1.583   5.398 -0.1658 -0.4569  0.2511
 2711SOL    HW219770   0.775   1.591   5.285 -0.6184 -1.9981 -1.0500
 2712SOL     OW19771   3.107   0.051   1.405 -0.0219 -0.2310  0.2235
 2712SOL    HW119772   3.055   0.125   1.435 -0.7447 -0.3316 -0.7887
 2712SOL    HW219773   3.147   0.090   1.326 -2.5425  2.0085  0.0510
 2713SOL     OW19774   0.160   0.126  15.374  0.0913  0.3109  0.9944
 2713SOL    HW119775   0.098   0.150  15.304  0.5265 -0.4693  0.3571
 2713SOL    HW219776   0.225   0.081  15.320  0.4711  3.0690 -0.8556
 2714SOL     OW19777   0.558   3.558   3.899 -0.0938  0.0143  0.2907
 2714SOL    HW119778   0.532   3.522   3.984 -1.4725  1.6763  0.5735
 2714SOL    HW219779   0.467   3.561   3.869  0.0319  1.9368  0.1527
 2715SOL     OW19780   3.921   4.337   8.693  0.5575 -0.0316  0.3600
 2715SOL    HW119781   3.979   4.386   8.752  1.5548 -2.0544  1.0395
 2715SOL    HW219782   3.934   4.249   8.729  1.9955  0.5344  1.2394
 2716SOL     OW19783   3.901   3.947   7.459  0.3619 -0.4183 -0.1192
 2716SOL    HW119784   3.884   3.970   7.550  1.6501 -1.3516  0.3643
 2716SOL    HW219785   3.996   3.958   7.459  0.3389 -0.3181  3.1270
 2717SOL     OW19786   4.432   1.666   0.039 -0.1455 -0.3988  0.0125
 2717SOL    HW119787   4.421   1.605   0.112  0.5137 -1.2168 -0.5638
 2717SOL    HW219788   4.426   1.611  17.712  0.1877 -0.0281 -0.2785
 2718SOL     OW19789   0.840   3.076  15.440 -0.0589 -0.2231 -0.3399
 2718SOL    HW119790   0.864   3.000  15.387 -0.2948 -2.9133  3.4403
 2718SOL    HW219791   0.758   3.104  15.398 -0.9646 -1.2629  0.7427
 2719SOL     OW19792   1.001   0.143   3.195 -0.0760  0.2701 -0.2582
 2719SOL    HW119793   1.021   0.053   3.222 -1.4160 -0.3372 -1.2931
 2719SOL    HW219794   1.063   0.197   3.244  0.3480 -0.2884 -0.1762
 2720SOL     OW19795   1.729   3.400   3.463  0.4523 -0.0104 -0.4019
 2720SOL    HW119796   1.803   3.350   3.496  0.4455 -0.4687 -1.0661
 2720SOL    HW219797   1.648   3.353   3.482  0.2637  0.1969 -0.6865
 2721SOL     OW19798   4.028   0.741   6.793 -0.3963 -0.5113 -0.3270
 2721SOL    HW119799   4.050   0.648   6.789 -0.5439 -0.6814  3.1323
 2721SOL    HW219800   4.114   0.782   6.805 -1.8670  1.7587  2.4570
 2722SOL     OW19801   1.211   0.735   8.332 -0.0346  0.6606 -0.4109
 2722SOL    HW119802   1.241   0.806   8.275  3.0387  0.0694  0.4535
 2722SOL    HW219803   1.214   0.780   8.416 -3.0990  2.6570 -1.3702
 2723SOL     OW19804   4.215   4.169   4.460 -0.9454  0.2336 -0.8276
 2723SOL    HW119805   4.308   4.150   4.475 -1.1899 -0.4946 -0.2518
 2723SOL    HW219806   4.219   4.217   4.377  0.7121  0.1655 -0.7860
 2724SOL     OW19807   2.585   0.058   7.336  0.2556  0.1793  0.0512
 2724SOL    HW119808   2.671   0.022   7.360 -0.3530 -0.5130  1.2045
 2724SOL    HW219809   2.542   4.711   7.345  1.6790 -0.6406 -0.8896
 2725SOL     OW19810   3.233   3.640   7.328 -0.2062  0.1690  0.6710
 2725SOL    HW119811   3.142   3.644   7.296  0.3531  0.6711 -0.8614
 2725SOL    HW219812   3.276   3.659   7.244  0.2292 -0.5302  0.7320
 2726SOL     OW19813   3.365   4.122   2.977 -0.2437 -0.3140  0.1764
 2726SOL    HW119814   3.317   4.104   2.896  2.8649  0.2083 -1.7808
 2726SOL    HW219815   3.317   4.069   3.040 -1.7250  1.7505  0.7663
 2727SOL     OW19816   3.989   1.456   5.958  0.2257 -0.1218 -0.1076
 2727SOL    HW119817   4.066   1.426   6.005  0.4626  0.6757  0.0126
 2727SOL    HW219818   4.023   1.536   5.919 -0.3544  0.0784 -0.2059
 2728SOL     OW19819   2.367   3.891   3.271  0.0002 -0.1598 -0.1910
 2728SOL    HW119820   2.333   3.831   3.337 -2.0162 -0.0379 -1.1129
 2728SOL    HW219821   2.389   3.973   3.316  0.6949  0.9697 -2.6143
 2729SOL     OW19822   4.289   2.204   8.074 -0.6562 -0.5440  0.0944
 2729SOL    HW119823   4.263   2.168   8.159  0.3007  0.1738  0.6989
 2729SOL    HW219824   4.207   2.247   8.049 -0.8626 -1.7815 -1.3171
 2730SOL     OW19825   3.722   0.673  11.539  0.1701 -0.2238  0.2628
 2730SOL    HW119826   3.755   0.675  11.449 -0.3925  1.0171  0.0723
 2730SOL    HW219827   3.669   0.594  11.537 -0.8344  0.4834 -2.4400
 2731SOL     OW19828   3.795   0.036   7.842 -0.1708 -0.5405 -0.1447
 2731SOL    HW119829   3.786   0.017   7.935  0.4960 -1.5015 -0.2689
 2731SOL    HW219830   3.721   4.723   7.808 -0.3823  0.9549 -1.9288
 2732SOL     OW19831   0.004   2.349   2.245 -0.1710  0.1337 -0.0657
 2732SOL    HW119832   4.707   2.352   2.334 -0.2862 -0.1049 -0.1014
 2732SOL    HW219833   4.668   2.320   2.192 -0.0249 -0.4116  0.0213
 2733SOL     OW19834   3.368   2.195   2.088 -0.0823  0.1958 -0.0585
 2733SOL    HW119835   3.458   2.228   2.088  0.2727 -0.7286  1.0876
 2733SOL    HW219836   3.330   2.250   2.020  0.3200  0.6216  0.0573
 2734SOL     OW19837   1.232   3.886   5.554 -0.0620 -0.0055  0.1368
 2734SOL    HW119838   1.160   3.934   5.514 -1.6435 -1.8072  0.7990
 2734SOL    HW219839   1.175   3.816   5.588 -0.8907  1.6724  2.2418
 2735SOL     OW19840   3.765   1.544   4.686  0.6300 -0.0231 -0.0035
 2735SOL    HW119841   3.725   1.618   4.639  0.6583 -0.5483 -0.8520
 2735SOL    HW219842   3.700   1.477   4.662 -1.1152  0.9701  1.9247
 2736SOL     OW19843   3.046   2.332  13.112  0.1094 -0.3690  0.1842
 2736SOL    HW119844   3.107   2.405  13.110 -1.3398  0.7772 -1.3424
 2736SOL    HW219845   2.970   2.374  13.153  0.8391  1.8736 -0.7973
 2737SOL     OW19846   4.203   3.154   2.500 -0.9329 -0.0097  0.0858
 2737SOL    HW119847   4.206   3.093   2.573 -1.5099 -0.2929 -0.1338
 2737SOL    HW219848   4.155   3.098   2.440  0.4042 -1.4873  0.3989
 2738SOL     OW19849   0.968   2.520   6.651  0.3852  0.5321  0.5221
 2738SOL    HW119850   0.913   2.522   6.573  0.3332 -0.4006  0.5277
 2738SOL    HW219851   0.949   2.435   6.691  2.0215 -0.3757 -0.6118
 2739SOL     OW19852   1.794   3.728   3.284 -0.1140 -0.0033 -0.7962
 2739SOL    HW119853   1.814   3.788   3.355 -0.5217  0.1725 -0.8322
 2739SOL    HW219854   1.877   3.681   3.278  0.3511  0.7856 -0.4101
 2740SOL     OW19855   2.850   1.937  10.098  0.4254  0.0674  0.0386
 2740SOL    HW119856   2.802   1.963  10.019  0.3111  1.7042  0.6524
 2740SOL    HW219857   2.784   1.963  10.163  1.5087 -0.4095  1.3215
 2741SOL     OW19858   4.128   2.924   2.294  0.3658 -0.1817 -0.0382
 2741SOL    HW119859   4.140   2.867   2.370 -0.2795 -2.7278 -1.8725
 2741SOL    HW219860   4.212   2.917   2.247 -0.5361 -1.2247 -1.4807
 2742SOL     OW19861   2.980   4.188  16.729 -0.2631 -0.4921  0.3075
 2742SOL    HW119862   2.957   4.122  16.793  1.1044 -1.4215 -0.1476
 2742SOL    HW219863   2.914   4.253  16.753  1.0512  1.2943 -0.8849
 2743SOL     OW19864   2.212   1.175   9.644 -0.3159 -0.1139  0.9187
 2743SOL    HW119865   2.236   1.256   9.688 -0.7028  0.5872 -0.1602
 2743SOL    HW219866   2.125   1.157   9.680  0.0163 -0.6376  1.4703
 2744SOL     OW19867   0.827   1.287   7.411 -1.1583  0.1218  0.5505
 2744SOL    HW119868   0.830   1.307   7.317  0.6867 -2.5657  0.0254
 2744SOL    HW219869   0.843   1.194   7.400 -0.2899  0.6849 -2.9824
 2745SOL     OW19870   2.424   3.499   7.207 -0.8569 -0.5626 -0.2695
 2745SOL    HW119871   2.389   3.450   7.282 -1.7691  0.2361 -0.1832
 2745SOL    HW219872   2.497   3.444   7.177 -1.9720  0.2934 -4.5496
 2746SOL     OW19873   0.997   1.327  11.169  0.2993  0.0678 -0.4745
 2746SOL    HW119874   1.045   1.410  11.165  1.5477 -0.5791  1.1880
 2746SOL    HW219875   0.926   1.333  11.104 -0.1805 -0.0074  0.0446
 2747SOL     OW19876   2.244   1.251   3.246  0.3852  0.3248  0.0411
 2747SOL    HW119877   2.273   1.208   3.165 -2.3188  2.2732 -1.9505
 2747SOL    HW219878   2.315   1.308   3.276  1.6736 -1.8466  1.1335
 2748SOL     OW19879   4.141   3.271   6.805  0.1412 -0.2050 -0.0171
 2748SOL    HW119880   4.117   3.360   6.781  0.9527 -0.0561 -0.2460
 2748SOL    HW219881   4.189   3.289   6.886 -0.2063 -2.6707  0.7692
 2749SOL     OW19882   1.166   3.778   3.402 -0.3082 -0.0845 -0.4815
 2749SOL    HW119883   1.133   3.695   3.370 -0.7089 -0.4727  0.9691
 2749SOL    HW219884   1.082   3.808   3.436  0.0069 -0.1960  0.3894
 2750SOL     OW19885   3.228   1.007   2.675 -0.6202 -0.1875  0.6693
 2750SOL    HW119886   3.138   1.020   2.644 -0.4451 -1.0906 -0.2118
 2750SOL    HW219887   3.274   1.039   2.597  0.1148 -0.5169  0.9666
 2751SOL     OW19888   0.752   0.368   1.958 -0.5908 -0.4153  0.3191
 2751SOL    HW119889   0.839   0.368   1.997 -0.8651  1.5352  0.9163
 2751SOL    HW219890   0.757   0.299   1.892  0.7885  0.5330 -0.5772
 2752SOL     OW19891   0.537   3.191  10.991 -0.7194  0.6910  0.0667
 2752SOL    HW119892   0.600   3.244  10.942 -1.0366  0.4828 -0.5676
 2752SOL    HW219893   0.580   3.177  11.075  0.7836  2.1175 -0.4650
 2753SOL     OW19894   1.844   0.708   5.574 -0.1348 -0.0289 -0.3814
 2753SOL    HW119895   1.753   0.740   5.571 -0.3288 -0.8118 -2.8124
 2753SOL    HW219896   1.837   0.630   5.629  0.9283  0.2243  0.1136
 2754SOL     OW19897   2.738   2.879   3.995 -0.6113  0.1542  0.0687
 2754SOL    HW119898   2.711   2.954   4.048  1.6011  0.7116  0.4016
 2754SOL    HW219899   2.825   2.896   3.959 -0.3455 -0.1409  0.5828
 2755SOL     OW19900   4.332   4.013   8.563 -0.3525 -0.2426  0.4256
 2755SOL    HW119901   4.400   3.987   8.501 -0.3419  0.5559  0.1023
 2755SOL    HW219902   4.372   4.074   8.624  1.6459 -1.2420  0.1242
 2756SOL     OW19903   1.928   3.107  13.192  0.2535  0.4672  0.0986
 2756SOL    HW119904   1.875   3.150  13.259 -2.7045 -2.1869 -0.4712
 2756SOL    HW219905   2.002   3.166  13.205 -0.8413  1.7703  0.4636
 2757SOL     OW19906   1.079   4.152   8.465  0.1816 -0.4485 -0.2235
 2757SOL    HW119907   1.136   4.228   8.449  0.8901 -1.2694 -1.5214
 2757SOL    HW219908   1.072   4.110   8.380  0.2841  0.3149 -0.6144
 2758SOL     OW19909   2.600   0.919   1.799  0.3359  0.4928  0.2663
 2758SOL    HW119910   2.649   0.839   1.815  0.0905  0.2162 -0.3830
 2758SOL    HW219911   2.631   0.932   1.710  0.4108  2.2293  0.5458
 2759SOL     OW19912   4.407   2.325  16.889 -0.0768  0.1851 -0.3011
 2759SOL    HW119913   4.322   2.362  16.866 -0.6263 -0.3753  0.9028
 2759SOL    HW219914   4.435   2.270  16.816 -1.0142 -0.4209 -0.1916
 2760SOL     OW19915   0.367   3.045  17.494 -0.0784  0.3550  0.8103
 2760SOL    HW119916   0.379   3.095  17.414  0.1361  1.0117  1.2491
 2760SOL    HW219917   0.295   2.985  17.477  0.5697  0.2075 -1.3292
 2761SOL     OW19918   2.832   3.720   4.508 -0.1600  0.0135  0.0668
 2761SOL    HW119919   2.753   3.727   4.561 -1.3295  0.3853 -1.7193
 2761SOL    HW219920   2.868   3.636   4.535  1.5905  1.0039  0.8841
 2762SOL     OW19921   1.090   4.433   9.045  0.0071  0.3919 -0.5423
 2762SOL    HW119922   1.115   4.456   8.955  1.2491 -1.7773 -0.7485
 2762SOL    HW219923   1.027   4.361   9.034  0.2427  0.3220 -1.4742
 2763SOL     OW19924   3.156   2.549  13.102  0.6806 -0.1783  0.0512
 2763SOL    HW119925   3.143   2.540  13.007 -0.0520  1.2561  0.0149
 2763SOL    HW219926   3.129   2.639  13.121  2.2306  0.4934 -0.9637
 2764SOL     OW19927   3.627   0.841  15.541 -0.3199  0.6576 -0.1548
 2764SOL    HW119928   3.675   0.854  15.623 -0.9312 -0.8199  0.4322
 2764SOL    HW219929   3.559   0.780  15.572  1.2078  0.0324  1.9593
 2765SOL     OW19930   3.231   2.680   9.600  0.7663  0.1811  0.4132
 2765SOL    HW119931   3.211   2.609   9.661 -1.1545  0.9074  0.6608
 2765SOL    HW219932   3.325   2.674   9.587  1.1172  2.7932  1.6998
 2766SOL     OW19933   4.696   4.379   4.286 -0.4881  0.0920  0.4761
 2766SOL    HW119934   4.737   4.297   4.314 -0.5351 -0.8447 -2.1530
 2766SOL    HW219935   4.604   4.353   4.281 -0.3935 -0.3515  1.0005
 2767SOL     OW19936   2.898   4.581   6.034  0.4800  0.2351  0.3240
 2767SOL    HW119937   2.866   4.666   6.066  2.3151  0.5170  1.4691
 2767SOL    HW219938   2.835   4.545   5.972 -2.1167 -0.2334  3.2348
 2768SOL     OW19939   2.444   3.398  10.722 -0.3492 -0.1447 -0.5851
 2768SOL    HW119940   2.401   3.465  10.774 -2.1993 -1.5820 -0.2686
 2768SOL    HW219941   2.371   3.352  10.680  0.3882 -1.7882 -0.0793
 2769SOL     OW19942   4.563   3.902   8.392  0.1077  0.1381 -0.0718
 2769SOL    HW119943   4.634   3.965   8.406 -2.2670  2.7662  0.4648
 2769SOL    HW219944   4.608   3.819   8.405  2.5065  1.5780  0.8771
 2770SOL     OW19945   1.909   3.221   3.606 -0.1870 -0.7560  0.4072
 2770SOL    HW119946   1.914   3.126   3.620 -2.0823 -1.1973 -1.9050
 2770SOL    HW219947   2.001   3.230   3.584  0.2150 -1.7513  1.6710
 2771SOL     OW19948   2.845   3.065   0.076  1.2036 -0.5458  0.5102
 2771SOL    HW119949   2.761   3.080   0.034  2.1571 -0.3473 -1.3561
 2771SOL    HW219950   2.896   3.130   0.027 -0.2820  0.1545 -0.0813
 2772SOL     OW19951   1.714   2.412   0.812  0.2109  0.9699 -0.2638
 2772SOL    HW119952   1.768   2.356   0.868 -1.6341  0.1928  0.7299
 2772SOL    HW219953   1.773   2.436   0.741 -0.4107  0.7532 -0.8405
 2773SOL     OW19954   0.461   1.918   6.359  0.3454  0.5772  0.1506
 2773SOL    HW119955   0.542   1.873   6.334 -1.0962 -2.4316  0.8983
 2773SOL    HW219956   0.431   1.924   6.268  0.5185  1.1601  0.1315
 2774SOL     OW19957   3.494   2.246   0.954  0.2750 -0.7895 -0.2101
 2774SOL    HW119958   3.586   2.271   0.967 -0.4177  1.7738 -0.4701
 2774SOL    HW219959   3.499   2.172   0.893  1.2575  0.6875 -1.8934
 2775SOL     OW19960   1.700   3.407   8.595 -0.4880  0.1642  0.5505
 2775SOL    HW119961   1.642   3.438   8.665  2.2131  3.5343  1.3075
 2775SOL    HW219962   1.730   3.491   8.560  0.7414 -0.5102 -0.0044
 2776SOL     OW19963   2.907   3.627  11.989 -0.0911 -0.4000  0.3451
 2776SOL    HW119964   3.000   3.639  12.006  0.2548 -0.6590 -1.4589
 2776SOL    HW219965   2.887   3.719  12.004  1.2577  0.1581 -1.3826
 2777SOL     OW19966   4.648   0.436  15.326 -0.2787  0.1934  0.3347
 2777SOL    HW119967   4.717   0.498  15.350 -1.2219  1.4633 -0.1885
 2777SOL    HW219968   4.633   0.405  15.416  2.4744 -1.6391  0.1585
 2778SOL     OW19969   2.923   1.128  10.235 -0.2053  0.0142  0.3207
 2778SOL    HW119970   3.002   1.075  10.238 -1.0950 -1.3359 -0.1270
 2778SOL    HW219971   2.888   1.132  10.325  0.4083 -0.5140  0.5816
 2779SOL     OW19972   2.678   4.700  16.619  0.3926  0.0319 -0.1096
 2779SOL    HW119973   2.754   4.706  16.562 -0.6747  0.6957 -1.4892
 2779SOL    HW219974   2.634   0.042  16.591  1.8868  0.2522 -1.8006
 2780SOL     OW19975   4.386   2.353   2.808  0.3042 -0.6726  0.3239
 2780SOL    HW119976   4.305   2.362   2.858  0.8180 -1.2570  1.2798
 2780SOL    HW219977   4.371   2.262   2.783 -0.2802 -0.3259 -0.5431
 2781SOL     OW19978   3.415   4.183   1.975  0.0337 -0.0809 -0.1961
 2781SOL    HW119979   3.476   4.254   1.997 -0.5537  0.4806 -0.3461
 2781SOL    HW219980   3.443   4.160   1.887  0.5652  0.2286 -0.1110
 2782SOL     OW19981   1.766   0.865   2.118  0.0907 -0.0512  0.3421
 2782SOL    HW119982   1.716   0.907   2.048  0.5619 -0.1758 -0.0697
 2782SOL    HW219983   1.781   0.944   2.171 -2.7497  0.9191 -0.3068
 2783SOL     OW19984   1.386   2.256   7.835  0.0639 -0.4425  0.4154
 2783SOL    HW119985   1.320   2.201   7.877 -2.0598  2.1513  0.3924
 2783SOL    HW219986   1.342   2.339   7.820  2.0102 -0.0459 -3.0309
 2784SOL     OW19987   2.874   2.796  15.447  0.0632 -0.0050 -0.1996
 2784SOL    HW119988   2.916   2.710  15.450  1.7098  0.7825 -0.9626
 2784SOL    HW219989   2.822   2.787  15.367  1.8477 -0.9475 -1.2466
 2785SOL     OW19990   0.005   3.541   0.180 -0.4973 -0.5598  0.2146
 2785SOL    HW119991   0.076   3.518   0.119  1.2265  0.0724  1.9836
 2785SOL    HW219992   0.034   3.488   0.253  2.5570  1.7571  0.7066
 2786SOL     OW19993   0.280   4.324  13.601  0.0495  0.0417 -0.1254
 2786SOL    HW119994   0.218   4.348  13.532  1.2040  0.9513 -0.8498
 2786SOL    HW219995   0.242   4.367  13.677  1.8974 -0.0421  0.8455
 2787SOL     OW19996   2.505   4.470   2.090 -0.6332  0.2527  0.1362
 2787SOL    HW119997   2.468   4.428   2.013 -3.0182 -0.9012  1.9094
 2787SOL    HW219998   2.549   4.392   2.124  0.6848 -0.3281 -2.9332
 2788SOL     OW19999   2.654   0.657   8.166  0.3590  0.5045  0.1315
 2788SOL    HW120000   2.575   0.639   8.115  0.8381  0.7940 -0.7127
 2788SOL    HW220001   2.637   0.748   8.189  2.1527  0.8346  0.1213
 2789SOL     OW20002   1.166   2.469   8.948 -0.0469 -0.0565  0.1771
 2789SOL    HW120003   1.155   2.498   8.857  1.2440 -0.1571 -0.0109
 2789SOL    HW220004   1.114   2.389   8.938  1.8983 -1.1435 -1.1837
 2790SOL     OW20005   1.683   1.637   2.477  0.0898  0.4013  0.3623
 2790SOL    HW120006   1.644   1.549   2.473 -2.2567  1.5443 -1.5951
 2790SOL    HW220007   1.597   1.675   2.493  0.0408  0.2673  0.4235
 2791SOL     OW20008   3.034   2.178   8.379 -0.3202  0.5373 -0.1865
 2791SOL    HW120009   3.102   2.143   8.436 -3.1742 -1.6593  1.8421
 2791SOL    HW220010   2.979   2.100   8.370  1.7637 -1.0569  0.9498
 2792SOL     OW20011   2.431   3.530  13.064 -0.5500  0.6229  0.7835
 2792SOL    HW120012   2.388   3.516  12.980  0.4358  0.6174  0.2760
 2792SOL    HW220013   2.460   3.442  13.088  1.5208  0.3270 -2.8252
 2793SOL     OW20014   0.919   0.938   0.922  0.1984  0.0783  0.2760
 2793SOL    HW120015   0.924   0.913   0.830 -1.1087 -1.3612  0.5945
 2793SOL    HW220016   0.980   0.874   0.957  0.0577  0.2556  0.8362
 2794SOL     OW20017   1.474   1.792   9.049  0.2248  0.6054  0.5770
 2794SOL    HW120018   1.541   1.853   9.018 -1.5564  3.4326  2.2957
 2794SOL    HW220019   1.403   1.856   9.055 -0.4717 -0.2738  1.7193
 2795SOL     OW20020   0.084   2.685   3.394  0.3001  0.2364  0.8189
 2795SOL    HW120021   0.118   2.758   3.446  0.1613  1.9641 -1.5308
 2795SOL    HW220022   0.017   2.728   3.341  1.3887  0.7636 -0.1173
 2796SOL     OW20023   0.971   1.733   0.357 -0.1642  0.3385  0.3805
 2796SOL    HW120024   1.028   1.777   0.420 -0.5937  0.4817  0.6626
 2796SOL    HW220025   0.908   1.801   0.333 -0.9208 -0.7184 -0.6063
 2797SOL     OW20026   3.616   0.349  13.750 -0.5232 -0.3733  0.6880
 2797SOL    HW120027   3.584   0.344  13.840 -0.0264  0.4443  0.9126
 2797SOL    HW220028   3.531   0.360  13.707  0.0271 -1.7324 -0.7257
 2798SOL     OW20029   3.670   1.450   0.562 -0.0856  0.4144 -0.5069
 2798SOL    HW120030   3.615   1.373   0.572 -0.4004  0.8406  1.0131
 2798SOL    HW220031   3.668   1.484   0.472 -1.7777  1.0205 -0.2455
 2799SOL     OW20032   1.310   4.603   9.401  0.2548 -0.1195  0.3141
 2799SOL    HW120033   1.358   4.537   9.451 -1.9877 -2.5830 -0.7846
 2799SOL    HW220034   1.362   4.679   9.426  1.9450 -1.2327  0.1741
 2800SOL     OW20035   2.476   1.709   1.779  0.2686 -0.5324  0.3710
 2800SOL    HW120036   2.434   1.639   1.730  0.8179 -0.3599 -0.3369
 2800SOL    HW220037   2.400   1.752   1.818 -0.0241 -1.4558  0.8183
 2801SOL     OW20038   1.789   0.414   3.709 -0.0100 -0.0744  0.6711
 2801SOL    HW120039   1.874   0.376   3.727 -0.5137 -0.8649  1.3684
 2801SOL    HW220040   1.816   0.498   3.671 -0.9833  0.2099  0.6044
 2802SOL     OW20041   0.887   0.535  15.950 -0.1855  0.1524 -0.2112
 2802SOL    HW120042   0.962   0.479  15.971 -0.5412 -0.9025 -1.7291
 2802SOL    HW220043   0.920   0.617  15.913 -2.0807  0.9687 -0.0926
 2803SOL     OW20044   1.795   2.582   7.911  0.1323 -0.3408  0.1987
 2803SOL    HW120045   1.752   2.561   7.994 -0.3194 -0.9165 -0.1837
 2803SOL    HW220046   1.722   2.564   7.852 -0.1660  0.2104  0.4038
 2804SOL     OW20047   4.458   2.641  15.993 -0.4415  0.9045  0.0355
 2804SOL    HW120048   4.374   2.686  15.996 -0.2857  1.2378 -0.5959
 2804SOL    HW220049   4.511   2.702  15.941 -0.6616  0.1388 -1.1081
 2805SOL     OW20050   0.730   4.349   8.221  0.1367  0.2926  0.2709
 2805SOL    HW120051   0.713   4.260   8.252 -2.6819  0.8953  0.4427
 2805SOL    HW220052   0.824   4.331   8.209  0.3941  0.3038  2.1850
 2806SOL     OW20053   2.118   3.801  14.003  0.7379  0.0725  0.1762
 2806SOL    HW120054   2.129   3.707  14.017  2.8967  0.4856  1.3235
 2806SOL    HW220055   2.081   3.833  14.085  3.8893  0.2285  1.5307
 2807SOL     OW20056   1.911   3.685   1.765  0.3600  0.3612  0.0190
 2807SOL    HW120057   1.972   3.755   1.744 -0.3200  0.9769  0.1049
 2807SOL    HW220058   1.970   3.611   1.780 -2.7145 -1.6256  2.5015
 2808SOL     OW20059   0.483   2.493   4.481  0.4708 -0.0987  0.1295
 2808SOL    HW120060   0.550   2.558   4.502  0.1985 -0.1758  1.2658
 2808SOL    HW220061   0.538   2.416   4.470  0.7082 -0.2823  2.5383
 2809SOL     OW20062   3.036   2.424   8.517  0.0355 -0.6916  0.7006
 2809SOL    HW120063   3.012   2.339   8.480 -0.2230 -0.9448  1.4522
 2809SOL    HW220064   2.985   2.480   8.459 -1.0645 -0.7434  1.6127
 2810SOL     OW20065   1.277   4.476   8.588 -0.0963 -0.1652 -0.2902
 2810SOL    HW120066   1.347   4.517   8.639 -0.0516 -0.0355 -0.4553
 2810SOL    HW220067   1.308   4.385   8.584 -0.4048 -0.2720 -0.2598
 2811SOL     OW20068   0.666   1.986   9.097 -0.6238  0.1347  0.7785
 2811SOL    HW120069   0.650   2.022   9.010 -1.4426  1.4551  1.4738
 2811SOL    HW220070   0.655   1.893   9.077  3.0581 -0.2997  0.7777
 2812SOL     OW20071   3.567   2.865   6.632 -0.0064  0.2729  0.2117
 2812SOL    HW120072   3.549   2.887   6.541 -0.2848  0.3806  0.2931
 2812SOL    HW220073   3.520   2.943   6.663  2.6788  1.8709  0.2572
 2813SOL     OW20074   2.509   0.425  16.468  0.6479 -0.1259  0.1772
 2813SOL    HW120075   2.421   0.456  16.486  1.2687  0.4610  2.2250
 2813SOL    HW220076   2.549   0.488  16.408 -0.6645 -0.1823 -0.7649
 2814SOL     OW20077   1.634   3.147  12.440 -0.0829  0.0252  0.2343
 2814SOL    HW120078   1.716   3.196  12.436  0.8241 -1.5422 -0.4827
 2814SOL    HW220079   1.592   3.179  12.360  0.7295  1.7781  0.5137
 2815SOL     OW20080   3.330   4.615   3.615  0.2006 -0.0119 -0.8571
 2815SOL    HW120081   3.375   4.669   3.550  0.6102  0.7935  0.0800
 2815SOL    HW220082   3.331   4.530   3.572  3.2234 -1.0209  1.1505
 2816SOL     OW20083   1.110   0.570   5.791  0.6737 -0.2020  0.1389
 2816SOL    HW120084   1.084   0.478   5.800  0.1819  0.0844  1.7353
 2816SOL    HW220085   1.042   0.621   5.836 -0.7478 -2.6227  0.7360
 2817SOL     OW20086   3.270   4.376  14.377 -0.2013 -0.4922 -0.6300
 2817SOL    HW120087   3.331   4.447  14.398 -1.1219 -0.3727  1.5867
 2817SOL    HW220088   3.248   4.337  14.461 -0.4633  2.1973  0.5406
 2818SOL     OW20089   4.097   0.020   3.062 -0.4150 -0.6045  0.5273
 2818SOL    HW120090   4.070   0.069   2.984 -1.2302 -0.8357  0.6719
 2818SOL    HW220091   4.093   4.666   3.035  0.5213 -1.0272  1.8034
 2819SOL     OW20092   1.621   1.087   0.057  0.0175 -0.2245  0.3662
 2819SOL    HW120093   1.548   1.072  17.747  0.4636 -0.6220 -0.0746
 2819SOL    HW220094   1.600   1.175   0.088  2.4320  0.4363  0.0697
 2820SOL     OW20095   2.517   3.234   5.551 -0.0835 -0.6068 -0.4991
 2820SOL    HW120096   2.433   3.249   5.594  1.3257  0.4892  1.9067
 2820SOL    HW220097   2.568   3.224   5.632 -0.9412 -0.3541  0.0684
 2821SOL     OW20098   1.638   3.722   6.365 -0.5120  0.4782  0.9445
 2821SOL    HW120099   1.681   3.788   6.420 -0.1273  1.3386 -0.3842
 2821SOL    HW220100   1.707   3.686   6.310 -0.2009  2.0540  0.3053
 2822SOL     OW20101   1.030   3.613   7.692 -0.5547 -0.3654 -0.1783
 2822SOL    HW120102   1.107   3.619   7.749  0.1169  0.2387 -1.1488
 2822SOL    HW220103   0.982   3.695   7.705 -1.5381 -0.8883 -0.5123
 2823SOL     OW20104   3.334   1.766   8.128 -0.0843 -0.4512 -0.2008
 2823SOL    HW120105   3.390   1.808   8.062  0.7195  0.9831  1.3792
 2823SOL    HW220106   3.385   1.685   8.134 -0.3892 -0.5980  0.4409
 2824SOL     OW20107   0.822   3.703   8.537  0.0528  0.1630  0.4252
 2824SOL    HW120108   0.876   3.624   8.538 -1.4402 -0.8584 -0.7102
 2824SOL    HW220109   0.881   3.776   8.521 -1.2845  1.4403  1.3452
 2825SOL     OW20110   1.011   0.077   1.875 -0.0407  1.1704  0.5704
 2825SOL    HW120111   0.945   0.008   1.865 -1.3588  2.3417  1.1006
 2825SOL    HW220112   1.005   0.117   1.789 -0.7868  0.0482  0.1014
 2826SOL     OW20113   0.083   1.926   2.330 -0.3936  0.4522 -0.5125
 2826SOL    HW120114   4.728   1.938   2.352 -0.7154  0.6206 -1.9566
 2826SOL    HW220115   0.114   2.012   2.360 -0.6087  0.7951 -1.2698
 2827SOL     OW20116   2.895   3.323   6.365  0.0774  0.2262 -0.6117
 2827SOL    HW120117   2.881   3.334   6.271 -0.0600 -1.4004 -0.7751
 2827SOL    HW220118   2.941   3.403   6.392 -0.8493 -0.2754  2.4519
 2828SOL     OW20119   0.659   1.784  11.932 -0.3492 -0.1779 -0.8212
 2828SOL    HW120120   0.592   1.719  11.952  0.4107 -1.4441 -2.3259
 2828SOL    HW220121   0.735   1.730  11.910 -1.2304 -1.3802 -0.9086
 2829SOL     OW20122   3.489   4.579   3.011  0.4174 -0.4751  0.0202
 2829SOL    HW120123   3.460   4.500   3.056  0.7825 -1.5955 -1.7301
 2829SOL    HW220124   3.446   4.653   3.053  1.8578 -0.3582  1.2798
 2830SOL     OW20125   4.493   3.440   9.160  0.1567 -0.0810  0.1093
 2830SOL    HW120126   4.482   3.458   9.253 -4.0402  2.2260 -0.8694
 2830SOL    HW220127   4.540   3.521   9.140  0.9384 -0.5513  0.0358
 2831SOL     OW20128   1.431   1.807   9.426  0.1254 -1.0202  0.1377
 2831SOL    HW120129   1.356   1.849   9.383  0.2621  1.0898  1.9246
 2831SOL    HW220130   1.492   1.877   9.449 -1.9943  1.6746 -2.4841
 2832SOL     OW20131   0.706   3.220   5.100  0.0640 -0.6177 -0.6893
 2832SOL    HW120132   0.652   3.292   5.133 -0.8479 -1.5951 -0.0305
 2832SOL    HW220133   0.723   3.172   5.181  1.3732 -0.6622 -0.9896
 2833SOL     OW20134   2.172   1.985  17.479 -0.2207 -0.5804 -0.3603
 2833SOL    HW120135   2.248   2.042  17.492 -1.3772  0.5518  1.5072
 2833SOL    HW220136   2.100   2.044  17.498  1.7930  0.9584  2.5492
 2834SOL     OW20137   4.673   2.772   7.219 -0.2771  0.3857  0.2984
 2834SOL    HW120138   4.715   2.692   7.249 -0.9138  0.9188  2.5948
 2834SOL    HW220139   4.649   2.748   7.129  0.0191 -2.2166  0.9323
 2835SOL     OW20140   3.547   4.093   3.294 -0.4481 -0.0761 -0.3972
 2835SOL    HW120141   3.495   4.017   3.324  2.2799 -1.3358  1.0975
 2835SOL    HW220142   3.615   4.049   3.243 -0.0322 -0.8142  0.7856
 2836SOL     OW20143   4.124   3.102   7.615 -0.5220 -0.4113  0.2614
 2836SOL    HW120144   4.054   3.074   7.673 -2.7556  1.6411 -1.4476
 2836SOL    HW220145   4.184   3.029   7.629 -0.6259 -1.0739 -2.6617
 2837SOL     OW20146   0.823   4.446   2.664  0.2467 -0.4609  0.3399
 2837SOL    HW120147   0.871   4.529   2.652  1.4841 -1.2963 -0.4514
 2837SOL    HW220148   0.872   4.418   2.741  3.1048 -1.3025 -1.7936
 2838SOL     OW20149   2.866   3.008  15.081  0.2673 -0.1331  0.3378
 2838SOL    HW120150   2.858   2.983  14.990  2.6804  0.3387 -0.0151
 2838SOL    HW220151   2.957   3.039  15.078 -0.1436  1.3849  3.1756
 2839SOL     OW20152   0.922   3.019   0.512 -0.7287 -0.3336 -0.1124
 2839SOL    HW120153   0.826   3.024   0.511 -0.6279  1.5946  0.7608
 2839SOL    HW220154   0.940   3.095   0.457  3.2665 -0.6316  0.8031
 2840SOL     OW20155   4.414   0.722   7.241 -0.0936  0.1694  0.0641
 2840SOL    HW120156   4.366   0.640   7.235 -0.8878  0.7120 -1.0656
 2840SOL    HW220157   4.416   0.734   7.336  3.6451 -2.0271  0.2788
 2841SOL     OW20158   3.468   4.134   6.839  0.6857  0.2778 -0.1703
 2841SOL    HW120159   3.540   4.081   6.805  0.0171 -1.0233  0.4718
 2841SOL    HW220160   3.398   4.074   6.813 -0.0069  0.7899  0.4944
 2842SOL     OW20161   1.846   3.073   1.735  0.2050  0.5578  0.3940
 2842SOL    HW120162   1.804   3.159   1.729 -2.2996 -0.7039 -0.1444
 2842SOL    HW220163   1.796   3.029   1.804  1.3363  1.8528  2.0402
 2843SOL     OW20164   3.357   4.319   9.247 -0.1046 -0.0960  0.5558
 2843SOL    HW120165   3.390   4.230   9.251  0.0409 -0.0933 -0.6463
 2843SOL    HW220166   3.382   4.351   9.334  1.2197  1.5845 -0.4133
 2844SOL     OW20167   4.597   1.500   5.180  0.0786  0.2537  0.0845
 2844SOL    HW120168   4.671   1.520   5.237  1.5462 -2.9481 -0.7267
 2844SOL    HW220169   4.630   1.443   5.112  0.7727  1.0913 -0.2772
 2845SOL     OW20170   4.598   0.506   7.914  0.1457  0.1750  0.1255
 2845SOL    HW120171   4.598   0.559   7.993 -1.3174  0.8432 -0.3070
 2845SOL    HW220172   4.591   0.420   7.954 -2.0842  0.9078  1.3459
 2846SOL     OW20173   4.022   4.240   6.772 -0.4424  0.7576 -0.4926
 2846SOL    HW120174   4.070   4.304   6.825  0.4080 -1.7506  1.7833
 2846SOL    HW220175   4.021   4.278   6.684  0.8872  2.2619  0.1355
 2847SOL     OW20176   1.109   2.899   7.473  0.3278  0.5502  0.4763
 2847SOL    HW120177   1.046   2.970   7.465 -0.7735 -0.4205  0.4636
 2847SOL    HW220178   1.079   2.837   7.407 -0.1841 -0.2743  1.4829
 2848SOL     OW20179   2.681   1.143   9.290 -0.5495 -0.1517 -0.1161
 2848SOL    HW120180   2.722   1.225   9.320  0.5017 -0.5216 -0.5190
 2848SOL    HW220181   2.626   1.176   9.219 -0.7895  0.1878  0.2288
 2849SOL     OW20182   2.922   3.755   0.890 -0.3319  0.0617  0.1460
 2849SOL    HW120183   2.878   3.707   0.960 -1.1289 -2.9456 -2.4462
 2849SOL    HW220184   2.843   3.778   0.840 -0.9840  2.3070  2.1510
 2850SOL     OW20185   3.282   0.978   2.258  0.3984 -0.1844  0.1864
 2850SOL    HW120186   3.358   0.981   2.200 -0.4996  1.9699 -0.8527
 2850SOL    HW220187   3.290   1.048   2.322 -0.1738  0.6050 -0.6076
 2851SOL     OW20188   4.649   2.170   4.267 -0.1160  0.0560 -0.3668
 2851SOL    HW120189   4.731   2.220   4.268 -1.0337  1.5140  1.5860
 2851SOL    HW220190   4.692   2.106   4.210 -0.0968 -1.1917  1.0474
 2852SOL     OW20191   0.652   1.906   5.224  0.4560  0.0725 -0.3117
 2852SOL    HW120192   0.704   1.947   5.293  1.3637  0.6750 -1.3738
 2852SOL    HW220193   0.677   1.816   5.243  0.6300  0.2622  0.3678
 2853SOL     OW20194   2.034   4.177   8.022  0.6900 -0.2351 -0.1303
 2853SOL    HW120195   1.953   4.138   8.055  1.1820 -1.5345 -0.4610
 2853SOL    HW220196   2.030   4.157   7.928  0.2241  2.8973 -0.7833
 2854SOL     OW20197   0.972   4.025   9.178 -0.2422 -0.7144  0.2199
 2854SOL    HW120198   1.056   3.990   9.149 -0.3547 -0.9485  0.1824
 2854SOL    HW220199   0.907   3.957   9.161 -0.9638 -0.2385  1.0761
 2855SOL     OW20200   3.533   4.638   5.223  0.5975 -0.4681  0.2510
 2855SOL    HW120201   3.593   4.582   5.174 -0.2770 -0.4094 -0.8870
 2855SOL    HW220202   3.551   4.609   5.312  0.7308  1.0880  0.7397
 2856SOL     OW20203   1.582   3.392   1.069  0.1828 -0.4821 -0.2166
 2856SOL    HW120204   1.539   3.307   1.078  2.5980 -1.6080  0.7241
 2856SOL    HW220205   1.533   3.441   1.135 -0.9766  0.3439 -1.6815
 2857SOL     OW20206   3.469   2.355   5.027  0.1371 -0.4558 -0.5747
 2857SOL    HW120207   3.528   2.280   5.030 -0.1526 -0.6970 -0.9213
 2857SOL    HW220208   3.389   2.304   5.022 -0.4805  0.4307  0.1973
 2858SOL     OW20209   0.661   0.448   5.009  0.9328 -0.5672 -0.5744
 2858SOL    HW120210   0.644   0.434   5.102 -1.7782  0.4735 -0.9036
 2858SOL    HW220211   0.625   0.537   5.009  1.6986 -0.2579 -1.5761
 2859SOL     OW20212   1.595   2.977   9.541  0.2440 -0.1671 -0.3196
 2859SOL    HW120213   1.531   2.970   9.470 -1.1051 -1.1955  1.0068
 2859SOL    HW220214   1.662   3.034   9.503 -0.8253 -0.6944 -3.0050
 2860SOL     OW20215   4.637   2.216  17.269  0.2225 -0.4704  0.0553
 2860SOL    HW120216   4.562   2.266  17.238 -0.0242 -0.0233  1.3682
 2860SOL    HW220217   4.703   2.249  17.208 -1.8158  0.0946 -1.8170
 2861SOL     OW20218   3.218   2.827   2.687 -0.6015 -0.5738  0.0091
 2861SOL    HW120219   3.127   2.808   2.711 -0.8638  1.9409  1.0373
 2861SOL    HW220220   3.235   2.761   2.620  0.5667 -0.0986 -0.1658
 2862SOL     OW20221   1.752   3.084   5.545 -0.1378 -0.2892  0.5805
 2862SOL    HW120222   1.687   3.097   5.476 -1.5885  1.7620  2.3076
 2862SOL    HW220223   1.825   3.067   5.487 -1.2273 -0.5734 -0.6952
 2863SOL     OW20224   2.421   1.682   5.245 -0.4290  0.3658  0.3317
 2863SOL    HW120225   2.379   1.613   5.193  0.8233  0.4875 -0.8463
 2863SOL    HW220226   2.348   1.742   5.259 -0.8730  0.3437 -1.9738
 2864SOL     OW20227   2.229   0.467   5.486 -0.2662  0.3491  0.1864
 2864SOL    HW120228   2.147   0.419   5.497 -0.6218  0.3358 -2.6013
 2864SOL    HW220229   2.260   0.422   5.408 -0.6377  2.2655 -1.0481
 2865SOL     OW20230   3.633   3.070  10.139  0.2004  0.1429  0.0075
 2865SOL    HW120231   3.644   3.102  10.229  2.2631  0.8866 -0.5187
 2865SOL    HW220232   3.703   3.118  10.096  2.3088 -1.3542  1.7566
 2866SOL     OW20233   4.270   1.809   6.619  0.3859 -0.4554 -0.0523
 2866SOL    HW120234   4.180   1.839   6.623  0.0371 -1.3257 -1.2499
 2866SOL    HW220235   4.254   1.714   6.622  0.2436 -0.5160 -2.2470
 2867SOL     OW20236   3.241   2.108   3.926 -0.4951  0.0310 -0.4654
 2867SOL    HW120237   3.211   2.140   4.011 -0.7073  0.6432 -0.7768
 2867SOL    HW220238   3.168   2.052   3.898 -0.4256  1.1303 -2.8163
 2868SOL     OW20239   1.561   0.727   2.773  0.0556 -0.7161  0.0156
 2868SOL    HW120240   1.533   0.658   2.713  1.8800 -2.7169  1.5033
 2868SOL    HW220241   1.483   0.777   2.751  0.5875 -0.6628 -1.7926
 2869SOL     OW20242   0.252   1.558   6.049  0.0953 -0.8778 -0.2137
 2869SOL    HW120243   0.320   1.594   5.991  0.3257 -2.6303 -1.0307
 2869SOL    HW220244   0.226   1.643   6.085 -0.2683 -1.4879  0.9437
 2870SOL     OW20245   0.440   1.071  12.462 -0.3547  0.0601  0.4208
 2870SOL    HW120246   0.514   1.113  12.504 -0.3372  0.4007  0.0438
 2870SOL    HW220247   0.365   1.116  12.501 -0.2419 -0.0876  0.8078
 2871SOL     OW20248   2.811   0.473  14.190  0.4501  0.3444  0.4066
 2871SOL    HW120249   2.717   0.485  14.181  0.6015  1.3954  0.2545
 2871SOL    HW220250   2.822   0.514  14.276 -0.0135  2.5358 -0.5946
 2872SOL     OW20251   1.354   2.559   4.915 -0.0376 -0.3543  0.5087
 2872SOL    HW120252   1.377   2.503   4.989 -0.2982 -0.2314  0.6842
 2872SOL    HW220253   1.261   2.566   4.938  0.1061  1.8220  0.4101
 2873SOL     OW20254   0.396   1.105   2.912 -0.5078 -1.2746 -0.4458
 2873SOL    HW120255   0.473   1.053   2.935  1.7439  2.2270 -0.0474
 2873SOL    HW220256   0.349   1.045   2.855  0.2857 -0.8089 -1.5796
 2874SOL     OW20257   3.873   1.015   7.794  1.0223  0.3190 -0.0803
 2874SOL    HW120258   3.875   0.928   7.833 -1.8161  0.2013 -0.2610
 2874SOL    HW220259   3.898   0.994   7.704  2.4386  0.5605  0.2419
 2875SOL     OW20260   1.281   2.204   2.487 -0.3905  0.7019  0.1992
 2875SOL    HW120261   1.276   2.169   2.398 -0.1447  1.5142 -0.1299
 2875SOL    HW220262   1.365   2.176   2.522 -0.7542  1.0724  1.3665
 2876SOL     OW20263   3.940   4.724   5.671  0.0078 -0.1749 -0.0683
 2876SOL    HW120264   3.907   0.068   5.634  2.3364 -0.2784 -2.3733
 2876SOL    HW220265   4.009   4.696   5.611  0.7457 -0.9009  1.1157
 2877SOL     OW20266   0.426   3.559   7.155  0.5044 -0.1493 -0.0700
 2877SOL    HW120267   0.358   3.577   7.220  1.4234 -0.6031  1.0115
 2877SOL    HW220268   0.505   3.604   7.186  0.7644 -0.7578  0.1566
 2878SOL     OW20269   1.714   2.354   3.317 -0.4489  0.3352 -0.0916
 2878SOL    HW120270   1.653   2.290   3.281 -0.1835 -0.0930  0.2158
 2878SOL    HW220271   1.778   2.306   3.369  0.9747  0.8110 -1.4018
 2879SOL     OW20272   4.718   0.748   1.549 -0.3199 -0.4245 -0.4927
 2879SOL    HW120273   4.697   0.789   1.633 -0.5791 -0.4799 -0.5311
 2879SOL    HW220274   4.632   0.723   1.515 -0.9213  1.7898 -0.5947
 2880SOL     OW20275   2.240   3.823   8.760 -0.2146  0.5729  0.4200
 2880SOL    HW120276   2.324   3.779   8.755 -0.9948 -0.7806 -0.5614
 2880SOL    HW220277   2.227   3.822   8.855 -0.5228 -0.8445  0.3518
 2881SOL     OW20278   3.772   0.794   2.067  0.0669  0.4191  0.2904
 2881SOL    HW120279   3.799   0.760   2.152  2.1159 -0.8368 -0.8708
 2881SOL    HW220280   3.679   0.813   2.082  0.1648  1.2407 -0.1214
 2882SOL     OW20281   1.367   3.982  17.352  0.3713  0.7116  0.8483
 2882SOL    HW120282   1.438   4.004  17.291  1.9976 -0.9376  2.1721
 2882SOL    HW220283   1.418   3.916  17.399  0.7137 -1.5284 -2.7296
 2883SOL     OW20284   0.254   1.431  16.366 -0.2004 -0.2428 -0.0542
 2883SOL    HW120285   0.311   1.354  16.370  2.2938  1.6040 -0.4368
 2883SOL    HW220286   0.320   1.497  16.387  2.1570 -2.3282 -0.8431
 2884SOL     OW20287   3.982   3.623  13.620  0.0617  0.6151 -0.1881
 2884SOL    HW120288   4.021   3.545  13.582 -0.7350 -0.2577  0.7607
 2884SOL    HW220289   4.019   3.609  13.707 -0.8075  1.1048  0.2646
 2885SOL     OW20290   3.454   1.705   9.487  0.0557  0.4453  0.0322
 2885SOL    HW120291   3.400   1.770   9.534 -0.2814  0.2383 -0.0713
 2885SOL    HW220292   3.439   1.747   9.403 -1.8243 -1.1630 -0.4248
 2886SOL     OW20293   1.430   1.786   8.275  0.3791  0.0403 -0.2789
 2886SOL    HW120294   1.471   1.765   8.191  1.6898  0.7215  0.1818
 2886SOL    HW220295   1.412   1.699   8.310  0.2600  1.7042  3.8826
 2887SOL     OW20296   0.200   3.753   6.496  0.4931  0.1004  0.1119
 2887SOL    HW120297   0.255   3.825   6.527 -0.4618  0.0932  1.7914
 2887SOL    HW220298   0.117   3.799   6.502  1.2796  1.5843 -0.4123
 2888SOL     OW20299   0.555   3.370   1.748 -0.1972  0.1076 -0.5925
 2888SOL    HW120300   0.594   3.297   1.700  1.0977 -0.4726  1.3506
 2888SOL    HW220301   0.608   3.373   1.827  0.5288  0.1524 -1.0801
 2889SOL     OW20302   0.684   0.027   8.024 -0.0947  0.6442  0.5488
 2889SOL    HW120303   0.724   4.734   7.943 -1.5494 -2.3316  0.9902
 2889SOL    HW220304   0.630   4.692   8.054 -0.9902  0.5995 -1.2079
 2890SOL     OW20305   0.781   0.472  13.762 -0.6465 -0.2456  0.2392
 2890SOL    HW120306   0.817   0.409  13.700  0.4212  1.2667 -0.6731
 2890SOL    HW220307   0.791   0.556  13.717  0.3384 -1.1369 -1.2145
 2891SOL     OW20308   0.227   3.426   8.640  0.3201  0.3229 -0.6541
 2891SOL    HW120309   0.252   3.454   8.728  0.5436 -0.2991 -0.5196
 2891SOL    HW220310   0.236   3.511   8.597  0.2537  0.0146 -1.2924
 2892SOL     OW20311   1.652   2.830  10.780  0.2041 -0.4298 -0.2725
 2892SOL    HW120312   1.670   2.745  10.739 -2.5873 -0.1943 -1.9852
 2892SOL    HW220313   1.586   2.861  10.719  0.2099 -2.0025 -1.0814
 2893SOL     OW20314   1.138   4.603  15.038 -0.1047 -0.0883  0.3307
 2893SOL    HW120315   1.149   4.546  14.961 -1.3727  1.0669 -0.6995
 2893SOL    HW220316   1.226   4.636  15.053 -1.5029  2.1024  3.6078
 2894SOL     OW20317   1.801   0.742   8.035 -0.0210 -0.5280  0.6516
 2894SOL    HW120318   1.821   0.789   7.954 -0.4456  1.5744  1.7526
 2894SOL    HW220319   1.888   0.707   8.052  1.4520  3.2664  0.9443
 2895SOL     OW20320   3.514   2.432   7.691  0.1716  0.2348  0.1986
 2895SOL    HW120321   3.459   2.417   7.614  1.4867  0.6633 -0.8375
 2895SOL    HW220322   3.467   2.511   7.715  0.8388  0.1550  1.7455
 2896SOL     OW20323   2.903   1.005   0.237  0.1809 -0.3651  0.1575
 2896SOL    HW120324   2.921   1.088   0.192  1.0127  0.2126  1.5602
 2896SOL    HW220325   2.852   1.037   0.311  3.2845  1.1790  1.6105
 2897SOL     OW20326   1.269   4.082   0.740  0.0739  0.2881  0.3491
 2897SOL    HW120327   1.226   4.049   0.819  3.1571  0.9597  2.3208
 2897SOL    HW220328   1.263   4.177   0.753 -1.0956  0.1951  0.4474
 2898SOL     OW20329   2.214   0.637   7.462  0.2875 -0.0467 -0.1461
 2898SOL    HW120330   2.210   0.604   7.552  0.7428 -0.0258 -0.1140
 2898SOL    HW220331   2.241   0.729   7.475 -0.0705  0.0626 -0.1940
 2899SOL     OW20332   0.908   0.737   9.806 -0.1188 -0.1159  0.1858
 2899SOL    HW120333   0.923   0.671   9.873 -0.7241  1.0847  1.4947
 2899SOL    HW220334   0.814   0.723   9.805 -0.0429 -0.5369 -1.6957
 2900SOL     OW20335   3.797   1.440  16.203 -0.6648 -0.4780 -0.6506
 2900SOL    HW120336   3.821   1.525  16.167  0.2873 -0.2295  0.5896
 2900SOL    HW220337   3.884   1.401  16.204 -1.3266 -1.9570 -0.6299
 2901SOL     OW20338   4.075   1.617  13.375  0.1743 -0.1584  0.1425
 2901SOL    HW120339   3.979   1.618  13.371  0.2098 -2.2673 -0.9587
 2901SOL    HW220340   4.106   1.696  13.330 -1.6806  0.5329  0.0974
 2902SOL     OW20341   4.721   2.139   6.307  0.3454 -0.1385 -0.1187
 2902SOL    HW120342   0.023   2.056   6.334  3.4624  0.6975 -2.2301
 2902SOL    HW220343   4.673   2.169   6.385 -0.9097  2.5461 -1.9344
 2903SOL     OW20344   3.784   3.050  14.852  0.5264  0.3822 -0.2510
 2903SOL    HW120345   3.737   2.979  14.897  0.8476  1.4299  1.7306
 2903SOL    HW220346   3.720   3.047  14.781 -1.1592  0.0972  1.2800
 2904SOL     OW20347   1.358   2.081   5.738  0.0160 -0.3444 -0.0034
 2904SOL    HW120348   1.339   2.066   5.831 -1.8377  0.6058 -0.2502
 2904SOL    HW220349   1.339   2.174   5.727 -0.5698 -0.1363  2.7045
 2905SOL     OW20350   1.947   4.035   7.059 -0.0980 -0.1905  0.3760
 2905SOL    HW120351   1.892   3.966   7.097  0.1726 -0.7290 -0.2006
 2905SOL    HW220352   2.031   4.029   7.105 -1.1926  2.7258  2.7470
 2906SOL     OW20353   0.087   2.019   3.674  0.7958  0.0850 -0.2007
 2906SOL    HW120354   0.030   2.062   3.737  2.0361  1.3140  0.0839
 2906SOL    HW220355   0.176   2.048   3.696  0.3102  0.3998  1.3531
 2907SOL     OW20356   2.525   1.550  10.604  0.1774  0.1154 -0.2378
 2907SOL    HW120357   2.484   1.545  10.517  0.5158  1.9920 -0.5211
 2907SOL    HW220358   2.503   1.643  10.617  0.0029  0.3868 -2.4165
 2908SOL     OW20359   4.272   0.794   3.638  0.2790 -0.1651 -0.0928
 2908SOL    HW120360   4.274   0.819   3.731  0.2783 -0.7756  0.0742
 2908SOL    HW220361   4.360   0.760   3.621  0.6379  0.2305  0.9808
 2909SOL     OW20362   4.204   3.550  16.888  0.0854  0.7786 -0.4610
 2909SOL    HW120363   4.284   3.598  16.911  0.8558 -1.4524  1.5879
 2909SOL    HW220364   4.229   3.460  16.867 -0.6344  0.8317 -1.5289
 2910SOL     OW20365   2.579   1.869   7.294  0.4013 -0.4487  0.5962
 2910SOL    HW120366   2.547   1.835   7.211  0.0154  1.7297 -0.1513
 2910SOL    HW220367   2.663   1.825   7.302  1.2257  0.4449 -3.0399
 2911SOL     OW20368   3.709   3.399   7.358  0.4026 -0.3142 -0.0662
 2911SOL    HW120369   3.683   3.416   7.267 -0.8842 -2.3077 -0.0641
 2911SOL    HW220370   3.701   3.304   7.352  1.5486 -0.4250  0.1384
 2912SOL     OW20371   1.839   4.498  13.592  0.2935 -0.4107 -0.4072
 2912SOL    HW120372   1.754   4.475  13.631  0.3973 -0.2947 -0.1146
 2912SOL    HW220373   1.846   4.592  13.603 -0.9256 -0.1821 -1.5663
 2913SOL     OW20374   0.514   3.843   7.387 -0.5536  0.4668 -0.5552
 2913SOL    HW120375   0.598   3.798   7.372 -0.2287  0.7727  0.3567
 2913SOL    HW220376   0.444   3.780   7.379 -0.8699  0.5212  1.8655
 2914SOL     OW20377   1.084   1.154   9.449  0.1174 -0.2640 -0.2490
 2914SOL    HW120378   1.158   1.127   9.504 -0.2346  1.3738  1.0428
 2914SOL    HW220379   1.136   1.220   9.405  0.6155 -0.8399 -0.5296
 2915SOL     OW20380   0.735   0.306   0.800  0.0324  0.1070 -0.7672
 2915SOL    HW120381   0.769   0.238   0.742  0.1063  0.6257 -1.3297
 2915SOL    HW220382   0.643   0.317   0.777 -0.3104 -2.5190 -0.6556
 2916SOL     OW20383   0.761   1.961  15.114 -0.4823  0.1210  0.2433
 2916SOL    HW120384   0.693   1.993  15.054  0.8614  0.4367 -1.1222
 2916SOL    HW220385   0.706   1.940  15.189 -0.0666 -0.9280  0.2486
 2917SOL     OW20386   0.565   4.113   3.708 -0.4376  0.2309 -0.4116
 2917SOL    HW120387   0.520   4.167   3.643  0.4423  0.1242 -1.1185
 2917SOL    HW220388   0.538   4.162   3.785 -2.0658 -1.4220  0.0448
 2918SOL     OW20389   0.334   1.216   1.262 -0.4680  0.3646 -0.2732
 2918SOL    HW120390   0.295   1.242   1.345 -1.7234 -0.1818 -0.6932
 2918SOL    HW220391   0.427   1.221   1.287 -0.2140 -1.7185 -0.8183
 2919SOL     OW20392   0.074   0.357   1.432  0.1968  0.3345  0.2383
 2919SOL    HW120393   0.119   0.438   1.407 -0.7505  1.0672  0.9285
 2919SOL    HW220394   4.731   0.363   1.382  0.7891  0.3590 -0.7414
 2920SOL     OW20395   1.030   4.018   6.769  0.1676  0.0689 -0.9630
 2920SOL    HW120396   1.049   4.050   6.857  2.0407 -1.1390 -0.9227
 2920SOL    HW220397   0.998   4.097   6.727  0.2203 -0.4099 -1.9082
 2921SOL     OW20398   3.149   4.471   7.794 -0.2333 -0.1810  0.4789
 2921SOL    HW120399   3.149   4.389   7.745  0.8560 -0.2133  0.5388
 2921SOL    HW220400   3.110   4.534   7.733  1.1048  1.0916  0.9201
 2922SOL     OW20401   0.655   1.527  16.071 -0.0064 -0.2434  0.1034
 2922SOL    HW120402   0.713   1.451  16.069  2.3587  1.5702 -0.9130
 2922SOL    HW220403   0.585   1.476  16.111  0.5143 -0.4295  0.7803
 2923SOL     OW20404   3.481   4.248  15.979  0.8945  0.1013 -0.0175
 2923SOL    HW120405   3.390   4.255  16.006  0.8001  1.0112 -0.5872
 2923SOL    HW220406   3.494   4.153  15.987  0.1388 -0.1282 -1.4782
 2924SOL     OW20407   0.316   2.013   0.825  0.2354  0.1152 -0.1967
 2924SOL    HW120408   0.328   2.049   0.913 -0.7562 -2.2091  0.8692
 2924SOL    HW220409   0.248   2.073   0.795  1.9787  2.7045  0.9735
 2925SOL     OW20410   4.695   4.562   0.988 -0.2957 -0.0936 -0.0610
 2925SOL    HW120411   4.663   4.645   1.023  0.0846  0.1043 -0.1840
 2925SOL    HW220412   0.050   4.573   1.007 -0.4973  0.3795  0.6546
 2926SOL     OW20413   2.320   1.407  13.160 -0.0696 -0.0377 -0.0816
 2926SOL    HW120414   2.279   1.403  13.246  1.5447 -0.2763  0.6682
 2926SOL    HW220415   2.378   1.478  13.184  0.2691  0.5856 -2.7610
 2927SOL     OW20416   3.839   4.166   6.452 -0.0926  0.4510  0.2879
 2927SOL    HW120417   3.810   4.182   6.362 -1.6748 -1.6121  0.4289
 2927SOL    HW220418   3.907   4.232   6.466  0.0628  0.2573  0.4426
 2928SOL     OW20419   0.924   2.496   2.348  0.5568 -0.3765  0.6932
 2928SOL    HW120420   0.846   2.533   2.307  1.0966  2.7000  2.4504
 2928SOL    HW220421   0.986   2.567   2.335 -0.6939  0.8178  1.2251
 2929SOL     OW20422   2.968   3.777   7.747 -0.5614  0.0850 -0.4158
 2929SOL    HW120423   2.988   3.749   7.836  0.2399 -1.4581 -1.0848
 2929SOL    HW220424   3.039   3.741   7.694  1.3272  2.2652  0.6628
 2930SOL     OW20425   3.799   4.201  11.715 -0.1185  0.4205  0.1402
 2930SOL    HW120426   3.814   4.226  11.624 -0.5726 -1.1675 -0.3719
 2930SOL    HW220427   3.768   4.112  11.699  0.4040  0.0775  1.0044
 2931SOL     OW20428   2.034   4.585   2.828 -0.2719 -0.3378 -0.7295
 2931SOL    HW120429   1.965   4.648   2.846 -0.4980 -0.7259 -0.2477
 2931SOL    HW220430   2.020   4.530   2.906  0.0190  1.4208  0.5482
 2932SOL     OW20431   4.062   0.714  16.513 -0.6121  0.0528  0.2118
 2932SOL    HW120432   4.098   0.707  16.601 -1.6025  2.7316  0.8289
 2932SOL    HW220433   4.045   0.623  16.490 -1.8272  0.0227  1.2377
 2933SOL     OW20434   2.576   0.862   5.769 -0.0246  0.2386 -0.3547
 2933SOL    HW120435   2.583   0.844   5.863 -2.7572  0.1646 -0.1452
 2933SOL    HW220436   2.634   0.937   5.756 -0.7398  0.4438 -2.3265
 2934SOL     OW20437   1.336   1.216   8.823 -0.0027  0.4539  0.4428
 2934SOL    HW120438   1.361   1.197   8.913  0.3407 -1.5814 -0.0755
 2934SOL    HW220439   1.242   1.230   8.832 -0.0374  0.5992 -0.1602
 2935SOL     OW20440   2.442   4.534   7.936  0.1377 -0.4238 -0.4565
 2935SOL    HW120441   2.422   4.615   7.983  1.1419  0.3168 -1.3118
 2935SOL    HW220442   2.353   4.506   7.916  0.0029 -1.1579  1.1847
 2936SOL     OW20443   2.756   1.595  14.005 -0.1607  0.5805  0.4674
 2936SOL    HW120444   2.708   1.674  13.980  1.9237  0.7861 -2.8451
 2936SOL    HW220445   2.848   1.617  14.015  0.4060 -2.7816  2.5547
 2937SOL     OW20446   3.620   0.843  14.628  1.0313  0.0498 -0.2217
 2937SOL    HW120447   3.560   0.768  14.636  0.9173 -0.0508 -2.1232
 2937SOL    HW220448   3.609   0.892  14.710 -0.9270 -0.3999 -0.2353
 2938SOL     OW20449   1.284   1.797  12.941  0.5892  0.1108  0.6935
 2938SOL    HW120450   1.234   1.826  13.017 -0.5957  0.8134 -0.3406
 2938SOL    HW220451   1.308   1.884  12.908 -0.2685 -0.2977 -1.0573
 2939SOL     OW20452   1.143   2.955   8.324  0.0313  0.0006  0.0018
 2939SOL    HW120453   1.128   2.942   8.230  0.1199  4.2716 -0.6094
 2939SOL    HW220454   1.121   3.047   8.339 -1.6783 -0.5398  0.7680
 2940SOL     OW20455   3.137   3.445   9.438  0.0110  0.2440 -0.5598
 2940SOL    HW120456   3.077   3.376   9.465  0.0457  0.3393 -0.2310
 2940SOL    HW220457   3.103   3.513   9.497  0.2714 -0.5606  0.5246
 2941SOL     OW20458   3.423   3.103   8.050 -0.3777 -0.2579  0.8044
 2941SOL    HW120459   3.488   3.094   8.119  0.3436 -0.5548  0.0852
 2941SOL    HW220460   3.457   3.064   7.969  0.9505  1.2127  0.6570
 2942SOL     OW20461   2.857   1.578   8.094  0.5752  0.9177 -0.0180
 2942SOL    HW120462   2.888   1.513   8.031 -0.7361 -0.4172  0.7207
 2942SOL    HW220463   2.905   1.657   8.070 -0.0636  0.9240 -1.2985
 2943SOL     OW20464   0.781   2.118   3.901 -0.2574 -0.9186  0.5939
 2943SOL    HW120465   0.714   2.053   3.921 -2.3212  1.3670  1.1000
 2943SOL    HW220466   0.853   2.078   3.949  0.1244  0.7710  1.4439
 2944SOL     OW20467   0.287   3.159   9.991 -0.5033 -0.3894 -0.2919
 2944SOL    HW120468   0.246   3.240  10.022  0.8318  0.5432 -0.9698
 2944SOL    HW220469   0.245   3.082  10.031  1.2768  0.0155  2.3049
 2945SOL     OW20470   2.398   4.253   9.775 -0.2228 -0.1553 -0.2377
 2945SOL    HW120471   2.310   4.232   9.744 -0.0972  0.5374 -1.0654
 2945SOL    HW220472   2.363   4.326   9.826  0.2991  1.5793 -2.3316
 2946SOL     OW20473   1.717   4.535   7.582  0.4434 -0.0424  0.5551
 2946SOL    HW120474   1.694   4.444   7.600 -0.4707  0.2454  0.8374
 2946SOL    HW220475   1.758   4.570   7.661 -0.5752  2.3644  0.0243
 2947SOL     OW20476   1.771   1.462   8.295  0.1107 -0.4668  0.2077
 2947SOL    HW120477   1.841   1.515   8.332  0.4347 -0.6661 -0.1190
 2947SOL    HW220478   1.704   1.468   8.363 -0.5068 -0.7742 -0.3646
 2948SOL     OW20479   3.522   2.598   2.028 -0.3458 -0.3490 -0.1404
 2948SOL    HW120480   3.598   2.652   2.007  0.1621 -0.9729  0.0776
 2948SOL    HW220481   3.454   2.634   1.971  1.5010  0.0531 -2.0967
 2949SOL     OW20482   3.651   1.778   3.594  0.2655 -0.6779  0.5685
 2949SOL    HW120483   3.565   1.739   3.580  0.2926 -1.2837  2.0240
 2949SOL    HW220484   3.695   1.700   3.627 -0.0915 -1.3035 -0.4768
 2950SOL     OW20485   1.650   2.679   6.534 -0.0004 -0.1004 -0.3908
 2950SOL    HW120486   1.669   2.670   6.440  1.8791 -2.4308  0.1997
 2950SOL    HW220487   1.573   2.735   6.531  0.2614  0.3099  0.7057
 2951SOL     OW20488   3.401   0.903   5.756  0.4212 -0.3881 -0.0664
 2951SOL    HW120489   3.456   0.945   5.822  0.7624  1.9948 -1.8232
 2951SOL    HW220490   3.449   0.820   5.752  0.5771 -0.3410  0.8070
 2952SOL     OW20491   0.248   0.566  16.567 -0.0282  0.0107  0.1824
 2952SOL    HW120492   0.223   0.648  16.610  0.1445 -1.0289  2.2417
 2952SOL    HW220493   0.280   0.600  16.484 -0.2773  1.7339  0.7870
 2953SOL     OW20494   2.935   0.246   8.138  0.7443 -0.5798  0.6546
 2953SOL    HW120495   3.019   0.284   8.164  0.6499 -1.0919  1.7204
 2953SOL    HW220496   2.954   0.212   8.051  1.2885  0.7542  0.2568
 2954SOL     OW20497   3.863   0.565   7.677  0.0093  0.2835 -0.3863
 2954SOL    HW120498   3.870   0.484   7.728  1.4585  1.0959  0.7051
 2954SOL    HW220499   3.845   0.528   7.590 -4.5759  2.3796 -0.3249
 2955SOL     OW20500   0.464   2.722  13.245 -0.7424 -0.5554 -0.0629
 2955SOL    HW120501   0.499   2.718  13.156 -0.0299 -1.6038  0.2512
 2955SOL    HW220502   0.374   2.693  13.228  0.5636 -4.5254 -0.3421
 2956SOL     OW20503   3.643   4.550   3.961 -0.4670 -0.4214  0.4050
 2956SOL    HW120504   3.582   4.553   3.887 -0.1514  0.2438  0.1726
 2956SOL    HW220505   3.704   4.622   3.945 -2.6945  1.7041  1.4365
 2957SOL     OW20506   3.056   2.728   4.157  0.0861  0.0657  0.7451
 2957SOL    HW120507   3.047   2.746   4.064 -1.3267 -0.5435  0.7616
 2957SOL    HW220508   3.096   2.807   4.192 -0.7446  1.4668 -1.5246
 2958SOL     OW20509   1.280   3.330   2.397  0.1215  0.2874 -0.5219
 2958SOL    HW120510   1.336   3.254   2.412  0.3111  0.7153  0.9239
 2958SOL    HW220511   1.345   3.397   2.379  0.7266 -0.0184  0.5552
 2959SOL     OW20512   0.098   3.379   1.787 -0.2867  0.2022 -0.0994
 2959SOL    HW120513   0.157   3.367   1.862  0.7377 -1.1695 -1.1184
 2959SOL    HW220514   0.097   3.474   1.779 -2.1511  0.2503  0.6438
 2960SOL     OW20515   4.481   2.877   7.407  0.0879  0.7308  0.2010
 2960SOL    HW120516   4.552   2.847   7.350 -0.9653 -1.5961  0.0989
 2960SOL    HW220517   4.532   2.949   7.445  0.6130  0.3665  0.1910
 2961SOL     OW20518   1.638   4.153   5.882 -0.1726  0.4093  0.0108
 2961SOL    HW120519   1.678   4.156   5.795  2.3225 -1.8515  1.0845
 2961SOL    HW220520   1.672   4.070   5.913  0.9540  0.9724  0.2650
 2962SOL     OW20521   4.592   0.443   4.431  0.0306 -0.0769 -0.8044
 2962SOL    HW120522   4.654   0.377   4.462 -1.3289 -0.4313  1.1270
 2962SOL    HW220523   4.623   0.468   4.344 -0.9347  1.5344 -0.6877
 2963SOL     OW20524   2.134   4.449   9.304  0.0599 -0.0134 -0.1696
 2963SOL    HW120525   2.152   4.458   9.398  1.4453 -0.0312 -0.4326
 2963SOL    HW220526   2.208   4.391   9.290 -0.5399 -0.8036 -0.0829
 2964SOL     OW20527   4.479   3.176   7.271  0.7091 -0.6489 -0.5121
 2964SOL    HW120528   4.493   3.264   7.235 -1.3168 -0.7079 -1.4176
 2964SOL    HW220529   4.403   3.184   7.328  0.7537 -2.4140 -0.2102
 2965SOL     OW20530   3.743   4.172   6.750  0.3280 -0.0805 -0.7747
 2965SOL    HW120531   3.740   4.154   6.656  1.7528  0.2275 -0.8786
 2965SOL    HW220532   3.833   4.200   6.764  0.1522 -0.6195  1.4359
 2966SOL     OW20533   2.664   4.034   4.335  0.1640  0.6377 -0.2869
 2966SOL    HW120534   2.662   4.129   4.341 -0.6463  0.6439 -0.5816
 2966SOL    HW220535   2.576   4.016   4.369  0.9638 -0.8354  0.9955
 2967SOL     OW20536   1.331   0.206   8.644  0.1158  0.5213  0.5143
 2967SOL    HW120537   1.289   0.282   8.683  0.1117  1.7341 -1.8500
 2967SOL    HW220538   1.322   0.219   8.549 -0.4070  1.9764  0.7634
 2968SOL     OW20539   2.431   2.675   1.893 -0.3938  0.3327  0.0226
 2968SOL    HW120540   2.359   2.668   1.832 -0.1485 -1.3415 -0.0796
 2968SOL    HW220541   2.425   2.592   1.941  0.2582 -0.6659 -1.6253
 2969SOL     OW20542   4.275   4.439  10.995 -0.0031  0.1613 -0.2966
 2969SOL    HW120543   4.279   4.344  11.001 -0.1742  0.0741 -1.6294
 2969SOL    HW220544   4.369   4.454  10.985  0.1762  0.6299  2.1398
 2970SOL     OW20545   3.839   3.442   0.855 -0.3866  0.2257  0.1164
 2970SOL    HW120546   3.916   3.496   0.835 -2.5214  2.5943 -1.8010
 2970SOL    HW220547   3.761   3.495   0.872 -0.2973  0.5549 -0.4843
 2971SOL     OW20548   2.711   0.702  15.161 -0.2272 -0.0570  0.0470
 2971SOL    HW120549   2.716   0.757  15.239  0.6321  0.0298 -0.0716
 2971SOL    HW220550   2.755   0.620  15.183 -0.7650 -0.6596 -1.0891
 2972SOL     OW20551   1.737   4.307  11.655  0.6494  1.1349 -0.3166
 2972SOL    HW120552   1.690   4.328  11.736  0.7671  4.3401 -1.0675
 2972SOL    HW220553   1.736   4.391  11.610 -1.6933  1.0063 -0.4834
 2973SOL     OW20554   3.334   2.440   4.224 -0.3598 -0.3589  0.0461
 2973SOL    HW120555   3.295   2.479   4.303  0.6422  0.6622  0.0251
 2973SOL    HW220556   3.308   2.505   4.159  0.3102  0.4881  0.6288
 2974SOL     OW20557   4.709   1.330   8.990  0.0791 -1.0364  0.5327
 2974SOL    HW120558   0.042   1.324   9.054  0.3010  0.9213  0.4579
 2974SOL    HW220559   4.632   1.325   9.048 -1.3852 -0.1550 -1.3395
 2975SOL     OW20560   1.921   3.877   8.828 -0.2607 -0.3991 -0.1045
 2975SOL    HW120561   2.014   3.868   8.806 -0.1055  1.5660 -0.2831
 2975SOL    HW220562   1.919   3.852   8.920 -2.5879  0.0154 -0.0451
 2976SOL     OW20563   0.765   3.914   8.981 -0.1849  0.4518  0.0144
 2976SOL    HW120564   0.718   3.961   9.050  0.6108 -0.6288  1.2923
 2976SOL    HW220565   0.694   3.924   8.918  0.3668 -1.1616 -0.8646
 2977SOL     OW20566   0.963   0.992   6.863  0.0876  0.2624  0.2485
 2977SOL    HW120567   0.872   1.022   6.865 -0.4319 -1.3025 -0.0205
 2977SOL    HW220568   1.001   1.054   6.925 -0.7538  1.0211 -0.0015
 2978SOL     OW20569   4.496   3.089   2.299 -0.3381  0.8837 -0.0559
 2978SOL    HW120570   4.453   3.005   2.282  1.2520 -0.4731  2.5597
 2978SOL    HW220571   4.424   3.150   2.280  0.7583  1.7125 -1.5062
 2979SOL     OW20572   1.815   2.267   8.120  0.4668  0.1158  0.5108
 2979SOL    HW120573   1.752   2.232   8.183 -0.3103  1.8628  0.7046
 2979SOL    HW220574   1.769   2.348   8.098 -0.1336  0.0067  1.3454
 2980SOL     OW20575   4.168   0.853   5.246  0.3328  0.0331 -0.0512
 2980SOL    HW120576   4.139   0.937   5.284 -0.4690 -1.7048  3.1932
 2980SOL    HW220577   4.259   0.851   5.273  0.3954  0.9481 -0.1756
 2981SOL     OW20578   4.312   4.504  17.131 -0.3935  0.1444 -0.1519
 2981SOL    HW120579   4.395   4.459  17.140  0.7203  2.1130 -0.6083
 2981SOL    HW220580   4.277   4.456  17.056  2.6886 -1.5045 -0.5326
 2982SOL     OW20581   2.520   2.244   7.027  0.3816  0.5373 -0.0439
 2982SOL    HW120582   2.565   2.175   6.979  0.4540 -0.5164  1.5300
 2982SOL    HW220583   2.591   2.292   7.069  1.6880  0.3861 -2.1013
 2983SOL     OW20584   2.657   4.286   4.357  0.2920 -0.4315  0.1206
 2983SOL    HW120585   2.722   4.353   4.378  0.3413 -0.6644  0.6870
 2983SOL    HW220586   2.598   4.337   4.301  0.5284 -0.3008 -0.0139
 2984SOL     OW20587   0.218   3.533   7.556  0.0349  0.0759 -0.3782
 2984SOL    HW120588   0.160   3.459   7.539 -0.6440  0.2707  1.1152
 2984SOL    HW220589   0.291   3.495   7.605  0.1833 -1.2710 -1.6294
 2985SOL     OW20590   2.554   2.113   4.732  0.4056  0.3468 -0.0758
 2985SOL    HW120591   2.461   2.093   4.722  0.4405  0.9564 -1.6446
 2985SOL    HW220592   2.592   2.025   4.727 -2.1700 -0.9070  2.7874
 2986SOL     OW20593   1.031   0.849  12.144  0.3071 -0.3501 -0.1133
 2986SOL    HW120594   1.113   0.816  12.107  0.0379  0.5871 -1.5207
 2986SOL    HW220595   0.988   0.864  12.060  1.9926  2.8375 -0.4160
 2987SOL     OW20596   2.723   0.948  15.288 -0.3278 -0.2683  0.6310
 2987SOL    HW120597   2.753   0.976  15.375 -0.1866  2.4504 -0.2887
 2987SOL    HW220598   2.730   1.031  15.241 -1.8417 -0.8193 -0.5872
 2988SOL     OW20599   1.447   1.972   6.710  0.1625  0.1061 -0.3127
 2988SOL    HW120600   1.396   2.051   6.730  3.3315  1.5954  1.8840
 2988SOL    HW220601   1.533   2.008   6.689  0.7674  0.2196  2.3957
 2989SOL     OW20602   0.156   1.329   1.435 -0.3223  0.0985  0.2904
 2989SOL    HW120603   0.077   1.360   1.392 -0.3243 -1.6379 -0.9901
 2989SOL    HW220604   0.181   1.405   1.487  2.5041 -1.0310  0.6171
 2990SOL     OW20605   2.089   1.756   4.374  0.0277  0.3147  0.2313
 2990SOL    HW120606   2.018   1.812   4.342  0.5753  0.9937  0.2009
 2990SOL    HW220607   2.130   1.812   4.441 -0.5253  0.2182  0.6558
 2991SOL     OW20608   4.246   1.388   1.886 -0.1226  0.5399  0.1179
 2991SOL    HW120609   4.320   1.364   1.830 -0.8880  0.9445 -1.0512
 2991SOL    HW220610   4.212   1.452   1.825 -1.6238 -0.5986 -0.2355
 2992SOL     OW20611   3.823   3.981   7.052 -0.1317  0.4214 -0.2613
 2992SOL    HW120612   3.737   3.940   7.056  0.1058 -0.1038 -0.4966
 2992SOL    HW220613   3.806   4.075   7.043 -3.3973 -0.1990 -0.5954
 2993SOL     OW20614   3.861   2.880   2.520 -0.0662 -0.4307 -0.0397
 2993SOL    HW120615   3.889   2.792   2.545  1.8691 -0.3049 -1.7294
 2993SOL    HW220616   3.886   2.926   2.600 -0.5662  1.5782 -1.0429
 2994SOL     OW20617   4.223   3.567   7.440 -0.3434  0.1312  0.0783
 2994SOL    HW120618   4.222   3.472   7.454 -2.3510  0.5378  2.6281
 2994SOL    HW220619   4.241   3.574   7.346 -0.0916  0.1600  0.1279
 2995SOL     OW20620   1.206   3.450  15.617 -0.0567 -0.0562 -0.1774
 2995SOL    HW120621   1.161   3.530  15.590  0.1715  0.4487  0.9344
 2995SOL    HW220622   1.138   3.383  15.611  0.5395 -0.6107 -0.7749
 2996SOL     OW20623   3.181   3.827   8.209  0.1024  0.2485 -0.2167
 2996SOL    HW120624   3.125   3.904   8.191  0.2925  0.1836 -1.0811
 2996SOL    HW220625   3.252   3.860   8.264 -0.7073  1.0623  0.3585
 2997SOL     OW20626   0.195   4.231   0.794  0.1990 -0.7457  0.3334
 2997SOL    HW120627   0.267   4.174   0.821  1.5092  0.5488 -0.4013
 2997SOL    HW220628   0.219   4.254   0.704 -0.9703  0.4449  0.3201
 2998SOL     OW20629   1.956   4.004   2.810  0.0628  0.1196 -0.0646
 2998SOL    HW120630   1.971   3.955   2.891 -0.0327 -1.9753 -1.3149
 2998SOL    HW220631   2.033   3.987   2.756 -0.5143  0.5072 -1.0196
 2999SOL     OW20632   2.604   3.723   6.825 -0.0171 -0.2649 -0.2405
 2999SOL    HW120633   2.576   3.684   6.743 -1.9889  0.4388  0.0758
 2999SOL    HW220634   2.551   3.803   6.832  1.7714  0.9330 -0.5208
 3000SOL     OW20635   3.156   3.180  16.758 -0.0629 -0.7500 -0.3380
 3000SOL    HW120636   3.157   3.270  16.726 -0.9894 -0.1399  1.3119
 3000SOL    HW220637   3.196   3.138  16.682 -0.4788 -2.9083  0.6440
 3001SOL     OW20638   2.611   1.970   1.873 -0.7405 -0.0109 -0.2616
 3001SOL    HW120639   2.689   1.999   1.921  0.2042 -0.9016 -1.2540
 3001SOL    HW220640   2.641   1.882   1.851 -1.9245 -0.1476 -1.3393
 3002SOL     OW20641   3.004   2.980   2.008  0.0737 -0.4520 -0.1844
 3002SOL    HW120642   3.001   3.047   2.077 -1.3647 -0.7245  0.0155
 3002SOL    HW220643   2.988   2.897   2.053  0.1461 -0.8015 -0.8149
 3003SOL     OW20644   3.393   3.659   7.796  0.3392  0.0542 -0.2060
 3003SOL    HW120645   3.479   3.618   7.788  0.2186 -0.0744 -0.8991
 3003SOL    HW220646   3.380   3.688   7.705  0.0414 -2.1395 -0.8779
 3004SOL     OW20647   0.873   4.411   3.500  0.3542  0.7058 -0.4490
 3004SOL    HW120648   0.932   4.431   3.573  0.8711  0.8944 -0.9125
 3004SOL    HW220649   0.792   4.449   3.534  1.3811  0.6588  1.9939
 3005SOL     OW20650   2.861   4.022   8.353  0.1224 -0.7093  0.4363
 3005SOL    HW120651   2.862   3.928   8.369  0.1570 -0.3532  2.5458
 3005SOL    HW220652   2.863   4.062   8.441  4.4280  0.1979 -0.0701
 3006SOL     OW20653   2.825   4.418  13.069  0.2331 -1.2713 -0.2586
 3006SOL    HW120654   2.742   4.387  13.034 -1.3114  0.7633  1.5596
 3006SOL    HW220655   2.805   4.432  13.162  1.4868  0.1799 -0.2043
 3007SOL     OW20656   3.548   2.252   9.012 -0.0376  0.1818  0.0936
 3007SOL    HW120657   3.514   2.325   9.065 -0.2331 -0.0177  0.2431
 3007SOL    HW220658   3.543   2.180   9.076 -1.0959  1.3246  1.2924
 3008SOL     OW20659   2.756   0.015  12.263 -0.7190 -1.1187  0.3323
 3008SOL    HW120660   2.798   0.044  12.182  3.2177 -0.0734  2.7567
 3008SOL    HW220661   2.771   0.089  12.322  0.5445 -0.0884 -1.2816
 3009SOL     OW20662   4.385   2.309  17.168  0.2174  0.6234  0.3038
 3009SOL    HW120663   4.310   2.368  17.166  1.6406  2.3407 -1.5572
 3009SOL    HW220664   4.385   2.276  17.079 -0.3006  1.2388  0.0739
 3010SOL     OW20665   4.235   1.680   3.704 -0.3890 -0.1803 -0.0749
 3010SOL    HW120666   4.285   1.700   3.783 -0.1447  1.7615 -0.7198
 3010SOL    HW220667   4.145   1.687   3.735  0.1731 -3.7822  2.3525
 3011SOL     OW20668   1.114   0.311  11.861  0.4882  0.4865 -0.6535
 3011SOL    HW120669   1.100   0.383  11.923  1.0135  0.4274 -0.4709
 3011SOL    HW220670   1.147   0.248  11.924 -0.9487 -1.2065 -1.6191
 3012SOL     OW20671   1.955   1.597   5.319 -0.0795  0.9813 -0.5055
 3012SOL    HW120672   1.896   1.546   5.376  0.3738  0.1388 -0.7819
 3012SOL    HW220673   2.021   1.536   5.285 -0.9945  0.7002 -1.7853
 3013SOL     OW20674   1.233   1.511   9.971 -0.0668 -0.0202 -0.2066
 3013SOL    HW120675   1.192   1.426   9.984 -0.0519  0.3196  2.0437
 3013SOL    HW220676   1.154   1.565   9.969  0.9214  1.4571  0.8156
 3014SOL     OW20677   3.651   4.579  14.164 -0.8098 -0.2043  0.4682
 3014SOL    HW120678   3.669   4.666  14.127  0.1995  0.4990  2.5739
 3014SOL    HW220679   3.572   4.551  14.120 -0.7320  0.7497 -0.2937
 3015SOL     OW20680   1.201   3.453   5.529 -0.3091  0.5148  0.2698
 3015SOL    HW120681   1.191   3.541   5.494 -1.1718  1.0275  1.8032
 3015SOL    HW220682   1.111   3.420   5.524 -0.2649  0.3677  0.4628
 3016SOL     OW20683   3.979   3.641   5.788 -0.8602 -0.2899  0.0102
 3016SOL    HW120684   3.974   3.725   5.742 -1.2931  0.1355  0.8315
 3016SOL    HW220685   3.917   3.670   5.855  1.4212 -0.2304  2.0528
 3017SOL     OW20686   1.851   4.338   4.291  0.5948 -0.6987  0.2189
 3017SOL    HW120687   1.905   4.354   4.214 -1.3029  0.9007 -0.7868
 3017SOL    HW220688   1.864   4.424   4.331  0.8462 -0.3930 -0.5185
 3018SOL     OW20689   0.970   0.602   2.746  0.2301  0.1929 -0.1852
 3018SOL    HW120690   1.020   0.564   2.674  1.5205  1.8416 -0.1400
 3018SOL    HW220691   1.014   0.681   2.775  2.1489 -0.9574  0.0165
 3019SOL     OW20692   0.521   0.994   3.720 -1.1734 -0.5821 -0.1131
 3019SOL    HW120693   0.521   1.022   3.812 -0.6591  1.8853 -0.8929
 3019SOL    HW220694   0.523   0.898   3.727 -1.3234 -0.5819 -0.0660
 3020SOL     OW20695   2.046   3.431   6.359  0.2346 -0.2204 -0.5065
 3020SOL    HW120696   2.058   3.385   6.275  1.3262 -1.3288  0.2598
 3020SOL    HW220697   2.046   3.357   6.420 -0.2755  1.4265  1.4606
 3021SOL     OW20698   4.588   2.115   8.466  0.0146  0.3928  0.2425
 3021SOL    HW120699   4.533   2.048   8.425  0.5368 -0.5235  1.0208
 3021SOL    HW220700   4.577   2.071   8.551 -2.5965 -1.3225 -0.9714
 3022SOL     OW20701   1.508   0.150   6.074  0.3956 -0.1324  0.0431
 3022SOL    HW120702   1.502   0.073   6.018  0.0812 -0.0887  0.0171
 3022SOL    HW220703   1.526   0.103   6.156  1.2522 -1.3711 -0.8559
 3023SOL     OW20704   0.745   4.273   9.928  0.0085  0.1873 -0.5727
 3023SOL    HW120705   0.802   4.247  10.001 -3.0869 -1.0767  1.3967
 3023SOL    HW220706   0.759   4.191   9.880  0.6328  0.7321 -1.3294
 3024SOL     OW20707   4.632   3.135  15.258 -0.6194 -0.0592  0.2286
 3024SOL    HW120708   4.674   3.101  15.337  1.5835 -0.6504 -1.1930
 3024SOL    HW220709   4.555   3.179  15.294  0.0098  0.3639  1.0531
 3025SOL     OW20710   2.724   4.397  13.327 -0.4031  0.2357  0.1531
 3025SOL    HW120711   2.757   4.368  13.412  0.9009 -0.5585 -0.6342
 3025SOL    HW220712   2.660   4.327  13.314 -0.7764  0.5704  0.1819
 3026SOL     OW20713   4.251   1.028   7.675  0.4212 -0.5016 -0.0201
 3026SOL    HW120714   4.316   1.045   7.742  0.3302  0.6468 -0.2262
 3026SOL    HW220715   4.212   0.943   7.697  1.1218 -0.2610  2.0643
 3027SOL     OW20716   3.587   2.783  10.950 -0.1139  0.0820 -0.4012
 3027SOL    HW120717   3.543   2.705  10.984  2.1685 -0.7790  0.6074
 3027SOL    HW220718   3.537   2.852  10.994  0.1673 -1.0157  1.6343
 3028SOL     OW20719   4.317   4.289   7.120 -0.1589  0.1815  0.3141
 3028SOL    HW120720   4.409   4.309   7.104 -0.0077  0.8630  2.0442
 3028SOL    HW220721   4.331   4.213   7.176  2.8235  0.7500  0.3065
 3029SOL     OW20722   1.818   0.885   8.477  0.0110  0.3675 -0.2981
 3029SOL    HW120723   1.799   0.838   8.558  0.7898  0.8110  0.1466
 3029SOL    HW220724   1.893   0.935   8.511 -0.0359 -0.1985  0.6414
 3030SOL     OW20725   2.673   0.899   4.415  0.4977 -0.3783  0.0772
 3030SOL    HW120726   2.582   0.873   4.431  0.6068 -0.0586  1.1943
 3030SOL    HW220727   2.654   0.980   4.368  1.0936  0.2285  0.8837
 3031SOL     OW20728   4.122   0.287   9.121  0.5368 -0.6698 -0.1137
 3031SOL    HW120729   4.039   0.279   9.170  1.0513 -2.1538  0.5216
 3031SOL    HW220730   4.094   0.357   9.062 -0.2295 -0.0176  0.9942
 3032SOL     OW20731   0.897   2.548  13.319  0.3701 -0.1756  0.2980
 3032SOL    HW120732   0.925   2.499  13.242  2.3784  1.2620  0.1023
 3032SOL    HW220733   0.971   2.524  13.376  0.6214  0.0335  0.0601
 3033SOL     OW20734   1.813   3.378   1.747 -0.1460 -0.0646 -0.1319
 3033SOL    HW120735   1.898   3.390   1.791 -0.0765 -0.8114 -0.0609
 3033SOL    HW220736   1.828   3.394   1.653  0.2572 -0.4623 -0.1377
 3034SOL     OW20737   1.216   1.255   5.020  0.2679 -0.0833 -0.0713
 3034SOL    HW120738   1.210   1.346   4.991  2.2327 -0.2945 -1.1178
 3034SOL    HW220739   1.154   1.255   5.093  3.0003 -1.4589  2.2411
 3035SOL     OW20740   1.292   0.511   6.242  0.0285  0.1438 -0.5416
 3035SOL    HW120741   1.335   0.446   6.298 -0.2919  1.5621  1.3547
 3035SOL    HW220742   1.370   0.535   6.192  0.4710 -1.7741 -0.7727
 3036SOL     OW20743   2.769   4.373   3.072 -0.1738  0.4261  0.8715
 3036SOL    HW120744   2.771   4.293   3.125 -0.4043  0.6778  1.2583
 3036SOL    HW220745   2.859   4.406   3.076  0.3298 -0.8955  0.6726
 3037SOL     OW20746   0.102   4.506   0.537  0.3294  0.1541  0.2718
 3037SOL    HW120747   0.150   4.425   0.522  1.6911  1.0066  0.0867
 3037SOL    HW220748   0.051   4.519   0.457 -0.1693  1.3593  0.7978
 3038SOL     OW20749   0.694   0.997  10.521 -0.2280 -0.1279  0.5825
 3038SOL    HW120750   0.650   1.082  10.519  3.4510  1.7424  1.1840
 3038SOL    HW220751   0.756   1.001  10.448 -1.7371 -1.9101 -0.8215
 3039SOL     OW20752   3.459   2.792   8.825 -0.1632  0.2280 -0.1135
 3039SOL    HW120753   3.553   2.799   8.841 -0.1372 -1.1252  0.3206
 3039SOL    HW220754   3.435   2.881   8.802  1.8154  0.1985 -2.3639
 3040SOL     OW20755   1.680   2.186   2.285 -0.1970  0.1068  0.2497
 3040SOL    HW120756   1.726   2.262   2.322  0.6939  1.0640 -2.8221
 3040SOL    HW220757   1.600   2.235   2.266  1.4065  2.2661 -0.9447
 3041SOL     OW20758   2.573   0.893   2.083  0.0466  0.6991  0.0682
 3041SOL    HW120759   2.602   0.981   2.103 -2.4956  1.5627 -0.0711
 3041SOL    HW220760   2.579   0.898   1.987 -0.9879  0.7463  0.0068
 3042SOL     OW20761   3.606   2.079   2.494  0.0086 -0.6143 -0.1535
 3042SOL    HW120762   3.531   2.059   2.438 -1.1167  1.1768  0.7041
 3042SOL    HW220763   3.631   2.167   2.465 -0.4724 -0.4532 -0.0675
 3043SOL     OW20764   0.915   1.661   1.887  0.4451 -0.7801  0.3287
 3043SOL    HW120765   0.888   1.741   1.932  0.1981 -0.1999 -0.8628
 3043SOL    HW220766   0.845   1.601   1.913 -0.8612  0.7311  0.3135
 3044SOL     OW20767   0.167   3.875  16.345 -0.0726  0.1386 -0.3556
 3044SOL    HW120768   0.138   3.953  16.298  0.0776  0.7329  0.5426
 3044SOL    HW220769   0.239   3.847  16.288  0.1263 -0.5840  0.2523
 3045SOL     OW20770   4.169   4.644   6.478  0.5822 -0.1288 -0.4507
 3045SOL    HW120771   4.217   4.568   6.445  1.1654 -1.0346  2.4813
 3045SOL    HW220772   4.131   4.687   6.401  2.5844  0.8455 -0.8991
 3046SOL     OW20773   2.441   0.530   2.069  0.4612 -0.1210  0.4389
 3046SOL    HW120774   2.517   0.508   2.123  0.7173  0.7047  0.4115
 3046SOL    HW220775   2.372   0.545   2.133 -0.2850  0.3997 -0.4915
 3047SOL     OW20776   4.327   2.961   7.751 -0.1634  0.2238  0.8341
 3047SOL    HW120777   4.359   3.048   7.774  0.0505  0.7677 -1.5818
 3047SOL    HW220778   4.401   2.899   7.749 -0.5141 -0.2476  2.2089
 3048SOL     OW20779   1.464   3.380  16.283 -0.3375  0.4365  0.0830
 3048SOL    HW120780   1.378   3.416  16.305 -0.8838  0.0182 -1.3775
 3048SOL    HW220781   1.465   3.318  16.356  2.3653  0.1187 -0.2309
 3049SOL     OW20782   2.234   3.714  17.272  0.2085 -0.0457  0.3933
 3049SOL    HW120783   2.263   3.638  17.323 -0.0066 -0.3090  0.1198
 3049SOL    HW220784   2.305   3.777  17.286  1.8392 -0.9951 -3.7250
 3050SOL     OW20785   1.437   4.190   3.418  0.8896  0.6566 -0.7034
 3050SOL    HW120786   1.466   4.136   3.345 -2.9966 -0.2114 -1.6178
 3050SOL    HW220787   1.354   4.230   3.392 -0.2197 -1.1038  0.1590
 3051SOL     OW20788   4.180   0.101   1.736  0.6814  0.0051 -1.0277
 3051SOL    HW120789   4.174   0.044   1.813  1.1646  1.0040 -0.2587
 3051SOL    HW220790   4.091   0.136   1.731  0.7404  0.5774  1.6011
 3052SOL     OW20791   1.248   3.063  10.874 -0.4458 -0.1687 -0.0012
 3052SOL    HW120792   1.196   3.084  10.952 -1.0442  0.1623 -0.4901
 3052SOL    HW220793   1.336   3.087  10.900 -0.8394 -0.7220  1.8215
 3053SOL     OW20794   4.075   1.350  13.388  0.2580 -1.0774  0.4031
 3053SOL    HW120795   4.048   1.327  13.476 -0.2453 -2.7326 -0.1788
 3053SOL    HW220796   4.102   1.442  13.395 -0.9745 -0.6571 -0.3198
 3054SOL     OW20797   4.595   3.079   8.774 -0.3796 -0.0251  0.7641
 3054SOL    HW120798   4.674   3.133   8.784 -0.7201  0.5824  0.1581
 3054SOL    HW220799   4.619   3.009   8.835 -2.0881  0.5638  2.1026
 3055SOL     OW20800   3.647   0.700   3.800  0.3801 -0.1430 -0.8278
 3055SOL    HW120801   3.742   0.695   3.791  0.4381 -0.4382 -0.0089
 3055SOL    HW220802   3.630   0.645   3.876  1.8760  0.1524 -0.2743
 3056SOL     OW20803   1.648   2.924   7.310 -0.3067  0.4147  0.7935
 3056SOL    HW120804   1.660   2.836   7.274 -0.7677 -0.3321  2.4581
 3056SOL    HW220805   1.556   2.934   7.336 -0.8464 -0.2201 -0.8487
 3057SOL     OW20806   1.504   2.633  14.195  0.2140 -0.3130  0.2469
 3057SOL    HW120807   1.599   2.634  14.210  0.3542 -0.6564 -0.6281
 3057SOL    HW220808   1.471   2.603  14.280  0.1865  0.5107  0.5290
 3058SOL     OW20809   2.362   4.719   6.199 -0.1645  0.1444  0.6048
 3058SOL    HW120810   2.398   0.059   6.156  1.0212 -2.0823 -2.4515
 3058SOL    HW220811   2.440   4.662   6.196 -1.1819 -1.2547  0.7530
 3059SOL     OW20812   4.208   4.686  15.177 -0.3418 -0.8055  0.5057
 3059SOL    HW120813   4.117   4.677  15.150  0.3531 -0.8189 -1.8113
 3059SOL    HW220814   4.203   4.725  15.265 -1.5864 -3.4037  1.5791
 3060SOL     OW20815   0.902   1.710   4.475 -0.0185  0.1506 -0.3710
 3060SOL    HW120816   0.829   1.655   4.447 -0.1473 -0.1334  0.5200
 3060SOL    HW220817   0.916   1.771   4.404 -1.5864 -1.6568 -2.2224
 3061SOL     OW20818   0.256   2.119   3.255 -0.5812 -0.0117 -0.1104
 3061SOL    HW120819   0.212   2.044   3.214  0.5321  0.1773 -1.6580
 3061SOL    HW220820   0.211   2.126   3.339 -0.3824  0.3463 -0.0320
 3062SOL     OW20821   2.499   1.626   8.636 -0.3159 -0.0924  0.2023
 3062SOL    HW120822   2.537   1.572   8.706 -0.3501  0.4278  0.6211
 3062SOL    HW220823   2.438   1.688   8.675 -0.0740  0.8014 -0.8426
 3063SOL     OW20824   3.214   3.382   9.182 -0.1407 -0.1948  0.4851
 3063SOL    HW120825   3.278   3.312   9.194  0.4268  0.2986  0.3992
 3063SOL    HW220826   3.197   3.411   9.272 -1.2472 -1.2182  0.5975
 3064SOL     OW20827   0.547   1.542  12.631  0.3651  0.3355 -0.2880
 3064SOL    HW120828   0.472   1.483  12.641 -0.3430  1.4039  0.6729
 3064SOL    HW220829   0.595   1.495  12.563 -3.4608 -0.4504 -2.4055
 3065SOL     OW20830   4.076   1.537   3.935  0.2653 -0.6543  0.6044
 3065SOL    HW120831   4.166   1.511   3.916  0.8464  1.7588  0.0757
 3065SOL    HW220832   4.068   1.506   4.025 -1.1748  2.9657  1.7261
 3066SOL     OW20833   2.496   1.241   2.897  0.3441 -0.1675  0.3900
 3066SOL    HW120834   2.465   1.280   2.815 -1.4778  1.6857  1.9502
 3066SOL    HW220835   2.522   1.321   2.944  0.3032  0.3276 -0.4214
 3067SOL     OW20836   3.646   0.760   6.078  0.1756  0.0810  0.5541
 3067SOL    HW120837   3.663   0.735   6.169 -3.7434 -3.0032  0.4663
 3067SOL    HW220838   3.624   0.853   6.076 -1.7453 -0.3735  0.3243
 3068SOL     OW20839   1.131   0.857   3.717 -0.3208 -0.0215  0.3497
 3068SOL    HW120840   1.220   0.863   3.753  0.3895 -0.0743 -1.3956
 3068SOL    HW220841   1.150   0.853   3.624 -2.3148 -0.7835 -0.0194
 3069SOL     OW20842   0.479   1.767   7.741 -0.4760  0.5792 -0.1987
 3069SOL    HW120843   0.532   1.760   7.662 -0.3723  1.1582 -0.1831
 3069SOL    HW220844   0.524   1.697   7.788  0.9044  0.3295 -1.8917
 3070SOL     OW20845   3.993   1.124   2.826 -0.5245 -0.0964 -0.0476
 3070SOL    HW120846   3.952   1.200   2.867  0.9443  0.3963  0.5198
 3070SOL    HW220847   3.934   1.053   2.851 -0.0536 -0.4814 -0.0182
 3071SOL     OW20848   3.552   0.037  14.343  0.8464 -0.0233 -0.6577
 3071SOL    HW120849   3.621   0.061  14.405  2.0137  0.0246 -1.9634
 3071SOL    HW220850   3.594   0.016  14.260  0.8847 -0.9323 -0.4013
 3072SOL     OW20851   3.908   4.019   4.339  1.0741 -0.2630  0.2625
 3072SOL    HW120852   3.841   4.042   4.403 -0.0960 -1.6511 -0.4748
 3072SOL    HW220853   3.963   3.958   4.390  2.1401  0.2364 -0.2809
 3073SOL     OW20854   4.493   3.481   5.741 -0.6953  0.0263 -1.1154
 3073SOL    HW120855   4.445   3.558   5.710 -1.6338  0.9655  2.6274
 3073SOL    HW220856   4.423   3.417   5.731 -1.0769  0.2364  0.2354
 3074SOL     OW20857   1.778   1.788   8.419  0.8045 -0.1988 -0.2990
 3074SOL    HW120858   1.732   1.735   8.484  0.9791 -1.0194 -0.8542
 3074SOL    HW220859   1.777   1.875   8.460 -1.3470  0.4374 -1.6746
 3075SOL     OW20860   2.233   3.932   2.647  0.1844 -0.1815  0.4348
 3075SOL    HW120861   2.308   3.991   2.651  0.7363 -1.0001  2.3734
 3075SOL    HW220862   2.203   3.938   2.557  1.2237 -1.1105  0.0312
 3076SOL     OW20863   1.920   4.443   3.286 -0.1682  0.2287 -0.6959
 3076SOL    HW120864   1.825   4.457   3.290 -0.1969 -0.2548  0.1238
 3076SOL    HW220865   1.945   4.502   3.215 -1.3257 -0.0619 -1.3540
 3077SOL     OW20866   0.872   2.069   6.204 -0.1942  0.0142  0.1822
 3077SOL    HW120867   0.813   2.020   6.147  0.0156 -2.1501  1.8369
 3077SOL    HW220868   0.942   2.004   6.199 -0.9034 -0.6961 -0.6854
 3078SOL     OW20869   2.918   4.226   3.529  0.2441  0.1945  0.5369
 3078SOL    HW120870   2.996   4.277   3.505  0.3526 -0.4117 -0.3998
 3078SOL    HW220871   2.871   4.296   3.575  0.5001  0.4465  0.4188
 3079SOL     OW20872   2.053   0.386   8.066  0.1800 -0.0466 -0.2462
 3079SOL    HW120873   2.071   0.480   8.054 -2.1455  0.3109 -0.8464
 3079SOL    HW220874   1.960   0.388   8.042  0.0646  0.5110  0.2247
 3080SOL     OW20875   1.227   3.469  16.912 -0.3404  0.1698  0.5715
 3080SOL    HW120876   1.322   3.458  16.904 -0.0976  1.3232  1.8043
 3080SOL    HW220877   1.201   3.497  16.824 -0.0009  2.2764  1.1382
 3081SOL     OW20878   0.819   1.511  15.249  0.2830  0.2775  0.1176
 3081SOL    HW120879   0.769   1.581  15.291  0.2492  1.4293 -1.8216
 3081SOL    HW220880   0.750   1.446  15.256  0.1569  0.4390  0.3459
 3082SOL     OW20881   0.974   1.413   4.266  0.4542  0.4216 -0.1259
 3082SOL    HW120882   1.012   1.412   4.354  1.7358  0.2283 -0.6800
 3082SOL    HW220883   1.036   1.356   4.222 -0.1801  1.9350 -2.9747
 3083SOL     OW20884   3.497   2.765   5.773 -0.1549 -0.9855 -0.8338
 3083SOL    HW120885   3.564   2.766   5.841 -0.7101  2.1396 -0.3568
 3083SOL    HW220886   3.539   2.773   5.687  1.2381  2.7372  0.2038
 3084SOL     OW20887   4.420   3.524   3.290  0.0059  0.1416 -0.4111
 3084SOL    HW120888   4.411   3.442   3.242 -1.7519  0.7779 -1.1880
 3084SOL    HW220889   4.434   3.594   3.226 -0.0332  1.0169  0.5328
 3085SOL     OW20890   1.557   3.775   8.642 -0.2210  0.1671  0.1005
 3085SOL    HW120891   1.590   3.802   8.728  0.0504  1.1623 -0.3180
 3085SOL    HW220892   1.639   3.786   8.595 -0.2840 -2.3515 -0.5791
 3086SOL     OW20893   2.935   1.607   5.985 -0.0621  0.2758 -0.0396
 3086SOL    HW120894   2.933   1.536   5.921 -1.0776  1.0853 -0.9096
 3086SOL    HW220895   2.903   1.680   5.932 -0.7549 -0.4961 -0.6743
 3087SOL     OW20896   0.113   1.969   4.554 -0.0529 -0.2155  0.0858
 3087SOL    HW120897   0.119   1.879   4.586 -0.5614  0.1854  1.3357
 3087SOL    HW220898   0.196   1.971   4.507  0.5440  0.3981  1.1563
 3088SOL     OW20899   1.280   1.109   2.094 -0.3785  0.1094 -0.3440
 3088SOL    HW120900   1.246   1.057   2.167 -0.4623 -0.8272 -1.0507
 3088SOL    HW220901   1.335   1.046   2.048  1.6009  1.7235 -0.2158
 3089SOL     OW20902   2.632   2.240   3.683 -0.3014  0.1437  0.1822
 3089SOL    HW120903   2.706   2.195   3.642 -1.3065 -2.0345  0.7719
 3089SOL    HW220904   2.601   2.180   3.751  0.0504 -1.1553 -0.7848
 3090SOL     OW20905   2.463   3.149   7.248 -0.3361 -0.1271  0.4508
 3090SOL    HW120906   2.534   3.129   7.308 -1.2528 -2.4663  0.7712
 3090SOL    HW220907   2.519   3.214   7.205 -1.4462  1.6439  1.6720
 3091SOL     OW20908   4.549   4.441   8.807 -0.4676  0.0662  0.1229
 3091SOL    HW120909   4.598   4.461   8.887  0.4490  2.2582 -1.0122
 3091SOL    HW220910   4.596   4.483   8.736  1.8437  0.8135  2.0890
 3092SOL     OW20911   0.909   1.738   3.895  0.4440  0.4504 -0.2677
 3092SOL    HW120912   0.972   1.779   3.835  0.8034  0.5677  0.1872
 3092SOL    HW220913   0.957   1.730   3.977  0.6368  0.7458 -0.3526
 3093SOL     OW20914   3.978   1.607  16.819  0.2981  0.0065  0.2446
 3093SOL    HW120915   4.068   1.621  16.789 -0.1725 -1.6531 -1.9581
 3093SOL    HW220916   3.930   1.612  16.735  0.4336  2.3417  0.3120
 3094SOL     OW20917   1.645   4.189  12.982 -0.0309  0.7613  0.2489
 3094SOL    HW120918   1.625   4.142  12.901  0.1937  1.3530 -0.1537
 3094SOL    HW220919   1.703   4.253  12.940 -0.9952  1.1986 -0.4141
 3095SOL     OW20920   3.781   1.316   6.685  0.0294  0.1235  0.4362
 3095SOL    HW120921   3.816   1.249   6.626 -0.0881 -0.4656  1.0341
 3095SOL    HW220922   3.687   1.295   6.686 -0.2066  1.2137  1.8715
 3096SOL     OW20923   3.842   2.722   3.752 -0.0165 -0.3024 -0.2423
 3096SOL    HW120924   3.918   2.684   3.796 -0.2108 -1.0615 -0.5834
 3096SOL    HW220925   3.772   2.689   3.808  0.0447 -1.1316 -0.6668
 3097SOL     OW20926   2.564   3.580   5.702  0.1707  1.0185  0.3201
 3097SOL    HW120927   2.472   3.599   5.686  0.4563  2.0474 -0.0713
 3097SOL    HW220928   2.551   3.520   5.776 -1.0524 -0.3698 -1.0135
 3098SOL     OW20929   3.427   3.277  14.585  0.0977  0.2115 -1.0614
 3098SOL    HW120930   3.413   3.250  14.494  1.7510  0.4335 -1.3787
 3098SOL    HW220931   3.465   3.365  14.578 -0.4896  0.5094 -0.4429
 3099SOL     OW20932   3.683   4.560   7.628 -0.7258 -0.0600  0.3105
 3099SOL    HW120933   3.655   4.472   7.654 -1.6479  0.3903  0.8286
 3099SOL    HW220934   3.608   4.602   7.585 -1.9584 -2.1086  0.4573
 3100SOL     OW20935   3.896   3.077   8.802  0.1996 -0.4417 -0.1157
 3100SOL    HW120936   3.810   3.116   8.819  0.8091 -0.2194  2.4606
 3100SOL    HW220937   3.934   3.132   8.734 -1.3399 -1.5535 -1.8774
 3101SOL     OW20938   0.297   3.384   6.259 -0.5109  0.0724 -0.1251
 3101SOL    HW120939   0.209   3.356   6.286 -0.1686 -0.4893  0.4210
 3101SOL    HW220940   0.339   3.360   6.341 -0.3432 -0.2562 -0.3050
 3102SOL     OW20941   4.210   2.416   7.084 -0.0397 -0.5304  0.5639
 3102SOL    HW120942   4.145   2.467   7.037  1.9876  0.9043 -0.6778
 3102SOL    HW220943   4.252   2.476   7.145 -1.7751  1.7628 -0.5108
 3103SOL     OW20944   1.545   0.639   7.425 -0.0683  0.0749 -0.2426
 3103SOL    HW120945   1.566   0.557   7.381 -0.9679 -0.6034  0.5859
 3103SOL    HW220946   1.588   0.624   7.509 -2.2577  1.6273  1.1814
 3104SOL     OW20947   3.520   2.252   4.179 -0.3191 -0.2123 -0.1343
 3104SOL    HW120948   3.565   2.250   4.263  0.2898  0.8717 -0.4332
 3104SOL    HW220949   3.447   2.312   4.193  0.0919  0.0797  0.7341
 3105SOL     OW20950   0.256   0.839   3.767 -0.4365  0.6526 -0.3682
 3105SOL    HW120951   0.201   0.904   3.809 -3.0630 -0.4961 -2.0791
 3105SOL    HW220952   0.303   0.890   3.701 -0.9706  0.9120 -0.5434
 3106SOL     OW20953   3.152   1.045   7.410 -0.3183 -0.5145 -0.5199
 3106SOL    HW120954   3.146   0.983   7.338 -0.8688 -2.2979  1.0771
 3106SOL    HW220955   3.068   1.087   7.396  0.3172 -0.1445 -3.2188
 3107SOL     OW20956   2.151   1.410   7.972 -0.0200  0.0305 -0.4777
 3107SOL    HW120957   2.086   1.346   7.941  0.0993  0.1225 -0.9170
 3107SOL    HW220958   2.140   1.487   7.917 -0.5486 -0.8923 -1.6674
 3108SOL     OW20959   2.931   3.293   5.895  0.0286  0.5723 -0.0854
 3108SOL    HW120960   3.015   3.247   5.889  0.3787  1.0013  1.4952
 3108SOL    HW220961   2.930   3.344   5.813  0.7373  1.0928  0.2327
 3109SOL     OW20962   0.189   0.930   3.399  0.4655 -0.5290 -0.5330
 3109SOL    HW120963   0.148   1.011   3.431  2.1390 -0.5380  1.6571
 3109SOL    HW220964   0.279   0.948   3.426  1.2816 -1.8908 -2.4234
 3110SOL     OW20965   0.996   1.466  12.511  0.5519 -0.7859 -0.6804
 3110SOL    HW120966   1.056   1.508  12.573 -0.8996 -0.3398  0.4380
 3110SOL    HW220967   0.969   1.535  12.451  0.2699  0.9098  1.4042
 3111SOL     OW20968   0.372   0.197   6.159  0.0197  0.0537  0.2998
 3111SOL    HW120969   0.399   0.233   6.243 -0.5837 -0.0631  0.5507
 3111SOL    HW220970   0.277   0.188   6.167 -0.1290 -1.1167 -2.6833
 3112SOL     OW20971   1.732   0.539  12.084 -0.1980  0.0088 -0.7429
 3112SOL    HW120972   1.804   0.595  12.056 -0.7376  0.5628 -1.0219
 3112SOL    HW220973   1.762   0.538  12.174 -1.4437 -1.3484 -0.3503
 3113SOL     OW20974   3.315   3.758  15.980  0.1068 -0.1807 -0.4496
 3113SOL    HW120975   3.373   3.834  15.976 -0.9182  0.6011 -0.4422
 3113SOL    HW220976   3.305   3.736  16.073  0.8624 -0.2785 -0.3888
 3114SOL     OW20977   1.220   3.849  12.525  0.1367 -0.0298 -1.0618
 3114SOL    HW120978   1.300   3.855  12.576 -0.7254  1.2244  0.1663
 3114SOL    HW220979   1.248   3.807  12.444  2.4569 -1.7109  0.6200
 3115SOL     OW20980   3.486   1.510   8.621  0.7053 -0.4038  0.8152
 3115SOL    HW120981   3.419   1.475   8.562  0.5247  2.5207 -0.6901
 3115SOL    HW220982   3.529   1.570   8.560 -1.7202 -0.7728 -1.2687
 3116SOL     OW20983   3.636   1.306   1.684 -0.2078  0.2144 -0.3845
 3116SOL    HW120984   3.543   1.325   1.696 -0.1128  1.4521 -1.7327
 3116SOL    HW220985   3.663   1.392   1.653  0.4440  0.1863  0.0947
 3117SOL     OW20986   1.558   2.040   5.560 -0.0605 -0.1532  0.3005
 3117SOL    HW120987   1.490   2.022   5.495  0.3682  0.8655 -0.4164
 3117SOL    HW220988   1.513   2.037   5.645 -1.6567  0.3339 -0.5266
 3118SOL     OW20989   2.945   2.640   0.770  0.3797 -0.4130  0.0959
 3118SOL    HW120990   2.983   2.708   0.716 -0.3409  0.1322  0.2708
 3118SOL    HW220991   2.963   2.659   0.862  2.2937 -0.6529 -0.2415
 3119SOL     OW20992   3.499   1.544   6.003  0.1037  0.2561  0.1882
 3119SOL    HW120993   3.461   1.601   5.936 -1.2879  0.7714  1.4215
 3119SOL    HW220994   3.516   1.464   5.953  1.7877 -0.9136  2.6218
 3120SOL     OW20995   0.890   4.695  14.451 -0.3945 -0.2218  0.1247
 3120SOL    HW120996   0.884   0.014  14.527  1.0080 -1.5484  1.2373
 3120SOL    HW220997   0.971   4.732  14.415  0.2756 -1.0365  0.7966
 3121SOL     OW20998   3.468   3.091   4.116  0.5346 -0.0061  0.2357
 3121SOL    HW120999   3.472   3.075   4.210  0.4254 -2.9817 -0.2741
 3121SOL    HW221000   3.379   3.058   4.097 -0.2238  2.6608 -0.8554
 3122SOL     OW21001   0.612   2.731   6.688 -0.2141 -0.5479  0.4266
 3122SOL    HW121002   0.673   2.661   6.714 -0.8720 -1.3515 -0.1811
 3122SOL    HW221003   0.552   2.733   6.763 -0.6331 -2.1980  0.1431
 3123SOL     OW21004   4.507   4.675   1.971 -0.0246  0.1724  0.0727
 3123SOL    HW121005   4.414   4.696   1.971  0.1807  1.0677  0.4182
 3123SOL    HW221006   4.552   0.020   1.955 -0.2248 -0.0458 -1.6790
 3124SOL     OW21007   3.303   4.201   1.253  0.1788 -0.1593 -0.0411
 3124SOL    HW121008   3.248   4.211   1.175 -0.3180 -3.0538 -0.0701
 3124SOL    HW221009   3.367   4.272   1.244  0.2982 -0.5335 -2.3144
 3125SOL     OW21010   1.593   0.077   6.601  0.7849 -0.4366 -0.2589
 3125SOL    HW121011   1.595   0.141   6.530  0.5508 -0.6076 -0.4219
 3125SOL    HW221012   1.548   0.119   6.675  0.1932 -0.1287 -0.7876
 3126SOL     OW21013   0.319   4.355  12.215 -0.2048  0.1561  0.2692
 3126SOL    HW121014   0.277   4.442  12.217  0.4016  0.4223  1.7588
 3126SOL    HW221015   0.392   4.398  12.260 -0.8418  2.0296 -0.4702
 3127SOL     OW21016   1.951   0.438   7.072 -0.1382 -0.5059 -0.1145
 3127SOL    HW121017   2.033   0.395   7.047 -1.4477 -3.6663  1.1139
 3127SOL    HW221018   1.949   0.406   7.162  1.9898 -1.2418 -0.3185
 3128SOL     OW21019   3.058   3.963  10.306  0.4846 -0.4794 -0.4729
 3128SOL    HW121020   3.089   3.895  10.366  1.0951 -0.4601 -0.7655
 3128SOL    HW221021   2.968   3.976  10.337  1.3436 -1.4765  2.3525
 3129SOL     OW21022   1.400   3.658   1.809 -0.5582  0.2599  0.5395
 3129SOL    HW121023   1.469   3.593   1.801 -1.5615 -0.6089 -1.1005
 3129SOL    HW221024   1.447   3.728   1.763 -1.1657  1.1332  1.2275
 3130SOL     OW21025   3.188   2.238   7.343 -0.5007 -0.3056 -0.6350
 3130SOL    HW121026   3.101   2.248   7.382  0.1428  0.1176  0.6990
 3130SOL    HW221027   3.214   2.146   7.344 -0.2151 -0.2220  0.6072
 3131SOL     OW21028   0.716   1.526   4.993 -0.0747 -0.2574 -0.2497
 3131SOL    HW121029   0.725   1.620   4.978  0.7684 -0.1634  0.8054
 3131SOL    HW221030   0.621   1.514   4.995 -0.1158 -0.2707 -1.7610
 3132SOL     OW21031   2.123   3.066  12.382  0.4727 -0.2938 -0.6249
 3132SOL    HW121032   2.144   3.157  12.362  0.5582  0.1687  1.6186
 3132SOL    HW221033   2.070   3.073  12.461  1.4431  1.2954 -0.1160
 3133SOL     OW21034   0.135   3.725   2.003 -0.3900 -0.1401  0.6235
 3133SOL    HW121035   0.170   3.662   2.065  0.0159  0.9961  1.5464
 3133SOL    HW221036   0.167   3.689   1.920 -1.6830 -0.1639  0.1258
 3134SOL     OW21037   1.822   4.170   3.753 -0.1334  0.0791  0.7567
 3134SOL    HW121038   1.888   4.227   3.714  0.0260 -0.9025 -0.4014
 3134SOL    HW221039   1.872   4.090   3.738  0.4009  0.3783  0.9668
 3135SOL     OW21040   3.452   1.535   9.735 -0.1023 -0.0141  0.1388
 3135SOL    HW121041   3.540   1.504   9.712  0.1312 -0.8788  2.1778
 3135SOL    HW221042   3.413   1.549   9.649  2.4393 -1.3752 -1.2304
 3136SOL     OW21043   4.307   3.021   8.083  0.3705  0.4129 -1.0829
 3136SOL    HW121044   4.359   3.071   8.021  1.8302  0.7885  0.4460
 3136SOL    HW221045   4.359   2.942   8.094  0.7249  0.6264 -1.2446
 3137SOL     OW21046   0.818   1.187   1.090  0.3461 -0.3543  0.8844
 3137SOL    HW121047   0.905   1.227   1.095 -0.4181  1.3512  0.3876
 3137SOL    HW221048   0.848   1.105   1.051  1.4128 -0.2893  1.5554
 3138SOL     OW21049   1.235   2.964   9.277  0.3651 -0.1049 -0.1084
 3138SOL    HW121050   1.205   2.913   9.202  0.5070 -0.6097  0.1758
 3138SOL    HW221051   1.322   2.997   9.254  0.3801 -0.8225 -1.0786
 3139SOL     OW21052   0.776   3.648   4.985 -0.2070  0.2774  0.1241
 3139SOL    HW121053   0.844   3.699   4.941  1.2734  0.3552  2.5235
 3139SOL    HW221054   0.752   3.708   5.056  0.0258 -1.1915  1.4427
 3140SOL     OW21055   1.693   2.457   8.547  0.2824  0.0941  0.1205
 3140SOL    HW121056   1.670   2.367   8.524 -0.3217  0.3731 -0.3816
 3140SOL    HW221057   1.657   2.455   8.635  0.1219  1.9203  0.0958
 3141SOL     OW21058   1.368   0.390   9.061 -0.5793  0.4890 -0.5630
 3141SOL    HW121059   1.273   0.387   9.072 -0.6750  1.0261 -1.2431
 3141SOL    HW221060   1.390   0.301   9.088  1.1383  0.7343 -1.1442
 3142SOL     OW21061   4.017   3.134   9.594  0.3757 -0.1247 -0.3606
 3142SOL    HW121062   4.023   3.215   9.544  1.5846  0.4359  0.7175
 3142SOL    HW221063   4.005   3.169   9.682 -0.7397 -2.0409  0.2478
 3143SOL     OW21064   0.593   4.654   3.031 -0.1736 -0.6099 -0.0470
 3143SOL    HW121065   0.671   4.618   3.072  2.9040  2.1865 -3.5414
 3143SOL    HW221066   0.535   4.624   3.101 -1.3094  1.4069 -0.1091
 3144SOL     OW21067   1.643   4.473   3.364 -0.3639  0.2019  0.6933
 3144SOL    HW121068   1.570   4.530   3.389  1.2509  2.6371 -0.1561
 3144SOL    HW221069   1.656   4.429   3.448 -1.8112 -1.0938  0.2414
 3145SOL     OW21070   4.683   0.191   6.141 -0.0650  1.3271  0.2228
 3145SOL    HW121071   4.735   0.216   6.064 -0.2452  1.7224  0.2315
 3145SOL    HW221072   4.614   0.147   6.091 -0.5495  2.7259 -0.3283
 3146SOL     OW21073   3.292   1.274  16.674 -0.1750 -0.2963 -0.5053
 3146SOL    HW121074   3.233   1.212  16.633 -1.9335  0.6838  0.5628
 3146SOL    HW221075   3.266   1.358  16.636 -0.6622  0.2483  1.0073
 3147SOL     OW21076   3.424   1.009   2.026 -0.2432 -0.0276  0.5032
 3147SOL    HW121077   3.427   0.914   2.036 -0.6895 -0.1943 -0.8914
 3147SOL    HW221078   3.487   1.025   1.955 -0.5307  1.9330  0.6929
 3148SOL     OW21079   2.828   3.445  13.980 -0.3589 -0.1717  0.2512
 3148SOL    HW121080   2.824   3.533  14.019 -1.9403 -0.4428  0.7101
 3148SOL    HW221081   2.762   3.452  13.911  1.1489  0.1934 -1.1585
 3149SOL     OW21082   2.183   1.364   2.430 -0.3131  0.4824  0.3523
 3149SOL    HW121083   2.174   1.269   2.422 -0.8016  0.6891 -1.4786
 3149SOL    HW221084   2.131   1.401   2.359  2.1431  3.7565  0.2281
 3150SOL     OW21085   1.930   2.287   8.714  0.1052  0.2796  0.2997
 3150SOL    HW121086   1.900   2.378   8.716  1.6678  0.8484 -1.9872
 3150SOL    HW221087   2.003   2.285   8.652 -1.0037  1.2332 -1.0381
 3151SOL     OW21088   2.706   3.726   3.363 -0.0812 -0.3880 -0.1117
 3151SOL    HW121089   2.780   3.726   3.425  3.0613  3.0940 -3.8598
 3151SOL    HW221090   2.634   3.765   3.413  0.9164  0.5492  0.6106
 3152SOL     OW21091   1.753   4.170   6.902  0.1012 -0.4674  0.0481
 3152SOL    HW121092   1.768   4.244   6.961  0.6934 -1.5085  1.2022
 3152SOL    HW221093   1.788   4.098   6.954  0.8311 -0.2075 -0.0707
 3153SOL     OW21094   4.244   3.293  10.518 -0.3728  0.0738  0.0856
 3153SOL    HW121095   4.199   3.339  10.588 -1.9928 -0.9236 -0.2900
 3153SOL    HW221096   4.317   3.354  10.514 -0.3348 -0.0165 -0.5551
 3154SOL     OW21097   2.202   2.272   1.302 -0.3662 -0.1651 -0.2285
 3154SOL    HW121098   2.152   2.343   1.263  0.1466  0.4678  0.2622
 3154SOL    HW221099   2.290   2.309   1.300 -0.6344  0.5127  0.4259
 3155SOL     OW21100   3.947   3.788   2.342  0.3033 -0.8482  0.4478
 3155SOL    HW121101   3.877   3.732   2.309  0.1812 -0.8603  0.7286
 3155SOL    HW221102   4.026   3.757   2.298  1.2771  0.2935  1.4000
 3156SOL     OW21103   0.066   0.125   2.780  0.0781 -0.1793  0.1133
 3156SOL    HW121104   0.141   0.088   2.827 -0.4922  1.9671  2.7393
 3156SOL    HW221105   4.729   0.128   2.839  0.3462  3.6579  0.2723
 3157SOL     OW21106   1.859   3.090   8.012 -0.0108  0.3599  0.4104
 3157SOL    HW121107   1.785   3.060   8.065 -0.8537 -0.6244 -1.3151
 3157SOL    HW221108   1.929   3.083   8.078  1.1284  0.4091 -0.7812
 3158SOL     OW21109   1.993   2.875  11.813  0.7827  0.3528  0.1010
 3158SOL    HW121110   1.991   2.794  11.865 -3.6595 -0.1556 -0.8600
 3158SOL    HW221111   1.963   2.943  11.872 -1.6651  0.8722 -1.7792
 3159SOL     OW21112   3.262   1.450   9.922 -0.4422  0.4084 -0.0086
 3159SOL    HW121113   3.336   1.496   9.880  0.3865 -0.1905  0.8089
 3159SOL    HW221114   3.290   1.359   9.916  2.6893  1.4510 -1.7658
 3160SOL     OW21115   4.113   2.751  17.324 -0.0646 -0.2059 -0.5318
 3160SOL    HW121116   4.078   2.739  17.235 -1.5371 -0.5924  0.1128
 3160SOL    HW221117   4.050   2.706  17.380  1.0625  0.9751  1.6877
 3161SOL     OW21118   0.504   2.315   4.735 -0.1410 -0.4108 -0.6670
 3161SOL    HW121119   0.588   2.341   4.772 -1.4921  0.9916  1.4843
 3161SOL    HW221120   0.535   2.280   4.652  0.1795  1.1825 -1.2200
 3162SOL     OW21121   0.197   2.369   2.728 -0.1186 -0.5040 -0.0267
 3162SOL    HW121122   0.164   2.438   2.671  0.9794  0.4736  0.5093
 3162SOL    HW221123   0.187   2.286   2.681 -1.1311 -0.7287  0.5948
 3163SOL     OW21124   2.333   4.654   2.478 -0.0248 -0.3358  0.2855
 3163SOL    HW121125   2.334   4.651   2.574 -2.0369 -0.1432  0.3246
 3163SOL    HW221126   2.415   4.612   2.453  1.3367  1.8143  1.1133
 3164SOL     OW21127   4.387   1.095  12.170  0.0551 -0.2119 -0.4757
 3164SOL    HW121128   4.461   1.140  12.211 -0.7390  1.6405 -1.0719
 3164SOL    HW221129   4.426   1.072  12.086 -0.6787 -0.0480 -0.8628
 3165SOL     OW21130   3.810   2.750   6.656  0.1603 -0.5502  0.6790
 3165SOL    HW121131   3.860   2.803   6.593 -1.4841  2.6798  2.0890
 3165SOL    HW221132   3.726   2.796   6.650  0.4113 -0.3603 -1.5978
 3166SOL     OW21133   0.235   0.543   8.745 -0.2240  0.0607 -0.1554
 3166SOL    HW121134   0.321   0.562   8.783  0.8794  0.8989 -3.0591
 3166SOL    HW221135   0.246   0.552   8.650  0.0679 -1.1038 -0.2299
 3167SOL     OW21136   2.817   4.636   2.601  0.3868  0.3169 -0.2233
 3167SOL    HW121137   2.785   4.678   2.681  0.3091  0.8261 -0.5206
 3167SOL    HW221138   2.824   4.713   2.544  1.3392  1.2898  1.2028
 3168SOL     OW21139   4.022   2.990   8.060 -0.4089 -0.1553 -0.7873
 3168SOL    HW121140   4.105   2.970   8.102  0.2440  1.2760 -1.4022
 3168SOL    HW221141   3.969   2.918   8.094  1.5290 -0.5478  1.3749
 3169SOL     OW21142   1.613   4.054   0.429 -0.5481 -0.3816  0.0125
 3169SOL    HW121143   1.593   4.007   0.510  0.0725  0.7856  0.8522
 3169SOL    HW221144   1.563   4.014   0.358  0.2081 -2.0879  0.4546
 3170SOL     OW21145   3.929   1.875  14.090 -0.6202  0.4778 -0.5734
 3170SOL    HW121146   3.962   1.965  14.088 -1.5935  0.8521 -0.1622
 3170SOL    HW221147   3.966   1.849  14.174  1.5796  2.3227 -0.9616
 3171SOL     OW21148   2.097   0.753   5.119 -0.0604  0.5694  0.3188
 3171SOL    HW121149   2.022   0.714   5.164 -1.4973  1.1631 -1.5947
 3171SOL    HW221150   2.158   0.735   5.191 -1.4017  0.0687  1.3288
 3172SOL     OW21151   3.225   2.949   3.618  0.6640 -0.5761 -0.4486
 3172SOL    HW121152   3.242   2.975   3.528 -1.4634 -1.6065 -1.1499
 3172SOL    HW221153   3.265   2.862   3.619 -0.3676 -1.0948 -3.5748
 3173SOL     OW21154   2.701   1.615   6.389 -0.6906 -0.0633  0.7009
 3173SOL    HW121155   2.672   1.530   6.354  1.2681  0.2657 -1.7233
 3173SOL    HW221156   2.633   1.641   6.452 -1.3031  1.8249 -0.7166
 3174SOL     OW21157   0.568   4.469  12.306 -0.3491 -0.1739 -0.8593
 3174SOL    HW121158   0.640   4.416  12.272 -1.6306 -0.9815 -2.3368
 3174SOL    HW221159   0.622   4.541  12.339 -0.1613  1.4473 -4.7037
 3175SOL     OW21160   3.650   0.497   6.517 -0.0586  0.4063 -0.9652
 3175SOL    HW121161   3.737   0.478   6.482 -0.7667  0.3974 -2.7482
 3175SOL    HW221162   3.674   0.538   6.599  0.6917  1.0601 -1.5095
 3176SOL     OW21163   3.792   0.958   2.963 -0.1068 -0.2896 -0.0154
 3176SOL    HW121164   3.703   0.961   2.928  0.7188 -0.4042 -2.1626
 3176SOL    HW221165   3.818   0.870   2.938  0.7578 -0.9551  3.2970
 3177SOL     OW21166   3.208   3.884   3.482 -0.0584 -0.1021 -0.2861
 3177SOL    HW121167   3.212   3.974   3.449 -1.9091  0.1497  0.2213
 3177SOL    HW221168   3.158   3.839   3.413 -1.1715 -0.3934  0.7146
 3178SOL     OW21169   4.142   2.861   6.603 -0.0036  0.3466 -0.5832
 3178SOL    HW121170   4.130   2.952   6.574  0.6670  1.0451  1.3404
 3178SOL    HW221171   4.083   2.857   6.679  1.2873 -0.0037  0.3976
 3179SOL     OW21172   2.308   2.117   5.015 -0.3643 -0.0765  0.3968
 3179SOL    HW121173   2.274   2.086   4.931 -1.9475  1.7189  0.3732
 3179SOL    HW221174   2.255   2.196   5.024  0.0120  0.1055  1.0075
 3180SOL     OW21175   0.360   2.472   6.919  0.6948  0.1614  0.2165
 3180SOL    HW121176   0.360   2.384   6.958 -0.9895  0.6387  1.3005
 3180SOL    HW221177   0.394   2.463   6.830 -0.2070  2.0668 -0.3261
 3181SOL     OW21178   1.800   2.584   5.940  0.0228 -0.2530  0.3611
 3181SOL    HW121179   1.844   2.611   6.020  2.1890  1.1851 -1.3291
 3181SOL    HW221180   1.752   2.511   5.980  0.6261 -1.6197 -1.4085
 3182SOL     OW21181   2.135   3.999   7.495  0.0702  0.3832  0.3925
 3182SOL    HW121182   2.151   3.916   7.449  0.7235  0.9730 -0.4364
 3182SOL    HW221183   2.219   4.010   7.540 -0.9002 -0.1022  2.3313
 3183SOL     OW21184   4.514   1.781   7.632 -0.1099  0.4637  0.2103
 3183SOL    HW121185   4.550   1.870   7.626  1.9090 -0.5132 -2.1857
 3183SOL    HW221186   4.592   1.730   7.608 -0.7860  0.7682 -2.6849
 3184SOL     OW21187   4.648   2.350   2.511 -0.3616 -0.7130  0.2043
 3184SOL    HW121188   4.571   2.292   2.509 -0.8558 -0.0458  0.0830
 3184SOL    HW221189   4.635   2.410   2.584 -3.0837 -1.8430  0.6550
 3185SOL     OW21190   0.796   2.199   3.260  0.2336 -0.2317 -0.0235
 3185SOL    HW121191   0.711   2.212   3.217 -0.0943  2.0116  1.2752
 3185SOL    HW221192   0.856   2.246   3.202  3.4011 -0.2295  3.3185
 3186SOL     OW21193   0.779   4.006   7.562 -0.3988  0.1827  0.0702
 3186SOL    HW121194   0.803   3.957   7.484 -0.7118  0.2864 -0.0919
 3186SOL    HW221195   0.744   4.092   7.540 -1.8361 -0.4777 -0.2362
 3187SOL     OW21196   0.809   3.703  17.286 -0.2276  0.0900 -0.2620
 3187SOL    HW121197   0.778   3.712  17.196 -1.4314 -0.3964  0.1035
 3187SOL    HW221198   0.864   3.625  17.286 -0.0475  0.2185 -0.3908
 3188SOL     OW21199   1.687   3.663  11.486 -0.4953 -0.1638  0.0060
 3188SOL    HW121200   1.691   3.594  11.552 -0.1449  0.7007  0.8773
 3188SOL    HW221201   1.705   3.743  11.534  0.2203 -0.4993  0.2866
 3189SOL     OW21202   4.262   4.065  14.724  0.6457  0.0796 -0.6602
 3189SOL    HW121203   4.279   4.061  14.818  1.8715 -0.4051 -0.9074
 3189SOL    HW221204   4.348   4.090  14.690  0.3842 -0.1657 -1.4983
 3190SOL     OW21205   1.470   0.185   7.047 -0.3072  0.6236  0.6743
 3190SOL    HW121206   1.425   0.111   7.088 -2.6994  1.9555  0.4613
 3190SOL    HW221207   1.558   0.157   7.071 -0.2817  1.5173  1.6394
 3191SOL     OW21208   4.666   3.808   2.446 -0.3031  0.6337  0.1864
 3191SOL    HW121209   4.627   3.743   2.387  0.7588 -0.0827  0.2856
 3191SOL    HW221210   4.704   3.759   2.518 -0.7291 -0.1071 -0.0812
 3192SOL     OW21211   0.125   1.352   2.419  0.2913  0.5208 -0.2454
 3192SOL    HW121212   0.109   1.261   2.441 -1.9619  0.9428 -0.1804
 3192SOL    HW221213   0.071   1.385   2.491  1.6779  1.3264  0.4405
 3193SOL     OW21214   1.717   3.604  11.904  0.1453  0.7068  0.0792
 3193SOL    HW121215   1.647   3.650  11.950 -1.4938 -2.2699  0.5726
 3193SOL    HW221216   1.774   3.678  11.881  1.0293 -0.4164 -1.2866
 3194SOL     OW21217   0.075   2.560  16.406  0.6927  0.8218  0.0973
 3194SOL    HW121218   0.167   2.535  16.409 -0.1618 -2.2572 -0.0500
 3194SOL    HW221219   0.068   2.570  16.311  0.2133 -0.2482  0.0213
 3195SOL     OW21220   2.002   2.261   1.045  0.4878  0.3871 -0.2013
 3195SOL    HW121221   1.922   2.223   1.008  0.0973  2.1413 -1.1306
 3195SOL    HW221222   1.970   2.303   1.124 -1.0473  0.0921 -0.6612
 3196SOL     OW21223   4.656   4.172  13.268  0.0124  0.2299 -0.3949
 3196SOL    HW121224   4.649   4.261  13.233 -2.2461 -0.6349 -2.1333
 3196SOL    HW221225   4.576   4.141  13.225  1.2460 -2.0175 -1.0687
 3197SOL     OW21226   2.949   0.968   5.554  0.2208 -0.4709  0.2579
 3197SOL    HW121227   3.001   1.022   5.495 -0.5212  0.6095  0.5965
 3197SOL    HW221228   3.021   0.954   5.616 -0.0545 -1.9483  0.2666
 3198SOL     OW21229   2.957   1.576   0.475 -0.2939  0.2512  0.5457
 3198SOL    HW121230   2.977   1.579   0.569  1.2181  0.1521  0.2235
 3198SOL    HW221231   2.945   1.483   0.456  0.8063 -0.0961  1.5514
 3199SOL     OW21232   0.172   0.102   7.573 -0.2231 -0.0488 -0.0687
 3199SOL    HW121233   0.144   0.013   7.591 -2.0497  0.5807  0.2043
 3199SOL    HW221234   0.189   0.099   7.479 -0.0125 -0.2895 -0.0224
 3200SOL     OW21235   3.907   4.628   8.491 -0.4167  0.1935 -0.3410
 3200SOL    HW121236   3.908   4.723   8.482  1.2933  0.1525 -0.4881
 3200SOL    HW221237   3.998   4.607   8.469 -0.6256 -3.6537  2.3688
 3201SOL     OW21238   4.626   4.281   2.439 -0.1729  0.2543  0.0564
 3201SOL    HW121239   4.649   4.348   2.375  1.2066  0.0089  0.2972
 3201SOL    HW221240   4.694   4.301   2.503 -0.5027 -0.4872  0.6398
 3202SOL     OW21241   0.681   4.092   8.237 -0.0478 -0.0613  0.0128
 3202SOL    HW121242   0.758   4.036   8.251  1.1855  1.8950  1.0549
 3202SOL    HW221243   0.623   4.035   8.186 -0.1122 -0.3284  0.3867
 3203SOL     OW21244   0.587   2.408  12.094  0.5807  0.1788  0.6458
 3203SOL    HW121245   0.664   2.415  12.037 -0.5061 -1.4724 -1.0301
 3203SOL    HW221246   0.526   2.365  12.033  0.3790  1.2722  0.0796
 3204SOL     OW21247   0.155   0.029   9.381  0.0464  0.2008  0.3220
 3204SOL    HW121248   0.069   0.022   9.423  0.0152  0.6630  0.3313
 3204SOL    HW221249   0.199   0.098   9.430 -0.4209  0.6923  0.0502
 3205SOL     OW21250   0.806   1.004  10.823 -0.6896 -0.1944 -0.2184
 3205SOL    HW121251   0.829   0.943  10.893 -0.9111 -1.3733 -1.1822
 3205SOL    HW221252   0.743   0.954  10.771  1.4520 -0.4316 -2.5369
 3206SOL     OW21253   4.317   0.211   4.398  0.3094 -0.3384 -0.2633
 3206SOL    HW121254   4.384   0.277   4.379 -1.0387  0.6924 -1.4524
 3206SOL    HW221255   4.281   0.194   4.312  2.1056  1.8876 -1.4526
 3207SOL     OW21256   3.236   4.569   1.218 -0.0896  0.0414  0.1148
 3207SOL    HW121257   3.154   4.565   1.169  0.5542 -0.0107 -0.9672
 3207SOL    HW221258   3.219   4.646   1.272 -0.1594 -0.8413  1.3330
 3208SOL     OW21259   1.464   3.216  16.480  0.1691  0.1584  0.3267
 3208SOL    HW121260   1.438   3.224  16.571 -2.3438  0.9242 -0.4710
 3208SOL    HW221261   1.440   3.125  16.460 -2.6830  1.0173 -0.1397
 3209SOL     OW21262   3.572   2.588   2.733 -0.2856  0.3198  0.3748
 3209SOL    HW121263   3.481   2.575   2.703 -0.7743  1.4347  1.3620
 3209SOL    HW221264   3.562   2.682   2.749  1.4288  0.4013  0.8538
 3210SOL     OW21265   3.849   3.694  14.399  0.1961 -0.0555 -0.2887
 3210SOL    HW121266   3.779   3.725  14.342  0.8579  1.5497 -0.2317
 3210SOL    HW221267   3.908   3.643  14.343 -0.9767 -1.8189  0.0865
 3211SOL     OW21268   1.050   1.635   2.655  0.0296 -0.3801  0.2995
 3211SOL    HW121269   0.969   1.685   2.662 -0.4662 -1.5017  2.5238
 3211SOL    HW221270   1.116   1.694   2.693  0.3948 -0.2077 -0.6058
 3212SOL     OW21271   4.643   4.455  13.223  0.3425  0.5584 -0.1066
 3212SOL    HW121272   4.689   4.467  13.140  2.2680 -0.1906  0.8465
 3212SOL    HW221273   4.550   4.459  13.200  0.2951 -0.9946 -0.1572
 3213SOL     OW21274   2.441   2.021   5.544  0.5010 -1.3370  0.0850
 3213SOL    HW121275   2.415   2.061   5.461  1.7377  2.0579  1.3183
 3213SOL    HW221276   2.357   2.004   5.585  0.7666  0.7770  1.5124
 3214SOL     OW21277   0.491   1.619   6.250  0.3920 -0.1352  0.6568
 3214SOL    HW121278   0.500   1.644   6.158  2.1856 -2.7230  0.1354
 3214SOL    HW221279   0.567   1.564   6.268  1.7180  1.5299  0.1264
 3215SOL     OW21280   1.199   0.438   8.071  0.1809  0.0210  0.7278
 3215SOL    HW121281   1.233   0.358   8.030 -1.6723 -0.5024  0.1993
 3215SOL    HW221282   1.277   0.490   8.090  0.1037 -0.1974  1.6271
 3216SOL     OW21283   0.405   0.966   8.398  0.0465 -0.5278  0.4212
 3216SOL    HW121284   0.329   1.024   8.393  0.5361  0.1355  0.6659
 3216SOL    HW221285   0.474   1.015   8.443 -0.4578 -0.6565  1.3348
 3217SOL     OW21286   2.824   2.353   5.426 -0.2896  0.2149  0.0795
 3217SOL    HW121287   2.856   2.413   5.359 -0.6073  0.6414  0.3103
 3217SOL    HW221288   2.786   2.287   5.367  0.0031 -0.9437  1.1971
 3218SOL     OW21289   2.154   4.498   6.523 -0.1522  0.3357  0.1954
 3218SOL    HW121290   2.128   4.580   6.480 -1.9434 -0.5054 -0.3408
 3218SOL    HW221291   2.172   4.449   6.443  3.0502  0.7859  0.6351
 3219SOL     OW21292   0.139   2.071  13.831 -0.2296  0.0125 -0.3472
 3219SOL    HW121293   0.121   2.164  13.841 -1.4675 -0.4274  1.4788
 3219SOL    HW221294   0.175   2.059  13.743 -1.8471  0.1700 -1.0275
 3220SOL     OW21295   0.482   3.747   0.593  0.3135 -0.3870 -0.1831
 3220SOL    HW121296   0.462   3.707   0.509  1.0686 -1.7570  0.2815
 3220SOL    HW221297   0.404   3.802   0.602  0.2174 -0.5063 -0.2970
 3221SOL     OW21298   3.634   3.649  16.356 -0.2779  0.4456  0.0127
 3221SOL    HW121299   3.697   3.654  16.428  3.4184  2.2243 -3.3963
 3221SOL    HW221300   3.562   3.614  16.409 -0.1263  0.0112 -0.0666
 3222SOL     OW21301   1.483   1.156   0.939 -0.4233  0.0435 -0.5151
 3222SOL    HW121302   1.499   1.118   1.026  0.1025  0.8166 -0.2716
 3222SOL    HW221303   1.400   1.117   0.912 -0.3986 -0.1185 -0.3595
 3223SOL     OW21304   1.205   4.016   3.073 -0.3076 -0.7098  0.0808
 3223SOL    HW121305   1.155   4.076   3.018 -1.8207 -1.4361  0.6754
 3223SOL    HW221306   1.227   3.942   3.017  1.1775  0.0161 -0.2862
 3224SOL     OW21307   2.623   4.090   9.334 -0.4921  0.3273  0.0261
 3224SOL    HW121308   2.635   4.140   9.414  1.8904 -0.3557  0.0975
 3224SOL    HW221309   2.709   4.053   9.315 -0.9418 -0.9403  0.4575
 3225SOL     OW21310   2.052   0.494  15.077 -0.0488 -0.5165  0.0657
 3225SOL    HW121311   2.009   0.562  15.025 -1.0838 -2.9248 -2.2316
 3225SOL    HW221312   1.976   0.441  15.103  0.1281 -1.4860 -1.3801
 3226SOL     OW21313   3.758   2.674   3.172 -0.0003 -0.4255  0.0035
 3226SOL    HW121314   3.723   2.586   3.158 -1.1667  0.0058  0.2012
 3226SOL    HW221315   3.702   2.723   3.112  0.3572 -1.1440 -0.9234
 3227SOL     OW21316   3.689   1.051   6.440 -0.7853 -0.1452  0.0810
 3227SOL    HW121317   3.765   1.022   6.390 -1.5024  1.4719 -1.9230
 3227SOL    HW221318   3.719   1.043   6.531 -2.1481 -0.9781  0.4423
 3228SOL     OW21319   4.192   1.445   4.919 -0.0542  0.1654 -0.3815
 3228SOL    HW121320   4.152   1.358   4.916  1.3536 -0.5246  0.7215
 3228SOL    HW221321   4.111   1.497   4.921 -1.1462 -1.5080 -1.2223
 3229SOL     OW21322   2.557   2.254   2.434  0.3374  0.8454 -0.1041
 3229SOL    HW121323   2.482   2.200   2.459  2.0556 -1.7560 -0.5679
 3229SOL    HW221324   2.608   2.258   2.514 -0.4713  1.8926  0.3487
 3230SOL     OW21325   1.623   2.511   8.117 -0.8196 -0.4869 -0.5891
 3230SOL    HW121326   1.609   2.556   8.201 -2.3606 -2.4085  0.1661
 3230SOL    HW221327   1.536   2.472   8.111 -1.9928  1.8385  0.9230
 3231SOL     OW21328   3.068   3.428  16.213 -0.2834 -0.0644  0.5175
 3231SOL    HW121329   3.020   3.396  16.136 -0.9941  0.4934  0.7318
 3231SOL    HW221330   3.115   3.491  16.159  0.5181 -1.0678  0.0385
 3232SOL     OW21331   3.264   3.927   7.285  0.5186 -0.0467 -0.1937
 3232SOL    HW121332   3.359   3.933   7.289  0.5234  1.6324 -3.0988
 3232SOL    HW221333   3.242   3.888   7.200  0.9935 -0.5658 -0.0730
 3233SOL     OW21334   0.755   1.842   8.147  0.3309  0.2432 -0.0977
 3233SOL    HW121335   0.837   1.806   8.182 -1.0878 -1.7526  1.1689
 3233SOL    HW221336   0.786   1.867   8.060 -1.2192  1.1537 -0.3883
 3234SOL     OW21337   0.036   1.304   7.845  0.1345 -0.0147  0.1243
 3234SOL    HW121338   0.017   1.397   7.832  0.9852  0.3732  1.6693
 3234SOL    HW221339   0.024   1.274   7.754  1.4096 -0.6784  0.1653
 3235SOL     OW21340   2.498   0.791   5.507  0.5457  1.0886  0.0937
 3235SOL    HW121341   2.531   0.701   5.505  0.0863  0.9751 -2.2809
 3235SOL    HW221342   2.532   0.817   5.593 -0.6560 -0.7363  1.1322
 3236SOL     OW21343   2.113   2.402   5.890  0.2646  0.0876 -0.4888
 3236SOL    HW121344   2.140   2.493   5.905  1.2288  0.1541 -2.7197
 3236SOL    HW221345   2.191   2.356   5.860  0.3692  0.3991 -0.7002
 3237SOL     OW21346   2.508   0.445   8.957 -0.0115 -0.0044  0.0345
 3237SOL    HW121347   2.501   0.461   8.863  0.4133  1.0146  0.1798
 3237SOL    HW221348   2.532   0.354   8.942 -0.9008 -0.5813  2.1059
 3238SOL     OW21349   1.324   0.793   1.561  0.1075  0.3242 -1.0793
 3238SOL    HW121350   1.342   0.699   1.550 -1.2036  0.0619 -1.0887
 3238SOL    HW221351   1.335   0.799   1.656  1.7084  0.5593 -1.2802
 3239SOL     OW21352   4.123   0.589   7.084 -0.2424 -0.1368  0.1198
 3239SOL    HW121353   4.098   0.680   7.100 -2.2024 -0.7893  0.6674
 3239SOL    HW221354   4.145   0.559   7.172 -1.0121 -0.4526  0.2044
 3240SOL     OW21355   1.487   0.223   2.714 -0.4546  0.1053  0.7568
 3240SOL    HW121356   1.505   0.206   2.621 -1.8161  0.1251  0.4922
 3240SOL    HW221357   1.433   0.146   2.731 -0.4880 -0.0808 -0.2011
 3241SOL     OW21358   4.073   3.559   0.806 -0.1212 -0.0634 -0.0792
 3241SOL    HW121359   4.124   3.608   0.870 -1.4674 -0.5746  1.3834
 3241SOL    HW221360   4.135   3.522   0.743 -0.9709 -1.3494 -0.1476
 3242SOL     OW21361   0.459   3.100   7.800 -0.0884 -0.2755 -0.5330
 3242SOL    HW121362   0.473   3.037   7.871  0.8236  1.5761  0.9130
 3242SOL    HW221363   0.546   3.090   7.761  0.5578  0.8171  0.6307
 3243SOL     OW21364   0.826   1.836   7.427  0.3079 -0.2911  0.2484
 3243SOL    HW121365   0.909   1.788   7.423 -0.1988 -1.2436  1.0300
 3243SOL    HW221366   0.824   1.873   7.515  0.2715  1.7890 -0.6407
 3244SOL     OW21367   3.516   2.454   3.811  0.0788 -0.0619 -0.4958
 3244SOL    HW121368   3.558   2.438   3.727  0.5202 -1.9466  0.0856
 3244SOL    HW221369   3.600   2.449   3.858 -0.1557 -0.8205 -0.1569
 3245SOL     OW21370   3.336   0.835   3.310  0.0989  0.7490  0.1789
 3245SOL    HW121371   3.344   0.783   3.390 -2.2888  0.5028  0.2367
 3245SOL    HW221372   3.428   0.847   3.285  0.5318 -0.8323  1.0152
 3246SOL     OW21373   1.967   4.402   7.562  0.1827 -0.1113  0.2332
 3246SOL    HW121374   1.898   4.446   7.513  0.0120 -0.5261  0.1068
 3246SOL    HW221375   2.039   4.464   7.548  2.6600 -2.9758  0.4941
 3247SOL     OW21376   0.898   3.276   5.904  0.3558 -0.3748 -0.3492
 3247SOL    HW121377   0.954   3.347   5.935 -2.0215  1.3469  0.0793
 3247SOL    HW221378   0.821   3.331   5.887  0.4176 -0.1907 -0.0316
 3248SOL     OW21379   2.989   1.600   4.211 -0.3703  0.1356 -0.1363
 3248SOL    HW121380   3.072   1.648   4.201 -1.9463  2.7345 -0.7969
 3248SOL    HW221381   2.993   1.547   4.132  0.8631  3.5182 -2.3656
 3249SOL     OW21382   1.348   0.258   4.860 -0.2656 -0.2273 -0.0961
 3249SOL    HW121383   1.368   0.319   4.931  3.0425 -0.7568 -0.5661
 3249SOL    HW221384   1.426   0.279   4.808 -1.5147  4.2844 -0.1030
 3250SOL     OW21385   2.346   0.083  14.763  0.4941 -0.1114 -0.1073
 3250SOL    HW121386   2.275   0.141  14.793  0.7437 -0.1934  0.6590
 3250SOL    HW221387   2.331   0.060  14.672 -1.1214  1.1483 -0.1530
 3251SOL     OW21388   1.977   0.128   9.142 -0.5257 -0.4993 -0.1009
 3251SOL    HW121389   1.925   0.096   9.215 -3.0358  2.4821 -0.6060
 3251SOL    HW221390   1.995   0.221   9.156 -0.5571 -0.0997 -2.7505
 3252SOL     OW21391   2.546   0.864  12.170  0.0009  0.1315  0.0154
 3252SOL    HW121392   2.636   0.844  12.144  0.0167  1.6846 -1.1144
 3252SOL    HW221393   2.557   0.939  12.228 -1.4660 -0.1951  0.7160
 3253SOL     OW21394   3.490   1.071   0.936 -0.1925  0.3606  0.1045
 3253SOL    HW121395   3.585   1.063   0.928 -0.3397 -1.3603 -0.0167
 3253SOL    HW221396   3.484   1.082   1.031  0.5606 -1.6456  0.3953
 3254SOL     OW21397   0.256   4.008   2.841  0.2221 -0.6141 -0.3516
 3254SOL    HW121398   0.300   4.086   2.808  0.8444 -0.3271  1.1216
 3254SOL    HW221399   0.258   4.049   2.928  0.2828 -0.3964 -0.4555
 3255SOL     OW21400   0.770   1.189   4.767 -0.7194  0.0507  0.3175
 3255SOL    HW121401   0.694   1.162   4.819 -0.8285  0.8854  0.5979
 3255SOL    HW221402   0.725   1.224   4.690 -0.6658  1.6531  1.0137
 3256SOL     OW21403   1.959   1.223   7.913 -0.0663  0.1519  0.2406
 3256SOL    HW121404   1.951   1.208   7.819  1.1997 -0.2052  0.1945
 3256SOL    HW221405   1.868   1.233   7.940  0.0544  0.6774  0.4620
 3257SOL     OW21406   2.321   2.971   2.124  0.2077  0.2915 -0.1925
 3257SOL    HW121407   2.372   2.959   2.204 -0.1979 -0.8007 -0.0896
 3257SOL    HW221408   2.388   3.025   2.083 -0.6595  0.9686 -0.7098
 3258SOL     OW21409   3.945   0.105   6.994  0.2117 -0.5773  0.1326
 3258SOL    HW121410   3.888   0.149   7.057  0.1039  0.3453 -0.6045
 3258SOL    HW221411   3.931   0.012   7.012 -0.0658 -0.3696  0.9906
 3259SOL     OW21412   3.215   0.450   4.675 -0.3198  0.3566 -0.6278
 3259SOL    HW121413   3.219   0.432   4.769 -1.6759 -0.0760 -0.6441
 3259SOL    HW221414   3.193   0.364   4.639  0.6672 -0.3083  0.3532
 3260SOL     OW21415   0.965   4.180  12.864 -0.3556  0.1330  0.2293
 3260SOL    HW121416   0.923   4.094  12.867 -2.4152  1.2091  2.6797
 3260SOL    HW221417   0.932   4.212  12.780  0.6731 -0.7543 -0.4988
 3261SOL     OW21418   2.122   2.390  15.522 -0.3836 -0.2439 -0.0566
 3261SOL    HW121419   2.090   2.360  15.437 -0.2534  1.1017 -0.5965
 3261SOL    HW221420   2.212   2.401  15.489 -0.4389  0.5824  0.0728
 3262SOL     OW21421   0.526   2.080   2.467  0.0499 -0.1023 -0.6712
 3262SOL    HW121422   0.521   2.004   2.409 -0.7279 -0.6346  0.0877
 3262SOL    HW221423   0.610   2.074   2.512 -0.1266 -2.9764 -0.7204
 3263SOL     OW21424   1.085   1.842  12.409  0.1182 -0.5675  0.0588
 3263SOL    HW121425   1.076   1.892  12.490  1.6058 -2.2088  1.2297
 3263SOL    HW221426   1.016   1.778  12.422  0.0109 -0.5704 -0.4917
 3264SOL     OW21427   3.383   4.340   8.547 -0.2163 -0.8218  0.0023
 3264SOL    HW121428   3.415   4.430   8.549 -0.7380 -0.5968 -1.2956
 3264SOL    HW221429   3.445   4.302   8.608  0.3786  3.0047  1.7598
 3265SOL     OW21430   1.400   3.156  16.778 -0.0489 -0.4004  1.0093
 3265SOL    HW121431   1.393   3.061  16.780  0.3130 -0.4412  0.3815
 3265SOL    HW221432   1.491   3.164  16.809 -0.3537  1.6632  1.3726
 3266SOL     OW21433   2.135   2.255   7.322 -0.3441  0.5181  0.2516
 3266SOL    HW121434   2.188   2.301   7.257 -0.7069  0.3540 -0.1586
 3266SOL    HW221435   2.203   2.226   7.384 -0.2361 -0.1799 -0.1941
 3267SOL     OW21436   4.364   1.868   8.020  0.1859  0.4089  0.4428
 3267SOL    HW121437   4.320   1.848   7.937  0.3274  1.7329  0.0502
 3267SOL    HW221438   4.304   1.832   8.084 -0.0658 -1.2247 -0.7023
 3268SOL     OW21439   1.198   3.171  14.630  0.6359 -0.0544  0.1738
 3268SOL    HW121440   1.219   3.102  14.694  0.7200 -1.6196 -1.5242
 3268SOL    HW221441   1.283   3.209  14.607  1.2568 -0.9007  1.0677
 3269SOL     OW21442   3.774   0.964   3.565  0.0780 -0.3591 -0.1768
 3269SOL    HW121443   3.782   0.881   3.612 -0.3568 -0.9144 -1.0839
 3269SOL    HW221444   3.865   0.992   3.572  0.0215 -0.5336  1.4436
 3270SOL     OW21445   2.583   4.128  17.336  0.2489 -0.7655 -0.4361
 3270SOL    HW121446   2.619   4.073  17.405  0.7713  0.0835 -0.0271
 3270SOL    HW221447   2.499   4.084  17.322  0.0827 -1.1098  1.6539
 3271SOL     OW21448   1.451   0.652  16.520  0.6525 -0.5555 -0.8406
 3271SOL    HW121449   1.375   0.616  16.475 -2.1384  1.4241  2.3549
 3271SOL    HW221450   1.399   0.683  16.594  1.6364 -0.6137 -0.1235
 3272SOL     OW21451   0.102   1.721   4.671 -0.3009 -0.0260 -0.9606
 3272SOL    HW121452   0.040   1.708   4.743  0.1910 -0.1359 -0.5622
 3272SOL    HW221453   0.145   1.635   4.667 -0.6596 -0.2976  1.4045
 3273SOL     OW21454   3.856   4.079  17.346  0.1150 -0.2024  0.0267
 3273SOL    HW121455   3.859   4.002  17.404  0.8793 -1.7570 -2.0873
 3273SOL    HW221456   3.783   4.127  17.386  1.9982  0.9915  2.0214
 3274SOL     OW21457   0.177   2.429   0.512 -0.3563  0.2818 -1.0647
 3274SOL    HW121458   0.133   2.347   0.533  5.0360 -2.1263  0.7938
 3274SOL    HW221459   0.232   2.443   0.589  0.2089 -0.7659 -1.2775
 3275SOL     OW21460   1.825   2.547   5.409  0.1617 -0.0552 -0.3707
 3275SOL    HW121461   1.816   2.642   5.402 -0.3376 -0.2370 -2.3618
 3275SOL    HW221462   1.848   2.541   5.501  2.6951 -4.4078 -1.2939
 3276SOL     OW21463   3.707   1.621   6.991 -0.4192 -0.2302 -0.4355
 3276SOL    HW121464   3.651   1.543   6.983 -2.7965  1.5772 -1.4392
 3276SOL    HW221465   3.777   1.569   7.032  3.0107  2.2499 -3.1728
 3277SOL     OW21466   3.142   1.664  17.689 -0.0168 -0.0616  0.1062
 3277SOL    HW121467   3.231   1.641  17.714  0.3593 -0.3921 -1.5176
 3277SOL    HW221468   3.145   1.757  17.713  0.1264 -0.4330  1.5081
 3278SOL     OW21469   4.706   2.352   8.693 -0.3134 -0.3583  0.6412
 3278SOL    HW121470   0.053   2.387   8.666  0.1926 -0.0345  2.7011
 3278SOL    HW221471   4.682   2.298   8.618  0.6518  1.2413 -0.8336
 3279SOL     OW21472   2.829   3.245   9.047  0.7108  0.0142  0.3369
 3279SOL    HW121473   2.913   3.235   9.002 -0.3822  0.4649 -1.8011
 3279SOL    HW221474   2.848   3.192   9.124  2.7081 -1.6236 -1.2683
 3280SOL     OW21475   1.861   3.666  11.003  0.0337  0.2859 -0.1787
 3280SOL    HW121476   1.844   3.621  10.920  0.5560  1.7757 -1.0957
 3280SOL    HW221477   1.795   3.625  11.058 -0.5529  1.9066  0.3339
 3281SOL     OW21478   3.611   3.591  11.103 -0.1223  0.0916 -0.0291
 3281SOL    HW121479   3.572   3.632  11.180 -0.9371  0.0834 -0.4439
 3281SOL    HW221480   3.703   3.605  11.128  0.8306 -1.8073 -2.4682
 3282SOL     OW21481   0.375   0.338   1.849  0.2690 -0.0528  0.3910
 3282SOL    HW121482   0.335   0.414   1.891  1.3458  0.3565  0.6798
 3282SOL    HW221483   0.364   0.267   1.912 -0.1717  0.1250  0.5130
 3283SOL     OW21484   2.803   3.503   8.896  0.3374 -0.6859  0.5083
 3283SOL    HW121485   2.783   3.574   8.956 -0.0537 -0.4821  0.1404
 3283SOL    HW221486   2.789   3.423   8.947  1.0597  0.5685  2.6201
 3284SOL     OW21487   1.722   3.461  11.669  0.4048 -0.1181 -0.2068
 3284SOL    HW121488   1.744   3.368  11.680  0.3160  0.0280  1.2452
 3284SOL    HW221489   1.734   3.497  11.757 -1.3404  0.0481 -0.0326
 3285SOL     OW21490   3.601   3.364   4.680  0.0327 -0.0537  0.6416
 3285SOL    HW121491   3.560   3.278   4.671 -0.4635  0.3186 -0.6657
 3285SOL    HW221492   3.590   3.399   4.592 -2.9430 -0.6668  0.7669
 3286SOL     OW21493   3.973   1.506  17.067  0.3549  0.3414 -0.5079
 3286SOL    HW121494   3.992   1.558  16.988  0.2392  0.8237 -0.2190
 3286SOL    HW221495   4.017   1.555  17.136 -0.9142  2.0425 -0.9054
 3287SOL     OW21496   0.289   2.455  14.399 -0.0023 -0.4293  0.0367
 3287SOL    HW121497   0.260   2.472  14.488  0.5566  2.2560 -0.2848
 3287SOL    HW221498   0.199   2.446  14.367 -0.1991  1.0411  0.1693
 3288SOL     OW21499   1.042   4.242   5.676 -0.4224 -0.0748 -0.4597
 3288SOL    HW121500   0.957   4.247   5.631 -0.1615  1.7962 -0.7388
 3288SOL    HW221501   1.076   4.331   5.663  1.6458 -0.7396  0.3985
 3289SOL     OW21502   0.271   1.613  16.697  0.2975  0.8333  0.1702
 3289SOL    HW121503   0.238   1.591  16.785  0.3886  2.7246  0.6604
 3289SOL    HW221504   0.364   1.632  16.709  0.4228  0.7038 -0.6329
 3290SOL     OW21505   2.204   1.202   6.622  0.2602 -0.6967 -0.0278
 3290SOL    HW121506   2.131   1.147   6.649 -0.0929 -0.5835 -0.7574
 3290SOL    HW221507   2.219   1.259   6.698  0.1860 -0.8803  0.1235
 3291SOL     OW21508   1.560   0.450  10.003  0.4081 -0.1297 -0.2408
 3291SOL    HW121509   1.569   0.362  10.039  0.7362 -0.0948 -0.2361
 3291SOL    HW221510   1.556   0.426   9.910  1.5662 -0.8735 -0.1006
 3292SOL     OW21511   4.029   0.703   0.404  0.0577  0.5046 -0.5427
 3292SOL    HW121512   4.022   0.734   0.494  1.3116  1.3946 -0.7551
 3292SOL    HW221513   4.061   0.614   0.422  1.8497  1.4101  0.7682
 3293SOL     OW21514   3.772   4.303   8.969 -0.0055  0.7499 -0.1483
 3293SOL    HW121515   3.798   4.365   9.037  0.0072  1.6282 -0.9576
 3293SOL    HW221516   3.849   4.305   8.911  0.7553  0.3850  0.8653
 3294SOL     OW21517   4.672   0.072   1.578  0.1299 -0.0181  0.1443
 3294SOL    HW121518   4.683   0.145   1.638 -4.1671  0.2986  0.5883
 3294SOL    HW221519   4.709   0.012   1.643  0.2644 -0.8314 -0.6685
 3295SOL     OW21520   4.016   2.187   1.481 -0.2662  0.1781 -0.4714
 3295SOL    HW121521   3.947   2.153   1.539 -2.3134 -0.4187 -3.3011
 3295SOL    HW221522   4.045   2.100   1.455  1.0521  0.6212 -0.4801
 3296SOL     OW21523   3.149   3.630   7.582  0.4705  0.1257 -0.0242
 3296SOL    HW121524   3.122   3.541   7.557  1.3886  0.7423 -3.1477
 3296SOL    HW221525   3.163   3.666   7.495  1.6441 -1.0897 -0.3384
 3297SOL     OW21526   1.110   4.203   7.691  0.3617 -0.1740 -0.2505
 3297SOL    HW121527   1.072   4.275   7.741 -1.7028 -2.2286  1.1268
 3297SOL    HW221528   1.077   4.231   7.605  2.2779  2.0541 -0.2680
 3298SOL     OW21529   1.273   1.579   6.034 -0.0909  0.0822  0.0725
 3298SOL    HW121530   1.295   1.672   6.042  1.3258 -0.3900  1.5055
 3298SOL    HW221531   1.346   1.545   5.982 -0.2034  0.8209 -0.5735
 3299SOL     OW21532   1.101   2.569   1.950 -0.0212  0.6730 -0.8424
 3299SOL    HW121533   1.157   2.598   2.022 -1.0374 -0.2164  0.3082
 3299SOL    HW221534   1.024   2.618   1.979 -2.8964 -3.4076 -1.5808
 3300SOL     OW21535   0.499   4.148   3.425 -0.3393 -0.0116 -0.0177
 3300SOL    HW121536   0.542   4.210   3.366  0.9144  0.7221  1.6329
 3300SOL    HW221537   0.408   4.174   3.411  0.5021  1.2206 -3.1310
 3301SOL     OW21538   0.377   1.118  13.838  0.5898 -0.5164 -0.7821
 3301SOL    HW121539   0.463   1.131  13.880 -0.0845  1.9869 -0.1649
 3301SOL    HW221540   0.319   1.186  13.871  1.0759  0.1223 -1.2412
 3302SOL     OW21541   4.684   4.231  16.606  0.2535  0.2456 -0.6570
 3302SOL    HW121542   4.693   4.208  16.699 -1.5481 -0.6102 -0.6903
 3302SOL    HW221543   4.685   4.327  16.606  0.7382  0.2418 -1.7895
 3303SOL     OW21544   4.328   2.982  11.491  0.2424  0.4618  0.1923
 3303SOL    HW121545   4.234   2.987  11.472  0.5205  0.7576 -1.0907
 3303SOL    HW221546   4.331   2.891  11.520  2.8016  0.5473  0.1452
 3304SOL     OW21547   0.178   0.825  17.598 -0.0567 -0.4030  0.2678
 3304SOL    HW121548   0.268   0.799  17.584  0.4165  1.2301  0.2996
 3304SOL    HW221549   0.186   0.855  17.689 -0.0665  2.0131 -0.5198
 3305SOL     OW21550   1.221   2.122  17.029 -0.3469  0.3277  0.2465
 3305SOL    HW121551   1.160   2.085  17.093 -2.0128  0.7167 -1.1256
 3305SOL    HW221552   1.185   2.211  17.029 -2.2473 -0.4518  2.9669
 3306SOL     OW21553   1.842   0.252   1.704  0.2196  0.1283 -0.1752
 3306SOL    HW121554   1.834   0.269   1.798  2.7491  0.4371 -0.0160
 3306SOL    HW221555   1.932   0.223   1.692  0.2363 -0.7908  2.1576
 3307SOL     OW21556   2.508   3.536  17.684  0.4040 -0.1158 -0.0947
 3307SOL    HW121557   2.547   3.603  17.627 -0.9078 -0.2341 -1.1261
 3307SOL    HW221558   2.574   3.467  17.678 -1.2992 -1.6836 -0.8287
 3308SOL     OW21559   0.281   1.215   8.335 -0.1474  0.1925 -0.3305
 3308SOL    HW121560   0.256   1.206   8.427 -1.0870  0.2846 -0.5720
 3308SOL    HW221561   0.339   1.288   8.353 -0.4340 -0.0104  1.3993
 3309SOL     OW21562   4.630   3.606   2.813  0.1367  0.2712  0.0736
 3309SOL    HW121563   4.558   3.646   2.861  0.9026  1.0176  0.5966
 3309SOL    HW221564   4.707   3.637   2.861 -1.2743  2.6930  0.7764
 3310SOL     OW21565   1.773   1.220   8.456  0.5757 -0.0344 -0.0959
 3310SOL    HW121566   1.755   1.278   8.383  0.4127  0.6643  0.4931
 3310SOL    HW221567   1.866   1.237   8.474  0.9550 -0.7380 -1.4657
 3311SOL     OW21568   1.999   1.022  17.155 -0.1383  0.1069 -0.0290
 3311SOL    HW121569   1.916   1.036  17.110 -1.3473  0.2793  2.2832
 3311SOL    HW221570   1.984   1.075  17.233 -1.5596 -1.3385  0.6767
 3312SOL     OW21571   3.054   1.670   7.554  0.4601  0.2864 -0.4851
 3312SOL    HW121572   3.136   1.661   7.506 -0.6383  1.6793 -2.6449
 3312SOL    HW221573   3.070   1.679   7.648  0.4826  0.5032 -0.5087
 3313SOL     OW21574   0.698   4.696   5.174 -0.7579 -0.1535 -0.3035
 3313SOL    HW121575   0.603   4.693   5.179 -0.8050 -0.3229 -1.3132
 3313SOL    HW221576   0.722   0.018   5.244  0.5441  2.0877 -2.6547
 3314SOL     OW21577   2.153   3.208   2.192  0.6005  0.1590  0.1467
 3314SOL    HW121578   2.171   3.117   2.214 -1.4873 -0.2817  0.0693
 3314SOL    HW221579   2.119   3.176   2.108  2.2975 -2.9776  0.6569
 3315SOL     OW21580   1.598   4.397   5.218 -0.0612  0.1347 -0.1460
 3315SOL    HW121581   1.575   4.342   5.143  2.0000 -1.0320  0.0920
 3315SOL    HW221582   1.509   4.429   5.235 -0.1975 -0.7474  0.8288
 3316SOL     OW21583   3.147   2.811   6.615 -0.0245  0.3150 -0.8540
 3316SOL    HW121584   3.061   2.853   6.609 -0.8300 -1.5595 -2.2647
 3316SOL    HW221585   3.134   2.742   6.550 -0.1360 -1.1593  0.7530
 3317SOL     OW21586   0.112   1.490   5.298  0.2373  0.6397  0.1310
 3317SOL    HW121587   0.197   1.532   5.296  0.2393  0.7285  2.3363
 3317SOL    HW221588   0.087   1.513   5.387 -2.1321 -0.5528 -0.2060
 3318SOL     OW21589   0.014   2.311   4.906 -0.2266  0.0961 -0.4581
 3318SOL    HW121590   0.033   2.394   4.862 -1.7401  0.5127 -0.3302
 3318SOL    HW221591   4.730   2.268   4.823  0.6417  0.3481 -0.8198
 3319SOL     OW21592   3.638   0.305   8.955 -0.1778 -0.0018 -0.2238
 3319SOL    HW121593   3.590   0.282   9.035  0.1234  3.9175  1.0817
 3319SOL    HW221594   3.638   0.222   8.907  2.0846 -1.1504  1.7796
 3320SOL     OW21595   3.448   0.133   7.700  0.0430 -0.1956 -0.4634
 3320SOL    HW121596   3.375   0.127   7.761  0.5284 -0.3964  0.0909
 3320SOL    HW221597   3.505   0.188   7.754 -1.4466 -0.3989  1.3170
 3321SOL     OW21598   3.910   0.602  14.331 -0.3421 -0.2498  0.1097
 3321SOL    HW121599   3.987   0.587  14.385 -0.7067  1.4961  1.0943
 3321SOL    HW221600   3.882   0.687  14.364 -0.7313 -0.3194 -0.0380
 3322SOL     OW21601   4.644   4.584  17.739 -0.5405 -0.2462 -0.3239
 3322SOL    HW121602   4.645   4.496   0.027 -0.4201 -0.2206 -0.2676
 3322SOL    HW221603   4.717   4.582  17.677 -0.5800 -2.4564 -0.2995
 3323SOL     OW21604   2.760   4.331   1.884 -0.1643 -0.6067  0.6656
 3323SOL    HW121605   2.681   4.299   1.927 -1.2305  0.7964 -0.2720
 3323SOL    HW221606   2.829   4.319   1.949 -1.5767 -0.6424  2.1580
 3324SOL     OW21607   1.435   3.360   5.628  0.0652 -0.0547 -0.0490
 3324SOL    HW121608   1.366   3.397   5.573 -1.2360 -0.7097  1.1384
 3324SOL    HW221609   1.453   3.273   5.592 -2.4348 -0.5955 -0.0005
 3325SOL     OW21610   3.352   4.368   7.584  0.4114 -0.4183  0.7739
 3325SOL    HW121611   3.261   4.340   7.580  0.4806 -0.3482 -1.3523
 3325SOL    HW221612   3.396   4.285   7.601  1.5731  0.3466  1.4974
 3326SOL     OW21613   2.696   3.805   6.266 -0.2706  0.0457 -0.3367
 3326SOL    HW121614   2.713   3.827   6.358 -0.1002 -0.7500 -0.1760
 3326SOL    HW221615   2.614   3.849   6.245 -0.2328 -0.9057 -2.4828
 3327SOL     OW21616   2.506   0.758  16.622 -0.2334  0.2832  0.1498
 3327SOL    HW121617   2.470   0.753  16.533 -0.2596 -0.4897  0.2038
 3327SOL    HW221618   2.563   0.833  16.604 -2.2380  1.5187 -0.9821
 3328SOL     OW21619   0.108   4.440   8.864 -1.0418 -0.7268  0.2791
 3328SOL    HW121620   0.137   4.523   8.901 -1.3112 -0.6604  0.3387
 3328SOL    HW221621   0.152   4.453   8.780  2.7041  0.1033  2.3486
 3329SOL     OW21622   3.448   3.512   6.538 -0.0406 -0.4577 -0.1814
 3329SOL    HW121623   3.519   3.573   6.558 -0.8088  0.5659 -0.6289
 3329SOL    HW221624   3.490   3.427   6.522  1.2679  0.1444  0.0165
 3330SOL     OW21625   0.646   3.517   5.501  0.1595 -0.3540  0.5850
 3330SOL    HW121626   0.604   3.478   5.577 -0.3422 -1.7042 -0.3860
 3330SOL    HW221627   0.618   3.606   5.523 -1.2904 -1.3068  2.6151
 3331SOL     OW21628   2.667   2.047  10.285  0.1470  0.0029  0.0384
 3331SOL    HW121629   2.590   2.079  10.333  0.1111 -2.6020  1.6942
 3331SOL    HW221630   2.726   2.070  10.357  3.0655 -1.6950 -1.8283
 3332SOL     OW21631   3.064   4.077   6.018 -0.2283  0.0710 -0.1650
 3332SOL    HW121632   3.057   4.090   6.112 -0.1846 -4.1780  0.4216
 3332SOL    HW221633   3.014   3.997   6.002  1.6699 -1.4698  1.7008
 3333SOL     OW21634   0.700   4.594   9.706 -0.2965  0.6112 -0.7636
 3333SOL    HW121635   0.711   4.688   9.698 -1.7447  0.7696 -0.9424
 3333SOL    HW221636   0.740   4.563   9.625  2.3328 -0.1369  0.8210
 3334SOL     OW21637   1.739   4.597  11.009  0.1772  0.2847  0.0083
 3334SOL    HW121638   1.775   4.685  11.016 -0.1455  0.3176  1.2553
 3334SOL    HW221639   1.805   4.551  10.957 -1.0727  0.5775 -1.8310
 3335SOL     OW21640   2.304   2.242   5.789 -0.2602 -0.1899  0.3674
 3335SOL    HW121641   2.399   2.248   5.783 -0.4351  0.2495 -1.8368
 3335SOL    HW221642   2.296   2.149   5.809 -2.6254  0.0351  0.4178
 3336SOL     OW21643   3.843   0.024   0.920  0.3986 -0.5336 -0.1106
 3336SOL    HW121644   3.874   0.086   0.986  1.5864 -1.3287  0.0644
 3336SOL    HW221645   3.884   4.680   0.947  0.6572 -0.9748 -1.8056
 3337SOL     OW21646   2.019   2.626   8.763 -0.0284 -0.2453  0.4744
 3337SOL    HW121647   1.973   2.708   8.745 -2.3735 -1.5864  0.4508
 3337SOL    HW221648   1.952   2.584   8.817 -0.6388 -0.8284 -0.7436
 3338SOL     OW21649   2.198   1.058   6.976 -0.1430  0.2196 -0.2068
 3338SOL    HW121650   2.181   0.982   7.032  0.6826  1.0245  1.1218
 3338SOL    HW221651   2.235   1.019   6.896 -1.4889 -3.4886  0.9541
 3339SOL     OW21652   0.131   4.494   4.745 -0.2408 -0.0305  0.3368
 3339SOL    HW121653   0.077   4.415   4.738 -0.4578  0.1992 -0.5682
 3339SOL    HW221654   0.066   4.564   4.741 -0.4841 -0.3789 -1.8735
 3340SOL     OW21655   4.177   1.379   9.056 -0.4086 -0.8089  0.0583
 3340SOL    HW121656   4.087   1.387   9.023 -0.5021  0.7286  0.6907
 3340SOL    HW221657   4.193   1.472   9.070 -0.5967 -0.8407  0.4951
 3341SOL     OW21658   1.823   2.980   2.297 -0.5961 -0.1262  0.0095
 3341SOL    HW121659   1.767   3.057   2.293 -3.0277 -1.9033  0.3681
 3341SOL    HW221660   1.762   2.925   2.344  0.3120 -0.6876  0.5329
 3342SOL     OW21661   0.215   4.290   4.055  0.0576 -0.6107 -0.4366
 3342SOL    HW121662   0.272   4.232   4.004 -1.3123 -1.3300 -1.1557
 3342SOL    HW221663   0.128   4.272   4.018 -0.6097  3.1837 -0.7274
 3343SOL     OW21664   2.063   1.602   0.875 -0.1458  0.0888 -0.4729
 3343SOL    HW121665   2.158   1.615   0.874 -0.2318  0.6446 -1.7946
 3343SOL    HW221666   2.033   1.536   0.813 -0.1573 -1.4700  1.1837
 3344SOL     OW21667   1.173   4.727   8.574  0.5465 -0.4077  0.1943
 3344SOL    HW121668   1.217   4.649   8.540  0.2810 -0.9839  1.1713
 3344SOL    HW221669   1.251   0.030   8.611  1.5877 -0.5135 -1.8575
 3345SOL     OW21670   2.828   4.511   8.503  0.7156 -0.0369  0.3637
 3345SOL    HW121671   2.858   4.447   8.438 -1.4560  0.0941 -0.7508
 3345SOL    HW221672   2.848   4.467   8.585 -2.3803 -1.1307  0.5207
 3346SOL     OW21673   0.223   1.102  14.467 -0.6587 -0.4744  0.2280
 3346SOL    HW121674   0.155   1.047  14.508 -2.2664  0.8322 -0.7012
 3346SOL    HW221675   0.305   1.057  14.487  0.8439  2.5767  0.8581
 3347SOL     OW21676   3.298   3.686  16.261 -0.3452  0.0770 -0.0768
 3347SOL    HW121677   3.321   3.612  16.317  1.8148  1.6367  1.1227
 3347SOL    HW221678   3.275   3.742  16.335  0.9557 -0.4579  0.7337
 3348SOL     OW21679   1.832   0.150   8.614 -0.0750  0.4693 -0.1056
 3348SOL    HW121680   1.866   0.064   8.638 -1.0116 -0.2379 -1.3428
 3348SOL    HW221681   1.871   0.158   8.527 -0.6653  1.3043 -0.2862
 3349SOL     OW21682   3.018   1.499  11.046  0.0605 -0.0621  0.3809
 3349SOL    HW121683   2.945   1.463  10.996 -0.3620  1.1978  0.1020
 3349SOL    HW221684   3.001   1.593  11.043  1.1605  0.0981 -1.0653
 3350SOL     OW21685   1.780   4.050   3.419 -0.0233  0.6868 -0.5220
 3350SOL    HW121686   1.861   4.101   3.418  1.2714 -1.2938  1.2584
 3350SOL    HW221687   1.763   4.037   3.326  0.0199 -2.0751 -0.1537
 3351SOL     OW21688   1.569   2.856   8.522  0.0740  0.0587  0.2677
 3351SOL    HW121689   1.602   2.847   8.433 -1.0935  3.3124 -0.4885
 3351SOL    HW221690   1.481   2.820   8.526 -0.5324  1.4759 -0.5856
 3352SOL     OW21691   0.810   1.573   8.096  0.6427  0.5506 -0.4055
 3352SOL    HW121692   0.752   1.629   8.146  0.9474  0.2047  0.3357
 3352SOL    HW221693   0.791   1.601   8.006  1.8313  1.8110 -0.2627
 3353SOL     OW21694   2.789   3.287   5.025 -0.7851  0.4963 -0.0358
 3353SOL    HW121695   2.847   3.243   4.963  0.2315 -0.7096  1.7884
 3353SOL    HW221696   2.850   3.341   5.074  0.0709  0.8403 -1.4675
 3354SOL     OW21697   4.586   2.436   5.114  0.6202  0.2960 -0.0386
 3354SOL    HW121698   4.612   2.371   5.049 -1.6421 -1.8793  1.1966
 3354SOL    HW221699   4.655   2.501   5.107  0.0819  0.8819  0.0517
 3355SOL     OW21700   2.823   3.007  10.357  0.0482  0.8082 -0.0501
 3355SOL    HW121701   2.819   3.028  10.450 -0.0372  0.7751 -0.0458
 3355SOL    HW221702   2.780   2.922  10.356  0.8541  0.4015  1.1626
 3356SOL     OW21703   0.222   1.287   6.047 -0.1365 -0.3603 -0.2452
 3356SOL    HW121704   0.229   1.303   6.141  1.6307  1.7306 -0.7370
 3356SOL    HW221705   0.255   1.372   6.019  0.5291 -0.6461 -0.3429
 3357SOL     OW21706   4.339   2.173  12.884  0.3809  0.6674 -0.0582
 3357SOL    HW121707   4.317   2.223  12.806 -4.6497 -0.1843  0.8492
 3357SOL    HW221708   4.413   2.224  12.918  1.2393 -0.7756  0.2619
 3358SOL     OW21709   0.102   2.067   4.097 -0.2786 -0.0543 -0.3635
 3358SOL    HW121710   0.141   2.153   4.109  1.5577 -0.6696 -2.1427
 3358SOL    HW221711   0.167   2.030   4.038 -0.0511 -0.9928  0.4767
 3359SOL     OW21712   2.785   4.251   5.065 -0.0826 -0.0659  0.4166
 3359SOL    HW121713   2.824   4.169   5.094  0.8814 -0.4659 -2.0333
 3359SOL    HW221714   2.717   4.224   5.003 -0.3892  1.1271  0.2216
 3360SOL     OW21715   1.870   1.137  15.805  0.8175 -0.4799 -0.0482
 3360SOL    HW121716   1.936   1.070  15.823  0.2371 -1.1056 -0.2120
 3360SOL    HW221717   1.891   1.204  15.870 -1.1521  2.0375 -2.0093
 3361SOL     OW21718   2.322   3.745   2.405  0.1897  0.2967 -0.1950
 3361SOL    HW121719   2.278   3.830   2.404  0.3116  0.3743  1.6556
 3361SOL    HW221720   2.397   3.754   2.346 -0.2268  0.9960 -0.6259
 3362SOL     OW21721   0.784   2.263   1.755 -0.1870  0.5888 -0.1929
 3362SOL    HW121722   0.736   2.304   1.827  0.6951  3.4489 -1.2260
 3362SOL    HW221723   0.753   2.316   1.681  1.8399  1.5440 -0.3436
 3363SOL     OW21724   0.616   0.921   2.433  0.1231 -0.1026 -0.1706
 3363SOL    HW121725   0.597   0.854   2.499  0.0161  0.5122  0.4184
 3363SOL    HW221726   0.616   0.866   2.354 -2.5617 -0.4921  0.0790
 3364SOL     OW21727   3.729   2.040   8.780  0.4171 -0.1049  0.4757
 3364SOL    HW121728   3.682   2.009   8.858 -1.5258  0.4036 -0.4902
 3364SOL    HW221729   3.674   2.112   8.748  0.4568 -0.4398 -0.3239
 3365SOL     OW21730   2.320   3.856   4.826 -0.2110 -0.0044 -0.1728
 3365SOL    HW121731   2.314   3.791   4.756 -0.8923  1.1706 -1.1842
 3365SOL    HW221732   2.402   3.827   4.867 -0.6977  0.5080  1.1792
 3366SOL     OW21733   3.568   3.230  14.942  0.0988  0.5119  0.1273
 3366SOL    HW121734   3.573   3.153  14.887  2.2499  0.5814  0.2216
 3366SOL    HW221735   3.615   3.304  14.902  0.8088 -0.7529 -1.3521
 3367SOL     OW21736   4.711   1.542   2.128 -0.0993 -0.3703 -0.2450
 3367SOL    HW121737   0.040   1.583   2.183 -2.2249  2.6484  0.1353
 3367SOL    HW221738   4.688   1.619   2.075  0.5565  0.1834  0.2659
 3368SOL     OW21739   0.252   1.214   3.617 -0.2019 -0.3462  0.0448
 3368SOL    HW121740   0.297   1.222   3.701 -0.5156  0.7480  0.1079
 3368SOL    HW221741   0.213   1.302   3.618  3.0647  1.0721  0.8355
 3369SOL     OW21742   0.313   3.657   1.813  0.1497 -0.1654  0.0001
 3369SOL    HW121743   0.345   3.704   1.891 -1.0394 -0.8186  0.8901
 3369SOL    HW221744   0.281   3.729   1.759  1.4738 -0.8253 -1.6277
 3370SOL     OW21745   0.151   1.525  17.374  0.4841 -0.0148  0.3554
 3370SOL    HW121746   0.084   1.531  17.305 -0.4011  0.2629  1.2339
 3370SOL    HW221747   0.126   1.603  17.424  1.1095  0.9867 -0.8915
 3371SOL     OW21748   2.503   3.284  16.348 -0.2965  0.0267  0.0441
 3371SOL    HW121749   2.461   3.328  16.422 -2.1780 -1.6939  0.0143
 3371SOL    HW221750   2.478   3.193  16.360 -0.0362 -0.2424 -1.4832
 3372SOL     OW21751   0.710   0.727   6.850  0.5950  0.0703  0.4328
 3372SOL    HW121752   0.800   0.695   6.856  0.4873 -0.3292 -0.0522
 3372SOL    HW221753   0.679   0.689   6.768  0.4458  1.9292 -0.3674
 3373SOL     OW21754   1.718   1.053  10.588 -0.9495  0.2338 -0.0007
 3373SOL    HW121755   1.798   1.038  10.638 -1.8079  0.5664  1.4579
 3373SOL    HW221756   1.748   1.033  10.499 -0.1314 -0.5524  0.4447
 3374SOL     OW21757   2.056   0.542   4.096  0.0529 -0.4077 -0.3694
 3374SOL    HW121758   1.970   0.548   4.056  0.5498  1.7957 -1.1393
 3374SOL    HW221759   2.038   0.484   4.170 -0.8042  0.6945  0.2829
 3375SOL     OW21760   3.571   0.650   9.235 -0.0711  0.0285 -0.6557
 3375SOL    HW121761   3.496   0.689   9.280 -0.3371  0.4236 -1.4359
 3375SOL    HW221762   3.635   0.721   9.241  1.8214 -1.6166 -1.4119
 3376SOL     OW21763   0.089   1.684   2.766 -0.2667  0.1740 -0.0745
 3376SOL    HW121764   0.027   1.756   2.758  0.1861  0.7099  1.1681
 3376SOL    HW221765   0.054   1.623   2.702 -0.8947 -0.4732  0.8765
 3377SOL     OW21766   0.714   3.118   6.196 -0.4479  0.2511  0.1396
 3377SOL    HW121767   0.708   3.203   6.239 -2.6650  0.9867 -1.6182
 3377SOL    HW221768   0.692   3.143   6.107  2.9523 -0.8822 -1.0044
 3378SOL     OW21769   4.130   0.434   4.000 -0.3089  0.2287  0.1834
 3378SOL    HW121770   4.099   0.495   3.933 -1.6813  0.3976  0.9802
 3378SOL    HW221771   4.131   0.492   4.076  0.2020  0.3904  0.0547
 3379SOL     OW21772   4.066   3.701   8.600 -0.0848 -0.4691 -0.0883
 3379SOL    HW121773   4.026   3.619   8.570 -4.0847  0.9796  1.2228
 3379SOL    HW221774   4.140   3.715   8.541 -0.3872 -3.5335 -1.2067
 3380SOL     OW21775   1.592   1.380   7.448  0.1457  0.1480  0.3410
 3380SOL    HW121776   1.595   1.375   7.352 -1.5886 -1.4066  0.3605
 3380SOL    HW221777   1.610   1.287   7.462  0.4503  0.4015  1.5633
 3381SOL     OW21778   1.742   1.156   8.833  0.1697  0.2062 -0.2250
 3381SOL    HW121779   1.733   1.061   8.825  2.4958  0.0624 -1.0556
 3381SOL    HW221780   1.765   1.168   8.925  1.5985 -0.2996 -0.5271
 3382SOL     OW21781   4.695   2.301  14.961 -0.0292 -0.6110  0.1570
 3382SOL    HW121782   4.657   2.389  14.955  0.1072 -0.4504  1.6266
 3382SOL    HW221783   4.651   2.259  15.034  0.8982  0.1454  1.1571
 3383SOL     OW21784   3.225   2.952  14.013  0.0080 -0.1033  0.4565
 3383SOL    HW121785   3.139   2.925  14.045 -0.6075  1.7745  0.4153
 3383SOL    HW221786   3.273   2.871  14.026  1.2429  0.3779 -1.0628
 3384SOL     OW21787   0.004   2.846   8.142  0.1758 -0.5280  0.6962
 3384SOL    HW121788   0.030   2.853   8.050 -0.9229  0.2524  0.4508
 3384SOL    HW221789   0.083   2.877   8.186  0.1888  1.4582 -0.7583
 3385SOL     OW21790   1.184   1.328   5.864 -0.6874 -0.1531  0.7813
 3385SOL    HW121791   1.225   1.348   5.780 -0.0946 -2.4028  0.5173
 3385SOL    HW221792   1.174   1.416   5.899 -1.1467  0.2764 -0.4217
 3386SOL     OW21793   3.638   4.654   2.142  0.2510  0.0549  0.3549
 3386SOL    HW121794   3.719   4.705   2.134  0.5778 -0.5907 -0.5518
 3386SOL    HW221795   3.602   4.697   2.219  0.6236 -1.5867  1.4649
 3387SOL     OW21796   3.486   4.055   1.744 -0.4625  0.4771 -0.8327
 3387SOL    HW121797   3.444   4.062   1.659 -0.1329 -2.6768 -1.2515
 3387SOL    HW221798   3.581   4.054   1.730 -0.2515 -2.0939  0.9106
 3388SOL     OW21799   2.152   2.452  13.120  0.1668  0.3120 -0.2690
 3388SOL    HW121800   2.164   2.398  13.198 -1.1266  0.5680  0.1228
 3388SOL    HW221801   2.156   2.394  13.044 -0.8074  0.7667 -0.6628
 3389SOL     OW21802   4.314   0.092  10.915  0.1141 -0.1944  0.7774
 3389SOL    HW121803   4.393   0.042  10.937  0.0889  1.1645  3.9263
 3389SOL    HW221804   4.327   0.182  10.944  0.6796  0.4703 -1.5343
 3390SOL     OW21805   1.013   3.949   8.892 -0.0130 -0.2006 -0.1763
 3390SOL    HW121806   0.997   3.997   8.811  2.9652  1.4465  0.2379
 3390SOL    HW221807   0.924   3.929   8.922 -0.5816  1.0267 -1.0624
 3391SOL     OW21808   2.545   3.223   7.539 -0.4236 -0.2588 -0.1480
 3391SOL    HW121809   2.563   3.190   7.627 -1.2459  1.8244  0.8109
 3391SOL    HW221810   2.589   3.158   7.485  0.2232 -0.6445  0.8275
 3392SOL     OW21811   4.634   1.029   1.996  0.2044  0.5777  0.0092
 3392SOL    HW121812   4.699   1.045   2.064  1.2940 -0.6123 -0.7504
 3392SOL    HW221813   4.594   1.115   1.990  0.1518  0.6539  1.4009
 3393SOL     OW21814   1.416   3.669   9.033  0.4264 -0.0180 -0.0723
 3393SOL    HW121815   1.410   3.626   8.948 -2.1057  0.5408 -0.1581
 3393SOL    HW221816   1.506   3.701   9.039  0.9314 -1.4962  0.3145
 3394SOL     OW21817   3.916   1.808   6.689  0.2947  0.4204 -0.0678
 3394SOL    HW121818   3.882   1.890   6.652 -2.4757  0.2741  2.1149
 3394SOL    HW221819   3.925   1.754   6.611 -1.0288 -0.9092  0.6974
 3395SOL     OW21820   0.526   1.937   9.336 -0.3452 -0.7723 -0.4442
 3395SOL    HW121821   0.574   1.953   9.255 -1.0418 -1.0014 -0.9001
 3395SOL    HW221822   0.594   1.974   9.392 -2.4871  1.6371  0.5709
 3396SOL     OW21823   4.367   2.676   0.199  0.1018 -0.1209 -0.2112
 3396SOL    HW121824   4.354   2.649   0.290  0.1052  2.9312  0.6688
 3396SOL    HW221825   4.458   2.656   0.179  0.0621 -2.4573  1.9452
 3397SOL     OW21826   2.687   1.898  17.730  0.0187 -0.1473 -0.7139
 3397SOL    HW121827   2.749   1.932   0.045  2.2050 -3.3087 -1.1423
 3397SOL    HW221828   2.695   1.803  17.732  2.3858  0.0292 -1.6710
 3398SOL     OW21829   1.183   0.381  11.441 -0.1446 -0.1140 -0.3626
 3398SOL    HW121830   1.273   0.359  11.466 -0.0788  2.5363  1.7735
 3398SOL    HW221831   1.144   0.363  11.527  2.8078 -1.0581  0.7834
 3399SOL     OW21832   1.462   4.457   5.543 -0.1702 -0.2284  0.6007
 3399SOL    HW121833   1.475   4.531   5.485  1.9096  0.8148  2.4154
 3399SOL    HW221834   1.552   4.440   5.569  0.1365 -0.6631 -0.7449
 3400SOL     OW21835   2.752   3.763   5.607 -0.3711  0.0532  0.1328
 3400SOL    HW121836   2.742   3.762   5.512 -2.2630  1.1122  0.3110
 3400SOL    HW221837   2.670   3.720   5.632 -1.2252  1.9940  0.6933
 3401SOL     OW21838   4.714   3.402   1.551  0.0278 -0.6827  0.4983
 3401SOL    HW121839   0.041   3.470   1.531 -0.5581 -0.2054  0.2044
 3401SOL    HW221840   0.008   3.385   1.640  0.3971  2.4632  0.9845
 3402SOL     OW21841   1.977   1.275   8.793 -0.0598 -0.0280  0.1040
 3402SOL    HW121842   1.891   1.256   8.830 -0.5964  0.2066 -1.0150
 3402SOL    HW221843   1.959   1.249   8.703  0.6122 -0.0652 -0.0216
 3403SOL     OW21844   2.114   4.308   0.547  0.2187  0.4799 -0.0985
 3403SOL    HW121845   2.134   4.224   0.505 -0.2728  0.0106  0.5974
 3403SOL    HW221846   2.039   4.331   0.493 -1.8132 -0.4793  2.3129
 3404SOL     OW21847   0.430   3.816   5.106 -0.2125 -0.0551  0.1469
 3404SOL    HW121848   0.372   3.790   5.034  0.4565 -1.8627  0.2554
 3404SOL    HW221849   0.511   3.818   5.056 -0.6616 -1.2222 -0.6310
 3405SOL     OW21850   4.000   2.434   3.736 -0.0536 -0.0592 -0.0465
 3405SOL    HW121851   4.054   2.490   3.681  1.3124 -0.7562  0.5793
 3405SOL    HW221852   3.958   2.383   3.667 -1.6559  0.8654  0.2454
 3406SOL     OW21853   2.510   1.599   9.920  0.5728 -0.2861 -0.0328
 3406SOL    HW121854   2.456   1.649   9.981 -0.7513  0.2375 -1.6259
 3406SOL    HW221855   2.549   1.526   9.967  0.0507  1.2787  2.8198
 3407SOL     OW21856   2.962   3.463  15.657  0.0074 -0.2372  0.1333
 3407SOL    HW121857   2.958   3.518  15.579 -0.3901 -1.5587 -0.7740
 3407SOL    HW221858   3.055   3.442  15.669  0.5275  1.6993 -0.5305
 3408SOL     OW21859   0.413   3.255   8.561  0.2707 -0.5661 -0.6219
 3408SOL    HW121860   0.333   3.302   8.585 -0.3787 -0.6866 -2.5457
 3408SOL    HW221861   0.461   3.332   8.534  0.9949 -1.6717 -2.4929
 3409SOL     OW21862   3.808   4.388   7.432  0.5278 -0.6456 -0.3122
 3409SOL    HW121863   3.771   4.427   7.511  1.1609  0.7447 -0.6897
 3409SOL    HW221864   3.793   4.461   7.372  3.8702  0.4399  0.1418
 3410SOL     OW21865   4.569   3.818   3.978  0.4937  0.0140  0.1761
 3410SOL    HW121866   4.625   3.836   4.053  0.9201  0.6551 -0.2982
 3410SOL    HW221867   4.557   3.904   3.938  0.3322 -0.9435 -1.8751
 3411SOL     OW21868   2.549   3.831   0.540  0.7864  0.4341 -1.0845
 3411SOL    HW121869   2.527   3.827   0.447 -1.8810 -0.3303 -0.4267
 3411SOL    HW221870   2.480   3.888   0.574  0.3542 -0.2337 -0.8396
 3412SOL     OW21871   1.760   2.818   5.386  0.1178 -0.3514  0.4293
 3412SOL    HW121872   1.720   2.810   5.300  1.4771  0.4042 -0.2759
 3412SOL    HW221873   1.690   2.865   5.430 -1.6860 -0.9854 -1.7989
 3413SOL     OW21874   3.613   1.190   8.216  0.6167 -0.8235  0.4732
 3413SOL    HW121875   3.605   1.104   8.174  1.2254  0.5892 -2.5347
 3413SOL    HW221876   3.566   1.245   8.153  0.9957 -1.4500 -0.3560
 3414SOL     OW21877   3.293   1.425  13.433 -0.4366 -0.7772  0.0798
 3414SOL    HW121878   3.222   1.428  13.368  0.0733  5.4551 -0.1929
 3414SOL    HW221879   3.336   1.344  13.406 -0.2921 -0.0173 -2.0411
 3415SOL     OW21880   0.251   1.277   3.938  0.3890 -0.0144 -0.6107
 3415SOL    HW121881   0.322   1.216   3.959  0.1288 -0.0091  0.2562
 3415SOL    HW221882   0.303   1.348   3.901  0.2822  1.5857  2.3900
 3416SOL     OW21883   1.706   0.907  15.100  0.1659 -0.0672  0.2940
 3416SOL    HW121884   1.706   0.826  15.049  1.0115  0.8820 -1.2280
 3416SOL    HW221885   1.784   0.891  15.153  0.2376 -3.4447 -0.8209
 3417SOL     OW21886   0.188   3.476   2.989  0.9005 -0.6878 -0.0308
 3417SOL    HW121887   0.147   3.563   2.995  0.7146 -0.5697 -2.6418
 3417SOL    HW221888   0.195   3.456   2.895 -2.0358  0.1967 -0.4426
 3418SOL     OW21889   4.703   2.589  14.581  0.3415  0.1352 -0.1280
 3418SOL    HW121890   4.733   2.661  14.527 -2.0863  1.0955 -0.1800
 3418SOL    HW221891   4.681   2.527  14.511 -2.3016  0.3587  0.4805
 3419SOL     OW21892   2.338   3.876  10.087  0.0926  0.4760 -0.3035
 3419SOL    HW121893   2.397   3.892  10.013  2.1932 -0.2349  1.2221
 3419SOL    HW221894   2.332   3.963  10.127  0.5295 -0.2640  1.3556
 3420SOL     OW21895   0.847   0.569  10.040 -0.0527  0.1079  0.0696
 3420SOL    HW121896   0.915   0.502  10.042 -0.6737 -0.5957 -2.1294
 3420SOL    HW221897   0.889   0.633  10.098 -0.2468 -0.9559  1.3688
 3421SOL     OW21898   1.944   3.575  11.399  0.5657  0.2858  0.1612
 3421SOL    HW121899   1.972   3.503  11.455  0.1304  0.4225  0.5571
 3421SOL    HW221900   1.852   3.591  11.422  0.8021  0.3210  1.0727
 3422SOL     OW21901   4.491   0.641  15.510  0.0041  0.2333  0.0471
 3422SOL    HW121902   4.585   0.654  15.500 -0.1338 -0.6670 -2.2474
 3422SOL    HW221903   4.473   0.588  15.433  2.5927  0.0842 -0.4431
 3423SOL     OW21904   1.354   0.248   7.301 -0.1649 -0.2571  0.1134
 3423SOL    HW121905   1.273   0.210   7.268 -0.5741  0.8806 -0.2049
 3423SOL    HW221906   1.397   0.175   7.345  1.2063  0.7959  0.5141
 3424SOL     OW21907   2.052   2.701   8.137  0.5277 -0.3146 -0.2409
 3424SOL    HW121908   2.033   2.667   8.050 -1.7363 -0.8387  0.4613
 3424SOL    HW221909   2.095   2.628   8.182 -0.2835 -0.7542 -0.1902
 3425SOL     OW21910   1.126   3.971   1.711  0.3682 -0.0609  0.0425
 3425SOL    HW121911   1.084   4.037   1.656  0.5338 -1.0139 -1.2268
 3425SOL    HW221912   1.213   3.979   1.671  0.5067  0.2243  0.4078
 3426SOL     OW21913   3.344   4.391   3.468  0.0398  0.7149 -0.0502
 3426SOL    HW121914   3.355   4.402   3.373  1.5380  0.5121  0.1010
 3426SOL    HW221915   3.305   4.304   3.477 -3.3245  2.3169  0.6190
 3427SOL     OW21916   1.152   1.549   6.500  0.1231 -0.2856  0.0664
 3427SOL    HW121917   1.239   1.518   6.475 -0.3073  1.5615 -3.7242
 3427SOL    HW221918   1.129   1.507   6.583 -0.1965 -1.1638 -0.4706
 3428SOL     OW21919   1.759   1.825   6.357  0.1741  0.7803  0.5251
 3428SOL    HW121920   1.716   1.745   6.388 -0.7775  1.2690  0.4703
 3428SOL    HW221921   1.850   1.797   6.356  0.6232  2.3109 -0.4648
 3429SOL     OW21922   3.065   3.438   2.025 -0.5515 -0.1169  0.1530
 3429SOL    HW121923   3.009   3.362   2.012 -0.2133 -0.4598  0.7222
 3429SOL    HW221924   2.999   3.502   2.054  1.4274  1.1667  1.8709
 3430SOL     OW21925   2.704   0.252  11.455 -0.1848 -0.5168  0.4963
 3430SOL    HW121926   2.642   0.295  11.515  0.0987  0.4438  0.0887
 3430SOL    HW221927   2.741   0.330  11.414  1.5643 -2.2558 -1.2029
 3431SOL     OW21928   1.664   2.722   1.919  0.2412 -0.0363 -0.5472
 3431SOL    HW121929   1.704   2.809   1.920  1.6191 -0.6220 -3.4153
 3431SOL    HW221930   1.678   2.688   2.007 -0.2656  1.4818  0.1217
 3432SOL     OW21931   0.319   4.334   4.327  0.1632  0.2094 -0.0140
 3432SOL    HW121932   0.342   4.244   4.350 -0.0050  0.4098  0.9506
 3432SOL    HW221933   0.260   4.313   4.254 -1.4340  0.9692  1.0475
 3433SOL     OW21934   3.358   0.797   9.299 -0.4260 -0.0558 -0.1680
 3433SOL    HW121935   3.353   0.868   9.235 -1.6500  2.6320  2.9222
 3433SOL    HW221936   3.269   0.765   9.281  0.1652 -0.9712 -1.4994
 3434SOL     OW21937   1.184   0.475   4.044  0.2724  0.0393 -0.2539
 3434SOL    HW121938   1.221   0.387   4.058 -1.0317 -0.3778  0.5476
 3434SOL    HW221939   1.263   0.530   4.044 -1.3914  2.3968  1.2929
 3435SOL     OW21940   4.708   3.864   4.221 -0.1865  0.1349  0.2186
 3435SOL    HW121941   0.062   3.837   4.228  0.2139  2.0078  2.1280
 3435SOL    HW221942   4.664   3.781   4.204 -0.6679  0.1897  1.2047
 3436SOL     OW21943   0.415   3.929   4.214  0.7482 -0.2833 -0.3289
 3436SOL    HW121944   0.507   3.934   4.239  0.6816 -0.7375  0.0093
 3436SOL    HW221945   0.405   3.993   4.144 -0.0746 -1.5303 -1.3379
 3437SOL     OW21946   4.235   1.552   6.702 -0.0943 -0.3956  0.2356
 3437SOL    HW121947   4.224   1.478   6.643  0.5729 -0.2979 -0.0128
 3437SOL    HW221948   4.178   1.531   6.776 -0.0602 -0.8945  0.1187
 3438SOL     OW21949   0.402   2.692  17.533  0.6752  0.3607  0.6304
 3438SOL    HW121950   0.327   2.730  17.578  1.4805  1.5805  0.9520
 3438SOL    HW221951   0.468   2.740  17.584  0.1076  1.5504  0.2525
 3439SOL     OW21952   3.702   1.743  14.181  0.3018  0.0405 -0.2957
 3439SOL    HW121953   3.744   1.828  14.166  1.4599 -0.3459  0.8347
 3439SOL    HW221954   3.695   1.713  14.090 -0.4251  1.5055 -0.7342
 3440SOL     OW21955   1.667   2.025   2.061  0.2503 -0.3280  0.0485
 3440SOL    HW121956   1.754   2.045   2.025 -0.6613  0.1281 -1.8979
 3440SOL    HW221957   1.677   2.061   2.150 -0.7938  1.2035 -0.4638
 3441SOL     OW21958   2.901   4.067   2.294 -0.4127  0.1144 -0.0358
 3441SOL    HW121959   2.947   3.993   2.253 -0.2399  1.2419 -1.8716
 3441SOL    HW221960   2.982   4.091   2.339  1.0198 -1.9594 -1.5243
 3442SOL     OW21961   3.668   4.063   9.048 -0.2445  0.8128 -0.9367
 3442SOL    HW121962   3.687   4.151   9.015  1.8787  0.3149 -1.0013
 3442SOL    HW221963   3.738   4.063   9.113 -0.4534 -0.9113 -0.7038
 3443SOL     OW21964   1.132   3.558   6.802 -0.6252  0.1984  0.2451
 3443SOL    HW121965   1.065   3.493   6.780 -0.0241  0.1939 -1.5366
 3443SOL    HW221966   1.079   3.637   6.812 -0.3539  0.6258 -1.8179
 3444SOL     OW21967   1.373   3.802   4.852 -0.0640 -0.4846  0.0754
 3444SOL    HW121968   1.319   3.880   4.855 -0.1023 -0.4443 -2.2447
 3444SOL    HW221969   1.377   3.789   4.758  1.6620  0.7455 -0.0170
 3445SOL     OW21970   1.200   0.473   3.167  0.0952 -0.2758 -0.2020
 3445SOL    HW121971   1.130   0.532   3.140 -1.4597 -1.3127  1.5416
 3445SOL    HW221972   1.166   0.427   3.245  2.1188 -0.5486  0.5100
 3446SOL     OW21973   0.294   4.307   1.242 -0.4664 -0.2716 -0.0560
 3446SOL    HW121974   0.210   4.320   1.198 -1.3165 -0.4470  1.4907
 3446SOL    HW221975   0.347   4.364   1.186  1.1412 -4.3088 -2.6533
 3447SOL     OW21976   3.734   0.772   6.842 -0.0649 -0.0328 -0.1731
 3447SOL    HW121977   3.826   0.761   6.868 -0.7221  0.7237  2.3839
 3447SOL    HW221978   3.701   0.835   6.905  0.1332  1.1666 -1.2729
 3448SOL     OW21979   2.081   2.467   3.394  0.6480 -0.7201  0.0023
 3448SOL    HW121980   2.168   2.457   3.432 -0.6316 -1.8021  2.6448
 3448SOL    HW221981   2.038   2.391   3.432  1.7896 -1.0108  0.7089
 3449SOL     OW21982   0.714   1.808   6.282  0.4692 -0.2723  0.3949
 3449SOL    HW121983   0.743   1.858   6.358  1.0192 -0.5536  0.3722
 3449SOL    HW221984   0.787   1.747   6.272  0.4489 -0.2084 -0.1469
 3450SOL     OW21985   1.703   4.036  16.606  0.3116 -0.3394  0.5193
 3450SOL    HW121986   1.611   4.011  16.619  0.4598 -0.7255  0.8138
 3450SOL    HW221987   1.707   4.071  16.517  0.0095 -1.5049  0.0532
 3451SOL     OW21988   1.519   2.613   8.749 -0.3221 -0.1946 -0.3018
 3451SOL    HW121989   1.459   2.579   8.683 -0.4838  0.7236 -0.6343
 3451SOL    HW221990   1.458   2.669   8.798 -0.1503  0.8177 -1.2422
 3452SOL     OW21991   3.797   0.988   0.340  0.2688 -0.7756 -0.1532
 3452SOL    HW121992   3.796   1.011   0.433 -0.2447 -0.1533 -0.3083
 3452SOL    HW221993   3.753   0.903   0.349  0.1669 -0.6044  0.9030
 3453SOL     OW21994   1.917   3.663   2.528  0.5111  0.2213  0.2396
 3453SOL    HW121995   1.874   3.745   2.551  1.6412  1.3170 -1.5176
 3453SOL    HW221996   1.947   3.647   2.618 -0.4360  0.2804  0.5657
 3454SOL     OW21997   0.630   0.295  13.953  0.1360 -0.6040 -0.0455
 3454SOL    HW121998   0.705   0.236  13.950  0.8294  0.3717 -1.9111
 3454SOL    HW221999   0.614   0.315  13.860  0.3667 -0.4836 -0.0588
 3455SOL     OW22000   2.706   1.617   3.349  0.5356 -0.8735  0.1210
 3455SOL    HW122001   2.717   1.693   3.407 -1.1328 -0.9423  0.5157
 3455SOL    HW222002   2.749   1.654   3.272 -0.9408  0.1064 -0.2370
 3456SOL     OW22003   3.991   2.746  14.895  0.6015 -0.6931  0.3404
 3456SOL    HW122004   3.936   2.685  14.945 -1.1598  0.2892 -0.3753
 3456SOL    HW222005   3.948   2.744  14.809  1.0471  0.0079  0.0999
 3457SOL     OW22006   1.924   3.423  15.872 -0.1755 -0.0203 -0.0938
 3457SOL    HW122007   1.958   3.451  15.787  2.1964 -1.6446  0.2877
 3457SOL    HW222008   1.984   3.467  15.933  1.1323 -0.6728 -0.8903
 3458SOL     OW22009   3.610   1.109   9.209  0.4669  0.5668  0.0428
 3458SOL    HW122010   3.569   1.149   9.132 -1.7785  1.3934  1.7005
 3458SOL    HW222011   3.595   1.181   9.270 -2.4172 -0.7455  0.8774
 3459SOL     OW22012   2.188   3.075  10.161  0.2508 -0.1107  0.7894
 3459SOL    HW122013   2.258   3.109  10.106  1.9436 -2.0153  1.7915
 3459SOL    HW222014   2.111   3.097  10.108  0.1886 -0.2749  0.8112
 3460SOL     OW22015   1.516   0.485   9.497  0.1578 -0.0946 -0.2407
 3460SOL    HW122016   1.453   0.427   9.454  1.4174 -0.8191 -1.1114
 3460SOL    HW222017   1.485   0.562   9.449 -0.1721 -0.7583 -1.0898
 3461SOL     OW22018   2.147   0.787   3.767 -0.0967  0.2446 -0.5213
 3461SOL    HW122019   2.198   0.718   3.809 -1.6122 -0.1004  0.7432
 3461SOL    HW222020   2.095   0.739   3.702  0.9239 -0.4293 -0.8483
 3462SOL     OW22021   3.634   3.492   5.516 -0.7248  0.1202 -0.5077
 3462SOL    HW122022   3.601   3.529   5.434 -0.8428  0.3611 -0.3498
 3462SOL    HW222023   3.550   3.454   5.541 -0.7507  0.3633 -0.2340
 3463SOL     OW22024   2.895   1.132   1.880 -0.3043  0.3020 -0.0767
 3463SOL    HW122025   2.822   1.152   1.822 -0.1315  1.5828  0.1588
 3463SOL    HW222026   2.870   1.054   1.929  3.2786  0.4370  1.9752
 3464SOL     OW22027   2.650   4.320   3.761  0.5841  0.1744  0.1244
 3464SOL    HW122028   2.604   4.241   3.730  1.4382 -0.6057  0.8610
 3464SOL    HW222029   2.582   4.347   3.822 -0.5109 -0.6126 -0.7420
 3465SOL     OW22030   0.363   3.605   3.399 -0.0295 -0.4443 -0.5992
 3465SOL    HW122031   0.429   3.670   3.377 -0.1867 -0.1541 -0.2182
 3465SOL    HW222032   0.416   3.526   3.412 -1.0670 -0.5902  2.7421
 3466SOL     OW22033   3.767   3.775   1.857 -0.2818  0.3415 -0.4393
 3466SOL    HW122034   3.720   3.843   1.808 -1.3162 -1.0186 -1.3265
 3466SOL    HW222035   3.852   3.768   1.814 -0.7443  0.7732 -1.4370
 3467SOL     OW22036   4.587   4.525   8.471  0.1789  0.3530  0.3261
 3467SOL    HW122037   4.508   4.486   8.434  1.2556 -1.5939  0.0629
 3467SOL    HW222038   4.612   4.593   8.408 -1.0388  1.2039  0.7533
 3468SOL     OW22039   2.631   4.247   4.798 -0.2716 -0.1776  0.1292
 3468SOL    HW122040   2.626   4.297   4.717  3.0047  0.8473  0.5754
 3468SOL    HW222041   2.541   4.213   4.796 -0.1039 -0.5599 -1.0828
 3469SOL     OW22042   1.821   3.367   4.444  1.0036 -0.5947 -0.3488
 3469SOL    HW122043   1.728   3.363   4.466  1.3500 -1.0063  1.0275
 3469SOL    HW222044   1.823   3.342   4.351 -1.5435 -0.3434 -0.4791
 3470SOL     OW22045   3.780   3.466  16.986  0.7216 -0.3897 -0.3168
 3470SOL    HW122046   3.727   3.481  17.065 -0.0957 -1.0387 -0.7459
 3470SOL    HW222047   3.831   3.390  17.013 -1.0451 -1.6604 -0.5597
 3471SOL     OW22048   3.780   2.827   4.703 -0.4366 -0.0714 -0.5604
 3471SOL    HW122049   3.718   2.853   4.635  0.6062  0.2170 -1.3884
 3471SOL    HW222050   3.807   2.914   4.734 -2.1895 -0.0078  0.8107
 3472SOL     OW22051   0.020   2.809   1.884  0.0663  0.4420 -0.0720
 3472SOL    HW122052   4.713   2.854   1.812 -1.2448  0.3936  0.7207
 3472SOL    HW222053   0.104   2.785   1.846 -0.2495  2.9104 -2.3515
 3473SOL     OW22054   1.541   0.213   7.718 -0.0995  0.6386 -0.1629
 3473SOL    HW122055   1.621   0.264   7.731  1.4452 -2.1934  1.4776
 3473SOL    HW222056   1.579   0.167   7.642 -1.3930  0.3266 -0.6275
 3474SOL     OW22057   1.223   4.301   9.688 -0.1778  0.4722  0.3344
 3474SOL    HW122058   1.135   4.279   9.656 -0.1228 -0.2023  0.6447
 3474SOL    HW222059   1.209   4.393   9.711 -0.2610  0.4869  0.2276
 3475SOL     OW22060   3.409   2.974   7.368 -0.0460 -0.6213 -0.9061
 3475SOL    HW122061   3.490   2.923   7.365  0.4775 -0.0079  2.7694
 3475SOL    HW222062   3.431   3.053   7.417 -2.0391  0.3372 -1.5628
 3476SOL     OW22063   0.992   3.980  15.529  0.2772 -0.3190  0.0891
 3476SOL    HW122064   0.903   3.985  15.495  0.7700 -0.9316 -1.3068
 3476SOL    HW222065   1.037   4.016  15.452 -1.4524 -0.5280 -1.0147
 3477SOL     OW22066   2.966   4.112  15.082 -0.3180  0.0895  0.7016
 3477SOL    HW122067   3.012   4.196  15.080 -0.5001  0.1760  0.0518
 3477SOL    HW222068   2.894   4.133  15.141 -1.9445 -0.2170 -1.1602
 3478SOL     OW22069   1.998   2.515  13.778  0.3634  0.2118 -0.0401
 3478SOL    HW122070   2.011   2.421  13.768 -2.1046 -0.1526  0.1133
 3478SOL    HW222071   2.088   2.538  13.754  0.0473 -0.8823 -2.2526
 3479SOL     OW22072   4.510   3.370   1.382 -0.1441  0.5315  0.6486
 3479SOL    HW122073   4.590   3.392   1.430  1.2754 -3.0639 -0.0269
 3479SOL    HW222074   4.465   3.446   1.418  2.2187  2.0083  0.4801
 3480SOL     OW22075   1.723   1.078  14.103 -0.3758  0.4906  0.2758
 3480SOL    HW122076   1.750   1.005  14.159  0.0316 -0.1765 -0.8027
 3480SOL    HW222077   1.661   1.123  14.161 -1.4129  0.8675 -1.1305
 3481SOL     OW22078   4.640   0.860   6.450 -0.9692 -0.2647  0.5487
 3481SOL    HW122079   4.689   0.933   6.489  0.5505 -0.0699 -1.7061
 3481SOL    HW222080   4.643   0.793   6.517 -1.4583  0.2594  1.0899
 3482SOL     OW22081   4.618   2.286   3.578 -0.2675 -0.1802 -0.3333
 3482SOL    HW122082   4.698   2.265   3.626 -0.4754 -1.5869 -0.6000
 3482SOL    HW222083   4.660   2.361   3.537 -0.5539  1.1982  1.8871
 3483SOL     OW22084   1.804   1.555   2.806 -0.0011  0.2441 -0.3026
 3483SOL    HW122085   1.838   1.618   2.870 -1.6917  0.8786 -0.0212
 3483SOL    HW222086   1.883   1.551   2.751  2.6945 -0.1296  3.5931
 3484SOL     OW22087   2.791   3.067   6.248  0.2307  0.1257  0.5446
 3484SOL    HW122088   2.854   2.998   6.229  2.7331  2.7959 -0.8148
 3484SOL    HW222089   2.844   3.117   6.310 -0.6858  2.5885 -0.6585
 3485SOL     OW22090   2.209   1.870   6.101  0.2182  0.1427  0.4102
 3485SOL    HW122091   2.150   1.826   6.040 -0.0248 -0.3408  0.9983
 3485SOL    HW222092   2.257   1.795   6.135 -1.4157 -1.5648 -1.0889
 3486SOL     OW22093   0.044   2.638  16.936 -0.0573 -0.1003 -0.1297
 3486SOL    HW122094   0.084   2.617  16.851  1.9685  1.2276  0.4810
 3486SOL    HW222095   4.694   2.602  16.931 -0.4196  0.8908 -1.0973
 3487SOL     OW22096   2.175   2.316   7.811  0.4612 -0.3635  0.4146
 3487SOL    HW122097   2.205   2.309   7.902 -0.4572  3.2744  1.0085
 3487SOL    HW222098   2.231   2.377   7.763 -1.7160  0.4274 -1.1529
 3488SOL     OW22099   4.523   2.449   6.162 -0.1592  0.0942 -0.0015
 3488SOL    HW122100   4.605   2.401   6.159 -1.1078 -1.5540  0.3040
 3488SOL    HW222101   4.455   2.385   6.138  0.3034 -0.1868 -0.5688
 3489SOL     OW22102   3.254   3.826  12.915  0.3116 -0.4551  0.2830
 3489SOL    HW122103   3.337   3.847  12.957  0.2959  1.4399 -0.6535
 3489SOL    HW222104   3.275   3.872  12.835 -0.1969 -0.3575  0.2072
 3490SOL     OW22105   3.327   0.655   3.542  0.5166  0.1111  0.7329
 3490SOL    HW122106   3.315   0.560   3.543  0.3590  0.1288  0.5184
 3490SOL    HW222107   3.250   0.670   3.597 -0.2106  0.2943 -0.3447
 3491SOL     OW22108   4.344   2.919   2.110  0.3578 -0.0193 -0.3676
 3491SOL    HW122109   4.377   2.982   2.047  0.9584 -1.0130 -1.0526
 3491SOL    HW222110   4.340   2.844   2.050  0.3848 -0.7423  0.5386
 3492SOL     OW22111   4.625   0.826  11.201  0.5482  0.1973  0.5106
 3492SOL    HW122112   4.638   0.751  11.260  1.4128  0.4837  0.6869
 3492SOL    HW222113   4.705   0.877  11.215 -0.5240  2.5410 -1.8780
 3493SOL     OW22114   4.527   3.582  13.226 -0.3547  0.4820 -0.0442
 3493SOL    HW122115   4.609   3.534  13.234  0.0064  1.2212  0.7615
 3493SOL    HW222116   4.563   3.666  13.254 -0.7190  0.3292  0.9130
 3494SOL     OW22117   3.162   0.672   1.933 -0.0280 -0.2226 -0.0074
 3494SOL    HW122118   3.247   0.628   1.927 -0.0650 -0.3136  0.1502
 3494SOL    HW222119   3.126   0.632   2.012 -1.9192  0.7824 -0.3716
 3495SOL     OW22120   3.214   1.988   9.413 -0.0153  0.5085  0.2722
 3495SOL    HW122121   3.184   2.015   9.326  1.1764 -1.0742 -0.6256
 3495SOL    HW222122   3.252   2.066   9.455 -1.1596  0.5882  1.1549
 3496SOL     OW22123   0.329   2.881   2.290 -0.1008 -0.1472 -0.2746
 3496SOL    HW122124   0.357   2.796   2.326  0.8997 -0.7391 -2.4878
 3496SOL    HW222125   0.299   2.860   2.202  1.3271  0.4564 -0.9024
 3497SOL     OW22126   0.725   2.850   1.418  0.4066  0.4097  0.0079
 3497SOL    HW122127   0.797   2.831   1.358  1.1330  1.5820  0.5270
 3497SOL    HW222128   0.656   2.846   1.352  0.9918 -1.8050 -0.4794
 3498SOL     OW22129   0.931   0.621   3.095  0.2023  0.0084  1.0548
 3498SOL    HW122130   0.903   0.530   3.081 -0.7918  0.8616 -2.4244
 3498SOL    HW222131   0.866   0.642   3.162 -1.3764 -0.9918 -0.1600
 3499SOL     OW22132   1.666   3.589  13.788 -0.4286 -0.4072 -0.6522
 3499SOL    HW122133   1.751   3.621  13.755 -1.3148 -0.2306 -2.8167
 3499SOL    HW222134   1.618   3.672  13.783 -0.9112 -0.6364  0.4904
 3500SOL     OW22135   2.448   1.146   0.238 -0.4778 -0.2766  0.2729
 3500SOL    HW122136   2.453   1.152   0.143 -0.2161  0.9349  0.3504
 3500SOL    HW222137   2.447   1.053   0.259  0.4833 -0.0844  1.2078
 3501SOL     OW22138   1.591   4.693   6.262 -0.1093 -0.5258  0.4214
 3501SOL    HW122139   1.601   4.621   6.199  5.2319 -1.1076  1.9514
 3501SOL    HW222140   1.643   4.659   6.335  0.3911  1.1980  0.8757
 3502SOL     OW22141   1.173   1.219   3.597 -0.1345 -0.0174  0.4174
 3502SOL    HW122142   1.106   1.159   3.630 -0.3335  0.5819  1.1059
 3502SOL    HW222143   1.251   1.216   3.652  0.2799 -1.4167 -0.2558
 3503SOL     OW22144   2.597   2.431  10.436  0.2733 -0.1157 -0.3877
 3503SOL    HW122145   2.567   2.478  10.359  1.8049  1.0246 -0.2985
 3503SOL    HW222146   2.513   2.421  10.480  1.3204 -3.3486  0.8953
 3504SOL     OW22147   0.719   1.258   7.135 -0.5287  0.0175  0.0508
 3504SOL    HW122148   0.634   1.242   7.093 -0.6064 -0.6536  0.4721
 3504SOL    HW222149   0.716   1.177   7.185 -2.1264  1.5715  2.4549
 3505SOL     OW22150   1.927   0.052   5.163  0.1671  0.1765  0.3546
 3505SOL    HW122151   1.925   0.022   5.072 -0.6877 -0.0025  0.4398
 3505SOL    HW222152   1.959   0.142   5.155  0.8153  0.2041  3.5023
 3506SOL     OW22153   3.465   3.152   1.586 -0.3770 -0.3178  0.2113
 3506SOL    HW122154   3.528   3.222   1.570 -0.2173 -0.5664 -0.2630
 3506SOL    HW222155   3.412   3.190   1.656 -0.8291 -1.8986  0.7151
 3507SOL     OW22156   3.889   1.026   5.110 -0.9446 -0.8425  0.0780
 3507SOL    HW122157   3.808   1.057   5.152 -0.0091 -0.1791  1.3861
 3507SOL    HW222158   3.904   1.108   5.063 -0.7001  0.0707  1.7505
 3508SOL     OW22159   0.731   2.935  10.400 -0.2160  0.3312  0.1918
 3508SOL    HW122160   0.738   2.932  10.495  0.9512  0.1196  0.1047
 3508SOL    HW222161   0.647   2.892  10.391 -0.4430  0.2761  2.8629
 3509SOL     OW22162   3.984   0.763   7.278  0.2207 -0.4046 -0.7656
 3509SOL    HW122163   4.031   0.760   7.361  0.4537 -1.0260 -0.9238
 3509SOL    HW222164   3.912   0.817   7.310  0.8190  0.1045 -0.2844
 3510SOL     OW22165   0.451   0.087   5.899 -0.0692 -0.3391  0.5382
 3510SOL    HW122166   0.463   0.117   5.989  0.8424  1.8394 -0.3313
 3510SOL    HW222167   0.530   0.039   5.876  0.0981  0.5192 -0.6465
 3511SOL     OW22168   2.142   1.576   4.998  0.0029 -0.3521 -0.5197
 3511SOL    HW122169   2.158   1.494   4.951 -1.3674  0.3071 -2.1391
 3511SOL    HW222170   2.138   1.544   5.088  0.3744 -0.3355 -0.4987
 3512SOL     OW22171   0.963   1.561   5.244  0.4752 -0.3391  0.6528
 3512SOL    HW122172   1.031   1.500   5.273 -1.0217 -1.9661  0.7332
 3512SOL    HW222173   0.953   1.545   5.150  0.7178 -2.2097  0.9399
 3513SOL     OW22174   1.110   2.768   2.194 -0.6711  0.4074  0.0894
 3513SOL    HW122175   1.052   2.810   2.257 -1.7765 -1.0403  0.0365
 3513SOL    HW222176   1.144   2.699   2.250  0.5688  1.5074  0.7085
 3514SOL     OW22177   1.061   2.875  10.649 -0.3219  0.2862  0.6335
 3514SOL    HW122178   1.122   2.804  10.631  0.0946  0.5686  0.9244
 3514SOL    HW222179   0.986   2.831  10.691 -0.8422 -0.2157 -0.8137
 3515SOL     OW22180   3.161   2.138   7.020 -0.1223 -0.2053 -0.0018
 3515SOL    HW122181   3.070   2.135   6.989  0.5286 -1.2815 -1.8556
 3515SOL    HW222182   3.155   2.159   7.113 -0.7161 -0.2425 -0.0331
 3516SOL     OW22183   1.757   0.592   1.464  0.1393  0.3041  0.2312
 3516SOL    HW122184   1.671   0.570   1.429 -0.2013  0.0040  1.2584
 3516SOL    HW222185   1.821   0.531   1.427  0.6602  1.0224 -0.0518
 3517SOL     OW22186   2.573   3.737   4.962 -0.0901 -0.3907  0.3256
 3517SOL    HW122187   2.603   3.676   5.030 -0.0394  0.7017  1.2699
 3517SOL    HW222188   2.626   3.693   4.895 -0.2052 -2.1488  1.3704
 3518SOL     OW22189   3.211   0.597   8.748  0.0718  0.7307 -0.1969
 3518SOL    HW122190   3.267   0.523   8.771 -2.1510 -1.3585 -1.4666
 3518SOL    HW222191   3.258   0.624   8.669 -0.0458  0.3339 -0.4017
 3519SOL     OW22192   1.857   1.991   5.631 -0.4855 -0.1861  0.4726
 3519SOL    HW122193   1.838   2.020   5.542  0.1901  0.7413  0.6278
 3519SOL    HW222194   1.786   1.929   5.644 -2.0059  1.3921 -0.2751
 3520SOL     OW22195   4.715   2.965  12.835 -0.2099 -0.8581  0.0759
 3520SOL    HW122196   4.635   3.016  12.827 -1.8668 -3.3214  1.2620
 3520SOL    HW222197   4.709   2.916  12.753 -0.9396  0.2811 -0.5496
 3521SOL     OW22198   2.208   1.273   7.161  0.1695  0.3170 -0.0263
 3521SOL    HW122199   2.116   1.291   7.181 -0.7103 -1.4093 -2.5219
 3521SOL    HW222200   2.202   1.177   7.160 -1.9870  0.4606 -1.0953
 3522SOL     OW22201   3.549   1.373   4.662 -0.4529  0.1410 -0.4276
 3522SOL    HW122202   3.476   1.353   4.604 -1.4041  2.8346 -0.1653
 3522SOL    HW222203   3.560   1.285   4.699 -1.9054  0.3891  0.5787
 3523SOL     OW22204   4.547   3.562   5.183  0.1982 -0.1090  0.0796
 3523SOL    HW122205   4.456   3.541   5.164  0.8376 -3.6092  0.9120
 3523SOL    HW222206   4.562   3.490   5.245  1.2900 -0.9875 -1.1864
 3524SOL     OW22207   4.137   1.272   1.433 -0.3974 -0.0349 -0.6437
 3524SOL    HW122208   4.157   1.325   1.356 -1.5725  0.7442 -0.4128
 3524SOL    HW222209   4.042   1.287   1.434 -0.5307 -0.8894 -0.1054
 3525SOL     OW22210   1.199   3.653   5.333 -0.3729  0.5098 -0.1934
 3525SOL    HW122211   1.234   3.625   5.248  1.6072  0.7465  0.5281
 3525SOL    HW222212   1.125   3.710   5.313 -1.2398 -0.4376  0.3213
 3526SOL     OW22213   0.048   2.295   2.977 -0.0782 -0.1645  0.4072
 3526SOL    HW122214   4.714   2.355   2.954 -1.5357 -1.6908  1.0115
 3526SOL    HW222215   0.088   2.289   2.890 -0.4968  1.3170  0.1068
 3527SOL     OW22216   0.642   1.978  11.733 -0.2880  0.1505 -0.3697
 3527SOL    HW122217   0.690   2.022  11.803 -0.5685  0.7774 -0.5661
 3527SOL    HW222218   0.608   1.909  11.790 -0.8880  0.5645 -0.2291
 3528SOL     OW22219   0.601   1.211   1.332  0.1534 -0.2448  0.3446
 3528SOL    HW122220   0.639   1.297   1.352 -2.8164  0.2703  3.7628
 3528SOL    HW222221   0.673   1.181   1.276 -0.7678 -1.2355 -0.3179
 3529SOL     OW22222   4.538   0.272   7.492 -0.0986 -0.2988 -0.1173
 3529SOL    HW122223   4.573   0.228   7.570 -0.4010  0.2440  0.3291
 3529SOL    HW222224   4.509   0.356   7.529  0.2511  0.1532 -0.8837
 3530SOL     OW22225   3.001   4.046   2.909 -0.0978  0.5345  0.0014
 3530SOL    HW122226   3.058   4.122   2.896 -0.4675  0.4928 -1.8980
 3530SOL    HW222227   2.934   4.083   2.968 -0.1975 -1.4651  1.1453
 3531SOL     OW22228   0.770   3.466   2.312  0.0483  0.5787 -0.2989
 3531SOL    HW122229   0.814   3.546   2.285 -0.4534  0.6585 -0.8743
 3531SOL    HW222230   0.840   3.422   2.360 -2.0280  0.4698  2.6824
 3532SOL     OW22231   1.666   1.696   3.757 -0.1345  0.4867  0.5518
 3532SOL    HW122232   1.639   1.783   3.728  0.0577  0.4561  0.2864
 3532SOL    HW222233   1.717   1.716   3.836  0.8346  1.4626 -0.3229
 3533SOL     OW22234   3.409   2.353   7.427  0.3409  0.3723 -0.3507
 3533SOL    HW122235   3.467   2.282   7.400 -1.2797 -0.3409 -1.9563
 3533SOL    HW222236   3.322   2.322   7.402  0.4211  0.2221 -0.4405
 3534SOL     OW22237   3.167   2.483  15.826  0.0129 -0.2847 -0.2456
 3534SOL    HW122238   3.117   2.546  15.775  0.8325  0.6652  0.1103
 3534SOL    HW222239   3.102   2.467  15.894 -2.4206  1.7453 -2.0950
 3535SOL     OW22240   3.489   0.771   4.091 -0.1969  0.5576 -0.0897
 3535SOL    HW122241   3.472   0.722   4.010 -1.3066  0.5410  0.1557
 3535SOL    HW222242   3.518   0.856   4.055  1.8398 -0.9180 -1.9290
 3536SOL     OW22243   1.463   2.369   2.218  0.0044 -0.4465  0.0776
 3536SOL    HW122244   1.403   2.375   2.293  1.8270  0.9414  1.4242
 3536SOL    HW222245   1.409   2.323   2.153  1.3096 -2.3872  0.3668
 3537SOL     OW22246   4.341   1.880   8.964 -0.2222 -0.0158  0.5631
 3537SOL    HW122247   4.428   1.867   9.002  0.3915  0.4724 -0.6496
 3537SOL    HW222248   4.358   1.858   8.872  2.4399  1.0071  0.8044
 3538SOL     OW22249   0.150   0.463   9.753 -0.1136  0.4872  0.4893
 3538SOL    HW122250   0.150   0.504   9.840  3.0166 -2.5750  1.9334
 3538SOL    HW222251   0.243   0.454   9.733 -0.1836 -0.3559  0.5219
 3539SOL     OW22252   0.062   0.823   9.485 -0.1780  0.0005 -0.3868
 3539SOL    HW122253   0.073   0.894   9.549 -0.4548 -0.2787 -0.0283
 3539SOL    HW222254   0.132   0.763   9.512  0.7135  1.8228  1.3502
 3540SOL     OW22255   1.464   1.168   4.092  0.3776  0.0329  0.3974
 3540SOL    HW122256   1.510   1.084   4.093 -1.0284 -0.7091  2.6085
 3540SOL    HW222257   1.537   1.223   4.065 -0.3487  0.6306 -0.3671
 3541SOL     OW22258   1.814   4.118   4.024  0.3588 -0.3559 -0.2236
 3541SOL    HW122259   1.794   4.152   3.936  0.6455  2.1574  0.6702
 3541SOL    HW222260   1.873   4.191   4.045 -1.8175  2.2465 -3.0715
 3542SOL     OW22261   2.518   2.497  14.346  0.4766 -0.0939  0.1787
 3542SOL    HW122262   2.451   2.538  14.291  3.2981  2.7722 -1.0996
 3542SOL    HW222263   2.566   2.437  14.287  1.0344  0.7054 -0.1791
 3543SOL     OW22264   0.006   4.602   3.172 -0.1285  0.5230 -0.3490
 3543SOL    HW122265   4.703   4.534   3.225 -1.3626  0.2101 -1.7326
 3543SOL    HW222266   4.737   4.569   3.083  2.1195  0.7760 -0.6207
 3544SOL     OW22267   1.460   4.643   8.277  0.2214 -0.2413  0.6496
 3544SOL    HW122268   1.523   4.626   8.347  1.3765 -0.0578 -0.3388
 3544SOL    HW222269   1.407   4.705   8.326  1.2599  0.7964  0.4523
 3545SOL     OW22270   3.938   0.358   3.057 -0.9941  0.1336 -0.2161
 3545SOL    HW122271   3.865   0.419   3.070 -1.0070  0.1761 -0.5061
 3545SOL    HW222272   4.017   0.409   3.075 -0.0336 -0.7723 -1.9055
 3546SOL     OW22273   4.287   2.446   4.222 -0.2261  0.2501  0.2728
 3546SOL    HW122274   4.210   2.504   4.221 -0.5981 -0.2198  1.7890
 3546SOL    HW222275   4.268   2.402   4.140  0.8102  2.3589 -1.0903
 3547SOL     OW22276   0.233   2.487  13.650  0.5028 -0.1890 -0.3157
 3547SOL    HW122277   0.293   2.546  13.605  0.3759 -1.0255 -1.5983
 3547SOL    HW222278   0.227   2.421  13.581  3.8957 -0.0187 -0.7515
 3548SOL     OW22279   0.888   2.411   4.446  0.1696 -0.2362 -0.1385
 3548SOL    HW122280   0.861   2.334   4.498 -0.1210 -0.1863 -0.2143
 3548SOL    HW222281   0.926   2.461   4.518  0.7432  1.3863 -1.5886
 3549SOL     OW22282   4.295   0.459  17.203  0.1666  0.3506 -0.0111
 3549SOL    HW122283   4.315   0.414  17.285 -3.1756 -0.2637  0.4755
 3549SOL    HW222284   4.200   0.457  17.211  0.1970  1.7924  0.6804
 3550SOL     OW22285   1.847   2.897   5.078  0.0850  0.2320 -0.1289
 3550SOL    HW122286   1.810   2.964   5.021  0.2011 -0.0313 -0.5139
 3550SOL    HW222287   1.826   2.812   5.040 -1.3852 -0.0994  1.4106
 3551SOL     OW22288   1.589   0.494   5.256  0.4665  0.6359 -0.3966
 3551SOL    HW122289   1.538   0.569   5.286  1.0413 -0.3182  2.9279
 3551SOL    HW222290   1.660   0.496   5.320  3.4530  2.1712 -3.7415
 3552SOL     OW22291   3.266   0.675  17.644 -0.5153 -0.0400  0.1800
 3552SOL    HW122292   3.233   0.598  17.598  0.2005  0.1182 -0.6163
 3552SOL    HW222293   3.263   0.637  17.731  0.3376 -1.0669 -0.2368
 3553SOL     OW22294   0.387   0.689  15.392  0.3743 -0.3720  0.2823
 3553SOL    HW122295   0.478   0.719  15.400  0.8922 -1.8518 -0.0716
 3553SOL    HW222296   0.383   0.646  15.307  5.2124 -0.7663  0.2126
 3554SOL     OW22297   0.108   3.863  11.594 -0.3207  0.4760 -0.0037
 3554SOL    HW122298   0.047   3.869  11.667 -2.5697 -0.5770 -1.8107
 3554SOL    HW222299   0.170   3.798  11.627 -2.2711 -0.7732  1.1753
 3555SOL     OW22300   4.042   2.727   0.344 -0.4439 -0.1959 -0.0571
 3555SOL    HW122301   4.122   2.702   0.390 -0.6565  0.5271  0.6920
 3555SOL    HW222302   4.032   2.655   0.281  0.5255 -1.3828  1.1567
 3556SOL     OW22303   3.511   4.318   7.048 -0.4715  0.1731  0.6378
 3556SOL    HW122304   3.458   4.284   7.120 -2.2087  2.6228  0.5185
 3556SOL    HW222305   3.471   4.266   6.978 -0.4057  2.0585 -0.8118
 3557SOL     OW22306   3.665   4.043   8.515 -0.3721  0.0640 -0.1077
 3557SOL    HW122307   3.708   4.009   8.594  1.5531 -0.3957 -1.3474
 3557SOL    HW222308   3.710   3.986   8.452 -2.4819 -1.7689  0.0452
 3558SOL     OW22309   2.540   3.695   2.154  0.4705 -0.1537 -0.0986
 3558SOL    HW122310   2.494   3.614   2.133  0.0799  0.1188 -0.2844
 3558SOL    HW222311   2.469   3.757   2.139  1.8366  1.3384 -0.4342
 3559SOL     OW22312   4.282   3.382   4.338 -0.9244 -0.2927 -0.3351
 3559SOL    HW122313   4.341   3.326   4.287 -1.8982  0.1133 -1.9222
 3559SOL    HW222314   4.194   3.350   4.315 -2.2360  3.0265  0.0717
 3560SOL     OW22315   1.625   3.467   4.897  0.1276 -0.3439  0.3328
 3560SOL    HW122316   1.709   3.426   4.922  0.3483 -1.4460 -2.2100
 3560SOL    HW222317   1.658   3.549   4.861 -0.5885 -0.6291 -0.9627
 3561SOL     OW22318   3.657   3.655  10.837 -0.4825  0.0464 -0.7805
 3561SOL    HW122319   3.584   3.627  10.782 -0.5689 -1.1035 -0.0805
 3561SOL    HW222320   3.606   3.671  10.917  1.1845  0.8291  0.1086
 3562SOL     OW22321   3.159   3.501   6.098  0.4788 -0.2991  0.0039
 3562SOL    HW122322   3.154   3.522   6.191 -0.5421  2.0127 -0.5623
 3562SOL    HW222323   3.184   3.410   6.112  1.1900 -0.4142 -1.9253
 3563SOL     OW22324   0.147   3.939  15.067 -0.0354  0.2910 -0.8757
 3563SOL    HW122325   0.206   3.988  15.011  1.1145  1.0821  1.0103
 3563SOL    HW222326   0.075   3.902  15.016 -0.0519 -2.6064  1.2662
 3564SOL     OW22327   0.918   0.397   9.578 -0.2791  0.0940 -0.0609
 3564SOL    HW122328   0.847   0.453   9.547  0.6254  1.6008  0.5990
 3564SOL    HW222329   0.981   0.462   9.611 -1.1938  0.8540  0.1674
 3565SOL     OW22330   0.852   0.862  11.057 -0.0797  0.0965  0.1823
 3565SOL    HW122331   0.865   0.774  11.094 -0.6203 -0.6298 -1.3525
 3565SOL    HW222332   0.779   0.895  11.109  0.4219 -0.0677  0.9949
 3566SOL     OW22333   2.004   3.135   8.856  0.0901  0.7993  0.0387
 3566SOL    HW122334   2.049   3.095   8.781 -1.4700 -1.3886  0.2867
 3566SOL    HW222335   1.919   3.154   8.817 -0.4769 -1.6190  0.1075
 3567SOL     OW22336   0.884   3.062   6.701 -0.2301 -0.1037  0.0050
 3567SOL    HW122337   0.808   3.118   6.681  0.5964  0.2638 -2.0407
 3567SOL    HW222338   0.841   3.015   6.773 -0.1793  0.9481  0.7258
 3568SOL     OW22339   1.731   4.348  11.266 -0.4469 -0.8171  0.9797
 3568SOL    HW122340   1.678   4.320  11.192 -0.7018  0.1524  0.8055
 3568SOL    HW222341   1.736   4.443  11.255  4.9133 -0.9917  1.6574
 3569SOL     OW22342   2.763   4.565   3.292  0.1639 -0.7407  0.1335
 3569SOL    HW122343   2.751   4.491   3.233  1.5907 -1.5413  0.8595
 3569SOL    HW222344   2.735   4.527   3.375 -0.5428 -1.4089 -0.4090
 3570SOL     OW22345   1.439   3.383   3.563 -0.5053 -0.5974 -0.6320
 3570SOL    HW122346   1.354   3.353   3.594 -0.8621  1.0663 -0.0204
 3570SOL    HW222347   1.412   3.425   3.481 -3.9648  2.5330  2.1041
 3571SOL     OW22348   1.926   2.265   3.445 -0.4864  0.5326 -0.0215
 3571SOL    HW122349   2.003   2.208   3.438 -1.1069 -0.3867  0.7653
 3571SOL    HW222350   1.884   2.238   3.526  2.5517 -0.9248  1.0894
 3572SOL     OW22351   3.546   3.529   6.075 -0.1064 -0.2814 -0.0570
 3572SOL    HW122352   3.476   3.592   6.058  0.7932  0.8019  0.2706
 3572SOL    HW222353   3.594   3.579   6.140 -0.7227  0.3800 -0.1086
 3573SOL     OW22354   0.470   2.397   9.688  0.3659 -0.2255  0.1491
 3573SOL    HW122355   0.383   2.367   9.663  0.3338 -0.1166  0.1290
 3573SOL    HW222356   0.521   2.367   9.613 -1.5198  3.0060 -2.4152
 3574SOL     OW22357   1.330   1.795   5.591 -0.3198 -0.4409  0.5253
 3574SOL    HW122358   1.419   1.761   5.583  0.3341  1.4436 -0.3069
 3574SOL    HW222359   1.291   1.723   5.641  0.3776 -0.3770  1.1617
 3575SOL     OW22360   1.839   1.062   2.658  0.4600  0.1789  0.6523
 3575SOL    HW122361   1.926   1.094   2.637  0.6925 -0.1121  1.1505
 3575SOL    HW222362   1.816   1.129   2.723  0.4626 -0.7540  1.6272
 3576SOL     OW22363   2.251   2.565  13.934  0.1652  0.2861  0.4455
 3576SOL    HW122364   2.340   2.536  13.915  0.1236  1.1061 -1.0330
 3576SOL    HW222365   2.236   2.524  14.019 -2.0707  0.7557  0.2936
 3577SOL     OW22366   4.348   0.782   9.680  0.0861  0.1778 -0.3831
 3577SOL    HW122367   4.403   0.760   9.606  0.0639  2.5750 -1.0775
 3577SOL    HW222368   4.391   0.848   9.734  0.1272  1.5018 -2.0482
 3578SOL     OW22369   0.166   3.119  17.204  0.1428 -0.2405 -0.2142
 3578SOL    HW122370   0.259   3.135  17.186  0.0835  0.8994  0.5243
 3578SOL    HW222371   0.165   3.025  17.187  0.4891 -0.2088 -0.4134
 3579SOL     OW22372   2.756   4.542   4.481  0.0033 -0.1442 -0.5579
 3579SOL    HW122373   2.834   4.540   4.426  1.5127  1.1918  1.5437
 3579SOL    HW222374   2.792   4.501   4.560 -1.2972  1.2898  0.7695
 3580SOL     OW22375   2.613   4.728   2.127  0.9379  0.2448 -0.0580
 3580SOL    HW122376   2.577   4.640   2.141 -0.1460  0.8351  0.8671
 3580SOL    HW222377   2.550   0.037   2.181  1.6172 -0.7825  1.6446
 3581SOL     OW22378   0.845   1.797   3.534  1.0239 -0.0681 -0.1337
 3581SOL    HW122379   0.901   1.865   3.498  0.2917  1.0567  0.8423
 3581SOL    HW222380   0.761   1.844   3.532  1.3886  0.5843  0.0148
 3582SOL     OW22381   3.303   2.386   3.242  0.1423 -0.0415 -0.2359
 3582SOL    HW122382   3.380   2.343   3.280  0.3865 -1.4086 -2.2922
 3582SOL    HW222383   3.249   2.394   3.320  1.6846  1.1237  0.7155
 3583SOL     OW22384   2.788   3.807   4.234 -0.7825  0.5068  0.6882
 3583SOL    HW122385   2.794   3.782   4.326  2.2839 -1.8932 -0.1736
 3583SOL    HW222386   2.755   3.896   4.244 -0.6230  0.5719  0.6444
 3584SOL     OW22387   3.484   3.173   3.016 -0.6744 -0.6277  0.3508
 3584SOL    HW122388   3.388   3.171   3.016 -0.6937  0.6014 -1.4962
 3584SOL    HW222389   3.514   3.111   3.082 -0.5542 -1.1014 -0.1491
 3585SOL     OW22390   4.681   2.281  13.676  0.1859 -0.3699  0.2457
 3585SOL    HW122391   4.666   2.187  13.672 -2.6351  0.0676  1.1416
 3585SOL    HW222392   4.616   2.312  13.613 -1.9392 -0.4995  2.3748
 3586SOL     OW22393   1.752   1.189   3.835  0.1495 -0.5463 -0.2617
 3586SOL    HW122394   1.833   1.239   3.843 -0.2039 -0.0941  0.4585
 3586SOL    HW222395   1.744   1.166   3.927 -0.0185  1.1426  0.1532
 3587SOL     OW22396   4.677   4.057   2.699  0.5808 -0.5321 -0.0796
 3587SOL    HW122397   4.711   4.144   2.678  0.3281  0.0049  1.6608
 3587SOL    HW222398   0.023   4.012   2.691  1.1426  0.3173  0.9230
 3588SOL     OW22399   2.444   2.103  12.900  0.5579  0.1412 -0.1932
 3588SOL    HW122400   2.490   2.152  12.968 -1.2581  0.3116  0.9021
 3588SOL    HW222401   2.454   2.163  12.826 -2.8393  1.6511  0.6034
 3589SOL     OW22402   2.728   3.360  16.576  0.0776 -0.4218  0.2627
 3589SOL    HW122403   2.663   3.316  16.521  1.1595 -2.6303  0.7218
 3589SOL    HW222404   2.796   3.293  16.588 -0.5935 -1.3487 -1.1206
 3590SOL     OW22405   1.017   2.815   3.159  0.1892  0.0356  0.4044
 3590SOL    HW122406   1.032   2.735   3.109  0.6422  0.2021  0.2758
 3590SOL    HW222407   1.095   2.816   3.215  0.1188 -0.2792  0.5058
 3591SOL     OW22408   0.850   0.712   3.342  0.0480 -0.2219 -0.1428
 3591SOL    HW122409   0.812   0.685   3.426 -0.6299 -1.0921 -0.7334
 3591SOL    HW222410   0.943   0.709   3.364 -0.0451 -0.8155  0.1746
 3592SOL     OW22411   0.111   0.726   7.970 -0.0025  0.2997  0.1539
 3592SOL    HW122412   0.025   0.766   7.960 -0.5647 -1.0213 -0.3736
 3592SOL    HW222413   0.161   0.795   7.926 -2.0371  1.3183 -0.5586
 3593SOL     OW22414   3.083   1.045   3.854  0.1603 -0.0173 -1.0441
 3593SOL    HW122415   3.173   1.053   3.823  0.8479  2.6678  1.6517
 3593SOL    HW222416   3.056   0.973   3.797 -1.1046  0.9598 -1.6819
 3594SOL     OW22417   0.635   2.427   2.498 -0.4113  0.1877  0.3010
 3594SOL    HW122418   0.656   2.451   2.408  2.6301  1.3886  1.3342
 3594SOL    HW222419   0.548   2.466   2.509 -1.3562 -1.5044 -1.1109
 3595SOL     OW22420   3.359   3.361  14.031  0.4134  0.2181  0.0851
 3595SOL    HW122421   3.269   3.394  14.023  0.2254  0.0073  1.2714
 3595SOL    HW222422   3.366   3.355  14.126  2.5880 -1.4434 -0.1901
 3596SOL     OW22423   0.992   3.515  17.023  0.3141 -0.1692 -0.3819
 3596SOL    HW122424   1.074   3.468  17.010  0.9132  0.7609  0.0922
 3596SOL    HW222425   0.996   3.514  17.119  2.7466 -0.4110 -0.5062
 3597SOL     OW22426   1.918   2.954   4.632  0.3833 -0.2639  0.0038
 3597SOL    HW122427   1.903   2.909   4.548  0.3644 -0.5758  0.1741
 3597SOL    HW222428   1.834   2.924   4.666  1.1870  0.4945  2.5829
 3598SOL     OW22429   4.436   3.436   3.806  0.4679 -0.4644  0.5383
 3598SOL    HW122430   4.529   3.432   3.828  0.9629  0.5359 -1.3674
 3598SOL    HW222431   4.449   3.447   3.712 -0.7996 -2.2079  0.1475
 3599SOL     OW22432   0.207   0.569   1.958 -0.3637  0.0396 -0.7642
 3599SOL    HW122433   0.122   0.549   1.997 -0.2107  1.1917  0.1547
 3599SOL    HW222434   0.199   0.586   1.864  1.1391 -0.5550 -0.9993
 3600SOL     OW22435   1.762   3.311   5.244  0.0043  0.8703 -0.1395
 3600SOL    HW122436   1.768   3.386   5.303 -1.8789  1.0409 -0.1591
 3600SOL    HW222437   1.855   3.303   5.220  0.3709 -0.2931  1.7342
 3601SOL     OW22438   4.117   1.596  16.569  0.3501  0.1208 -0.0641
 3601SOL    HW122439   4.144   1.510  16.603 -2.1071  0.4079  2.6482
 3601SOL    HW222440   4.065   1.580  16.490 -0.2731 -2.2176  0.7909
 3602SOL     OW22441   4.083   4.118   2.911 -0.0595  0.0814 -0.0502
 3602SOL    HW122442   4.059   4.116   2.819 -2.2642 -2.8418  0.5966
 3602SOL    HW222443   4.139   4.195   2.910 -0.4840  0.3503 -2.3109
 3603SOL     OW22444   3.158   0.093   7.389 -0.2473 -0.6714 -0.7557
 3603SOL    HW122445   3.237   0.111   7.337  1.1951  0.5886  1.9111
 3603SOL    HW222446   3.185   0.024   7.450 -0.0398 -0.7296 -0.9139
 3604SOL     OW22447   4.566   0.983   5.221  0.4036 -0.0086 -0.4904
 3604SOL    HW122448   4.629   0.964   5.290 -1.8644  0.7045  1.7638
 3604SOL    HW222449   4.543   0.890   5.211 -0.3939  0.2660 -1.2902
 3605SOL     OW22450   2.714   2.769   8.279  0.0735 -0.3222  0.4956
 3605SOL    HW122451   2.779   2.839   8.271 -0.2776  0.1122  1.3904
 3605SOL    HW222452   2.743   2.732   8.363  0.7845 -0.4733  0.1846
 3606SOL     OW22453   3.230   0.277   1.707 -0.0098 -0.0212 -0.1360
 3606SOL    HW122454   3.237   0.189   1.670  0.1446  0.5277 -1.4000
 3606SOL    HW222455   3.311   0.324   1.689  1.4220 -2.2775  0.4190
 3607SOL     OW22456   3.443   3.222  10.085 -0.7193 -0.2131 -0.6198
 3607SOL    HW122457   3.516   3.162  10.102  0.1778  1.2784  0.7760
 3607SOL    HW222458   3.466   3.294  10.143 -2.1058 -1.1169  1.0401
 3608SOL     OW22459   3.122   0.670   4.531  0.0616  0.1584 -0.9408
 3608SOL    HW122460   3.028   0.665   4.544  0.3926  1.4842  1.8447
 3608SOL    HW222461   3.152   0.589   4.573 -0.0763  0.4909 -0.2046
 3609SOL     OW22462   3.390   3.773   7.522  0.1477  0.8428 -0.4877
 3609SOL    HW122463   3.336   3.735   7.453  1.0040 -1.1171 -0.0733
 3609SOL    HW222464   3.473   3.775   7.474 -0.0128  0.7918 -0.7698
 3610SOL     OW22465   0.591   1.260  13.987 -0.3976 -0.2484  0.7399
 3610SOL    HW122466   0.529   1.325  13.954  0.3026 -0.3569 -0.7746
 3610SOL    HW222467   0.571   1.272  14.080 -1.7003 -3.3711  0.8774
 3611SOL     OW22468   3.810   0.451   4.307 -0.4653 -0.1003 -0.5644
 3611SOL    HW122469   3.840   0.443   4.398 -0.5503  1.2314 -0.4164
 3611SOL    HW222470   3.739   0.388   4.305 -3.5411  3.4071 -0.6418
 3612SOL     OW22471   4.139   0.198   2.072 -0.2990  0.0340  0.2169
 3612SOL    HW122472   4.157   0.183   2.165  1.1203  2.0246  0.2723
 3612SOL    HW222473   4.159   0.112   2.035 -0.6687  0.0613 -0.0464
 3613SOL     OW22474   3.864   0.819  16.340  0.2351  0.2902  0.2418
 3613SOL    HW122475   3.785   0.775  16.372 -0.2493  2.3596  1.9242
 3613SOL    HW222476   3.940   0.781  16.384 -1.1020 -1.1079  1.3416
 3614SOL     OW22477   3.450   2.283  12.148  0.1558 -0.2036 -0.4063
 3614SOL    HW122478   3.391   2.357  12.163 -0.9902 -0.9922 -1.0087
 3614SOL    HW222479   3.486   2.300  12.061 -0.9055  0.7120 -0.6692
 3615SOL     OW22480   3.701   3.860   5.014 -0.3814  0.2918  0.2006
 3615SOL    HW122481   3.611   3.892   5.018 -0.7242 -0.9453  2.3358
 3615SOL    HW222482   3.717   3.864   4.919 -0.9542  1.0915  0.1364
 3616SOL     OW22483   0.875   3.141  10.812  0.1427  0.7437 -0.2054
 3616SOL    HW122484   0.822   3.207  10.857  1.9111  1.2099  1.1722
 3616SOL    HW222485   0.902   3.081  10.882  0.8234  0.7120 -0.5026
 3617SOL     OW22486   1.052   3.044   4.789 -1.1616 -0.2458  0.0969
 3617SOL    HW122487   1.132   3.050   4.842 -0.7244 -1.7315 -0.3775
 3617SOL    HW222488   0.981   3.050   4.852 -2.1383 -2.6653 -0.7942
 3618SOL     OW22489   3.981   3.135   7.154  0.0112  0.1202  0.7480
 3618SOL    HW122490   3.890   3.134   7.125  1.3528 -1.9243 -3.4567
 3618SOL    HW222491   3.986   3.082   7.235 -3.1385  0.0303  0.8985
 3619SOL     OW22492   1.903   4.182   7.404 -0.0657  1.1280  1.4745
 3619SOL    HW122493   1.937   4.258   7.450 -0.3022  0.3559  2.9075
 3619SOL    HW222494   1.954   4.109   7.439 -2.1860 -0.9685  0.2364
 3620SOL     OW22495   1.069   3.081   3.212  0.4441  0.7785 -0.2107
 3620SOL    HW122496   1.071   3.099   3.306  0.6803 -0.9674  0.1181
 3620SOL    HW222497   1.074   2.986   3.205  0.3823  0.7352  0.3196
 3621SOL     OW22498   4.181   1.168   6.401  0.2093  0.6092 -0.1161
 3621SOL    HW122499   4.196   1.253   6.442  0.6785 -1.5490  4.1874
 3621SOL    HW222500   4.271   1.137   6.388 -0.1668 -0.6633  0.3545
 3622SOL     OW22501   0.339   1.950   4.408  0.3689  0.3451  0.6728
 3622SOL    HW122502   0.340   1.860   4.376 -1.0349  0.6907 -0.3226
 3622SOL    HW222503   0.368   2.004   4.335 -0.8414  0.6361  0.4067
 3623SOL     OW22504   2.003   3.750   3.681 -0.1830  0.1849  0.3961
 3623SOL    HW122505   1.915   3.718   3.660  1.3493 -2.8385 -1.2595
 3623SOL    HW222506   1.975   3.821   3.740 -0.5574 -0.7764  1.3749
 3624SOL     OW22507   1.098   3.219   6.655  0.3809 -0.1941 -0.5845
 3624SOL    HW122508   1.039   3.280   6.700  0.3901 -1.2923  0.9356
 3624SOL    HW222509   1.039   3.145   6.668  0.2047  0.5067  2.6478
 3625SOL     OW22510   4.420   1.008   7.227  0.0983  0.1062 -0.1898
 3625SOL    HW122511   4.466   1.026   7.309 -0.4400 -0.7377  0.3000
 3625SOL    HW222512   4.405   0.913   7.234 -1.4782  0.5604  2.8344
 3626SOL     OW22513   3.359   0.065  11.473  0.0164 -0.3610 -0.3810
 3626SOL    HW122514   3.332   4.725  11.522 -1.2484  0.9572  1.0287
 3626SOL    HW222515   3.440   0.053  11.424 -0.0166  2.0030 -1.0082
 3627SOL     OW22516   1.626   2.692  11.071 -0.3177 -0.0247 -0.4348
 3627SOL    HW122517   1.709   2.694  11.024  0.0886 -0.7543  0.2649
 3627SOL    HW222518   1.623   2.775  11.119  0.5723 -1.6937  2.4901
 3628SOL     OW22519   0.397   2.354   8.411  0.7313 -0.4828  1.0664
 3628SOL    HW122520   0.319   2.383   8.458  0.4645  0.3684  0.0733
 3628SOL    HW222521   0.364   2.324   8.326  2.8775 -0.1602  0.1253
 3629SOL     OW22522   3.284   1.878   7.708 -0.2779 -0.0977  0.4594
 3629SOL    HW122523   3.351   1.870   7.776  0.7731 -0.5192 -0.6199
 3629SOL    HW222524   3.344   1.920   7.646 -1.0618 -0.7177 -0.7137
 3630SOL     OW22525   3.185   2.648   8.952  0.5050 -0.5840 -0.2450
 3630SOL    HW122526   3.128   2.598   8.893 -0.9934  1.2532 -0.3751
 3630SOL    HW222527   3.205   2.724   8.897  1.1768 -0.4626  0.1750
 3631SOL     OW22528   0.313   1.457   9.855 -0.1792 -0.1586  0.0876
 3631SOL    HW122529   0.299   1.551   9.846 -1.5556 -0.4687 -0.8804
 3631SOL    HW222530   0.323   1.453   9.950  1.0851  2.1929  0.0612
 3632SOL     OW22531   3.850   0.757   3.188 -0.2042  0.4822 -0.0138
 3632SOL    HW122532   3.873   0.780   3.098  0.0156 -1.8690 -0.5547
 3632SOL    HW222533   3.933   0.750   3.235 -0.8012 -2.4900  0.5890
 3633SOL     OW22534   2.608   2.643  16.923 -0.0123  0.1127 -0.2881
 3633SOL    HW122535   2.626   2.555  16.954  0.9222  0.5577  0.4672
 3633SOL    HW222536   2.593   2.647  16.829  1.0566  0.4804 -0.4503
 3634SOL     OW22537   2.316   1.977   2.231  0.0838  0.0334  0.2135
 3634SOL    HW122538   2.247   2.044   2.235  0.2210  0.3308 -2.4798
 3634SOL    HW222539   2.324   1.951   2.139 -0.0475 -0.7360  0.4248
 3635SOL     OW22540   4.504   1.428   4.034 -0.5719  0.6183 -0.2277
 3635SOL    HW122541   4.511   1.446   4.127  0.7888  0.5129 -0.3102
 3635SOL    HW222542   4.584   1.379   4.015 -0.0453  1.3972 -0.0281
 3636SOL     OW22543   1.978   3.418   8.954 -0.2154 -0.1446 -0.9454
 3636SOL    HW122544   1.985   3.464   8.870  2.1279 -1.0691 -1.2463
 3636SOL    HW222545   2.009   3.329   8.939 -0.2375 -0.4624  0.9324
 3637SOL     OW22546   4.623   1.356  16.935 -0.7509 -0.1406 -0.1043
 3637SOL    HW122547   4.536   1.344  16.973 -1.1146 -3.4294 -2.0313
 3637SOL    HW222548   4.600   1.405  16.856 -1.7173  0.2523  0.4222
 3638SOL     OW22549   0.491   0.435   8.021 -0.6523  0.3800 -0.0252
 3638SOL    HW122550   0.556   0.500   7.993 -0.4618  0.3750  0.4101
 3638SOL    HW222551   0.490   0.450   8.115  1.2765  1.8663 -0.2377
 3639SOL     OW22552   3.021   3.319  15.339 -0.1979  0.8558  0.4050
 3639SOL    HW122553   3.100   3.372  15.350  0.2742 -0.0608  1.4662
 3639SOL    HW222554   3.047   3.232  15.372  0.6072 -0.2512 -3.1239
 3640SOL     OW22555   1.670   4.618   5.054  0.2811 -0.4832  0.1075
 3640SOL    HW122556   1.637   4.550   5.113 -0.0188  1.9924  2.8088
 3640SOL    HW222557   1.758   4.583   5.045  0.2538  0.0698 -2.2175
 3641SOL     OW22558   1.980   0.252   3.312  0.5522  0.0724  0.0178
 3641SOL    HW122559   2.028   0.205   3.245  1.4011 -0.7015  1.1743
 3641SOL    HW222560   1.963   0.338   3.274  4.4898  1.2476  0.9822
 3642SOL     OW22561   4.685   1.473   2.642 -0.2764  0.4810  0.4639
 3642SOL    HW122562   4.616   1.474   2.575  0.3242  0.1726 -0.1538
 3642SOL    HW222563   4.623   1.448   2.711  0.7942  2.5849  2.1829
 3643SOL     OW22564   0.045   0.658  12.049  0.2965 -0.1957  0.5621
 3643SOL    HW122565   0.062   0.577  12.096  0.6081  0.2645  1.2421
 3643SOL    HW222566   4.697   0.686  12.079  0.5360  0.0726  0.9846
 3644SOL     OW22567   2.333   3.741   7.195 -0.2640 -0.2372  0.6952
 3644SOL    HW122568   2.385   3.661   7.199  0.5796  0.2667 -0.0522
 3644SOL    HW222569   2.283   3.722   7.116 -2.1297 -0.3233  1.9034
 3645SOL     OW22570   3.289   4.464   1.466 -0.5962  0.3369 -0.7872
 3645SOL    HW122571   3.198   4.444   1.487 -0.2131  0.4857  0.9687
 3645SOL    HW222572   3.287   4.485   1.372 -0.4427  3.6092 -0.0601
 3646SOL     OW22573   1.929   4.636   4.223  0.5374  0.1746  0.3700
 3646SOL    HW122574   1.988   4.624   4.148  0.3887 -1.0359  0.4474
 3646SOL    HW222575   1.932   4.730   4.240  1.3251  0.1679  0.2681
 3647SOL     OW22576   2.599   0.419   2.255  0.1220  0.2387  0.4065
 3647SOL    HW122577   2.660   0.346   2.246 -0.0325 -0.0110  1.3565
 3647SOL    HW222578   2.559   0.395   2.339 -0.6471 -0.2220 -0.0920
 3648SOL     OW22579   1.150   4.683   1.616  0.6866  0.0139  0.0143
 3648SOL    HW122580   1.081   4.632   1.659  0.3373 -1.5926 -2.4828
 3648SOL    HW222581   1.100   0.014   1.574 -1.4036  0.0523  2.5470
 3649SOL     OW22582   2.425   2.527   2.666  0.6589 -0.6062 -0.7437
 3649SOL    HW122583   2.437   2.494   2.577  1.1259 -4.2168  0.6532
 3649SOL    HW222584   2.395   2.616   2.648  2.7015  0.1143 -0.6032
 3650SOL     OW22585   0.713   3.672   3.166 -0.5383 -0.2033  0.6885
 3650SOL    HW122586   0.661   3.671   3.086 -0.4585  1.7644  0.6208
 3650SOL    HW222587   0.783   3.612   3.139  0.0724  1.0712 -0.5365
 3651SOL     OW22588   4.583   1.218  16.635 -0.1791 -0.3320 -0.1051
 3651SOL    HW122589   4.512   1.270  16.674  0.7350 -1.1456  2.5895
 3651SOL    HW222590   4.618   1.157  16.699  1.3794  0.7362  0.0475
 3652SOL     OW22591   3.814   0.960   6.663  0.5528 -0.2873 -0.1256
 3652SOL    HW122592   3.846   0.885   6.612 -0.9257 -1.4628  0.6831
 3652SOL    HW222593   3.788   0.919   6.746 -1.2989  1.2614  0.0443
 3653SOL     OW22594   1.243   0.803  14.511  0.0521 -0.0205  0.1276
 3653SOL    HW122595   1.224   0.853  14.431 -0.7001  1.2788  1.1095
 3653SOL    HW222596   1.182   0.848  14.569  1.1303 -0.4951  1.6309
 3654SOL     OW22597   2.499   3.979   6.817  0.5509  0.2673 -0.4194
 3654SOL    HW122598   2.436   4.050   6.808 -2.7248 -2.4602  0.8913
 3654SOL    HW222599   2.577   4.023   6.784  2.0053 -1.8838  0.0974
 3655SOL     OW22600   1.000   0.735   6.556  0.3148  0.4667  0.0753
 3655SOL    HW122601   1.087   0.748   6.517  1.1084 -2.7788  0.7542
 3655SOL    HW222602   0.964   0.675   6.491 -1.2827  0.0393  1.3635
 3656SOL     OW22603   0.007   2.007  12.192 -0.0651  0.3217 -0.2713
 3656SOL    HW122604   0.000   2.088  12.242  0.7608 -0.7792  1.6419
 3656SOL    HW222605   4.729   2.038  12.103 -0.4804 -1.3740 -0.7917
 3657SOL     OW22606   3.491   3.729   4.677  0.1931 -0.1730 -0.5011
 3657SOL    HW122607   3.445   3.677   4.742 -2.0543 -0.0544 -1.9673
 3657SOL    HW222608   3.465   3.815   4.709  1.4362  0.0827 -0.1941
 3658SOL     OW22609   0.156   1.074   2.080  0.4293  0.5736  0.0191
 3658SOL    HW122610   0.250   1.072   2.065  0.2630  0.1132 -0.9601
 3658SOL    HW222611   0.153   1.054   2.174 -1.8438 -0.9411 -0.3776
 3659SOL     OW22612   4.489   3.898   2.793 -0.0142 -0.3430 -0.2148
 3659SOL    HW122613   4.575   3.928   2.766  0.3968  0.5570  2.1449
 3659SOL    HW222614   4.443   3.904   2.709  0.3666 -0.3060 -0.4195
 3660SOL     OW22615   0.569   2.236  14.341 -0.4165 -0.0090  0.5509
 3660SOL    HW122616   0.582   2.330  14.346 -0.1410 -0.1629  3.0032
 3660SOL    HW222617   0.542   2.218  14.251  0.3487 -0.1985  0.3549
 3661SOL     OW22618   3.321   4.053   5.223 -0.4420 -0.1764  0.1971
 3661SOL    HW122619   3.237   4.039   5.178  0.0055 -0.4496 -0.5553
 3661SOL    HW222620   3.330   4.146   5.203 -0.4742 -0.4321 -1.0549
 3662SOL     OW22621   2.570   1.936   5.826 -0.0148  0.2035  0.1123
 3662SOL    HW122622   2.480   1.966   5.839  0.5763  1.7896  0.5830
 3662SOL    HW222623   2.598   1.979   5.745  1.3235  1.0328  1.0191
 3663SOL     OW22624   3.326   3.291   9.582  0.1421  0.1698 -0.4361
 3663SOL    HW122625   3.295   3.359   9.522 -1.4863 -0.2365 -0.0485
 3663SOL    HW222626   3.247   3.256   9.623 -0.3007  2.8620  1.0134
 3664SOL     OW22627   4.469   4.712   4.133 -0.0207  0.5894  0.4571
 3664SOL    HW122628   4.498   4.621   4.137  0.1679  0.5556 -1.7196
 3664SOL    HW222629   4.525   0.021   4.072 -0.3207 -0.0553 -0.3150
 3665SOL     OW22630   4.550   3.962  14.430  0.1372 -0.1297  0.1652
 3665SOL    HW122631   4.547   4.053  14.401  1.0335 -1.0041 -2.6774
 3665SOL    HW222632   4.572   3.972  14.522 -0.8419 -1.2831  0.5247
 3666SOL     OW22633   1.497   4.661   5.896  0.6136  0.2760 -0.3398
 3666SOL    HW122634   1.529   4.686   5.810  1.5463 -0.7734 -0.3011
 3666SOL    HW222635   1.491   4.566   5.883  2.6605  0.3504 -1.7369
 3667SOL     OW22636   0.895   1.379   0.165  0.4108 -0.0256 -0.2747
 3667SOL    HW122637   0.916   1.290   0.134  0.6320  0.0060 -0.2197
 3667SOL    HW222638   0.954   1.434   0.114  2.2892  0.5236  2.4870
 3668SOL     OW22639   1.405   0.303   6.369 -0.2272  0.3201 -0.3667
 3668SOL    HW122640   1.360   0.219   6.361  0.9527 -0.3913  0.5437
 3668SOL    HW222641   1.497   0.276   6.358 -0.5950 -0.7350 -0.8265
 3669SOL     OW22642   4.358   1.161   2.058 -0.0982  0.0584 -0.0350
 3669SOL    HW122643   4.375   1.074   2.094 -2.7701 -0.1281  0.7895
 3669SOL    HW222644   4.418   1.226   2.094 -0.3901  1.1521 -1.5046
 3670SOL     OW22645   4.457   0.239   6.857 -0.3795  0.0764  0.2638
 3670SOL    HW122646   4.377   0.207   6.899 -1.5018  0.4300 -1.5769
 3670SOL    HW222647   4.428   0.330   6.854  0.0679  0.2441  1.0664
 3671SOL     OW22648   2.989   0.499   7.519  0.2856  0.0248  0.2178
 3671SOL    HW122649   2.902   0.461   7.511  1.1613 -1.9262 -0.0409
 3671SOL    HW222650   2.965   0.576   7.571 -0.6345  0.9265 -1.5749
 3672SOL     OW22651   1.751   0.513  17.176 -0.2781 -0.1383 -0.1108
 3672SOL    HW122652   1.720   0.439  17.228  1.7074  0.5498  2.0558
 3672SOL    HW222653   1.812   0.558  17.234 -0.6773  0.7107 -0.3620
 3673SOL     OW22654   3.413   1.091   1.223 -0.4167 -0.1762  0.1199
 3673SOL    HW122655   3.372   1.146   1.289  0.3034 -0.1394  0.5359
 3673SOL    HW222656   3.506   1.111   1.238 -0.5131 -1.0385  1.8062
 3674SOL     OW22657   4.115   2.547   5.373  0.4405 -0.4621 -0.2784
 3674SOL    HW122658   4.200   2.541   5.418  1.3839 -0.9396 -2.1424
 3674SOL    HW222659   4.065   2.512   5.447  3.3175  0.5672  2.1584
 3675SOL     OW22660   4.036   1.377  17.415 -0.2521  0.4989  0.2676
 3675SOL    HW122661   3.998   1.306  17.363  0.6555  0.7805 -0.8006
 3675SOL    HW222662   4.071   1.437  17.349 -0.0528 -0.5618 -0.6028
 3676SOL     OW22663   2.945   3.396   3.410 -0.1771  0.0363  0.2902
 3676SOL    HW122664   2.932   3.456   3.483  2.4606  0.7374  0.1828
 3676SOL    HW222665   3.040   3.390   3.421 -0.0375 -0.2643 -1.0608
 3677SOL     OW22666   0.378   1.849   8.420 -0.3550 -0.0801  0.3303
 3677SOL    HW122667   0.325   1.773   8.443  0.2173 -0.5000  0.2376
 3677SOL    HW222668   0.326   1.908   8.476 -2.1646 -0.8300 -0.5516
 3678SOL     OW22669   1.621   1.725   7.062  0.5072  0.1159  0.5584
 3678SOL    HW122670   1.667   1.744   6.981  0.7533 -1.2715  0.3612
 3678SOL    HW222671   1.628   1.629   7.053  0.0248  0.3478 -2.3648
 3679SOL     OW22672   2.649   1.137   2.148 -0.2937  0.1681  0.1797
 3679SOL    HW122673   2.676   1.205   2.087  0.5202 -1.0083 -0.7843
 3679SOL    HW222674   2.674   1.186   2.226  1.1531  0.5425 -0.5157
 3680SOL     OW22675   1.845   4.730   4.559  0.3195 -0.4705  0.1279
 3680SOL    HW122676   1.853   4.635   4.564 -0.5538 -0.4228  2.2985
 3680SOL    HW222677   1.869   0.015   4.649  1.6801 -3.2551  0.4660
 3681SOL     OW22678   2.696   2.781   1.851 -0.2232  0.1666 -0.0903
 3681SOL    HW122679   2.606   2.764   1.878  0.3345 -2.7985 -0.1141
 3681SOL    HW222680   2.738   2.696   1.866  0.0669  0.9477  3.4751
 3682SOL     OW22681   3.620   2.062   1.823  0.1988  0.1732 -0.2829
 3682SOL    HW122682   3.541   2.078   1.772 -0.5448  1.5895  1.3245
 3682SOL    HW222683   3.593   1.977   1.857  0.4178  0.4143  0.4862
 3683SOL     OW22684   2.378   0.133   5.471 -0.0302  0.8846 -0.7504
 3683SOL    HW122685   2.357   0.213   5.519  1.2244  1.0687 -0.5157
 3683SOL    HW222686   2.312   0.068   5.496  0.3767  0.8126  0.1371
 3684SOL     OW22687   1.347   2.089   6.319 -0.7128  0.5297  0.4194
 3684SOL    HW122688   1.299   2.150   6.374  0.3081  0.4708  1.3757
 3684SOL    HW222689   1.433   2.081   6.361 -0.3455  0.9356 -0.2455
 3685SOL     OW22690   0.281   1.206   9.990  0.0127  0.5038  0.3733
 3685SOL    HW122691   0.222   1.231   9.918 -0.5624 -1.3952  0.1885
 3685SOL    HW222692   0.216   1.202  10.060 -0.2734  3.0076  0.2442
 3686SOL     OW22693   2.878   1.134   6.264  0.3335 -0.0943  0.1858
 3686SOL    HW122694   2.895   1.228   6.272  0.7060  0.0518 -2.2927
 3686SOL    HW222695   2.799   1.130   6.318  0.0987 -0.7383 -0.1938
 3687SOL     OW22696   1.969   0.405   9.205 -0.5895 -0.6325 -0.2338
 3687SOL    HW122697   1.884   0.428   9.167  0.4970  3.6323 -0.0163
 3687SOL    HW222698   2.008   0.489   9.230 -0.5867 -0.8867  0.6006
 3688SOL     OW22699   4.265   0.756   3.939 -0.2898  0.1344  0.4642
 3688SOL    HW122700   4.170   0.756   3.952 -0.7215  3.6297 -2.7402
 3688SOL    HW222701   4.285   0.819   4.008 -2.0740  1.6689 -0.4416
 3689SOL     OW22702   0.457   4.135   4.450  0.1448 -0.2775  0.3305
 3689SOL    HW122703   0.538   4.085   4.450  1.1854  1.3964 -0.5993
 3689SOL    HW222704   0.441   4.137   4.544 -0.9665 -0.5786  0.1464
 3690SOL     OW22705   3.872   3.050  16.292  0.2443  0.2882 -0.2034
 3690SOL    HW122706   3.942   3.065  16.355  1.5537 -1.0677 -1.3560
 3690SOL    HW222707   3.919   3.024  16.213  0.0681  0.8624 -0.4983
 3691SOL     OW22708   3.850   4.305   1.516  0.2664  0.5735  0.1930
 3691SOL    HW122709   3.863   4.214   1.542 -0.8255 -0.0391 -1.3888
 3691SOL    HW222710   3.875   4.354   1.594  1.5510 -1.6396  1.1736
 3692SOL     OW22711   0.402   4.567   2.016 -0.0101  0.2148 -0.4652
 3692SOL    HW122712   0.424   4.526   1.932 -2.4113 -0.8216 -0.5695
 3692SOL    HW222713   0.349   4.505   2.066  0.9800 -1.0680 -1.0059
 3693SOL     OW22714   2.554   4.710   3.547 -0.2246  0.0559 -0.3913
 3693SOL    HW122715   2.609   0.042   3.512  0.6171 -0.5247 -0.2429
 3693SOL    HW222716   2.510   0.018   3.619  1.4889  0.6659  0.2608
 3694SOL     OW22717   3.286   1.120   3.059 -0.0893  0.3024 -0.5227
 3694SOL    HW122718   3.307   1.151   2.971  0.3918 -0.1515 -0.5697
 3694SOL    HW222719   3.209   1.066   3.042 -0.3435 -0.5209  3.1456
 3695SOL     OW22720   0.663   3.997   5.035  0.1786 -0.1010 -0.0684
 3695SOL    HW122721   0.582   4.035   5.001 -1.4980 -0.8669  3.1047
 3695SOL    HW222722   0.723   4.071   5.029  1.4666 -1.2588 -1.4208
 3696SOL     OW22723   0.138   1.278  17.197 -0.1932  0.0318 -0.0058
 3696SOL    HW122724   0.201   1.221  17.242  0.6986 -0.8043 -2.2845
 3696SOL    HW222725   0.145   1.258  17.104 -0.7638  3.2424 -0.7242
 3697SOL     OW22726   3.406   2.201   6.180  0.1394 -0.0166 -0.5402
 3697SOL    HW122727   3.320   2.193   6.223  0.9744 -1.1859  0.9367
 3697SOL    HW222728   3.439   2.288   6.204 -0.2640  0.7228 -2.7165
 3698SOL     OW22729   0.342   0.375   5.456 -1.1437 -0.0640  0.1412
 3698SOL    HW122730   0.320   0.459   5.497 -0.2778 -0.6157  1.7185
 3698SOL    HW222731   0.349   0.320   5.534  0.2557 -0.9268 -0.5955
 3699SOL     OW22732   0.146   1.247   4.242  0.4420 -0.0091  0.0438
 3699SOL    HW122733   0.124   1.252   4.148 -1.1650 -0.8744  0.3646
 3699SOL    HW222734   0.133   1.155   4.262  0.5737 -0.1602 -0.5464
 3700SOL     OW22735   0.697   2.109   7.406  0.5637  0.0022  0.5513
 3700SOL    HW122736   0.765   2.147   7.462  2.1617 -2.8796  0.5514
 3700SOL    HW222737   0.737   2.130   7.322  1.4966  2.3750  1.5772
 3701SOL     OW22738   2.028   1.337   3.056  0.3523 -0.6182  0.0244
 3701SOL    HW122739   1.977   1.410   3.090 -0.0430  0.2249 -2.3997
 3701SOL    HW222740   2.093   1.332   3.126 -1.7780  2.0054  2.2036
 3702SOL     OW22741   1.226   0.665   9.409  0.3217  0.0184 -0.8160
 3702SOL    HW122742   1.191   0.747   9.376  0.8663  0.4075 -0.4229
 3702SOL    HW222743   1.174   0.653   9.488  0.3088  1.1731 -0.6602
 3703SOL     OW22744   0.385   0.609   5.603 -0.2081  0.1287 -0.3760
 3703SOL    HW122745   0.340   0.557   5.670 -1.5498 -0.5979 -1.8233
 3703SOL    HW222746   0.427   0.672   5.661 -2.0892  1.2100 -0.1835
 3704SOL     OW22747   1.195   1.681   1.983  0.1117 -0.6953  0.5889
 3704SOL    HW122748   1.124   1.719   1.931 -0.6301 -2.8276  0.0201
 3704SOL    HW222749   1.133   1.655   2.051 -0.9994  1.4312  0.3620
 3705SOL     OW22750   3.008   2.862   3.910 -0.2252  0.3745 -0.4751
 3705SOL    HW122751   2.982   2.844   3.820  0.2215  1.2700 -0.7821
 3705SOL    HW222752   3.095   2.900   3.903 -0.6987  1.1708 -1.9128
 3706SOL     OW22753   1.284   1.208   4.422 -0.2931  0.3943  0.0675
 3706SOL    HW122754   1.213   1.194   4.359  0.6322  0.8436 -1.0773
 3706SOL    HW222755   1.286   1.304   4.425  1.2378  0.3729  0.0191
 3707SOL     OW22756   3.706   1.549   6.226 -0.3127 -0.5186  0.0024
 3707SOL    HW122757   3.680   1.465   6.265 -0.3749 -1.8165 -2.8659
 3707SOL    HW222758   3.626   1.564   6.175 -0.1198  1.2598  0.2231
 3708SOL     OW22759   1.274   0.714  13.594  0.1656  0.0575  0.1520
 3708SOL    HW122760   1.211   0.779  13.561  0.4823  0.3363  0.0966
 3708SOL    HW222761   1.268   0.652  13.521  0.2970  3.7753 -3.0306
 3709SOL     OW22762   0.821   4.047   2.922  0.1011 -0.4020  0.1945
 3709SOL    HW122763   0.882   3.975   2.935  0.1107 -0.4551 -0.1463
 3709SOL    HW222764   0.737   4.001   2.919  0.4200 -0.9467 -0.1957
 3710SOL     OW22765   4.658   0.296   3.006  0.1864 -0.0463  0.0077
 3710SOL    HW122766   4.730   0.334   3.056  1.4976 -0.5367 -1.4973
 3710SOL    HW222767   4.638   0.233   3.076  1.2044 -1.4948 -0.9924
 3711SOL     OW22768   4.591   1.712   7.219 -0.4225  0.6334 -0.1093
 3711SOL    HW122769   4.627   1.795   7.249 -0.9256  1.2221 -1.1748
 3711SOL    HW222770   4.601   1.716   7.124 -0.1394 -0.4483 -0.1348
 3712SOL     OW22771   0.718   1.639   6.924 -0.7380 -0.4058 -0.4358
 3712SOL    HW122772   0.685   1.686   7.000 -0.9626  0.0417 -0.8073
 3712SOL    HW222773   0.675   1.555   6.910  1.9171 -2.0138  1.2321
 3713SOL     OW22774   4.737   3.871   7.369 -0.6779  0.1085 -0.3542
 3713SOL    HW122775   4.702   3.793   7.325 -0.4590 -0.3609  0.3136
 3713SOL    HW222776   4.713   3.937   7.304  1.3584 -0.6034 -1.8469
 3714SOL     OW22777   4.646   2.853   6.694  0.3322 -0.1890  0.1818
 3714SOL    HW122778   4.737   2.846   6.665  0.5927  4.4751 -0.1964
 3714SOL    HW222779   4.658   2.925   6.756  3.5682 -0.2746 -0.3198
 3715SOL     OW22780   3.379   2.835   9.110 -0.3969 -0.5817  0.3355
 3715SOL    HW122781   3.320   2.910   9.099 -0.1629 -0.2428  1.3682
 3715SOL    HW222782   3.346   2.773   9.046  1.8098 -2.7458  1.3015
 3716SOL     OW22783   4.403   3.415   0.034  0.6020 -0.3188 -0.2251
 3716SOL    HW122784   4.326   3.381   0.079 -0.8614  2.2404 -0.7899
 3716SOL    HW222785   4.398   3.366  17.702  0.5869  0.6128 -0.7788
 3717SOL     OW22786   2.248   4.066   1.988 -0.2430  0.3279 -0.3137
 3717SOL    HW122787   2.202   4.095   2.066  1.7517  0.6125  0.7687
 3717SOL    HW222788   2.287   4.151   1.967  1.1272 -0.7216 -2.0475
 3718SOL     OW22789   1.417   2.206  13.441 -0.7616 -0.0478 -0.1223
 3718SOL    HW122790   1.458   2.167  13.364  0.1057  2.1610 -0.7922
 3718SOL    HW222791   1.429   2.297  13.413  1.1723 -0.5925 -1.0948
 3719SOL     OW22792   1.482   4.653   7.128  0.1578  0.0810 -0.2569
 3719SOL    HW122793   1.552   4.590   7.147  0.9736  0.9922 -0.2301
 3719SOL    HW222794   1.460   4.676   7.218  4.6872  0.7126  0.7241
 3720SOL     OW22795   4.579   1.813   3.600  0.0924  0.3080 -0.3106
 3720SOL    HW122796   4.537   1.878   3.656 -1.7416 -0.1596 -1.1420
 3720SOL    HW222797   4.583   1.866   3.520 -0.6114  0.8507  0.0067
 3721SOL     OW22798   3.149   4.342  15.054 -0.1657  0.1508  0.3057
 3721SOL    HW122799   3.088   4.400  15.008 -0.2967 -0.1451  0.1043
 3721SOL    HW222800   3.231   4.353  15.006 -0.8871  0.5512 -0.8408
 3722SOL     OW22801   1.020   2.647   9.503  0.2248  0.0364 -0.5181
 3722SOL    HW122802   0.939   2.633   9.552  0.9566  1.1854  1.0114
 3722SOL    HW222803   1.038   2.740   9.517  2.5103 -0.2931 -1.2328
 3723SOL     OW22804   0.654   1.470   2.931  0.3253 -0.1877  0.2388
 3723SOL    HW122805   0.748   1.485   2.923 -0.2505  3.1044 -0.3434
 3723SOL    HW222806   0.626   1.552   2.892  1.0409  0.2317  0.6067
 3724SOL     OW22807   4.462   3.257   6.958 -0.4395 -0.3906 -0.2753
 3724SOL    HW122808   4.457   3.352   6.952  0.2348 -0.2397  1.3872
 3724SOL    HW222809   4.378   3.239   7.000 -1.0613  0.6642 -1.0948
 3725SOL     OW22810   0.137   2.684  10.485 -0.1302  0.6083 -0.4028
 3725SOL    HW122811   0.165   2.760  10.536  1.1558  0.5094 -0.9722
 3725SOL    HW222812   0.046   2.705  10.462  0.5182  3.0046 -0.7702
 3726SOL     OW22813   3.747   0.143   6.044  0.0673 -0.6012 -0.2690
 3726SOL    HW122814   3.715   0.078   6.105 -2.2001  2.7379  2.0690
 3726SOL    HW222815   3.780   0.080   5.979  1.2261  0.8842 -1.1306
 3727SOL     OW22816   4.630   2.854   8.938 -0.1680  0.3740  0.4710
 3727SOL    HW122817   4.548   2.841   8.986 -0.3402  0.6049  0.2426
 3727SOL    HW222818   4.693   2.895   8.997  1.4961 -0.5752 -0.6524
 3728SOL     OW22819   2.209   2.041   8.419 -0.3360  0.1060  0.4800
 3728SOL    HW122820   2.179   2.119   8.466 -2.6227 -1.5602  1.7951
 3728SOL    HW222821   2.122   2.003   8.404 -0.3595 -0.2241  1.4782
 3729SOL     OW22822   4.329   0.078   9.190 -0.1772  0.1729  0.1127
 3729SOL    HW122823   4.356   0.038   9.107  0.4738  0.0630  0.3792
 3729SOL    HW222824   4.267   0.140   9.150 -1.2212  0.0067  1.4869
 3730SOL     OW22825   4.425   1.266   9.508  0.4384  0.5824  0.2651
 3730SOL    HW122826   4.463   1.178   9.508  0.5587  0.6491  3.6675
 3730SOL    HW222827   4.347   1.243   9.457  0.4701  0.3949  0.3005
 3731SOL     OW22828   1.977   0.347   4.300  0.0282 -0.0524  0.2084
 3731SOL    HW122829   1.919   0.395   4.359  2.6240  1.7332  1.2588
 3731SOL    HW222830   2.053   0.333   4.355  0.8266 -0.7086 -1.0704
 3732SOL     OW22831   3.524   2.509   6.852 -0.0389  0.9894 -0.2186
 3732SOL    HW122832   3.572   2.444   6.801  0.4309  1.1460  0.0262
 3732SOL    HW222833   3.481   2.570   6.793 -0.5969  1.5819  0.7897
 3733SOL     OW22834   2.205   3.725   5.433  1.4023 -0.0591  0.2601
 3733SOL    HW122835   2.195   3.715   5.338 -0.2365 -1.6745  0.6033
 3733SOL    HW222836   2.227   3.818   5.440 -0.6916  0.5519 -1.3212
 3734SOL     OW22837   0.691   1.206  16.952 -0.1744  0.5299  0.3739
 3734SOL    HW122838   0.681   1.217  16.858  0.0242 -0.3458  0.2454
 3734SOL    HW222839   0.742   1.125  16.945  0.3912  0.8902  0.3851
 3735SOL     OW22840   3.753   3.781   5.882 -0.2018 -0.4609 -0.4620
 3735SOL    HW122841   3.735   3.764   5.789 -1.3461  0.2080 -0.3686
 3735SOL    HW222842   3.666   3.758   5.915  0.1707 -0.3979  0.5580
 3736SOL     OW22843   0.648   2.295   5.785 -0.3172 -0.2686 -0.3529
 3736SOL    HW122844   0.680   2.220   5.735 -0.2882 -1.4028  1.4019
 3736SOL    HW222845   0.689   2.373   5.748  1.0000 -0.6673  0.2702
 3737SOL     OW22846   4.146   1.062   3.243  0.2657 -0.1704 -0.1310
 3737SOL    HW122847   4.200   1.076   3.321  2.4429 -0.0371 -1.6777
 3737SOL    HW222848   4.167   1.138   3.189  0.0619 -0.2857 -0.3734
 3738SOL     OW22849   2.880   1.682   5.193  0.5271 -0.6286  0.4751
 3738SOL    HW122850   2.958   1.718   5.235  2.4712 -1.9865 -1.9451
 3738SOL    HW222851   2.805   1.726   5.232 -0.2571 -0.6859 -0.9565
 3739SOL     OW22852   0.222   0.379  15.038 -0.0193  0.7947  0.6966
 3739SOL    HW122853   0.264   0.384  14.952 -1.5609 -4.4215 -0.3268
 3739SOL    HW222854   0.162   0.454  15.031  0.0684  0.7750 -0.3193
 3740SOL     OW22855   3.063   0.991   3.017 -0.1883 -0.1599 -0.2151
 3740SOL    HW122856   2.992   0.961   3.074  0.5509  1.1766  1.3709
 3740SOL    HW222857   3.028   0.954   2.935  0.3486  0.6683 -0.8160
 3741SOL     OW22858   1.176   3.860   7.228 -0.0414 -0.1069 -0.4787
 3741SOL    HW122859   1.228   3.813   7.163  0.9103  0.4652 -0.1295
 3741SOL    HW222860   1.153   3.786   7.285  2.4865 -0.4215  0.1490
 3742SOL     OW22861   3.218   2.672  11.908 -0.6148 -0.2376  0.2722
 3742SOL    HW122862   3.155   2.625  11.853 -1.1528  1.3227 -0.4511
 3742SOL    HW222863   3.159   2.730  11.956 -3.6312 -1.4400 -1.9097
 3743SOL     OW22864   3.311   4.668   1.874 -0.4731  0.0053  0.1187
 3743SOL    HW122865   3.235   4.671   1.816  0.7820  0.5982 -1.5332
 3743SOL    HW222866   3.286   4.729   1.942 -1.1663 -0.2001  0.0473
 3744SOL     OW22867   1.192   0.222   5.802 -0.3852 -0.3748 -0.2484
 3744SOL    HW122868   1.175   0.248   5.893 -1.8885 -0.8586 -0.3876
 3744SOL    HW222869   1.124   0.276   5.762 -0.3527  0.4545  0.8218
 3745SOL     OW22870   1.343   3.826   8.479  0.6829 -0.1345  0.2611
 3745SOL    HW122871   1.421   3.814   8.533 -0.0639  0.8754  1.5772
 3745SOL    HW222872   1.282   3.860   8.544 -1.6855 -1.3265 -1.3407
 3746SOL     OW22873   1.682   3.661  10.189  0.2437 -0.4708 -0.1283
 3746SOL    HW122874   1.705   3.734  10.131 -3.2657 -1.1617 -2.3978
 3746SOL    HW222875   1.742   3.684  10.260  1.6578 -0.7575 -1.2477
 3747SOL     OW22876   1.222   1.989  13.437  0.1829 -0.2054  0.3530
 3747SOL    HW122877   1.151   2.018  13.495  0.0736 -0.7108  0.4639
 3747SOL    HW222878   1.294   2.052  13.441 -0.6321  0.7450  0.1411
 3748SOL     OW22879   2.632   4.082  10.179 -0.0020  0.1080 -0.3430
 3748SOL    HW122880   2.539   4.057  10.176 -0.4825  1.7388  0.6584
 3748SOL    HW222881   2.631   4.150  10.111 -1.6967  0.3827 -0.0529
 3749SOL     OW22882   0.893   1.627  12.320 -0.3739 -0.0054 -0.5228
 3749SOL    HW122883   0.800   1.617  12.299 -0.3922 -1.0168  0.0490
 3749SOL    HW222884   0.929   1.567  12.254 -1.0266 -1.9090  0.8588
 3750SOL     OW22885   3.451   3.865   0.232  0.1257  0.3175 -0.1699
 3750SOL    HW122886   3.470   3.848   0.140  1.0908  0.4617 -0.0019
 3750SOL    HW222887   3.357   3.881   0.227  0.1380  0.3484 -0.3272
 3751SOL     OW22888   3.163   3.188   1.441  0.3626 -0.5839  0.0976
 3751SOL    HW122889   3.207   3.184   1.356  1.9615  0.6822  0.8848
 3751SOL    HW222890   3.082   3.138   1.430 -0.0030 -0.2603  1.3499
 3752SOL     OW22891   2.294   0.329   3.926  0.2026 -0.0610 -0.5097
 3752SOL    HW122892   2.332   0.296   4.007 -1.6634 -1.2976 -0.1365
 3752SOL    HW222893   2.359   0.394   3.897  0.0752  0.2459 -0.0935
 3753SOL     OW22894   0.655   1.154  12.608 -0.1929 -0.2786 -0.8420
 3753SOL    HW122895   0.611   1.150  12.693 -1.3419 -1.7496 -1.5009
 3753SOL    HW222896   0.732   1.101  12.623  0.7421  0.9385 -1.3230
 3754SOL     OW22897   2.786   1.419   7.373  0.1134 -0.0805 -0.1400
 3754SOL    HW122898   2.848   1.474   7.325 -0.3648 -1.1557 -1.9700
 3754SOL    HW222899   2.710   1.477   7.377  0.2803  0.1158  0.2309
 3755SOL     OW22900   4.056   0.070   3.744 -0.0532 -0.8416  0.9636
 3755SOL    HW122901   4.117   0.097   3.813  2.0185  0.1338 -1.2324
 3755SOL    HW222902   4.083   0.120   3.667 -1.1687  1.7816  2.2582
 3756SOL     OW22903   1.603   0.394  16.654  0.3412  0.7151  0.4897
 3756SOL    HW122904   1.556   0.457  16.598  1.1745  0.3353 -0.6467
 3756SOL    HW222905   1.590   0.425  16.743 -0.6788  1.2017  0.1767
 3757SOL     OW22906   1.984   0.023  13.244  0.2061  0.9120  0.2140
 3757SOL    HW122907   2.075   0.001  13.224  0.2591  1.1802  0.1629
 3757SOL    HW222908   1.950   0.049  13.159  0.4840 -1.1592 -0.5248
 3758SOL     OW22909   4.373   0.006   3.096 -0.1529 -0.0478  0.6570
 3758SOL    HW122910   4.288   0.039   3.067  0.6116  1.0428 -0.3377
 3758SOL    HW222911   4.371   4.663   3.044 -0.1561  0.9027 -0.8254
 3759SOL     OW22912   4.291   4.269   9.485 -0.1470  0.1595  0.3414
 3759SOL    HW122913   4.385   4.257   9.495 -0.5244 -2.8516  0.1645
 3759SOL    HW222914   4.261   4.183   9.458  1.6836 -0.4437  0.2910
 3760SOL     OW22915   0.546   0.362   1.634 -0.3226 -0.7472  0.7822
 3760SOL    HW122916   0.467   0.354   1.687 -1.5269  0.5537 -0.8337
 3760SOL    HW222917   0.520   0.412   1.557 -0.0934  1.2337  1.9955
 3761SOL     OW22918   3.980   0.185   1.364 -0.2616 -0.0612 -0.3251
 3761SOL    HW122919   3.974   0.110   1.423  0.1031  1.0360  1.0961
 3761SOL    HW222920   3.939   0.249   1.421  1.5697 -1.6265  2.7750
 3762SOL     OW22921   0.190   3.164   6.616  0.4216  0.1177 -0.1416
 3762SOL    HW122922   0.155   3.148   6.528  0.1260 -2.0265  0.3659
 3762SOL    HW222923   0.125   3.226   6.647 -0.9059  0.4130 -3.4388
 3763SOL     OW22924   2.867   3.886   7.177 -0.1912  0.1793  0.0125
 3763SOL    HW122925   2.794   3.940   7.207  0.1325  0.9452 -0.5723
 3763SOL    HW222926   2.932   3.923   7.237 -0.5436 -0.4788  0.7858
 3764SOL     OW22927   2.761   1.779   2.515  0.2783  0.3845 -0.2036
 3764SOL    HW122928   2.844   1.814   2.483 -0.3534  2.5192  0.4973
 3764SOL    HW222929   2.709   1.812   2.442 -0.4872 -1.3248 -0.4315
 3765SOL     OW22930   1.668   3.570  15.937 -0.3271  0.1980 -0.0883
 3765SOL    HW122931   1.604   3.501  15.920 -0.0520 -0.4584  1.5593
 3765SOL    HW222932   1.740   3.537  15.883  0.8519  1.6454  0.6093
 3766SOL     OW22933   3.323   2.972  10.783 -0.1916 -0.0399 -0.0823
 3766SOL    HW122934   3.360   2.945  10.867  2.2408  0.3314 -1.0453
 3766SOL    HW222935   3.388   2.941  10.719 -1.8464  0.2032 -1.8826
 3767SOL     OW22936   3.730   0.905   1.623  0.0619 -0.1589 -0.2626
 3767SOL    HW122937   3.735   0.832   1.685 -0.3410 -1.2163 -1.4808
 3767SOL    HW222938   3.818   0.944   1.627 -1.4664  3.1656  1.0477
 3768SOL     OW22939   1.986   0.301   5.107 -0.3368  0.3910 -0.3753
 3768SOL    HW122940   1.982   0.394   5.129 -0.2148  1.1953 -3.6949
 3768SOL    HW222941   2.027   0.296   5.021 -0.6719 -0.0815 -0.5134
 3769SOL     OW22942   3.731   2.312   3.128 -0.4364  0.2654 -0.0231
 3769SOL    HW122943   3.716   2.218   3.134 -1.0233  0.4465  1.4470
 3769SOL    HW222944   3.676   2.336   3.054  1.2494  0.3837 -1.2349
 3770SOL     OW22945   0.029   0.581   5.114 -0.5833  0.4137 -0.6924
 3770SOL    HW122946   0.103   0.570   5.054  0.3776 -1.1837  0.8194
 3770SOL    HW222947   0.074   0.595   5.197 -0.0505 -4.5587 -0.1851
 3771SOL     OW22948   0.715   1.068  15.870  0.1698  0.0119 -0.3691
 3771SOL    HW122949   0.698   0.978  15.844 -0.1831 -0.0289 -0.0069
 3771SOL    HW222950   0.752   1.114  15.794 -1.7606  0.9011 -0.7741
 3772SOL     OW22951   3.552   3.885  16.469  0.4317 -0.6316 -0.3223
 3772SOL    HW122952   3.591   3.857  16.551  0.5874 -0.8000 -0.4517
 3772SOL    HW222953   3.602   3.832  16.405 -0.0799 -1.3057 -0.1622
 3773SOL     OW22954   4.071   0.104   5.369 -1.2213  0.3787  0.1998
 3773SOL    HW122955   4.074   0.011   5.347 -0.4306  0.0517  1.6539
 3773SOL    HW222956   4.140   0.151   5.322 -0.5411  0.0779  0.8856
 3774SOL     OW22957   2.269   0.564   3.538 -0.1197 -0.3261 -0.2835
 3774SOL    HW122958   2.352   0.611   3.549  0.2889 -0.9972 -0.5024
 3774SOL    HW222959   2.278   0.512   3.458  0.2082 -2.2512  1.0133
 3775SOL     OW22960   1.274   3.346   2.881 -0.2005 -0.3323  0.2866
 3775SOL    HW122961   1.217   3.277   2.848  2.2757 -1.5633 -1.4669
 3775SOL    HW222962   1.286   3.407   2.808  0.8830 -1.3498 -0.4082
 3776SOL     OW22963   1.266   4.427   2.968 -0.4216  0.0137  0.1992
 3776SOL    HW122964   1.267   4.447   3.061 -1.6694 -1.1631  0.4535
 3776SOL    HW222965   1.259   4.509   2.918 -1.5801 -0.3232 -0.1866
 3777SOL     OW22966   2.710   3.570   4.802 -0.6920  0.0619 -0.1881
 3777SOL    HW122967   2.800   3.572   4.769  0.4320 -0.4430  2.7578
 3777SOL    HW222968   2.702   3.475   4.814 -0.7329  0.0856 -0.0197
 3778SOL     OW22969   0.746   2.919   7.815  0.4953  0.2407 -0.6211
 3778SOL    HW122970   0.773   3.001   7.774  0.5604 -0.4368 -1.9109
 3778SOL    HW222971   0.714   2.874   7.737 -1.4123 -0.8850  0.7989
 3779SOL     OW22972   1.198   0.210  14.506  0.4734 -0.2528  0.6860
 3779SOL    HW122973   1.175   0.127  14.464 -1.9874  0.6348  0.2477
 3779SOL    HW222974   1.140   0.201  14.582 -0.6004  3.3234  0.2696
 3780SOL     OW22975   0.029   3.627   4.580 -0.1345 -0.1806 -0.1157
 3780SOL    HW122976   0.035   3.550   4.524 -1.5758 -0.2630 -0.1735
 3780SOL    HW222977   0.062   3.594   4.664 -0.2939 -0.2254 -0.0693
 3781SOL     OW22978   0.557   3.792   5.550 -0.0954  0.0273  0.1847
 3781SOL    HW122979   0.534   3.858   5.616  0.3293  3.4489 -3.1103
 3781SOL    HW222980   0.479   3.793   5.496  0.4655  0.9120 -0.6198
 3782SOL     OW22981   1.837   0.504   9.810  0.2075  0.2928 -0.3661
 3782SOL    HW122982   1.924   0.470   9.789 -0.9010 -0.2093 -4.0684
 3782SOL    HW222983   1.805   0.486   9.722  1.5646 -1.8271 -0.4312
 3783SOL     OW22984   3.161   1.932   1.412 -0.6043  0.0192 -0.5062
 3783SOL    HW122985   3.223   1.908   1.480 -1.1342  2.7660  0.9556
 3783SOL    HW222986   3.079   1.911   1.457 -0.5141  1.4376  0.3212
 3784SOL     OW22987   3.087   1.910   9.924  0.2463 -0.0424  0.1034
 3784SOL    HW122988   3.135   1.849   9.980  0.2325 -0.3912 -0.2608
 3784SOL    HW222989   2.997   1.886   9.948  0.2953 -0.7627 -0.4005
 3785SOL     OW22990   3.924   2.704   7.837  0.2615 -0.5114 -0.1134
 3785SOL    HW122991   4.009   2.692   7.795 -0.0412  0.8804 -1.1531
 3785SOL    HW222992   3.881   2.636   7.786  1.7775  0.2024 -2.3324
 3786SOL     OW22993   3.670   2.747  14.982  0.6231  0.4429 -0.3141
 3786SOL    HW122994   3.684   2.778  15.071 -2.0832  0.1644  0.2201
 3786SOL    HW222995   3.620   2.667  15.000  1.5495  0.2801  1.5818
 3787SOL     OW22996   3.543   3.119   6.016 -0.7151 -0.0227 -0.0982
 3787SOL    HW122997   3.558   3.092   6.107 -3.3531  4.5897  1.6942
 3787SOL    HW222998   3.597   3.058   5.967 -0.4796 -0.9928  1.3543
 3788SOL     OW22999   2.095   3.527  15.285 -0.0954  0.4247 -0.6288
 3788SOL    HW123000   2.113   3.565  15.199  1.6647 -1.5077 -1.1004
 3788SOL    HW223001   2.009   3.566  15.303 -0.2377 -0.8412  1.3945
 3789SOL     OW23002   4.396   4.423   1.990  0.8681  0.5659  0.0135
 3789SOL    HW123003   4.436   4.509   2.003  0.4297  0.8408 -0.4917
 3789SOL    HW223004   4.472   4.364   1.984  0.2774 -0.0559 -1.2169
 3790SOL     OW23005   3.622   3.753  16.097  0.0166 -0.0902  0.1576
 3790SOL    HW123006   3.598   3.662  16.078  0.5422 -0.4088  1.0076
 3790SOL    HW223007   3.666   3.758  16.181 -1.9180  0.3994  1.1464
 3791SOL     OW23008   2.658   4.186   9.614 -1.2090  0.0968 -0.5598
 3791SOL    HW123009   2.602   4.217   9.685  0.3139  1.9014 -0.1445
 3791SOL    HW223010   2.736   4.145   9.651 -1.1174  0.4599 -0.3605
 3792SOL     OW23011   1.754   3.821   4.475  0.5092  0.7302  0.5539
 3792SOL    HW123012   1.843   3.789   4.492  0.8738  1.4792  0.0425
 3792SOL    HW223013   1.741   3.802   4.383  1.9483 -0.2285  0.5463
 3793SOL     OW23014   3.121   4.293  10.684  0.4968 -0.6529 -0.2245
 3793SOL    HW123015   3.034   4.258  10.670 -0.2018  0.7871  0.4849
 3793SOL    HW223016   3.164   4.221  10.730  0.3731 -0.6724 -0.1407
 3794SOL     OW23017   1.839   2.789   8.288 -0.3024  0.4577  0.6348
 3794SOL    HW123018   1.785   2.842   8.229 -1.9113 -1.6162  0.2800
 3794SOL    HW223019   1.901   2.747   8.228  1.3025  1.1242  1.8024
 3795SOL     OW23020   0.515   2.231   3.916  0.4306 -0.5543  0.0879
 3795SOL    HW123021   0.598   2.188   3.935 -0.8470 -2.1740  2.0449
 3795SOL    HW223022   0.527   2.259   3.825 -0.9064  2.0205  0.6977
 3796SOL     OW23023   0.534   4.550   9.017  0.0539  0.6791  0.4694
 3796SOL    HW123024   0.536   4.619   8.951  0.8728 -1.9676 -2.2951
 3796SOL    HW223025   0.459   4.577   9.070 -2.3096 -4.5903 -0.1621
 3797SOL     OW23026   4.619   1.522   6.925  0.5121  0.3508 -0.7279
 3797SOL    HW123027   4.614   1.427   6.939  0.9423  0.4655  0.1948
 3797SOL    HW223028   4.524   1.527   6.931  0.4845 -0.1207 -0.7460
 3798SOL     OW23029   4.230   0.144   2.338 -0.1919 -0.5602 -0.4018
 3798SOL    HW123030   4.217   0.049   2.344  0.5761 -0.7639 -1.9918
 3798SOL    HW223031   4.311   0.138   2.388 -0.8208 -1.9160  0.4641
 3799SOL     OW23032   2.509   2.464   6.870 -0.2939  0.0141 -0.1427
 3799SOL    HW123033   2.603   2.472   6.858  0.1050 -0.2753  2.8854
 3799SOL    HW223034   2.490   2.384   6.918 -1.7834 -0.3981 -1.4164
 3800SOL     OW23035   4.143   4.536   5.657  0.3997 -0.4422 -0.3366
 3800SOL    HW123036   4.169   4.452   5.619  0.8186 -1.2256  1.6973
 3800SOL    HW223037   4.231   4.573   5.645  0.7688 -1.1690  0.1216
 3801SOL     OW23038   4.599   0.665  13.792 -0.0421 -0.4082 -0.4661
 3801SOL    HW123039   4.518   0.656  13.841 -0.0560  2.1591 -0.0149
 3801SOL    HW223040   4.590   0.592  13.731 -2.0011  0.6143 -1.3982
 3802SOL     OW23041   0.673   2.410   5.462  0.1229 -0.2257  0.2603
 3802SOL    HW123042   0.720   2.493   5.468 -0.6326  0.1326  1.2619
 3802SOL    HW223043   0.741   2.349   5.435 -2.4256 -1.7013 -2.7727
 3803SOL     OW23044   1.765   4.379  12.833  0.5315  0.2948 -0.1229
 3803SOL    HW123045   1.821   4.430  12.892  0.3286  1.5050 -0.9862
 3803SOL    HW223046   1.686   4.433  12.827 -0.2476 -1.0887 -2.2732
 3804SOL     OW23047   3.836   3.933   6.121 -0.5646  0.3775  0.1156
 3804SOL    HW123048   3.811   3.900   6.035 -0.2574  1.3064 -0.3343
 3804SOL    HW223049   3.748   3.952   6.153 -1.0158  0.8296 -1.4131
 3805SOL     OW23050   3.560   1.108   4.708  0.7425  0.3791  0.3158
 3805SOL    HW123051   3.589   1.019   4.727  1.7247  0.2478 -1.7412
 3805SOL    HW223052   3.536   1.089   4.617  0.1672  1.3432  0.2694
 3806SOL     OW23053   2.473   2.181  14.383 -0.2497  0.2909  0.1353
 3806SOL    HW123054   2.395   2.180  14.439  1.3402  1.4605  2.3345
 3806SOL    HW223055   2.527   2.222  14.450 -0.0290  0.5144 -0.1804
 3807SOL     OW23056   4.493   3.957   6.393 -0.6294 -0.2889 -0.1383
 3807SOL    HW123057   4.404   3.965   6.360 -1.3227  0.9741  2.0361
 3807SOL    HW223058   4.527   4.043   6.370  0.4549 -1.1145 -1.6311
 3808SOL     OW23059   2.568   4.297  15.092 -0.1042  0.5422 -0.8154
 3808SOL    HW123060   2.485   4.341  15.073 -2.5772 -2.3967  3.2779
 3808SOL    HW223061   2.625   4.317  15.018 -0.3414  0.7657 -0.9380
 3809SOL     OW23062   2.641   2.278   7.986  0.8242 -0.3844  0.6871
 3809SOL    HW123063   2.689   2.325   8.054 -1.6973  1.7205  1.0168
 3809SOL    HW223064   2.709   2.241   7.930 -1.6949  0.8201 -3.1469
 3810SOL     OW23065   1.129   1.225   6.915  0.1117  0.0285  0.4972
 3810SOL    HW123066   1.141   1.308   6.961  1.0466 -0.6583  1.5223
 3810SOL    HW223067   1.185   1.166   6.967  0.5271 -0.1736 -0.1733
 3811SOL     OW23068   0.122   3.774   9.354  0.2801  0.0784  0.0186
 3811SOL    HW123069   0.164   3.757   9.270 -0.7085  1.1256 -0.6974
 3811SOL    HW223070   0.114   3.689   9.396 -2.3015  0.6855  0.7908
 3812SOL     OW23071   3.786   1.456   7.676 -0.2028 -0.5986 -0.5472
 3812SOL    HW123072   3.724   1.397   7.633 -0.6153  0.3529 -1.2324
 3812SOL    HW223073   3.872   1.427   7.643 -1.3514  0.0098 -4.0529
 3813SOL     OW23074   2.443   1.146  16.024 -0.0747  0.4817 -0.7345
 3813SOL    HW123075   2.367   1.152  15.965  0.2927  1.7855 -1.0760
 3813SOL    HW223076   2.495   1.222  15.998  2.9900 -0.4260  2.6699
 3814SOL     OW23077   0.838   2.867   8.606  0.1005 -0.8309 -0.4050
 3814SOL    HW123078   0.763   2.807   8.608 -1.4516  1.1719  1.3923
 3814SOL    HW223079   0.824   2.903   8.518 -0.0174  0.1865  0.0320
 3815SOL     OW23080   3.759   4.263   4.094  0.2706  0.5472  0.0211
 3815SOL    HW123081   3.707   4.334   4.130  1.5703  1.2322  0.5405
 3815SOL    HW223082   3.763   4.292   4.002 -0.7556  0.4264 -0.0582
 3816SOL     OW23083   1.933   2.377  14.944 -0.3997  0.0810  0.5683
 3816SOL    HW123084   1.892   2.401  14.861  1.2430  1.4289  0.1548
 3816SOL    HW223085   1.988   2.452  14.962 -0.7711  0.5644 -0.3133
 3817SOL     OW23086   1.023   0.240   6.259 -0.0510 -0.5188  0.3405
 3817SOL    HW123087   0.996   0.236   6.351  0.8381 -0.4182  0.6070
 3817SOL    HW223088   1.072   0.158   6.248  0.2440 -0.3075  0.0796
 3818SOL     OW23089   3.426   1.853   1.516  0.1449  0.0050 -0.2606
 3818SOL    HW123090   3.431   1.757   1.512  0.7293  0.0128  0.3015
 3818SOL    HW223091   3.453   1.871   1.426  0.4240 -2.7531 -0.7530
 3819SOL     OW23092   3.218   3.106   3.076 -0.2605 -0.4026  0.0102
 3819SOL    HW123093   3.176   3.099   2.990 -1.5347 -1.4849  0.7044
 3819SOL    HW223094   3.181   3.027   3.116  3.0383 -1.8485  0.2113
 3820SOL     OW23095   3.946   1.562   0.598 -0.5893 -0.1524 -0.1975
 3820SOL    HW123096   3.873   1.500   0.602 -0.9293  0.2039 -0.9147
 3820SOL    HW223097   4.009   1.522   0.657 -0.0853  0.0577 -0.5903
 3821SOL     OW23098   3.970   0.159   3.254 -0.3746  0.1199  0.4093
 3821SOL    HW123099   4.036   0.123   3.195 -1.0002 -0.9561  0.3699
 3821SOL    HW223100   3.970   0.246   3.214  1.7532 -0.1376 -0.1914
 3822SOL     OW23101   4.228   0.073   1.305 -0.8553 -0.1378 -0.0857
 3822SOL    HW123102   4.316   0.108   1.314 -1.4671  1.5113 -0.5326
 3822SOL    HW223103   4.173   0.137   1.351 -1.1577 -0.0946 -0.5095
 3823SOL     OW23104   1.397   2.687   6.220  0.9421  0.3236 -0.0754
 3823SOL    HW123105   1.339   2.618   6.251  1.8639 -0.4542 -0.0795
 3823SOL    HW223106   1.435   2.721   6.301 -1.6025  0.7806  0.9092
 3824SOL     OW23107   2.485   3.876   7.827  0.0989  0.4287 -0.2829
 3824SOL    HW123108   2.566   3.825   7.837  0.3847  0.7448 -0.9784
 3824SOL    HW223109   2.430   3.818   7.776 -0.1865 -1.1215  1.7753
 3825SOL     OW23110   2.740   3.045  16.891 -0.3865  0.4560  0.0064
 3825SOL    HW123111   2.803   3.051  16.819 -0.3673  2.5608  0.2045
 3825SOL    HW223112   2.681   3.119  16.875  1.1394  1.3918 -1.2894
 3826SOL     OW23113   3.998   4.152   9.166  0.9169 -0.1764  0.9599
 3826SOL    HW123114   4.045   4.115   9.241 -1.0752 -2.0569  1.2855
 3826SOL    HW223115   3.991   4.244   9.190 -0.2352 -0.4544  1.6699
 3827SOL     OW23116   0.000   2.799   6.072 -0.0094 -0.0317 -0.4645
 3827SOL    HW123117   4.715   2.880   6.027  1.7882  0.4855 -0.4754
 3827SOL    HW223118   4.662   2.744   6.052  0.6492 -0.7939 -0.9154
 3828SOL     OW23119   2.283   1.757   8.760 -0.1954 -0.4263 -0.4169
 3828SOL    HW123120   2.249   1.690   8.820 -1.2387 -0.4576 -1.0485
 3828SOL    HW223121   2.211   1.756   8.698  0.4385  0.4653 -1.1556
 3829SOL     OW23122   0.153   0.245   6.404  0.0462  0.4854  0.0150
 3829SOL    HW123123   0.171   0.270   6.495  1.3887 -3.0275  0.7115
 3829SOL    HW223124   0.174   0.152   6.403 -1.2591  0.1830  0.2309
 3830SOL     OW23125   2.573   1.192   1.849  0.6538  0.6902 -0.3531
 3830SOL    HW123126   2.585   1.098   1.863 -2.8685  0.5126  1.3492
 3830SOL    HW223127   2.496   1.214   1.901 -1.0179 -1.6472 -1.8547
 3831SOL     OW23128   3.415   1.848   5.354 -0.3648 -0.5131 -0.0088
 3831SOL    HW123129   3.438   1.871   5.444  0.9512 -1.4944 -0.1045
 3831SOL    HW223130   3.361   1.922   5.327  0.6928 -0.0048 -0.7648
 3832SOL     OW23131   0.676   3.626   7.318 -0.1560 -0.4309 -0.3899
 3832SOL    HW123132   0.733   3.659   7.248  0.3222 -0.2879  0.0667
 3832SOL    HW223133   0.696   3.533   7.328  0.6063 -0.1796  0.4119
 3833SOL     OW23134   3.551   1.154   6.700 -0.4292  0.4350 -0.0006
 3833SOL    HW123135   3.469   1.163   6.748 -0.2648 -0.6579  0.4964
 3833SOL    HW223136   3.553   1.058   6.697  1.0437  0.4123  1.8675
 3834SOL     OW23137   4.640   2.821  15.868  0.2170 -0.4805 -0.2157
 3834SOL    HW123138   4.694   2.865  15.803  0.0760  0.2818  0.1817
 3834SOL    HW223139   4.605   2.889  15.925 -0.3111 -2.0286  1.2988
 3835SOL     OW23140   3.357   0.332  11.869  0.1776  0.4574  0.1905
 3835SOL    HW123141   3.382   0.366  11.955 -0.5543  0.5799  0.3517
 3835SOL    HW223142   3.433   0.357  11.817 -1.1064  1.4281 -1.2167
 3836SOL     OW23143   4.431   4.139   8.220 -0.3202  0.1492  0.2217
 3836SOL    HW123144   4.417   4.054   8.263  0.0928  0.5913  1.2338
 3836SOL    HW223145   4.480   4.102   8.146  0.5613 -1.4501  1.5994
 3837SOL     OW23146   0.973   3.149   4.355 -0.5316 -0.2865 -0.8517
 3837SOL    HW123147   1.065   3.140   4.381 -0.6950 -0.3117 -0.3025
 3837SOL    HW223148   0.964   3.108   4.269 -0.4808 -1.3825 -0.3308
 3838SOL     OW23149   1.698   3.767   4.207  0.4985 -0.5756  0.1789
 3838SOL    HW123150   1.752   3.724   4.140  1.1199  2.7832 -1.5129
 3838SOL    HW223151   1.635   3.812   4.150 -1.2694 -1.5272  1.3884
 3839SOL     OW23152   0.381   0.745   2.313 -0.0445  0.1035  0.4331
 3839SOL    HW123153   0.382   0.673   2.250  2.3029  1.0884 -0.6558
 3839SOL    HW223154   0.454   0.796   2.277 -0.9643 -2.4748 -5.0377
 3840SOL     OW23155   3.715   2.937  11.653 -0.0590 -0.4011  0.4711
 3840SOL    HW123156   3.755   2.865  11.702  0.4898  0.4055  1.2059
 3840SOL    HW223157   3.722   2.908  11.562 -1.7463 -0.6502  0.4248
 3841SOL     OW23158   1.298   1.434   5.628  0.0811  0.6096  0.7874
 3841SOL    HW123159   1.239   1.488   5.680 -1.2832 -1.5589  1.4805
 3841SOL    HW223160   1.380   1.483   5.641 -0.0715  0.6548  1.5879
 3842SOL     OW23161   2.032   3.244   4.012 -0.4832  0.1232  0.0999
 3842SOL    HW123162   2.070   3.309   3.953 -1.0027 -0.6472 -1.0675
 3842SOL    HW223163   2.068   3.164   3.974 -0.8049  0.8708 -1.7434
 3843SOL     OW23164   1.132   2.353   4.083  0.2326 -0.0854  0.0930
 3843SOL    HW123165   1.078   2.428   4.105 -0.1272 -0.7993  1.6399
 3843SOL    HW223166   1.183   2.395   4.014 -0.2034 -1.3161 -0.9822
 3844SOL     OW23167   4.153   4.404   9.270 -0.1532  0.2316  0.0206
 3844SOL    HW123168   4.221   4.387   9.335  0.1908  0.3648 -0.3068
 3844SOL    HW223169   4.212   4.423   9.197 -0.4784 -0.7425 -0.4971
 3845SOL     OW23170   0.327   3.037   6.817  0.1080 -0.1118 -0.0710
 3845SOL    HW123171   0.278   2.973   6.869  1.0167  1.6110  2.9264
 3845SOL    HW223172   0.267   3.102   6.781 -0.3512 -1.7449 -2.2479
 3846SOL     OW23173   0.458   1.247  16.330 -0.5468  0.0656  0.3248
 3846SOL    HW123174   0.545   1.287  16.336 -1.3516  1.8393  0.2921
 3846SOL    HW223175   0.480   1.187  16.400 -0.0502  0.9181  0.9039
 3847SOL     OW23176   0.895   3.393   6.725 -0.2020 -0.1343  0.1158
 3847SOL    HW123177   0.830   3.355   6.666 -1.2407  0.4132  0.9129
 3847SOL    HW223178   0.834   3.415   6.795 -1.2943  1.3793 -1.3245
 3848SOL     OW23179   2.176   0.262  16.604 -0.2274  0.2588 -0.4941
 3848SOL    HW123180   2.179   0.352  16.571 -0.0541  0.8301  1.0641
 3848SOL    HW223181   2.105   0.280  16.667  1.2636  0.1391  1.2368
 3849SOL     OW23182   4.512   2.454   9.991 -0.1113 -0.4297  0.4308
 3849SOL    HW123183   4.545   2.443  10.080  0.2394  0.1982  0.3812
 3849SOL    HW223184   4.554   2.533   9.956  1.2243 -1.7836 -1.0972
 3850SOL     OW23185   2.846   1.823   9.281  0.0553  0.1661  0.1685
 3850SOL    HW123186   2.762   1.779   9.293 -0.4001  0.8576 -0.4727
 3850SOL    HW223187   2.885   1.821   9.368 -1.0717 -0.9091  0.6404
 3851SOL     OW23188   1.988   0.156   7.494 -0.4715  0.0781 -0.3200
 3851SOL    HW123189   2.074   0.196   7.481 -1.0317  2.2064  2.4323
 3851SOL    HW223190   1.934   0.224   7.452  0.5092  0.8581 -0.2996
 3852SOL     OW23191   4.643   1.563   6.323  0.6772  0.6622  0.0849
 3852SOL    HW123192   4.681   1.627   6.263 -0.5123  0.4414 -0.9038
 3852SOL    HW223193   4.686   1.594   6.403  1.2170  1.0645 -0.3597
 3853SOL     OW23194   1.329   1.522  12.879  0.4309  0.0838 -0.2785
 3853SOL    HW123195   1.362   1.609  12.898 -0.9252  0.4690  0.2673
 3853SOL    HW223196   1.267   1.502  12.949  0.7930  2.2122  0.6352
 3854SOL     OW23197   1.426   2.129   5.241 -0.7601 -0.4538  0.3141
 3854SOL    HW123198   1.395   2.096   5.325 -2.0159 -0.1892 -0.0415
 3854SOL    HW223199   1.431   2.223   5.261  0.0114 -0.8907  2.2305
 3855SOL     OW23200   0.697   2.946  10.668 -0.0456 -0.6238 -0.6046
 3855SOL    HW123201   0.719   3.010  10.735 -0.6736 -0.3442 -0.6715
 3855SOL    HW223202   0.607   2.919  10.684 -0.2457  1.7018  2.1697
 3856SOL     OW23203   1.886   1.943   4.202  0.2630 -0.5011 -0.6159
 3856SOL    HW123204   1.841   1.922   4.284 -1.5232 -0.7750 -1.6690
 3856SOL    HW223205   1.885   2.039   4.202 -3.3782 -0.5482 -1.4674
 3857SOL     OW23206   4.285   1.942   3.006  0.1798  0.3697 -0.5750
 3857SOL    HW123207   4.346   2.010   2.979 -0.5583  0.8321 -1.1011
 3857SOL    HW223208   4.296   1.933   3.100 -0.1928  1.6123 -0.4220
 3858SOL     OW23209   0.564   2.521  14.378 -0.4300 -0.1518 -0.2695
 3858SOL    HW123210   0.567   2.613  14.352  1.5338  0.3350  1.7715
 3858SOL    HW223211   0.469   2.514  14.364 -0.7744  0.7271  1.7457
 3859SOL     OW23212   3.177   1.965   5.969  0.4123 -0.0078  0.2894
 3859SOL    HW123213   3.238   1.969   5.895  0.9807 -1.8459  0.6675
 3859SOL    HW223214   3.186   1.877   6.004  0.4785  0.3269  1.1094
 3860SOL     OW23215   1.471   1.871   8.702 -0.3872  0.2678  0.1617
 3860SOL    HW123216   1.450   1.787   8.743  0.4822 -0.9121 -1.8067
 3860SOL    HW223217   1.405   1.874   8.633  0.4283 -0.8823 -0.6552
 3861SOL     OW23218   3.549   2.244   5.388 -0.3974  0.1457 -0.2308
 3861SOL    HW123219   3.456   2.247   5.409  0.2901 -1.6284  3.0699
 3861SOL    HW223220   3.575   2.331   5.419 -0.1658  0.3760 -1.0809
 3862SOL     OW23221   4.136   3.178   4.932 -0.1825 -0.7061  0.5277
 3862SOL    HW123222   4.148   3.268   4.901 -0.9686 -0.4382  1.0176
 3862SOL    HW223223   4.056   3.151   4.887 -0.1495  2.6219 -1.6093
 3863SOL     OW23224   3.359   3.365   8.022 -0.1607  0.0132 -0.0479
 3863SOL    HW123225   3.362   3.269   8.030 -0.1037 -0.0614 -0.9036
 3863SOL    HW223226   3.290   3.391   8.082  1.1766 -0.1967  1.5811
 3864SOL     OW23227   0.622   0.443   9.877  0.0974  0.3614  0.0762
 3864SOL    HW123228   0.716   0.438   9.891 -0.1712 -1.4405  1.1553
 3864SOL    HW223229   0.591   0.389   9.949 -0.5104 -0.0597 -0.5012
 3865SOL     OW23230   2.982   3.674   7.281 -0.3581 -0.0547 -0.4890
 3865SOL    HW123231   2.940   3.745   7.233  0.4735 -1.0983 -2.7537
 3865SOL    HW223232   2.905   3.641   7.328 -0.9884  0.2628 -1.3134
 3866SOL     OW23233   2.884   4.191   3.234 -0.0696  0.3325 -0.0918
 3866SOL    HW123234   2.847   4.201   3.322 -0.5736 -0.7188 -0.1777
 3866SOL    HW223235   2.830   4.113   3.219 -0.9958  0.9335  0.1572
 3867SOL     OW23236   0.717   3.848   6.842 -0.8150  0.3657  0.4884
 3867SOL    HW123237   0.641   3.832   6.899 -0.5904  1.8773  1.2197
 3867SOL    HW223238   0.680   3.823   6.757 -0.7535  0.4492  0.4376
 3868SOL     OW23239   4.376   4.122   5.976  0.4357  0.0514  0.0665
 3868SOL    HW123240   4.328   4.126   5.894  0.5291  0.4298  0.0287
 3868SOL    HW223241   4.391   4.028   5.976  1.1565  0.1627 -0.7603
 3869SOL     OW23242   1.349   0.404   6.900 -0.3828 -0.4404 -0.0358
 3869SOL    HW123243   1.370   0.327   6.953 -0.7617  1.6286  3.1377
 3869SOL    HW223244   1.430   0.455   6.903  0.4306 -1.6599 -1.6271
 3870SOL     OW23245   4.690   1.597   7.504 -0.4233 -0.7704  0.7367
 3870SOL    HW123246   4.637   1.617   7.427  0.0159  0.6476  0.7986
 3870SOL    HW223247   0.035   1.598   7.455 -0.5987  0.5589  0.4551
 3871SOL     OW23248   0.919   0.004   8.479 -0.2439  0.7241  0.0326
 3871SOL    HW123249   0.885   0.088   8.512  0.7340  1.3529 -0.5761
 3871SOL    HW223250   1.005   0.002   8.520 -0.4524  0.0790  0.4459
 3872SOL     OW23251   4.304   1.603  13.512 -0.5535  0.4340 -0.0286
 3872SOL    HW123252   4.279   1.534  13.574  1.4295  1.3456  1.7934
 3872SOL    HW223253   4.232   1.606  13.450 -0.1946 -0.8294 -0.5120
 3873SOL     OW23254   1.475   3.828  12.621  0.0844 -0.9836 -0.5142
 3873SOL    HW123255   1.555   3.862  12.581  0.3837 -1.8789 -0.6780
 3873SOL    HW223256   1.506   3.828  12.711  0.5260 -0.9078 -0.6645
 3874SOL     OW23257   4.102   2.886   5.126  0.3386  0.4062  0.2110
 3874SOL    HW123258   4.142   2.928   5.050  1.1581 -1.0702 -0.1770
 3874SOL    HW223259   4.176   2.836   5.161  0.8236  1.6982  1.0250
 3875SOL     OW23260   1.160   1.265   2.778 -0.8543 -0.1582  0.4049
 3875SOL    HW123261   1.200   1.289   2.861  0.8923 -1.8239  0.0350
 3875SOL    HW223262   1.238   1.243   2.727  1.1097  1.9989  2.5034
 3876SOL     OW23263   1.118   1.954  13.745  0.5318  0.2961  0.0304
 3876SOL    HW123264   1.076   1.882  13.793 -1.6201  0.1836 -2.0271
 3876SOL    HW223265   1.208   1.932  13.724  1.2103  0.9609  2.2907
 3877SOL     OW23266   4.003   1.761   6.126 -0.1866 -0.3820  0.4225
 3877SOL    HW123267   3.925   1.762   6.070 -1.6528 -0.9534  2.4893
 3877SOL    HW223268   4.059   1.824   6.079  2.1245 -0.8134  2.5917
 3878SOL     OW23269   0.058   0.567  13.971 -0.2951 -0.4417 -0.2751
 3878SOL    HW123270   0.012   0.609  13.899  1.1092  1.3385 -0.1207
 3878SOL    HW223271   0.017   0.482  13.957 -0.2785 -0.4325 -0.3826
 3879SOL     OW23272   0.324   0.111  15.604 -0.5084  0.4257  0.4268
 3879SOL    HW123273   0.397   0.077  15.552 -0.7584 -1.2616  1.1724
 3879SOL    HW223274   0.254   0.120  15.539 -0.8932 -1.3344  0.6034
 3880SOL     OW23275   1.961   2.986   7.774  0.7573 -0.3585 -0.2067
 3880SOL    HW123276   1.927   3.018   7.858  1.6399 -0.6342  0.2542
 3880SOL    HW223277   1.947   3.066   7.723 -0.8794 -0.2560  0.4282
 3881SOL     OW23278   0.646   0.037   6.133 -0.5854 -0.1221 -0.0983
 3881SOL    HW123279   0.646   0.122   6.178 -2.8102 -0.3038  0.2453
 3881SOL    HW223280   0.736   0.032   6.101 -1.0206  2.4049 -1.7189
 3882SOL     OW23281   4.415   2.215   2.466  0.1466  0.3590 -0.0821
 3882SOL    HW123282   4.341   2.228   2.407  0.4511 -1.1828 -0.8013
 3882SOL    HW223283   4.361   2.201   2.544  0.4384 -2.0352 -0.3002
 3883SOL     OW23284   4.520   4.682   6.718 -0.3813 -0.3300 -0.1046
 3883SOL    HW123285   4.608   4.720   6.712  0.4393 -1.8931  1.9677
 3883SOL    HW223286   4.474   0.014   6.764 -0.5083 -1.2670  1.1804
 3884SOL     OW23287   0.384   2.695   5.288 -0.0557 -0.0727  0.1948
 3884SOL    HW123288   0.357   2.646   5.366 -0.3387 -1.4326 -0.7418
 3884SOL    HW223289   0.444   2.632   5.248  1.8931  1.9282 -0.0345
 3885SOL     OW23290   4.112   2.254   5.773 -0.5495  0.4458  0.2029
 3885SOL    HW123291   4.175   2.182   5.766  0.0664  0.7898  2.2885
 3885SOL    HW223292   4.099   2.270   5.679  0.1508 -0.4278 -0.0495
 3886SOL     OW23293   1.747   1.169  15.021 -0.5907  0.0032 -0.0831
 3886SOL    HW123294   1.723   1.083  15.055  0.7737 -1.2063 -2.1884
 3886SOL    HW223295   1.670   1.222  15.042 -0.8189 -0.5888  0.5821
 3887SOL     OW23296   2.557   3.294   0.341  0.3685  0.2511 -0.7077
 3887SOL    HW123297   2.625   3.339   0.391 -0.3647  0.1092  0.4249
 3887SOL    HW223298   2.528   3.364   0.283  2.7893 -0.7331 -3.1285
 3888SOL     OW23299   4.266   1.802   1.881  0.3794 -0.3183  0.1195
 3888SOL    HW123300   4.283   1.807   1.975 -1.0060 -2.9953  0.5352
 3888SOL    HW223301   4.321   1.724   1.871  0.0672 -0.5651  0.2965
 3889SOL     OW23302   1.633   3.632  16.200 -0.3576 -0.0623 -0.4065
 3889SOL    HW123303   1.662   3.602  16.114 -0.3161 -3.1184  0.6714
 3889SOL    HW223304   1.583   3.554  16.227 -0.6796 -0.1433 -1.2387
 3890SOL     OW23305   0.713   1.979   9.525  0.2695 -0.5239  0.3366
 3890SOL    HW123306   0.770   2.015   9.593 -0.8243  0.1713  0.8928
 3890SOL    HW223307   0.713   1.887   9.550  0.5994 -0.7414 -0.4751
 3891SOL     OW23308   2.884   2.723   2.703 -0.6992 -0.0119 -0.5559
 3891SOL    HW123309   2.831   2.645   2.683  0.0013 -0.4997 -0.4876
 3891SOL    HW223310   2.918   2.697   2.788  2.0214  0.3177 -1.5391
 3892SOL     OW23311   3.780   2.709  16.261  0.8056 -0.3030  0.0041
 3892SOL    HW123312   3.731   2.754  16.193 -0.5103  0.1651  1.2721
 3892SOL    HW223313   3.850   2.771  16.283 -2.5046  3.1670  0.5972
 3893SOL     OW23314   3.081   3.946  15.798  0.2205 -0.0973 -0.3268
 3893SOL    HW123315   2.995   3.962  15.837  1.0394  1.5492  0.7903
 3893SOL    HW223316   3.102   3.864  15.841  0.1699  0.0874  0.0531
 3894SOL     OW23317   0.492   4.525   4.193 -0.1913 -0.5544 -0.5795
 3894SOL    HW123318   0.465   4.448   4.243 -2.5540  0.7835  0.1874
 3894SOL    HW223319   0.412   4.551   4.148 -1.3186 -1.2543  1.0247
 3895SOL     OW23320   2.703   2.612   8.535  0.2437  0.1374 -0.2145
 3895SOL    HW123321   2.622   2.560   8.534  0.1889  0.2906 -2.5800
 3895SOL    HW223322   2.761   2.543   8.567  0.3068  1.2919  2.1927
 3896SOL     OW23323   4.394   2.069   6.215  0.3010  0.3229 -1.2992
 3896SOL    HW123324   4.395   1.999   6.281 -2.8549  0.2503 -1.3173
 3896SOL    HW223325   4.487   2.086   6.228 -0.3500  2.2700  0.8348
 3897SOL     OW23326   1.998   0.826   6.673 -0.3116  0.0676 -0.1895
 3897SOL    HW123327   2.032   0.763   6.736  0.5688  0.3487 -0.3813
 3897SOL    HW223328   1.915   0.852   6.711 -0.1345  1.6255 -0.8748
 3898SOL     OW23329   4.029   0.372   2.338  0.5172 -0.5155 -0.0205
 3898SOL    HW123330   3.979   0.303   2.381 -1.1253  0.2697 -0.6706
 3898SOL    HW223331   4.112   0.326   2.352  2.0250  3.0820  2.8361
 3899SOL     OW23332   4.151   3.995   4.801  0.9731 -0.1741 -0.1203
 3899SOL    HW123333   4.169   4.087   4.781 -1.4335  0.4157  0.3330
 3899SOL    HW223334   4.122   3.967   4.714  0.5882 -0.7499  0.1980
 3900SOL     OW23335   4.108   4.107  17.037  0.1966  0.3623  0.0547
 3900SOL    HW123336   4.121   4.197  17.008 -0.8778  0.3671 -0.4069
 3900SOL    HW223337   4.078   4.125  17.126 -0.2920 -0.1945  0.0066
 3901SOL     OW23338   0.375   0.728   8.540  0.8255  0.2647  0.2939
 3901SOL    HW123339   0.393   0.802   8.482  0.7352 -0.3348 -0.5153
 3901SOL    HW223340   0.466   0.702   8.550  1.0238  0.2076 -1.5611
 3902SOL     OW23341   3.154   2.863   9.361  0.4237  0.3666  0.5060
 3902SOL    HW123342   3.140   2.829   9.449 -1.4055 -0.7920 -0.2277
 3902SOL    HW223343   3.225   2.922   9.386  0.8932 -0.6064  1.4839
 3903SOL     OW23344   1.980   0.841   4.508 -0.4994  0.4333  0.0057
 3903SOL    HW123345   1.932   0.915   4.546 -0.0292  0.7222  0.0245
 3903SOL    HW223346   1.979   0.865   4.416 -0.5669  1.9087  0.3944
 3904SOL     OW23347   0.437   1.539  11.641 -0.1836 -0.3172  0.1301
 3904SOL    HW123348   0.422   1.549  11.735  0.5761 -2.6999  0.4907
 3904SOL    HW223349   0.384   1.610  11.604 -0.5314 -0.7798 -0.2659
 3905SOL     OW23350   2.284   4.241   3.499  0.2724  0.0983  0.3663
 3905SOL    HW123351   2.261   4.218   3.409  0.5720  0.3597  0.2182
 3905SOL    HW223352   2.345   4.313   3.479 -0.5974  0.6669 -0.2927
 3906SOL     OW23353   1.332   4.145  15.195  0.1119 -0.0892  0.1499
 3906SOL    HW123354   1.410   4.095  15.220 -1.1590 -1.4354  1.4675
 3906SOL    HW223355   1.344   4.228  15.241  3.3656 -0.8669  0.6628
 3907SOL     OW23356   1.158   3.079   5.999 -0.1930  0.3477  0.9093
 3907SOL    HW123357   1.214   3.155   5.984  0.7871 -0.5149  0.1729
 3907SOL    HW223358   1.073   3.122   6.006  0.5570  2.1956 -1.2060
 3908SOL     OW23359   3.599   0.564   5.262  0.1721  0.0697  0.2848
 3908SOL    HW123360   3.646   0.502   5.318 -1.9336 -0.0046  1.9660
 3908SOL    HW223361   3.632   0.647   5.296  0.7442 -0.0521  0.0116
 3909SOL     OW23362   4.690   0.665  17.294 -0.4335  0.1177  0.0593
 3909SOL    HW123363   4.614   0.719  17.272  0.2859  2.0615  2.4369
 3909SOL    HW223364   4.726   0.708  17.371 -0.5724  0.6709 -0.1824
 3910SOL     OW23365   3.149   4.014   5.015 -0.2510  0.1221 -0.9417
 3910SOL    HW123366   3.131   4.106   4.996  1.2380  0.6583  0.3006
 3910SOL    HW223367   3.075   3.971   4.971  0.1432 -2.3071  0.7308
 3911SOL     OW23368   0.482   3.153   5.383  0.2594 -0.2988 -0.2640
 3911SOL    HW123369   0.539   3.225   5.354  1.5166 -0.8772  0.7594
 3911SOL    HW223370   0.397   3.193   5.400  0.0777 -1.2292  0.9995
 3912SOL     OW23371   0.895   0.333   2.447  0.0070  0.2341  0.6997
 3912SOL    HW123372   0.834   0.359   2.378 -0.6714  1.8539  1.8980
 3912SOL    HW223373   0.961   0.287   2.396  0.1666 -0.8654  1.8950
 3913SOL     OW23374   2.550   3.330   5.139  0.0227  0.8053 -0.5728
 3913SOL    HW123375   2.590   3.351   5.223  1.5385 -0.9775 -0.8510
 3913SOL    HW223376   2.623   3.319   5.079 -1.4727 -0.5736 -2.1369
 3914SOL     OW23377   2.218   0.723   8.494 -0.0262  0.2242 -0.2272
 3914SOL    HW123378   2.138   0.761   8.458 -0.3341  1.1317  1.3734
 3914SOL    HW223379   2.278   0.766   8.432 -2.7842  1.1281 -2.2511
 3915SOL     OW23380   2.324   1.774  15.181 -0.4992  0.3763  0.2456
 3915SOL    HW123381   2.349   1.684  15.163 -0.0940  0.3878  0.7437
 3915SOL    HW223382   2.254   1.758  15.244 -0.2623 -0.0126  0.4091
 3916SOL     OW23383   4.066   3.468   7.862 -0.4806  0.3644  0.0683
 3916SOL    HW123384   4.075   3.383   7.903  0.5746  0.5772  0.2867
 3916SOL    HW223385   4.037   3.516   7.939 -1.0276  0.0717  0.0438
 3917SOL     OW23386   3.121   3.520   5.671  0.3381 -0.0577 -0.0475
 3917SOL    HW123387   3.155   3.565   5.748  0.9647  0.0029 -0.3609
 3917SOL    HW223388   3.026   3.517   5.680  0.3289  0.5097  0.0256
 3918SOL     OW23389   3.652   1.532   6.645  0.3367  0.0507 -0.2763
 3918SOL    HW123390   3.707   1.589   6.591 -0.2006 -0.3919 -1.2909
 3918SOL    HW223391   3.707   1.454   6.654 -0.1690 -0.1421  1.0689
 3919SOL     OW23392   3.522   1.774   3.999 -0.3614  0.6071 -0.0542
 3919SOL    HW123393   3.492   1.768   4.090  0.5427  0.0851  0.2128
 3919SOL    HW223394   3.527   1.869   4.000 -2.5269  0.7164 -0.5112
 3920SOL     OW23395   3.144   2.556   6.474 -0.0671  0.2183 -0.3889
 3920SOL    HW123396   3.182   2.509   6.549 -2.8642 -1.2586  0.1000
 3920SOL    HW223397   3.224   2.587   6.432 -0.8698  0.0676 -1.9967
 3921SOL     OW23398   3.708   2.527   1.782 -0.4167  0.1885  0.1033
 3921SOL    HW123399   3.638   2.492   1.727 -1.7715  0.4132  1.6915
 3921SOL    HW223400   3.744   2.591   1.720  1.8703 -0.8379  0.3807
 3922SOL     OW23401   2.839   1.348   6.780  0.5606 -0.1211  0.9099
 3922SOL    HW123402   2.829   1.336   6.875  0.0089  0.8497  0.9811
 3922SOL    HW223403   2.914   1.407   6.777  0.0354  0.4692 -0.4128
 3923SOL     OW23404   0.506   1.178   6.282  0.0114  0.4082 -0.2960
 3923SOL    HW123405   0.583   1.185   6.339  0.3024  0.5027 -0.6966
 3923SOL    HW223406   0.513   1.085   6.261  1.4589  0.5390 -0.3850
 3924SOL     OW23407   0.775   3.854   4.693 -0.3304  0.1113 -0.6228
 3924SOL    HW123408   0.859   3.811   4.679  1.4956  2.7292  2.3775
 3924SOL    HW223409   0.807   3.940   4.721 -1.3893  0.2251  0.2445
 3925SOL     OW23410   0.364   0.943  17.127  0.0822 -0.2031 -0.0799
 3925SOL    HW123411   0.388   1.029  17.093 -0.9381 -0.4480 -1.4377
 3925SOL    HW223412   0.294   0.976  17.183  1.3041  0.4099  1.0790
 3926SOL     OW23413   1.577   4.670  11.202 -0.2225 -0.2658  0.1853
 3926SOL    HW123414   1.647   4.716  11.249  0.1087  0.7393 -1.2771
 3926SOL    HW223415   1.624   4.627  11.130  0.2810 -1.6048  1.2860
 3927SOL     OW23416   2.877   2.237   0.374  0.0705  0.3690  0.6098
 3927SOL    HW123417   2.922   2.255   0.292 -0.7183 -2.1195 -0.3513
 3927SOL    HW223418   2.802   2.294   0.355 -0.2073 -0.2963 -0.2483
 3928SOL     OW23419   3.744   1.697   5.987 -0.3887  0.0506  0.0573
 3928SOL    HW123420   3.659   1.681   5.946 -0.1109 -0.7953 -0.1919
 3928SOL    HW223421   3.729   1.651   6.070 -1.0915 -0.5146 -0.3868
 3929SOL     OW23422   0.055   4.463   9.428  0.3574 -0.0543  0.2084
 3929SOL    HW123423   0.098   4.447   9.512  1.4827  0.9492 -0.1738
 3929SOL    HW223424   0.049   4.558   9.418 -0.8182 -0.1372  0.1666
 3930SOL     OW23425   0.657   4.356   8.880  0.0640  0.0722  0.5697
 3930SOL    HW123426   0.724   4.338   8.946  0.5542  1.4250  0.4411
 3930SOL    HW223427   0.606   4.421   8.928  0.2526 -1.1683  2.4235
 3931SOL     OW23428   0.084   0.970   5.341 -0.5007  0.0316  0.2387
 3931SOL    HW123429   0.174   0.986   5.366 -0.1480  0.2948 -1.1858
 3931SOL    HW223430   0.072   1.049   5.289 -0.7914  0.4985  1.0107
 3932SOL     OW23431   3.295   3.527   2.325  0.3729  0.3490 -0.3712
 3932SOL    HW123432   3.283   3.621   2.329  1.0466  0.4059  0.4118
 3932SOL    HW223433   3.230   3.497   2.389 -1.8222  1.1067 -2.2804
 3933SOL     OW23434   4.449   2.066  14.585 -0.5897 -0.0213 -0.1914
 3933SOL    HW123435   4.426   2.089  14.675  0.5552  1.0103 -0.1553
 3933SOL    HW223436   4.431   2.147  14.537 -1.1916 -0.2692 -0.3884
 3934SOL     OW23437   2.961   3.234   9.472 -0.1133 -0.5437 -0.0054
 3934SOL    HW123438   2.998   3.185   9.546 -0.6500 -0.6148  0.2147
 3934SOL    HW223439   2.872   3.244   9.506  0.6738  1.0563  1.5881
 3935SOL     OW23440   3.054   4.174   4.122 -0.9699 -0.2310  0.1717
 3935SOL    HW123441   3.039   4.155   4.215 -1.3428  2.2531  0.6311
 3935SOL    HW223442   2.964   4.169   4.088 -1.2870  0.1686  0.9382
 3936SOL     OW23443   4.019   2.629   2.988 -0.2085 -0.1000  0.4607
 3936SOL    HW123444   4.045   2.567   2.920  2.6826  3.0187 -1.2357
 3936SOL    HW223445   3.988   2.578   3.064 -1.2492  0.6873  0.5663
 3937SOL     OW23446   0.208   1.645   9.283  0.5486  0.9125 -0.3636
 3937SOL    HW123447   0.208   1.567   9.339  1.2680  0.0812 -1.5264
 3937SOL    HW223448   0.114   1.664   9.290  0.8913  2.0306  1.2917
 3938SOL     OW23449   2.224   2.249   5.517 -0.5289 -0.1145 -0.3161
 3938SOL    HW123450   2.262   2.301   5.588  0.5735 -0.8945 -0.3396
 3938SOL    HW223451   2.216   2.159   5.550  2.7817  0.9847  3.5179
 3939SOL     OW23452   2.280   0.708  16.797  0.1815 -0.5585 -0.2090
 3939SOL    HW123453   2.265   0.618  16.771 -2.3019  0.3646 -1.9927
 3939SOL    HW223454   2.375   0.713  16.813 -0.0172 -0.1235  0.8993
 3940SOL     OW23455   3.340   4.200  11.918  0.9198 -0.0940 -0.0294
 3940SOL    HW123456   3.430   4.231  11.906 -0.0478  2.4111 -0.9076
 3940SOL    HW223457   3.330   4.222  12.010 -1.6919 -1.1654 -0.0698
 3941SOL     OW23458   2.968   0.301   6.980 -0.4160  0.0592 -0.9240
 3941SOL    HW123459   3.045   0.327   6.929  1.5448 -2.9160  0.5531
 3941SOL    HW223460   2.899   0.355   6.941 -1.7425  0.0803  1.4530
 3942SOL     OW23461   0.164   3.277   7.422 -1.1850  0.8440 -0.6087
 3942SOL    HW123462   0.126   3.192   7.399  2.6109 -1.1704  0.6029
 3942SOL    HW223463   0.197   3.311   7.339  1.4863  1.6332  0.8007
 3943SOL     OW23464   1.247   1.431   3.987 -0.0844  0.1127  0.1318
 3943SOL    HW123465   1.293   1.464   3.909 -3.5200 -0.4717 -2.1612
 3943SOL    HW223466   1.274   1.485   4.061 -0.3817  1.2959 -0.6288
 3944SOL     OW23467   2.785   4.653   9.323  0.5252 -0.2779 -0.1813
 3944SOL    HW123468   2.855   4.597   9.289  1.2217  1.3157 -1.3770
 3944SOL    HW223469   2.751   4.601   9.396  0.0229  0.1840 -0.0896
 3945SOL     OW23470   1.186   4.737   7.157  0.2178 -0.1469  0.3283
 3945SOL    HW123471   1.235   4.655   7.161 -0.6588 -0.7347 -1.1724
 3945SOL    HW223472   1.098   4.702   7.174  0.4555  0.0705  2.0926
 3946SOL     OW23473   2.171   2.417   2.519  0.0591  0.7741  0.0511
 3946SOL    HW123474   2.188   2.483   2.452  0.0169 -0.8877 -1.5876
 3946SOL    HW223475   2.115   2.471   2.574 -0.1010  0.2674  0.3838
 3947SOL     OW23476   0.609   2.215   8.523 -0.5210 -0.1946 -0.3299
 3947SOL    HW123477   0.525   2.259   8.507 -0.9297 -0.5729  0.8016
 3947SOL    HW223478   0.606   2.153   8.450  3.0029 -0.6104 -0.1001
 3948SOL     OW23479   1.978   2.248   5.355 -0.0258 -0.4377 -0.3958
 3948SOL    HW123480   1.973   2.329   5.406  2.3121 -0.9009  0.5725
 3948SOL    HW223481   2.070   2.224   5.364  0.0125  0.4533  1.7223
 3949SOL     OW23482   1.295   0.244   4.091  0.4378 -0.6663 -0.6709
 3949SOL    HW123483   1.366   0.258   4.155 -0.5030  0.2716  0.1663
 3949SOL    HW223484   1.339   0.189   4.027  0.4627 -0.6912 -0.6323
 3950SOL     OW23485   0.999   4.569   2.238  0.1469  0.2340 -0.5520
 3950SOL    HW123486   1.047   4.557   2.319 -1.0609  0.5026  0.1954
 3950SOL    HW223487   0.925   4.509   2.250  0.1366  0.3747  0.0611
 3951SOL     OW23488   3.128   1.617   6.531  0.3035  0.4076  0.0220
 3951SOL    HW123489   3.098   1.531   6.559 -0.8496  0.7888 -0.0459
 3951SOL    HW223490   3.194   1.635   6.598  1.3723 -1.4845 -0.5294
 3952SOL     OW23491   0.158   0.942   2.352 -0.2258 -0.0079 -0.0780
 3952SOL    HW123492   0.222   0.926   2.421 -1.4707 -0.9397  0.8694
 3952SOL    HW223493   0.139   0.849   2.339  0.4713 -0.4629  2.1295
 3953SOL     OW23494   2.150   1.482   2.172  0.0300  0.1221 -0.5552
 3953SOL    HW123495   2.107   1.507   2.090 -1.3245  2.6343  0.8823
 3953SOL    HW223496   2.164   1.570   2.208 -0.6255 -0.5677  1.3745
 3954SOL     OW23497   2.880   3.791  15.923 -0.0547  0.1527  0.4987
 3954SOL    HW123498   2.831   3.737  15.862  2.1704 -0.2283 -0.9708
 3954SOL    HW223499   2.949   3.725  15.931  0.5450  0.7850  0.6108
 3955SOL     OW23500   3.658   4.548   7.234 -0.3924  0.2008 -0.1362
 3955SOL    HW123501   3.592   4.603   7.277 -1.0381 -0.4680 -0.2740
 3955SOL    HW223502   3.603   4.490   7.181  3.1322 -3.0850 -0.2170
 3956SOL     OW23503   1.756   1.022  11.398  0.1821  0.5253  0.0563
 3956SOL    HW123504   1.693   1.094  11.396  1.5813  1.7507  1.1037
 3956SOL    HW223505   1.820   1.048  11.332  0.6701 -0.9563 -0.0567
 3957SOL     OW23506   3.987   2.374   4.440  0.3273  0.0866  0.6441
 3957SOL    HW123507   4.059   2.360   4.501  1.5099 -1.4831 -1.0988
 3957SOL    HW223508   3.920   2.406   4.501  0.7983 -1.6103  2.0606
 3958SOL     OW23509   2.836   3.196   0.541 -0.2022  0.2466 -0.1946
 3958SOL    HW123510   2.898   3.181   0.469  0.7232 -1.2306  0.9122
 3958SOL    HW223511   2.795   3.274   0.504  1.1975  0.2342 -1.7615
 3959SOL     OW23512   2.181   4.175   4.385  0.1991 -0.0890  0.0232
 3959SOL    HW123513   2.191   4.209   4.474 -1.3968 -1.3404  0.6881
 3959SOL    HW223514   2.130   4.095   4.400 -1.1946  1.3739  2.9765
 3960SOL     OW23515   1.659   2.667   5.068  0.2734 -0.1841 -0.0257
 3960SOL    HW123516   1.663   2.640   4.977  0.8641 -0.8928  0.2119
 3960SOL    HW223517   1.690   2.586   5.108 -0.6622  0.2788  1.6505
 3961SOL     OW23518   3.854   1.687   7.324 -0.0924  0.8292  0.1338
 3961SOL    HW123519   3.920   1.745   7.286  0.7116 -0.5700 -0.6198
 3961SOL    HW223520   3.907   1.652   7.395  0.4824  0.0123 -0.6891
 3962SOL     OW23521   4.544   2.747  17.639 -0.1199  0.0120 -0.1898
 3962SOL    HW123522   4.572   2.718  17.726  0.4536  0.8615 -0.0934
 3962SOL    HW223523   4.579   2.675  17.588  1.2767 -0.4514  1.4244
 3963SOL     OW23524   2.459   4.212   2.344 -0.6183  0.5960 -0.0269
 3963SOL    HW123525   2.478   4.137   2.288  1.2841  0.7191  0.4498
 3963SOL    HW223526   2.437   4.170   2.427  1.7802 -0.9205 -0.1531
 3964SOL     OW23527   1.697   0.859   5.325 -0.2003  0.1525 -0.2703
 3964SOL    HW123528   1.630   0.798   5.294  1.6552 -1.3134 -1.3665
 3964SOL    HW223529   1.659   0.946   5.310 -3.3310 -1.0247  0.8238
 3965SOL     OW23530   3.525   2.515  15.021  0.2901 -0.2108  0.1398
 3965SOL    HW123531   3.456   2.580  15.035  1.1010  0.5417  0.6713
 3965SOL    HW223532   3.476   2.438  14.993 -0.6605 -0.0024  1.2278
 3966SOL     OW23533   4.288   3.285   5.196 -0.6664 -0.1268 -0.0101
 3966SOL    HW123534   4.267   3.365   5.149 -1.3491 -0.5393 -0.4084
 3966SOL    HW223535   4.322   3.231   5.125 -1.5994 -0.1396 -0.4530
 3967SOL     OW23536   0.602   4.053   6.531  0.0013  0.1444  1.1927
 3967SOL    HW123537   0.649   3.980   6.571  1.7991  0.9967  0.6650
 3967SOL    HW223538   0.522   4.050   6.583  0.2915  1.8985  1.7491
 3968SOL     OW23539   1.090   1.089   8.406  0.2460  0.0897 -0.1984
 3968SOL    HW123540   1.038   1.010   8.424  0.4858 -0.6690 -2.8573
 3968SOL    HW223541   1.177   1.069   8.440  0.4000 -0.6574 -1.0156
 3969SOL     OW23542   3.495   0.367   9.624 -0.1934 -0.0486  0.5812
 3969SOL    HW123543   3.520   0.454   9.657 -0.2712 -0.6419  2.2107
 3969SOL    HW223544   3.450   0.345   9.706  0.0538 -1.3988  0.3502
 3970SOL     OW23545   2.165   2.113   1.812 -0.3638 -0.1015  0.0522
 3970SOL    HW123546   2.103   2.132   1.742  0.8604  0.9129 -0.7625
 3970SOL    HW223547   2.232   2.173   1.779  0.5126  0.2488  2.4837
 3971SOL     OW23548   2.906   3.060   7.914  0.2741  0.0969 -0.1635
 3971SOL    HW123549   2.997   3.037   7.933  0.3231  1.0345  0.7838
 3971SOL    HW223550   2.886   2.998   7.845 -0.7060  1.1157 -0.7942
 3972SOL     OW23551   4.094   3.904   4.550  0.4595 -0.4872 -0.4819
 3972SOL    HW123552   4.096   3.822   4.500  0.2392 -0.7379 -0.0787
 3972SOL    HW223553   4.137   3.977   4.505  1.5946 -2.3367 -2.3984
 3973SOL     OW23554   3.166   3.189   8.561 -0.0427  0.1071 -0.0361
 3973SOL    HW123555   3.136   3.268   8.607 -0.7828  0.1320 -0.5603
 3973SOL    HW223556   3.098   3.122   8.562  1.8741 -1.8410  0.3014
 3974SOL     OW23557   3.077   3.128  11.042  0.5750 -0.1999 -0.5008
 3974SOL    HW123558   3.006   3.099  11.099  3.1667 -0.2652  2.7027
 3974SOL    HW223559   3.153   3.131  11.101 -0.0485 -0.0290  0.2960
 3975SOL     OW23560   0.611   1.243   9.173 -0.4999 -0.5356 -0.5678
 3975SOL    HW123561   0.577   1.293   9.248  1.4700 -1.9387  1.2636
 3975SOL    HW223562   0.529   1.197   9.157 -0.6575 -0.8335  1.0683
 3976SOL     OW23563   4.166   1.418   1.185 -0.4327 -0.4919  0.0025
 3976SOL    HW123564   4.102   1.373   1.129 -0.4928 -1.1906  0.6246
 3976SOL    HW223565   4.144   1.505   1.151 -0.2209  0.4019  2.1781
 3977SOL     OW23566   2.014   1.237   0.053 -0.1772  0.3119  0.1393
 3977SOL    HW123567   2.078   1.249   0.123 -0.4607 -1.5206  0.6961
 3977SOL    HW223568   1.953   1.310   0.065  0.1597  0.8463 -1.3976
 3978SOL     OW23569   1.194   2.998   4.414  0.1653  0.0999  0.8815
 3978SOL    HW123570   1.238   3.002   4.329 -3.0096  0.7967 -0.7158
 3978SOL    HW223571   1.247   2.942   4.470 -0.0222  0.2440  1.2043
 3979SOL     OW23572   3.001   1.666   7.147  0.0411  0.2436 -0.2748
 3979SOL    HW123573   3.060   1.591   7.139 -0.5746 -0.4545  1.6622
 3979SOL    HW223574   3.017   1.717   7.068 -1.2918  0.1683 -0.5836
 3980SOL     OW23575   2.141   4.570  15.490 -0.0072 -0.3605 -0.3843
 3980SOL    HW123576   2.168   4.602  15.404  1.0340 -0.8371 -0.2301
 3980SOL    HW223577   2.232   4.550  15.512 -0.3097 -0.4326  0.7640
 3981SOL     OW23578   2.447   2.737   1.591  0.9445  0.0690  0.7035
 3981SOL    HW123579   2.405   2.817   1.560  1.2729 -0.2527 -0.5656
 3981SOL    HW223580   2.377   2.709   1.651  0.2325  2.5977  1.0659
 3982SOL     OW23581   1.029   2.120   5.817  0.3984 -0.6323 -0.0350
 3982SOL    HW123582   0.967   2.191   5.801  1.3239  0.2725  0.3718
 3982SOL    HW223583   1.102   2.169   5.779  0.3636  0.7002  1.6432
 3983SOL     OW23584   2.738   1.864   7.930  0.2499  0.4047 -0.0415
 3983SOL    HW123585   2.818   1.915   7.937  0.7987 -0.2470 -1.6474
 3983SOL    HW223586   2.712   1.853   8.022 -1.9007  1.6430 -0.4913
 3984SOL     OW23587   4.639   1.302   1.410 -0.5952 -0.6147 -0.0721
 3984SOL    HW123588   4.661   1.229   1.468 -1.2914  0.6478  1.7536
 3984SOL    HW223589   4.619   1.257   1.328  1.0158 -0.4795 -0.5281
 3985SOL     OW23590   0.436   4.666   5.211  0.0336  0.5811  0.4238
 3985SOL    HW123591   0.375   4.619   5.267  1.1969  0.0322  1.2269
 3985SOL    HW223592   0.375   4.711   5.152 -1.8279 -1.0108  1.1566
 3986SOL     OW23593   0.902   1.149   2.231 -0.0043  0.1529 -0.5315
 3986SOL    HW123594   0.918   1.182   2.143  0.4116 -1.0958 -0.9260
 3986SOL    HW223595   0.915   1.056   2.214 -1.2250 -0.3725  1.3989
 3987SOL     OW23596   0.077   0.333   8.839  0.0653  0.5507 -0.2544
 3987SOL    HW123597   0.140   0.399   8.811  1.0872 -0.0637  0.5995
 3987SOL    HW223598   0.035   0.316   8.754  0.1890 -0.3132 -0.1391
 3988SOL     OW23599   1.218   3.978  14.669 -0.2866 -0.5028  0.9167
 3988SOL    HW123600   1.238   3.918  14.741 -0.2239 -1.9419 -0.2827
 3988SOL    HW223601   1.246   3.929  14.591  1.0996  3.0466 -0.8359
 3989SOL     OW23602   0.279   3.747   4.870  0.0976 -0.0021  0.0208
 3989SOL    HW123603   0.233   3.674   4.828 -0.3438  0.0839  0.3553
 3989SOL    HW223604   0.366   3.744   4.830 -0.2129 -0.3427 -0.6364
 3990SOL     OW23605   3.428   2.033   7.532 -0.3350 -0.4398 -0.2423
 3990SOL    HW123606   3.457   2.049   7.442  0.0058  0.2570 -0.0159
 3990SOL    HW223607   3.493   2.080   7.585 -0.0764 -0.1702 -0.7952
 3991SOL     OW23608   3.149   0.372   6.488  0.1208 -0.1149 -0.2507
 3991SOL    HW123609   3.191   0.344   6.569 -0.0136  0.4720  0.0287
 3991SOL    HW223610   3.175   0.303   6.427  1.5890 -0.1535  0.4202
 3992SOL     OW23611   2.779   0.357   5.599  0.5320 -0.1118  0.1452
 3992SOL    HW123612   2.723   0.283   5.625 -0.0570  0.3410  0.1824
 3992SOL    HW223613   2.779   0.418   5.672  1.9420 -1.9371  1.6584
 3993SOL     OW23614   4.067   2.927   6.864  0.2924  0.4538  0.3924
 3993SOL    HW123615   4.160   2.949   6.869  0.1757  0.8711  0.6713
 3993SOL    HW223616   4.024   3.010   6.846 -1.1577  0.0861  2.1623
 3994SOL     OW23617   4.651   0.615  17.000 -0.9451  0.0939  0.3775
 3994SOL    HW123618   4.720   0.630  17.065 -1.0200 -1.5521  0.8356
 3994SOL    HW223619   4.710   0.621  16.925  0.0828  0.5569  1.2244
 3995SOL     OW23620   2.016   3.923  12.207 -0.3893  0.1915  0.4897
 3995SOL    HW123621   2.067   3.931  12.126 -0.0865 -1.7009  0.5046
 3995SOL    HW223622   1.931   3.893  12.178  0.9676 -4.3122  1.2248
 3996SOL     OW23623   0.908   4.708  14.906  0.4405  0.5849  0.3221
 3996SOL    HW123624   0.997   4.697  14.939 -0.3671 -2.1521  1.6105
 3996SOL    HW223625   0.857   4.646  14.958  0.9695 -0.5341 -0.4952
 3997SOL     OW23626   0.887   3.265   9.616 -0.3474 -0.5579  0.0092
 3997SOL    HW123627   0.803   3.297   9.585  0.9968  2.2966 -0.7158
 3997SOL    HW223628   0.877   3.170   9.616 -1.0852 -0.4752  0.6460
 3998SOL     OW23629   1.396   0.121   3.858  0.0692  0.5956 -0.3831
 3998SOL    HW123630   1.450   0.163   3.791  0.3615 -1.2460 -1.2699
 3998SOL    HW223631   1.373   0.040   3.813  0.8959  1.3261 -2.1410
 3999SOL     OW23632   1.556   3.993  17.144  0.1200 -0.1691  0.2824
 3999SOL    HW123633   1.578   3.960  17.056 -0.1709 -0.9777  0.5145
 3999SOL    HW223634   1.535   4.084  17.126 -1.3183 -0.6482 -0.4980
 4000SOL     OW23635   4.669   4.679  15.783  0.5361 -0.8439 -0.4856
 4000SOL    HW123636   4.699   4.630  15.707  1.3005 -3.8913  1.7996
 4000SOL    HW223637   0.012   4.723  15.807 -0.7675  0.5229  1.4130
 4001SOL     OW23638   0.789   4.070   7.002  0.1046  0.0716 -0.0069
 4001SOL    HW123639   0.776   3.999   6.939  0.4407 -0.4441  0.5074
 4001SOL    HW223640   0.716   4.058   7.063 -1.5347 -0.7820 -2.1467
 4002SOL     OW23641   4.648   4.695   9.514  0.4218 -0.4184 -0.3822
 4002SOL    HW123642   4.669   4.685   9.607  0.4623  0.9218 -0.2492
 4002SOL    HW223643   4.568   0.008   9.517 -0.7164 -2.0374 -3.3925
 4003SOL     OW23644   2.362   2.727  14.268  0.4694  0.4133 -0.1244
 4003SOL    HW123645   2.361   2.766  14.355 -1.5292  1.2625 -0.5185
 4003SOL    HW223646   2.287   2.775  14.233  0.3784  1.7437  1.9159
 4004SOL     OW23647   1.219   0.768   6.352 -0.0544  0.1738  0.1621
 4004SOL    HW123648   1.236   0.681   6.317 -0.0925 -0.6054  2.1162
 4004SOL    HW223649   1.307   0.803   6.367 -0.3591  1.5700 -1.2195
 4005SOL     OW23650   2.302   4.579   8.994  0.4175  0.2467  0.0084
 4005SOL    HW123651   2.218   4.576   9.041 -0.0990 -1.5543 -1.0495
 4005SOL    HW223652   2.352   4.502   9.018 -0.0634  0.3295  1.2633
 4006SOL     OW23653   1.773   3.210   8.765 -0.0853 -0.0646  0.3626
 4006SOL    HW123654   1.696   3.159   8.740  1.3785 -0.3963 -3.4733
 4006SOL    HW223655   1.761   3.293   8.720 -0.5086  0.9255  2.3260
 4007SOL     OW23656   3.126   3.769  10.472 -0.8760  0.1285  0.4579
 4007SOL    HW123657   3.058   3.756  10.539  1.0387 -1.1812  2.1721
 4007SOL    HW223658   3.136   3.676  10.451  0.4277  0.2073  0.7120
 4008SOL     OW23659   1.064   0.220  14.154  0.0294 -0.4520  0.1989
 4008SOL    HW123660   1.145   0.241  14.108 -1.3006  1.7289 -1.1424
 4008SOL    HW223661   1.046   0.298  14.205 -2.3772 -0.2850 -0.8809
 4009SOL     OW23662   2.627   4.250   9.947 -0.6672 -0.2823 -0.2313
 4009SOL    HW123663   2.548   4.236   9.895 -0.3174 -0.3968 -0.7339
 4009SOL    HW223664   2.690   4.297   9.893  0.5385  2.0380  3.2002
 4010SOL     OW23665   3.943   3.315   5.333  0.2749  0.1584  0.2181
 4010SOL    HW123666   4.024   3.264   5.339  0.3732  0.4806  1.6303
 4010SOL    HW223667   3.933   3.358   5.418 -1.1141  0.0867  0.0951
 4011SOL     OW23668   0.929   4.103   2.635 -0.6188  0.3119 -0.7280
 4011SOL    HW123669   0.853   4.046   2.621 -0.6243  0.6805 -2.1290
 4011SOL    HW223670   0.913   4.135   2.724  0.5580 -3.4036  0.8224
 4012SOL     OW23671   0.892   3.363  10.179 -0.0563 -0.4077  0.5648
 4012SOL    HW123672   0.823   3.323  10.126 -0.4402  2.3268 -1.0062
 4012SOL    HW223673   0.912   3.291  10.239  0.6909  1.6098  2.7548
 4013SOL     OW23674   3.924   2.369   1.861 -0.1820  0.1995  0.6057
 4013SOL    HW123675   3.832   2.359   1.886 -0.1549  1.5441  1.2345
 4013SOL    HW223676   3.916   2.463   1.842 -0.2113 -0.3482 -2.0928
 4014SOL     OW23677   2.300   2.601   7.961  0.0348  0.0143  0.3511
 4014SOL    HW123678   2.220   2.644   7.929  0.3865  1.4133  1.3576
 4014SOL    HW223679   2.363   2.666   7.930  0.3685  0.4404  1.9280
 4015SOL     OW23680   1.053   2.334   5.148 -0.2181 -0.3544  0.3898
 4015SOL    HW123681   1.070   2.242   5.170 -0.5042 -0.7127 -0.8759
 4015SOL    HW223682   1.087   2.372   5.229 -0.0217  1.3606 -0.5028
 4016SOL     OW23683   2.679   1.572   0.517  0.5691 -0.2242 -0.3021
 4016SOL    HW123684   2.659   1.493   0.468 -0.4834  0.2312 -0.6087
 4016SOL    HW223685   2.759   1.593   0.468 -0.0286 -2.2174 -2.0972
 4017SOL     OW23686   2.935   1.645   1.914  0.0495  0.7353 -0.4119
 4017SOL    HW123687   2.948   1.690   1.997 -1.2258 -1.7383  1.1231
 4017SOL    HW223688   2.986   1.564   1.920 -0.0475  0.5371 -2.2104
 4018SOL     OW23689   2.085   4.680   7.665  0.6492 -0.0066 -0.2575
 4018SOL    HW123690   2.050   4.730   7.592 -1.9952 -1.7237 -0.1809
 4018SOL    HW223691   2.001   4.681   7.711  0.4369 -1.8011 -0.5976
 4019SOL     OW23692   1.169   0.692   7.957 -0.0543  0.1316  0.0114
 4019SOL    HW123693   1.157   0.622   8.021  3.9828  0.7764  1.4116
 4019SOL    HW223694   1.139   0.651   7.875  0.3834  2.5455 -1.3362
 4020SOL     OW23695   4.731   0.909  10.902 -0.3051  0.3779  0.3339
 4020SOL    HW123696   4.711   0.828  10.855  2.7394 -1.3513  2.0319
 4020SOL    HW223697   4.719   0.879  10.992 -1.3846  2.6238  0.9330
 4021SOL     OW23698   2.412   2.170  10.674 -0.0579  0.0748 -0.2906
 4021SOL    HW123699   2.417   2.264  10.692 -2.8467  0.3779 -1.1072
 4021SOL    HW223700   2.344   2.139  10.734  1.1896  1.8968  2.1262
 4022SOL     OW23701   2.238   1.309  15.086 -0.4738 -0.0287 -0.2989
 4022SOL    HW123702   2.249   1.214  15.096  1.0683 -0.0422 -2.1708
 4022SOL    HW223703   2.158   1.309  15.140 -0.6038  1.9362 -0.4992
 4023SOL     OW23704   3.661   2.754   5.213  0.2728  0.6660  0.1112
 4023SOL    HW123705   3.669   2.716   5.125  1.4944  0.5970  0.2491
 4023SOL    HW223706   3.738   2.714   5.253  1.1463 -0.1111 -2.3687
 4024SOL     OW23707   0.674   2.718  13.041  0.0246 -0.2486 -0.2106
 4024SOL    HW123708   0.724   2.644  13.075 -0.9291 -0.2733  1.1361
 4024SOL    HW223709   0.675   2.691  12.949  1.1121  0.3018 -0.3575
 4025SOL     OW23710   2.504   4.003   8.587 -0.1083  0.3055 -0.1909
 4025SOL    HW123711   2.476   4.027   8.675 -0.2063 -0.4825 -0.0015
 4025SOL    HW223712   2.520   4.088   8.546 -0.7659 -0.0915 -1.2569
 4026SOL     OW23713   2.586   1.705   9.270 -0.2119 -0.4495 -0.0760
 4026SOL    HW123714   2.552   1.675   9.186 -0.9222 -0.9865  0.4022
 4026SOL    HW223715   2.506   1.733   9.314 -0.9894 -1.9516 -0.5600
 4027SOL     OW23716   4.519   1.281  12.372  0.3982  0.0006 -0.4932
 4027SOL    HW123717   4.609   1.299  12.346  0.3295 -0.9096 -1.3701
 4027SOL    HW223718   4.506   1.361  12.423 -1.4114 -1.6352  1.6790
 4028SOL     OW23719   2.569   0.227   1.553 -0.2684  0.1897 -0.2111
 4028SOL    HW123720   2.586   0.169   1.479  0.9343  0.0244  0.1893
 4028SOL    HW223721   2.563   0.303   1.494 -1.7344  0.1920 -0.0431
 4029SOL     OW23722   2.176   3.314   9.976  0.0941  0.3887  0.1598
 4029SOL    HW123723   2.222   3.277   9.901 -0.2619 -0.3408  0.2985
 4029SOL    HW223724   2.098   3.258   9.977 -0.4073  1.0453 -1.5497
 4030SOL     OW23725   2.842   1.568   2.740  0.2879  0.0850  0.0006
 4030SOL    HW123726   2.820   1.637   2.678 -2.4555 -1.9731 -1.3277
 4030SOL    HW223727   2.834   1.619   2.821  2.2223 -2.4220  1.7653
 4031SOL     OW23728   0.252   0.848   1.840  0.4009 -0.9815  0.1900
 4031SOL    HW123729   0.306   0.916   1.880 -0.2604  0.5653 -1.5810
 4031SOL    HW223730   0.213   0.810   1.919 -0.5536 -0.7634 -0.1784
 4032SOL     OW23731   4.721   1.807   7.978 -0.1395  0.0110 -0.0720
 4032SOL    HW123732   0.037   1.799   8.056 -0.7558 -0.7116  0.2846
 4032SOL    HW223733   4.650   1.864   8.008  1.2695  0.5106  2.2593
 4033SOL     OW23734   3.669   2.691   4.938  0.2291  0.1223  0.3059
 4033SOL    HW123735   3.706   2.736   4.861 -1.5902  0.2893 -0.4766
 4033SOL    HW223736   3.615   2.620   4.904  0.3919 -0.0122  0.3275
 4034SOL     OW23737   2.384   0.233   6.259 -0.0231 -0.0246 -0.2901
 4034SOL    HW123738   2.406   0.318   6.221 -1.2056  0.4681  0.1208
 4034SOL    HW223739   2.297   0.255   6.291  1.1872  3.6887  0.4874
 4035SOL     OW23740   1.035   4.462   6.350  0.2920  0.0585 -0.2431
 4035SOL    HW123741   1.018   4.531   6.286 -1.4444  0.1019  0.2748
 4035SOL    HW223742   1.129   4.455   6.336  0.4223  2.1163 -0.3095
 4036SOL     OW23743   3.050   3.302   4.811 -0.0649 -0.3780 -0.6677
 4036SOL    HW123744   3.007   3.227   4.851  1.1130 -0.8309 -0.2230
 4036SOL    HW223745   3.114   3.319   4.880 -1.0146  0.1191  0.0840
 4037SOL     OW23746   2.094   4.345  14.734  0.0822  0.2580 -0.3720
 4037SOL    HW123747   2.090   4.306  14.647  1.0308 -0.5133 -0.0680
 4037SOL    HW223748   2.127   4.279  14.795  1.0141 -0.3157 -1.5031
 4038SOL     OW23749   2.074   2.163   4.179 -0.2885 -0.1003  0.1197
 4038SOL    HW123750   2.119   2.127   4.102 -1.7057 -0.3720 -0.5845
 4038SOL    HW223751   2.018   2.234   4.148 -1.2174 -0.8354  0.1088
 4039SOL     OW23752   1.852   4.622   7.799  0.1569 -0.3610  0.1553
 4039SOL    HW123753   1.871   4.550   7.858  1.4058  0.1425  0.3832
 4039SOL    HW223754   1.842   4.693   7.863  1.7502  0.9963 -1.0858
 4040SOL     OW23755   2.301   0.599  12.621 -0.3123 -0.1589 -0.4049
 4040SOL    HW123756   2.325   0.616  12.712 -1.9540 -0.5400  0.0940
 4040SOL    HW223757   2.260   0.513  12.633  0.6381 -0.4531  0.7324
 4041SOL     OW23758   0.347   2.521   1.573 -0.4752  0.2223 -0.0891
 4041SOL    HW123759   0.406   2.574   1.520  0.9911 -0.0372  1.2687
 4041SOL    HW223760   0.274   2.584   1.576 -2.0245 -1.5800  0.1338
 4042SOL     OW23761   1.907   4.023   6.180 -0.3252 -0.6235  0.1495
 4042SOL    HW123762   1.822   4.021   6.136  0.8441  0.0660 -2.1746
 4042SOL    HW223763   1.893   4.088   6.248 -0.0938 -0.1914 -0.2140
 4043SOL     OW23764   0.211   3.532  10.633 -0.3251 -0.1486  0.2062
 4043SOL    HW123765   0.257   3.616  10.634 -0.8981  0.1777 -0.5309
 4043SOL    HW223766   0.281   3.469  10.649 -1.3110 -2.0388 -2.9185
 4044SOL     OW23767   2.103   3.651   8.168  0.1122  0.6165  0.1662
 4044SOL    HW123768   2.047   3.666   8.092 -0.8439 -1.2034  0.5319
 4044SOL    HW223769   2.067   3.725   8.217 -1.1679 -0.5365  0.9439
 4045SOL     OW23770   0.192   2.130   5.889  0.0217  0.5542  0.2495
 4045SOL    HW123771   0.258   2.197   5.909  3.9505 -3.1202 -0.4730
 4045SOL    HW223772   0.193   2.126   5.793 -0.5525 -1.2161  0.3114
 4046SOL     OW23773   1.602   4.192   1.962 -0.4114  0.1688  0.4583
 4046SOL    HW123774   1.525   4.164   1.912 -0.0607 -0.4097  0.2475
 4046SOL    HW223775   1.651   4.110   1.967 -1.7173 -0.5866  0.9822
 4047SOL     OW23776   2.416   2.190   2.884  0.6300  0.6828 -0.8609
 4047SOL    HW123777   2.420   2.283   2.862 -1.9433  1.3324  1.4825
 4047SOL    HW223778   2.511   2.178   2.891  0.5419 -0.2225 -1.2526
 4048SOL     OW23779   2.538   0.588   1.133  0.1636 -0.1801 -0.5427
 4048SOL    HW123780   2.472   0.635   1.082  0.0733  0.6764  0.3614
 4048SOL    HW223781   2.614   0.609   1.079  0.6934  0.1429  0.3247
 4049SOL     OW23782   1.696   2.670   6.269 -0.5212  0.3796  0.3152
 4049SOL    HW123783   1.639   2.735   6.228 -0.0149 -0.8269 -2.3058
 4049SOL    HW223784   1.670   2.589   6.225 -0.1841  0.6572 -0.4124
 4050SOL     OW23785   3.852   0.024  12.323  0.8070  0.0404  0.5666
 4050SOL    HW123786   3.877   0.039  12.414 -0.9313 -2.0729  1.3967
 4050SOL    HW223787   3.762   0.058  12.321  0.6229 -0.5124 -1.6336
 4051SOL     OW23788   4.106   0.946  17.281  0.6672  0.1243  0.3212
 4051SOL    HW123789   4.030   0.915  17.330 -2.5727  4.7074 -1.7465
 4051SOL    HW223790   4.173   0.902  17.334 -0.1705  2.2864  3.1339
 4052SOL     OW23791   4.370   2.305   5.330  0.0872 -0.4915  0.6215
 4052SOL    HW123792   4.399   2.217   5.353 -2.6985 -1.5012  0.1572
 4052SOL    HW223793   4.413   2.315   5.245  0.2467  1.6803  0.9449
 4053SOL     OW23794   0.914   2.794   5.228  0.5371 -0.0759  0.2821
 4053SOL    HW123795   1.006   2.822   5.224  0.9059 -1.3208 -0.0207
 4053SOL    HW223796   0.912   2.751   5.142 -0.5594  1.5411 -0.4918
 4054SOL     OW23797   1.831   0.741   9.211 -0.5367 -0.1834 -0.2532
 4054SOL    HW123798   1.821   0.673   9.144 -0.5772  0.4191 -0.8614
 4054SOL    HW223799   1.926   0.740   9.218 -0.4044 -0.2020 -2.0048
 4055SOL     OW23800   0.649   2.368   6.390  0.5844  0.7404 -0.3975
 4055SOL    HW123801   0.643   2.368   6.294 -2.6846 -1.4098 -0.1955
 4055SOL    HW223802   0.690   2.453   6.405  2.0559  0.2575 -1.6664
 4056SOL     OW23803   3.834   2.190   3.812 -0.5495  0.2290  1.3516
 4056SOL    HW123804   3.794   2.225   3.892  1.2689 -0.0165  2.3691
 4056SOL    HW223805   3.798   2.102   3.811  1.6668 -0.6568  0.0168
 4057SOL     OW23806   1.430   1.571   6.924  0.2254 -0.1836 -0.0107
 4057SOL    HW123807   1.380   1.505   6.972 -2.6614  2.2175  0.3163
 4057SOL    HW223808   1.360   1.628   6.891 -1.3567 -2.4803 -0.6428
 4058SOL     OW23809   4.232   0.418   6.560 -0.0332  0.0697 -0.2217
 4058SOL    HW123810   4.274   0.483   6.504 -1.2693  0.6849 -0.4387
 4058SOL    HW223811   4.197   0.358   6.494 -0.4595 -0.1679  0.2227
 4059SOL     OW23812   3.735   4.528   8.001  0.2161 -0.0843  0.5001
 4059SOL    HW123813   3.748   4.512   8.094 -1.2881 -0.9404  0.5758
 4059SOL    HW223814   3.650   4.488   7.983 -1.6765  2.4648  3.5619
 4060SOL     OW23815   0.686   0.725   6.394 -0.0962 -0.6249  0.1839
 4060SOL    HW123816   0.678   0.687   6.481 -0.9805 -0.3746  0.2187
 4060SOL    HW223817   0.771   0.693   6.365  0.6122 -1.0786  2.7834
 4061SOL     OW23818   1.496   3.426  16.825  0.3677 -0.0934 -0.1567
 4061SOL    HW123819   1.526   3.335  16.827  1.3493  0.2242 -0.2665
 4061SOL    HW223820   1.560   3.481  16.780  1.2111 -0.3616  0.7065
 4062SOL     OW23821   0.871   1.519   7.674 -0.3927 -0.0112  0.3645
 4062SOL    HW123822   0.914   1.597   7.638 -0.7292  0.8854  1.8808
 4062SOL    HW223823   0.927   1.449   7.641  0.5855  0.8402  0.2038
 4063SOL     OW23824   0.285   2.059  14.659 -0.5788 -0.5355 -0.3694
 4063SOL    HW123825   0.346   2.104  14.717 -0.9818 -1.4867  0.7943
 4063SOL    HW223826   0.292   1.969  14.692  0.6901 -0.8588 -1.5538
 4064SOL     OW23827   4.370   0.634  17.716  0.0055  0.0180  0.2934
 4064SOL    HW123828   4.382   0.624   0.060 -0.0981  0.3653  0.3438
 4064SOL    HW223829   4.457   0.603  17.689 -0.1600 -0.0700 -0.1410
 4065SOL     OW23830   0.762   3.684   0.265 -0.6725  0.0902 -0.0710
 4065SOL    HW123831   0.804   3.754   0.315  0.2207 -0.8946  0.5281
 4065SOL    HW223832   0.669   3.691   0.289  0.4404  0.1798  4.1051
 4066SOL     OW23833   2.112   2.819   2.042 -0.5709 -0.3296  0.2750
 4066SOL    HW123834   2.084   2.777   2.124  1.1792 -0.0531  1.0087
 4066SOL    HW223835   2.196   2.861   2.063 -0.8355  0.9468 -1.2163
 4067SOL     OW23836   4.277   2.664   3.047 -0.6766 -0.0177 -0.8638
 4067SOL    HW123837   4.188   2.689   3.022 -0.9189  1.0801  1.0082
 4067SOL    HW223838   4.328   2.725   2.993 -0.2582  1.0616  0.7323
 4068SOL     OW23839   0.458   2.040   7.527  0.1561  0.1537 -0.1120
 4068SOL    HW123840   0.471   2.102   7.598 -0.5820 -0.4206  0.5289
 4068SOL    HW223841   0.525   2.080   7.472 -1.7377  1.2834 -1.6020
 4069SOL     OW23842   2.904   1.568  14.313  0.1659  0.7375 -0.0799
 4069SOL    HW123843   2.810   1.576  14.303 -0.0107 -0.6422  0.5105
 4069SOL    HW223844   2.925   1.661  14.324  1.6408  0.2609  1.1843
 4070SOL     OW23845   2.259   0.833   7.134 -0.3238 -0.0748  0.4563
 4070SOL    HW123846   2.332   0.776   7.110 -1.4973 -1.3470 -0.1033
 4070SOL    HW223847   2.295   0.856   7.220  1.0058  2.8481 -0.8951
 4071SOL     OW23848   4.725   1.113   6.501  0.0049  0.3599 -0.0238
 4071SOL    HW123849   0.073   1.146   6.475  1.0577 -2.0433  0.4150
 4071SOL    HW223850   4.683   1.197   6.521 -0.4800  0.5055 -1.6116
 4072SOL     OW23851   4.545   0.852   7.607  0.2610  0.2546  0.3783
 4072SOL    HW123852   4.489   0.786   7.565  2.0689  0.0551 -1.7228
 4072SOL    HW223853   4.566   0.800   7.684  2.3461  0.3675 -0.1337
 4073SOL     OW23854   0.683   3.481   5.825  0.1131 -0.3387  0.4560
 4073SOL    HW123855   0.612   3.416   5.824  2.2226 -2.5956 -1.1399
 4073SOL    HW223856   0.638   3.546   5.880 -0.9014 -1.5966  1.1080
 4074SOL     OW23857   0.841   0.282  14.929  0.6730  0.6798  0.0338
 4074SOL    HW123858   0.868   0.190  14.930  1.1996  0.8616  1.7043
 4074SOL    HW223859   0.922   0.318  14.964  0.4664  0.7553  0.4317
 4075SOL     OW23860   3.042   0.627   7.201 -0.0098  0.1392 -0.1942
 4075SOL    HW123861   2.971   0.566   7.222 -2.2172  1.5744 -3.3643
 4075SOL    HW223862   3.112   0.563   7.193 -0.0014 -0.0267  1.2727
 4076SOL     OW23863   3.077   1.576   1.679 -0.3278  0.2550  0.1518
 4076SOL    HW123864   3.026   1.633   1.737  1.2888 -0.2772  2.0858
 4076SOL    HW223865   3.156   1.558   1.730 -0.7936  0.3801  0.9177
 4077SOL     OW23866   1.649   1.741   5.025 -0.2002 -0.8028  0.4392
 4077SOL    HW123867   1.700   1.782   5.094  0.9663  1.5932 -1.8318
 4077SOL    HW223868   1.694   1.771   4.946  2.7953 -1.4930  1.9065
 4078SOL     OW23869   2.508   0.597   4.186  0.1728 -0.1502 -0.5765
 4078SOL    HW123870   2.601   0.621   4.187  0.0116  0.5755 -2.1221
 4078SOL    HW223871   2.479   0.684   4.160  0.0562 -0.6190 -2.0694
 4079SOL     OW23872   1.338   0.608  13.973  0.4439 -0.2478  0.0317
 4079SOL    HW123873   1.362   0.673  14.039 -1.0089  1.3403 -1.0142
 4079SOL    HW223874   1.380   0.537  14.021  1.3556 -0.4665 -1.0943
 4080SOL     OW23875   2.008   0.316   2.859  0.3952 -0.3111  0.3811
 4080SOL    HW123876   1.961   0.400   2.861  1.1980  0.1603 -1.1047
 4080SOL    HW223877   1.950   0.267   2.801 -0.7753  1.6940 -0.1466
 4081SOL     OW23878   0.192   1.061   4.756  0.0339 -0.0722 -0.1102
 4081SOL    HW123879   0.132   1.022   4.692 -1.1114 -1.1317  1.6014
 4081SOL    HW223880   0.157   1.025   4.838 -0.1848  1.1189  0.3180
 4082SOL     OW23881   0.229   3.426  17.507 -0.3497 -0.1663  0.5752
 4082SOL    HW123882   0.179   3.350  17.539 -0.2621  0.1580  1.4944
 4082SOL    HW223883   0.200   3.426  17.416 -0.3471  0.7620  0.5797
 4083SOL     OW23884   4.034   1.399   3.425  0.1287 -0.1994 -0.0023
 4083SOL    HW123885   4.015   1.326   3.483  0.1631 -0.0252  0.2273
 4083SOL    HW223886   4.128   1.393   3.413 -0.0759 -0.1029 -1.6200
 4084SOL     OW23887   3.353   0.418  13.671 -0.5827 -0.4014  0.5492
 4084SOL    HW123888   3.349   0.502  13.717  0.2525  0.5088 -1.0267
 4084SOL    HW223889   3.260   0.397  13.667 -0.1756 -1.9285 -0.7560
 4085SOL     OW23890   0.869   4.035   3.770  0.1785  0.8751  0.2613
 4085SOL    HW123891   0.780   4.010   3.743  0.5289  0.5643 -0.6113
 4085SOL    HW223892   0.851   4.066   3.858  1.8443 -1.8159  1.5346
 4086SOL     OW23893   4.623   1.263   6.883  0.0080  0.1061  0.2030
 4086SOL    HW123894   4.532   1.244   6.907 -0.1487  1.5294  0.7070
 4086SOL    HW223895   4.616   1.282   6.789 -0.6580  0.5463  0.3445
 4087SOL     OW23896   4.036   2.716   4.724 -0.1146 -0.1600  0.2608
 4087SOL    HW123897   3.948   2.747   4.744 -0.9581 -0.5270 -2.8275
 4087SOL    HW223898   4.055   2.765   4.643 -2.2160 -1.5245 -1.0499
 4088SOL     OW23899   0.425   4.156  15.736 -0.5918 -0.7250  0.3016
 4088SOL    HW123900   0.520   4.166  15.728 -1.1744  2.7833 -2.2257
 4088SOL    HW223901   0.394   4.244  15.714 -0.4495 -0.9178 -0.6418
 4089SOL     OW23902   3.698   1.628   2.634  0.2959 -0.0458  0.3599
 4089SOL    HW123903   3.710   1.689   2.708  0.8024 -1.7920  1.7185
 4089SOL    HW223904   3.618   1.586   2.666  0.6815 -1.8102 -0.9671
 4090SOL     OW23905   3.639   4.732   9.350  0.1111 -0.6363 -0.1625
 4090SOL    HW123906   3.610   4.681   9.426  2.9349 -1.8685  0.0689
 4090SOL    HW223907   3.729   4.702   9.357 -0.1493 -1.7462 -1.5200
 4091SOL     OW23908   3.922   3.271   2.625 -0.1156 -0.2287 -0.6329
 4091SOL    HW123909   3.992   3.297   2.564 -0.9943  0.0615 -1.5198
 4091SOL    HW223910   3.972   3.250   2.704 -0.1448 -1.8696 -1.0484
 4092SOL     OW23911   3.440   4.594   8.621  0.2415  0.5317  0.0591
 4092SOL    HW123912   3.406   4.682   8.638  0.6827  1.3180 -3.1238
 4092SOL    HW223913   3.523   4.600   8.669  0.7362  1.7724 -0.9518
 4093SOL     OW23914   0.827   4.231  13.305  0.8711  0.2773  0.2597
 4093SOL    HW123915   0.828   4.325  13.320  0.6821  0.2310  0.5707
 4093SOL    HW223916   0.786   4.200  13.386 -0.2422 -0.4244 -0.5795
 4094SOL     OW23917   0.226   2.523   0.034 -0.0020  0.2555  0.3875
 4094SOL    HW123918   0.286   2.455   0.065  1.0765  1.3051  0.6348
 4094SOL    HW223919   0.261   2.605   0.069 -0.0782  0.4648 -0.0337
 4095SOL     OW23920   1.985   4.161   2.563  0.0828  0.0186  0.4618
 4095SOL    HW123921   2.054   4.223   2.538  0.1028 -0.6382 -1.1281
 4095SOL    HW223922   1.918   4.228   2.561 -0.8188 -0.8659  0.9677
 4096SOL     OW23923   4.070   1.515   6.913  0.5165  0.3963  0.1050
 4096SOL    HW123924   4.011   1.589   6.904  1.2683  0.9652 -0.1957
 4096SOL    HW223925   4.005   1.445   6.916  0.8605  0.0824  0.2158
 4097SOL     OW23926   1.229   3.228   3.733  0.2134 -0.1356 -0.2622
 4097SOL    HW123927   1.253   3.277   3.811  1.0610 -3.0536  1.2939
 4097SOL    HW223928   1.304   3.169   3.733 -1.5622 -2.3992  0.1450
 4098SOL     OW23929   0.576   3.783   3.366  0.1610  0.0285 -0.7540
 4098SOL    HW123930   0.607   3.872   3.383  1.5171 -0.6405  0.3365
 4098SOL    HW223931   0.644   3.763   3.302  0.3365  0.1739 -0.6154
 4099SOL     OW23932   1.458   0.280   5.824 -0.0789 -0.7540  0.5438
 4099SOL    HW123933   1.367   0.251   5.815 -0.1107  0.1456 -2.0651
 4099SOL    HW223934   1.492   0.244   5.906 -1.0358 -0.0854  1.2338
 4100SOL     OW23935   4.621   3.994  13.047  0.0418 -0.0410  0.2122
 4100SOL    HW123936   4.711   3.973  13.072  0.1383  0.8682  0.6249
 4100SOL    HW223937   4.599   3.915  12.999  0.2595  1.9357 -3.1718
 4101SOL     OW23938   3.020   2.229   5.742  0.7557 -0.1396  0.2380
 4101SOL    HW123939   3.006   2.279   5.822 -1.1376  1.0338 -0.8159
 4101SOL    HW223940   3.050   2.145   5.776 -1.6052 -1.5328 -1.1121
 4102SOL     OW23941   2.138   3.573   2.135  0.3580  0.8670  0.1826
 4102SOL    HW123942   2.063   3.620   2.173 -0.5762 -0.2449 -0.2767
 4102SOL    HW223943   2.176   3.649   2.090  2.7859  0.5540  1.7361
 4103SOL     OW23944   4.686   4.502  12.949  0.0353  0.7139  0.0280
 4103SOL    HW123945   0.043   4.513  12.940  0.3112 -2.8030 -1.3113
 4103SOL    HW223946   4.659   4.589  12.921 -2.1371  0.6346  1.9582
 4104SOL     OW23947   2.432   2.043   4.179  0.0388 -0.1314  0.2097
 4104SOL    HW123948   2.477   2.094   4.112  0.2580 -1.3330 -0.5642
 4104SOL    HW223949   2.480   1.961   4.190 -2.0045 -1.3711 -0.2052
 4105SOL     OW23950   0.776   0.645   3.608 -0.1273  1.0199  0.4044
 4105SOL    HW123951   0.793   0.674   3.698  0.8659  3.4194 -0.5467
 4105SOL    HW223952   0.799   0.552   3.609 -0.2244  0.9905 -0.8401
 4106SOL     OW23953   2.446   4.334   8.949 -0.3848  0.0174  0.1281
 4106SOL    HW123954   2.537   4.326   8.922 -0.4085  0.1438  0.0059
 4106SOL    HW223955   2.442   4.283   9.030 -3.0158  1.4843  0.9395
 4107SOL     OW23956   2.865   1.255   7.061 -0.0971 -0.0131  0.0850
 4107SOL    HW123957   2.798   1.289   7.121  2.1414  2.4188  1.1958
 4107SOL    HW223958   2.946   1.280   7.104 -0.7160  2.1672 -0.0328
 4108SOL     OW23959   1.440   0.740   5.306 -0.2619  0.0747  0.1417
 4108SOL    HW123960   1.380   0.801   5.263 -0.2153  1.3082  1.7983
 4108SOL    HW223961   1.374   0.678   5.339 -2.6830  1.2305 -2.5605
 4109SOL     OW23962   2.803   1.095   1.616  0.7702  0.3794  0.2278
 4109SOL    HW123963   2.855   1.169   1.583  3.0161 -1.9651 -1.4659
 4109SOL    HW223964   2.873   1.034   1.637  2.6184  2.3991  0.0042
 4110SOL     OW23965   1.804   3.263   3.042  0.2733  0.2960 -0.3157
 4110SOL    HW123966   1.900   3.265   3.040  0.3584 -0.1498  3.4634
 4110SOL    HW223967   1.787   3.340   3.096  1.5859 -0.7334  1.5742
 4111SOL     OW23968   3.902   3.058   4.817  0.2507  0.0871 -0.3913
 4111SOL    HW123969   3.856   3.141   4.830  0.7388  0.4471 -0.9340
 4111SOL    HW223970   3.885   3.040   4.909  1.4842  0.2938 -0.1193
 4112SOL     OW23971   1.776   3.553   4.652 -0.4664  0.1096 -0.2313
 4112SOL    HW123972   1.698   3.498   4.661  1.0599 -1.8501  0.9837
 4112SOL    HW223973   1.803   3.532   4.562  0.6623  1.1034 -0.1222
 4113SOL     OW23974   0.829   3.995   2.134 -0.0224  0.6283  0.4329
 4113SOL    HW123975   0.745   3.952   2.150 -0.0254  0.7991  0.8702
 4113SOL    HW223976   0.809   3.995   2.041 -0.5993  1.1072  0.5588
 4114SOL     OW23977   0.266   0.561   4.142 -0.2273 -0.0997 -0.0963
 4114SOL    HW123978   0.311   0.506   4.206 -2.0475 -0.6972  0.6468
 4114SOL    HW223979   0.185   0.588   4.185 -0.7916  0.6300 -1.5977
 4115SOL     OW23980   2.505   1.819   4.864  0.3668  0.0472 -0.3149
 4115SOL    HW123981   2.411   1.826   4.883  0.7609  2.1497  0.8470
 4115SOL    HW223982   2.519   1.725   4.878 -2.4545 -0.2492  0.5270
 4116SOL     OW23983   0.193   3.609   8.149 -0.0336  0.5063 -0.1364
 4116SOL    HW123984   0.123   3.550   8.176 -0.9818  1.8964  0.4020
 4116SOL    HW223985   0.243   3.551   8.091 -1.7580 -0.3877 -0.7194
 4117SOL     OW23986   0.021   2.158  11.955 -0.3622 -0.1419 -0.2261
 4117SOL    HW123987   0.105   2.202  11.954 -0.6738  0.4348 -0.8892
 4117SOL    HW223988   4.724   2.155  11.866 -2.2881  1.3142  0.4878
 4118SOL     OW23989   0.379   3.049  12.211  0.2481  0.7376  0.4221
 4118SOL    HW123990   0.311   3.006  12.159  0.5410  1.1721 -0.3134
 4118SOL    HW223991   0.405   2.976  12.267  0.0900  0.7247  0.4781
 4119SOL     OW23992   2.816   0.227   2.249  0.2981  0.6340 -0.6140
 4119SOL    HW123993   2.848   0.137   2.239  0.0188  0.2752  1.7801
 4119SOL    HW223994   2.807   0.234   2.344  1.2307 -1.5186 -0.3626
 4120SOL     OW23995   2.757   1.744   1.706 -0.0631  0.0159 -0.2415
 4120SOL    HW123996   2.665   1.734   1.731  0.0534  1.5033  0.8107
 4120SOL    HW223997   2.801   1.681   1.763  0.6686  2.5448  2.0253
 4121SOL     OW23998   0.793   1.213   3.772  0.2193  0.3776  0.0740
 4121SOL    HW123999   0.872   1.255   3.805 -0.0935 -1.3560  3.0976
 4121SOL    HW224000   0.824   1.122   3.775 -1.1745 -0.0730  0.6371
 4122SOL     OW24001   4.187   1.824   8.220  0.0322  0.7672  0.4362
 4122SOL    HW124002   4.144   1.740   8.205  0.2369  0.4287  1.7181
 4122SOL    HW224003   4.113   1.872   8.257 -1.8428 -1.8517  0.1201
 4123SOL     OW24004   0.468   1.036   3.353  0.4685 -0.0257  0.0040
 4123SOL    HW124005   0.552   1.039   3.399  0.2863 -0.3181  0.3539
 4123SOL    HW224006   0.497   0.977   3.284 -0.1055  0.5787 -0.7512
 4124SOL     OW24007   0.980   4.443   4.989  0.4050 -0.5986 -0.6428
 4124SOL    HW124008   1.040   4.442   4.914  0.5587  1.0402 -0.5446
 4124SOL    HW224009   1.003   4.525   5.033  0.1276  1.3907 -4.2223
 4125SOL     OW24010   4.223   1.934   4.830 -0.2658  0.1678 -0.1630
 4125SOL    HW124011   4.135   1.903   4.808 -0.4687  2.6738 -2.8142
 4125SOL    HW224012   4.251   1.978   4.750 -2.4122 -0.8538 -1.4847
 4126SOL     OW24013   1.744   4.630  11.842  0.0744  0.2091 -0.2489
 4126SOL    HW124014   1.825   4.609  11.888  0.3370 -0.6049 -1.0791
 4126SOL    HW224015   1.734   4.721  11.815  4.9318  1.2780  1.7146
 4127SOL     OW24016   1.384   1.019  14.254  0.3138 -0.4687  0.1544
 4127SOL    HW124017   1.368   1.073  14.331  0.2707  0.4419 -0.4965
 4127SOL    HW224018   1.464   1.068  14.240 -0.2430  0.5524  0.5434
 4128SOL     OW24019   4.118   4.088  11.816 -0.4621 -0.0027 -0.3492
 4128SOL    HW124020   4.095   4.175  11.849 -2.2682 -1.4422  2.1739
 4128SOL    HW224021   4.213   4.091  11.831 -0.2210  0.7858 -2.1079
 4129SOL     OW24022   3.996   3.045  16.728  0.8805 -0.3765  1.0101
 4129SOL    HW124023   3.988   3.136  16.699  0.2185 -1.2479 -1.6036
 4129SOL    HW224024   3.948   2.998  16.660  0.6943 -2.1974  2.4015
 4130SOL     OW24025   3.124   1.382   5.350 -0.1238 -0.0082 -0.3076
 4130SOL    HW124026   3.071   1.440   5.404  2.0082 -0.0907  1.8861
 4130SOL    HW224027   3.202   1.436   5.339 -0.0384  0.1837  1.1978
 4131SOL     OW24028   0.260   1.713   2.386  1.1457  0.5971 -0.3013
 4131SOL    HW124029   0.242   1.667   2.304  3.4098 -1.0283  0.1105
 4131SOL    HW224030   0.203   1.789   2.381  0.8388  0.4524  1.0722
 4132SOL     OW24031   0.696   4.094   6.016 -0.0437 -0.4507 -0.2179
 4132SOL    HW124032   0.718   4.060   6.102  1.0376  0.3861 -0.1611
 4132SOL    HW224033   0.777   4.140   5.993 -1.0935  0.7243 -1.5363
 4133SOL     OW24034   1.203   4.558   7.954 -0.8581 -0.0713 -0.9031
 4133SOL    HW124035   1.297   4.547   7.972 -0.6895 -0.5852 -2.1109
 4133SOL    HW224036   1.174   4.469   7.971  2.7244 -0.7553  1.5672
 4134SOL     OW24037   0.999   1.896   7.101  0.3888 -0.2718 -0.4968
 4134SOL    HW124038   1.017   1.975   7.154  0.5020 -0.2108 -0.6266
 4134SOL    HW224039   1.081   1.849   7.085  1.1213  0.3676  1.3579
 4135SOL     OW24040   0.772   0.931  16.963  0.5849 -0.0924  0.3634
 4135SOL    HW124041   0.791   0.936  17.056 -0.8107 -0.8805  0.6920
 4135SOL    HW224042   0.788   0.837  16.950 -1.5553 -0.5139  0.9075
 4136SOL     OW24043   0.009   2.278   5.519 -0.5912  0.4313  0.3161
 4136SOL    HW124044   4.734   2.185   5.504 -0.5824  0.6279 -0.9154
 4136SOL    HW224045   0.054   2.303   5.438  0.5548  1.6728  1.3479
 4137SOL     OW24046   2.290   1.912   6.436  0.5885 -0.6590  0.2535
 4137SOL    HW124047   2.217   1.973   6.445  0.5053 -0.3404 -2.7352
 4137SOL    HW224048   2.362   1.952   6.387  0.4594 -2.4272 -1.3344
 4138SOL     OW24049   3.187   0.177   6.318 -0.2349  0.5416 -0.1263
 4138SOL    HW124050   3.113   0.120   6.301 -1.4514  1.8353  0.8415
 4138SOL    HW224051   3.218   0.191   6.229 -2.1833  0.0744 -0.8708
 4139SOL     OW24052   3.326   3.791   2.431  0.1557  0.1743  0.0556
 4139SOL    HW124053   3.374   3.799   2.513  0.8322 -1.6481 -0.1498
 4139SOL    HW224054   3.246   3.752   2.465 -0.1939 -0.5935 -1.6088
 4140SOL     OW24055   0.831   3.555   9.303 -0.2567 -0.1077 -0.3721
 4140SOL    HW124056   0.784   3.472   9.298 -0.4843  0.1014 -1.5665
 4140SOL    HW224057   0.839   3.566   9.398 -1.1114 -1.0069 -0.2001
 4141SOL     OW24058   2.298   3.389   1.472 -0.3946  0.0573 -0.4942
 4141SOL    HW124059   2.295   3.296   1.449  0.9065 -0.2363  0.5145
 4141SOL    HW224060   2.240   3.426   1.405  2.0289  2.7982 -1.0874
 4142SOL     OW24061   2.965   1.573   1.344 -0.3267  0.0114 -0.6188
 4142SOL    HW124062   2.935   1.496   1.298 -2.7352 -0.1093  1.1848
 4142SOL    HW224063   2.997   1.538   1.427  1.7814 -1.4814 -2.0678
 4143SOL     OW24064   3.553   1.999   6.036  0.9783 -0.2097  0.6420
 4143SOL    HW124065   3.504   2.060   6.091 -0.6633 -0.6421 -0.3622
 4143SOL    HW224066   3.502   1.920   6.052 -0.2934  1.5543  5.3611
 4144SOL     OW24067   3.361   0.085  16.358  0.0285 -0.5797  0.1109
 4144SOL    HW124068   3.344   4.731  16.372 -1.2926 -0.0229  2.0417
 4144SOL    HW224069   3.456   0.099  16.367 -0.0231  0.1311 -0.4413
 4145SOL     OW24070   2.690   3.470  16.177 -0.0292 -0.4369 -0.1728
 4145SOL    HW124071   2.632   3.410  16.223 -0.7733  1.1305  0.9308
 4145SOL    HW224072   2.739   3.413  16.118  0.4204  0.0524 -0.2742
 4146SOL     OW24073   2.409   2.462   1.512 -0.4390 -0.0956  0.2089
 4146SOL    HW124074   2.414   2.460   1.416  0.6841  0.4362  0.2612
 4146SOL    HW224075   2.398   2.553   1.537  2.2099  0.6709 -1.5216
 4147SOL     OW24076   3.269   4.596   4.702 -0.5590 -0.1215 -0.1563
 4147SOL    HW124077   3.342   4.624   4.646 -0.6429  1.3804  0.4770
 4147SOL    HW224078   3.246   4.674   4.753  1.7799  0.7966 -0.5113
 4148SOL     OW24079   2.102   2.803   3.730  0.2658  0.0320  0.2367
 4148SOL    HW124080   2.177   2.759   3.690 -1.5893 -0.7567 -2.4099
 4148SOL    HW224081   2.112   2.770   3.819  1.7424 -2.1055 -0.7319
 4149SOL     OW24082   1.875   3.314   4.896  0.1510 -0.2311  0.8639
 4149SOL    HW124083   1.939   3.317   4.967  0.5889  2.7676  0.3587
 4149SOL    HW224084   1.936   3.324   4.823  0.8822 -1.1493  1.3611
 4150SOL     OW24085   1.369   0.090   0.061  0.8669  1.1306 -0.2516
 4150SOL    HW124086   1.451   0.139   0.058  1.6658 -0.1457  0.6654
 4150SOL    HW224087   1.353   0.089  17.717 -1.0306  0.7886  0.0695
 4151SOL     OW24088   1.463   3.047   9.132  0.4855  0.0598  0.3276
 4151SOL    HW124089   1.447   3.019   9.042 -1.4276  0.0346  0.6603
 4151SOL    HW224090   1.528   3.116   9.123 -1.6093  1.7313 -2.0987
 4152SOL     OW24091   0.133   0.951   5.813  0.2101  0.1711  0.2266
 4152SOL    HW124092   0.052   0.911   5.782  1.7526 -2.5197 -0.3395
 4152SOL    HW224093   0.192   0.955   5.737  1.8358 -0.2921  1.4658
 4153SOL     OW24094   3.791   3.900  17.008  0.6791 -0.1939  0.2103
 4153SOL    HW124095   3.804   3.995  17.015 -0.8205  0.1257 -1.2344
 4153SOL    HW224096   3.753   3.871  17.091 -0.5170  2.4493  0.6100
 4154SOL     OW24097   1.916   0.187   8.367 -0.2358  0.2445 -0.0025
 4154SOL    HW124098   2.011   0.189   8.355 -0.0921 -2.4160  0.7471
 4154SOL    HW224099   1.881   0.108   8.326  2.1367 -1.2477  0.8489
 4155SOL     OW24100   4.702   0.813   3.174 -0.1247  0.1657 -0.1628
 4155SOL    HW124101   0.019   0.874   3.223  1.1838 -0.9698 -0.2166
 4155SOL    HW224102   0.025   0.793   3.102 -0.8907 -0.2825 -0.6833
 4156SOL     OW24103   2.974   4.267   9.267  0.1919 -0.3061 -0.0402
 4156SOL    HW124104   2.880   4.285   9.267  0.5437  1.6204 -1.7360
 4156SOL    HW224105   3.003   4.352   9.234  2.3506 -1.4741 -1.1628
 4157SOL     OW24106   0.499   0.630  14.229  0.1129 -0.3234  0.2271
 4157SOL    HW124107   0.425   0.628  14.167  0.2367  0.6694  0.0391
 4157SOL    HW224108   0.523   0.723  14.223  0.0527 -0.4834 -2.5287
 4158SOL     OW24109   2.074   0.792   0.736 -1.0625  0.0011 -0.1839
 4158SOL    HW124110   2.146   0.736   0.705  1.3424  3.3847 -0.6767
 4158SOL    HW224111   2.059   0.854   0.665  0.7327  1.3358  0.5942
 4159SOL     OW24112   2.179   3.695   5.155  0.0890  0.8640  0.3653
 4159SOL    HW124113   2.200   3.637   5.081 -0.5988  2.0237 -0.7502
 4159SOL    HW224114   2.094   3.660   5.183  1.1368  0.4974  3.0665
 4160SOL     OW24115   4.544   4.438   1.169 -0.6119  0.4531 -0.0765
 4160SOL    HW124116   4.599   4.477   1.101 -1.1143  2.1823  0.5091
 4160SOL    HW224117   4.594   4.472   1.243  3.2385  0.9691 -2.8851
 4161SOL     OW24118   4.486   0.100   7.283 -0.5876 -0.5001 -0.1004
 4161SOL    HW124119   4.507   0.021   7.333 -0.4714 -1.6143 -1.9116
 4161SOL    HW224120   4.504   0.165   7.351 -0.5039 -2.0681  1.3804
 4162SOL     OW24121   0.614   1.536   7.801  0.5247  0.1398  0.0490
 4162SOL    HW124122   0.565   1.454   7.799 -0.6682  0.8306  0.7333
 4162SOL    HW224123   0.693   1.514   7.752  0.1775 -2.0081  0.4481
 4163SOL     OW24124   3.122   1.312   4.680 -0.1842 -0.0246 -0.3256
 4163SOL    HW124125   3.071   1.270   4.749 -0.2811  0.1512 -0.2907
 4163SOL    HW224126   3.061   1.375   4.641 -0.2057  0.2637  0.1809
 4164SOL     OW24127   3.336   0.658   7.955 -0.0564  0.3103  0.2043
 4164SOL    HW124128   3.410   0.704   7.915 -0.6253  1.9805  1.0825
 4164SOL    HW224129   3.337   0.573   7.911  0.4424  0.3272  0.1804
 4165SOL     OW24130   2.186   1.237   0.270  0.2124 -0.0711  0.6373
 4165SOL    HW124131   2.178   1.170   0.338 -0.6492  0.2894  0.8983
 4165SOL    HW224132   2.273   1.202   0.252  0.4610  0.7942  0.1984
 4166SOL     OW24133   4.648   0.561   5.762  0.7883  0.5220 -0.0095
 4166SOL    HW124134   4.590   0.486   5.776 -0.0946  0.7967 -2.0872
 4166SOL    HW224135   4.618   0.583   5.673 -0.5442  0.8294  0.5140
 4167SOL     OW24136   3.602   1.538   7.391  0.3701 -0.4925 -0.0953
 4167SOL    HW124137   3.597   1.470   7.324  5.1053 -1.2781  0.3285
 4167SOL    HW224138   3.692   1.570   7.379  0.2731  0.5286  1.9030
 4168SOL     OW24139   2.375   2.860   5.830  0.0193  0.3201 -0.0520
 4168SOL    HW124140   2.377   2.841   5.737  0.7462  0.7446 -0.1218
 4168SOL    HW224141   2.331   2.786   5.872  1.5847  0.8742  2.5508
 4169SOL     OW24142   2.952   2.571   1.971 -0.4017  0.1754 -0.3726
 4169SOL    HW124143   3.015   2.499   1.963 -0.0189  0.5328 -0.6036
 4169SOL    HW224144   2.864   2.535   1.972 -1.0255  1.6427 -1.2067
 4170SOL     OW24145   0.643   3.021   0.532 -0.3361 -0.1745 -0.4871
 4170SOL    HW124146   0.612   2.931   0.525 -2.9226  0.4893  2.5315
 4170SOL    HW224147   0.600   3.040   0.615 -1.7602 -0.5630 -1.1466
 4171SOL     OW24148   1.397   3.597  17.583  0.2379 -0.2759 -0.0995
 4171SOL    HW124149   1.329   3.649  17.541  0.8362  2.4714  2.3734
 4171SOL    HW224150   1.469   3.656  17.563 -1.2857  0.1108 -4.5677
 4172SOL     OW24151   2.323   0.537  10.399 -0.6203  0.1177  0.4770
 4172SOL    HW124152   2.363   0.526  10.485  0.8957  0.1049 -0.2309
 4172SOL    HW224153   2.289   0.450  10.378  1.0249 -0.1294 -1.1414
 4173SOL     OW24154   1.667   2.365   5.607 -0.2672 -0.2278 -0.0771
 4173SOL    HW124155   1.663   2.319   5.690 -0.2488  0.9456  0.5776
 4173SOL    HW224156   1.674   2.455   5.639 -0.0427  0.4331 -1.9781
 4174SOL     OW24157   3.500   0.859   8.459 -0.4414  0.3941 -0.3737
 4174SOL    HW124158   3.513   0.950   8.488 -0.9518 -0.1702  1.6080
 4174SOL    HW224159   3.592   0.834   8.473  0.1622  1.6125 -2.1532
 4175SOL     OW24160   1.783   0.950   6.822  0.3608  0.0474  0.4510
 4175SOL    HW124161   1.739   0.865   6.826 -1.3115  0.7491 -3.3453
 4175SOL    HW224162   1.708   1.001   6.792 -1.0371 -1.7558  0.9213
 4176SOL     OW24163   0.748   4.097  10.848 -0.0753 -0.6107 -0.1139
 4176SOL    HW124164   0.718   4.181  10.814  0.3560  0.5240  2.3105
 4176SOL    HW224165   0.666   4.049  10.843 -1.3120  1.4114  0.8571
 4177SOL     OW24166   0.157   0.726  15.099  0.1639  0.1752 -0.8263
 4177SOL    HW124167   0.103   0.650  15.078  0.1937  0.9061 -3.5739
 4177SOL    HW224168   0.220   0.673  15.147  1.2674  0.9325 -1.4426
 4178SOL     OW24169   2.427   0.767   2.280 -0.1422  0.3622  0.6604
 4178SOL    HW124170   2.503   0.722   2.317  0.3169 -1.4955 -2.5372
 4178SOL    HW224171   2.480   0.812   2.213 -1.4277  0.6029 -0.1862
 4179SOL     OW24172   2.587   1.407   8.242  0.0729  0.2183 -0.4174
 4179SOL    HW124173   2.544   1.465   8.306 -1.0321 -0.3167 -0.6703
 4179SOL    HW224174   2.536   1.429   8.164  0.7033 -1.4279 -1.2860
 4180SOL     OW24175   3.976   2.099   0.934  0.2942  0.0124  0.1399
 4180SOL    HW124176   4.040   2.130   0.870 -1.2644 -0.1825 -1.5571
 4180SOL    HW224177   3.911   2.060   0.874  0.9997  1.2557 -1.4475
 4181SOL     OW24178   2.189   0.589   7.746  0.0941 -1.0645  0.3054
 4181SOL    HW124179   2.218   0.656   7.808  0.2755 -0.4126 -0.4873
 4181SOL    HW224180   2.219   0.508   7.788 -0.1268 -0.9945  0.5961
 4182SOL     OW24181   0.815   1.000   3.507  0.5035 -0.3984 -0.2000
 4182SOL    HW124182   0.792   0.907   3.507 -1.9644  0.2151 -0.6125
 4182SOL    HW224183   0.819   1.023   3.600  1.0705 -0.4724 -0.2057
 4183SOL     OW24184   1.152   1.608   3.042 -0.0171  0.2802  0.0259
 4183SOL    HW124185   1.245   1.614   3.065 -0.2896  0.2776  1.1119
 4183SOL    HW224186   1.119   1.672   3.105 -2.1886  1.7428 -2.6319
 4184SOL     OW24187   0.158   0.845   2.976  0.2392 -0.7038  0.3914
 4184SOL    HW124188   0.200   0.853   2.890 -0.3764  0.1111  0.1609
 4184SOL    HW224189   0.093   0.914   2.958  1.6989  1.1735  2.3306
 4185SOL     OW24190   4.647   4.595   6.958 -0.3004  0.1036 -0.2389
 4185SOL    HW124191   4.637   4.669   7.018  2.6310 -0.6210  1.1915
 4185SOL    HW224192   4.694   4.637   6.886  1.3537  0.6578  1.1405
 4186SOL     OW24193   3.586   3.939   1.388  1.0669  0.3570  0.1522
 4186SOL    HW124194   3.622   3.915   1.302 -0.9343  2.4573 -1.2790
 4186SOL    HW224195   3.602   4.033   1.381  2.0069  0.2888  1.4963
 4187SOL     OW24196   1.225   3.279   7.060 -0.3939  0.3011  0.4359
 4187SOL    HW124197   1.294   3.324   7.012  0.6584 -2.7740 -0.9733
 4187SOL    HW224198   1.236   3.190   7.026 -0.4460  0.5580 -0.2546
 4188SOL     OW24199   0.315   0.617  14.053  0.7109 -0.2404  0.5052
 4188SOL    HW124200   0.342   0.677  13.983 -1.4087  0.1149 -0.0090
 4188SOL    HW224201   0.232   0.590  14.012  0.3898  0.8856  0.4091
 4189SOL     OW24202   2.774   1.373  17.550  0.5969 -0.1504 -0.3539
 4189SOL    HW124203   2.852   1.417  17.517  1.0725 -1.1576 -0.5648
 4189SOL    HW224204   2.781   1.296  17.494 -1.4210  0.8440 -1.9761
 4190SOL     OW24205   4.338   3.911   3.702  0.2505  0.6317 -0.5930
 4190SOL    HW124206   4.422   3.872   3.677 -0.1029  1.0794 -2.4949
 4190SOL    HW224207   4.337   3.994   3.654 -1.1008  0.5114 -0.7827
 4191SOL     OW24208   3.264   3.042  15.512  0.3286  0.5521  0.4308
 4191SOL    HW124209   3.259   3.086  15.427  1.2966 -0.2725 -0.0504
 4191SOL    HW224210   3.169   3.028  15.520  0.2794  1.5492  1.6038
 4192SOL     OW24211   3.884   4.581   9.499  0.0313 -0.3039 -0.1860
 4192SOL    HW124212   3.955   4.543   9.550 -0.4629  1.1831  1.6459
 4192SOL    HW224213   3.849   4.649   9.558 -1.6298  0.1562 -1.6920
 4193SOL     OW24214   4.432   4.101   2.956  0.7581  0.7617  0.7916
 4193SOL    HW124215   4.464   4.021   2.916 -2.4453 -0.4585  0.6842
 4193SOL    HW224216   4.441   4.077   3.048  0.4597  1.1287  0.9192
 4194SOL     OW24217   4.606   1.436   9.516 -0.7971 -0.5484  0.4118
 4194SOL    HW124218   4.519   1.396   9.520 -0.9952 -0.3116 -1.5983
 4194SOL    HW224219   4.659   1.359   9.493  1.2865  0.6447  1.1872
 4195SOL     OW24220   1.620   2.429   7.741  0.0450  0.3861  0.6677
 4195SOL    HW124221   1.544   2.452   7.796 -0.4539 -0.8304  0.4936
 4195SOL    HW224222   1.604   2.336   7.728  3.2273 -0.4192  2.4536
 4196SOL     OW24223   3.006   0.335   0.550  0.4628 -0.6888 -0.0935
 4196SOL    HW124224   3.076   0.373   0.497  1.7161 -0.5889  1.6391
 4196SOL    HW224225   3.065   0.270   0.588 -0.8845 -0.7314  1.9612
 4197SOL     OW24226   2.508   1.495   3.022  0.2271  0.1400 -0.0083
 4197SOL    HW124227   2.603   1.488   3.037  0.6047  3.0390 -0.8973
 4197SOL    HW224228   2.509   1.572   2.965 -0.4220 -1.1629 -1.7732
 4198SOL     OW24229   1.309   0.172   8.380 -0.2799  0.3338 -0.1489
 4198SOL    HW124230   1.223   0.172   8.340 -1.4934  1.4990  2.4545
 4198SOL    HW224231   1.320   0.265   8.365  1.0442  0.3359  0.7726
 4199SOL     OW24232   0.859   2.844   6.537  0.5445  0.0482 -0.3717
 4199SOL    HW124233   0.802   2.892   6.477 -0.6142 -2.0638 -0.9629
 4199SOL    HW224234   0.862   2.910   6.607  0.4216 -1.6055  1.1907
 4200SOL     OW24235   3.659   0.277  12.001 -0.2948  0.1759 -0.6548
 4200SOL    HW124236   3.661   0.355  11.945 -1.6346  1.2892  0.8602
 4200SOL    HW224237   3.665   0.317  12.087  0.9466  1.3416 -1.2710
 4201SOL     OW24238   0.448   3.929   6.298 -0.2876 -0.8513 -0.5747
 4201SOL    HW124239   0.496   3.986   6.358 -0.3293 -0.9169 -0.4782
 4201SOL    HW224240   0.368   3.976   6.273  0.1121  0.5184  0.7369
 4202SOL     OW24241   2.415   3.951   4.392 -0.1941 -0.5883 -0.3047
 4202SOL    HW124242   2.365   3.982   4.317 -0.1796  0.6476  0.2043
 4202SOL    HW224243   2.374   3.870   4.422  0.6592 -1.5114 -1.6085
 4203SOL     OW24244   3.843   2.511   2.715 -0.0976 -0.1706  0.2606
 4203SOL    HW124245   3.748   2.523   2.724 -0.3284 -2.4301  0.7237
 4203SOL    HW224246   3.860   2.423   2.748  2.2253  0.2745  0.2094
 4204SOL     OW24247   2.203   1.404  10.046  0.0368 -0.0462 -0.7215
 4204SOL    HW124248   2.287   1.386  10.088 -0.7581 -1.4747  0.2362
 4204SOL    HW224249   2.232   1.415   9.955  2.5460 -0.4647  0.0260
 4205SOL     OW24250   2.266   2.970   1.561 -0.2618 -0.0195 -0.5537
 4205SOL    HW124251   2.173   2.991   1.563 -0.2658 -0.3774  2.9168
 4205SOL    HW224252   2.296   3.048   1.515 -0.8589  1.3025  1.3573
 4206SOL     OW24253   2.859   2.886   1.640  0.1149 -0.6900 -0.0359
 4206SOL    HW124254   2.792   2.861   1.704  1.1319  0.3012  1.4175
 4206SOL    HW224255   2.894   2.958   1.693 -1.0936 -0.9156  1.0611
 4207SOL     OW24256   3.135   4.104   8.473 -0.3004  0.1046 -0.5715
 4207SOL    HW124257   3.054   4.083   8.520 -0.4386  1.4460 -0.2253
 4207SOL    HW224258   3.111   4.180   8.420 -1.9376 -0.7357 -1.0710
 4208SOL     OW24259   4.281   4.170  12.202 -0.4393 -0.3655 -0.5009
 4208SOL    HW124260   4.320   4.101  12.148 -1.9934 -0.4204 -1.5489
 4208SOL    HW224261   4.265   4.236  12.135  0.4914  0.0176 -0.3460
 4209SOL     OW24262   3.219   2.452  14.653 -0.4793  0.6981 -0.3751
 4209SOL    HW124263   3.170   2.422  14.730 -0.5418  1.0971 -0.2599
 4209SOL    HW224264   3.221   2.375  14.597  0.4521  1.8088 -1.8632
 4210SOL     OW24265   2.329   2.188   3.160  0.1887  0.0895 -0.1754
 4210SOL    HW124266   2.395   2.245   3.198  0.3012  1.0560 -1.8022
 4210SOL    HW224267   2.365   2.157   3.077 -0.0460  2.1479 -1.0483
 4211SOL     OW24268   0.009   3.793   8.667 -0.1188  0.0158 -0.2564
 4211SOL    HW124269   4.687   3.837   8.727  0.5035  0.0862  0.3113
 4211SOL    HW224270   0.091   3.789   8.715  0.0452  1.9561 -0.3731
 4212SOL     OW24271   4.259   1.651  16.835 -0.2858 -0.4843 -0.2341
 4212SOL    HW124272   4.256   1.625  16.927 -0.8690  3.7371  0.9453
 4212SOL    HW224273   4.341   1.700  16.828 -0.2587 -0.0708  3.2732
 4213SOL     OW24274   0.673   3.293   4.102  0.6603  0.2149  0.0022
 4213SOL    HW124275   0.627   3.368   4.139  3.0632  1.7246 -0.0296
 4213SOL    HW224276   0.600   3.260   4.050 -0.5796  2.0370  0.6273
 4214SOL     OW24277   4.308   4.033   9.684  0.6565  0.9100 -0.8569
 4214SOL    HW124278   4.344   4.064   9.601 -0.6863  1.4101 -1.2478
 4214SOL    HW224279   4.383   4.050   9.741 -0.7740  0.4141  1.1665
 4215SOL     OW24280   1.638   4.408   1.774 -0.3540 -0.1611  0.0292
 4215SOL    HW124281   1.658   4.320   1.807 -0.0085 -0.7382 -1.7291
 4215SOL    HW224282   1.573   4.433   1.839 -1.0544 -1.0776 -0.3290
 4216SOL     OW24283   2.865   0.483   3.546 -0.2243  0.3934  0.0265
 4216SOL    HW124284   2.850   0.560   3.491  0.0893 -0.7645 -1.6664
 4216SOL    HW224285   2.932   0.448   3.487 -0.1574 -0.0743  0.3852
 4217SOL     OW24286   2.700   3.701   7.659 -0.0404 -0.0518  0.5960
 4217SOL    HW124287   2.691   3.607   7.672  0.7491 -0.0687  1.0569
 4217SOL    HW224288   2.794   3.706   7.679  0.9658  1.5225 -4.4589
 4218SOL     OW24289   0.145   2.392   8.117  0.4150 -0.5336 -0.2590
 4218SOL    HW124290   0.205   2.467   8.117  0.2821 -0.4265 -1.3910
 4218SOL    HW224291   0.210   2.333   8.154 -1.8810 -3.6837 -1.2977
 4219SOL     OW24292   2.594   4.359   5.568  0.0151 -0.3470 -0.0651
 4219SOL    HW124293   2.615   4.433   5.511 -1.1193 -2.2662 -2.9776
 4219SOL    HW224294   2.500   4.375   5.578 -0.0561 -0.0743 -1.1379
 4220SOL     OW24295   4.624   4.189  11.021  0.3759 -0.4919  0.1363
 4220SOL    HW124296   4.601   4.282  11.015  0.6987 -0.4489 -0.5199
 4220SOL    HW224297   4.628   4.174  11.115  1.4633 -1.1771 -0.0252
 4221SOL     OW24298   0.727   1.468   1.935  0.5592  0.0139  0.7389
 4221SOL    HW124299   0.728   1.435   1.845  1.2588  1.3657  0.2366
 4221SOL    HW224300   0.790   1.405   1.969  1.4087  0.8375  0.6936
 4222SOL     OW24301   2.570   2.877   9.068 -0.2019  0.2161  0.5509
 4222SOL    HW124302   2.665   2.869   9.064 -0.1726  0.0444  1.5432
 4222SOL    HW224303   2.553   2.820   9.143  0.3539  0.7841  1.0983
 4223SOL     OW24304   3.465   1.949   9.163 -0.1017  0.1545 -0.6498
 4223SOL    HW124305   3.377   1.972   9.193 -0.3421 -0.7522 -0.6585
 4223SOL    HW224306   3.525   1.970   9.234 -2.2911 -2.4076  1.9904
 4224SOL     OW24307   3.608   2.328  15.651  0.0770 -0.3494  0.1442
 4224SOL    HW124308   3.542   2.308  15.717  0.3472  0.2500  0.5929
 4224SOL    HW224309   3.651   2.244  15.638 -0.8628 -0.7332 -0.4893
 4225SOL     OW24310   2.849   3.976   8.975  0.8475 -0.1165 -0.0573
 4225SOL    HW124311   2.936   3.973   8.934  0.9377 -0.5808  0.1712
 4225SOL    HW224312   2.792   3.948   8.903 -0.8169  2.1141  0.3974
 4226SOL     OW24313   0.820   3.753   5.825  0.5908 -0.2344 -0.3133
 4226SOL    HW124314   0.803   3.660   5.813  0.2545 -0.0173 -1.5183
 4226SOL    HW224315   0.764   3.766   5.902  1.0702 -0.8154  0.1348
 4227SOL     OW24316   3.954   0.727   5.431  0.4921  0.6489 -0.0157
 4227SOL    HW124317   3.865   0.752   5.406 -0.4354  0.3375  3.0167
 4227SOL    HW224318   3.999   0.804   5.396  0.4388  0.7023  0.0345
 4228SOL     OW24319   2.955   0.735   3.267  0.5158 -0.4429 -0.3346
 4228SOL    HW124320   3.033   0.707   3.219  1.3939 -4.0777  3.2585
 4228SOL    HW224321   2.883   0.679   3.239  0.8090 -1.5074  1.0594
 4229SOL     OW24322   1.828   1.809  11.912  0.2399 -0.1020 -0.2017
 4229SOL    HW124323   1.870   1.862  11.980  0.4863 -1.0028  0.3529
 4229SOL    HW224324   1.774   1.872  11.864 -0.1770 -0.6780 -0.4792
 4230SOL     OW24325   3.161   1.928   7.364 -0.0876 -0.1793 -1.2062
 4230SOL    HW124326   3.250   1.912   7.394 -0.6014 -1.6693 -0.4563
 4230SOL    HW224327   3.137   1.836   7.362 -1.4912  0.1727 -1.1054
 4231SOL     OW24328   4.377   1.743   5.997  0.1113 -0.3984 -0.0216
 4231SOL    HW124329   4.307   1.807   5.982 -0.1305 -0.4163  0.9880
 4231SOL    HW224330   4.376   1.694   5.915  0.0363 -1.9119  0.8766
 4232SOL     OW24331   0.670   3.115   1.541 -0.1296  0.4012  0.0176
 4232SOL    HW124332   0.663   3.137   1.448 -1.2303  0.4241  0.0989
 4232SOL    HW224333   0.757   3.077   1.552 -0.1139  0.5833  0.5486
 4233SOL     OW24334   0.382   4.106   8.352  0.2003  0.4062  0.6761
 4233SOL    HW124335   0.470   4.134   8.327  0.7287 -2.6358 -0.7792
 4233SOL    HW224336   0.389   4.011   8.355  0.8014  0.4524  0.7583
 4234SOL     OW24337   0.208   1.945   7.163  0.1219  0.7315 -0.1983
 4234SOL    HW124338   0.201   1.981   7.075 -1.3766  0.8173 -0.0391
 4234SOL    HW224339   0.299   1.914   7.165 -0.1342  0.0411  0.7978
 4235SOL     OW24340   1.682   1.231   5.309  0.3694  0.3952 -0.4003
 4235SOL    HW124341   1.613   1.249   5.373  1.9220 -0.9494  1.6598
 4235SOL    HW224342   1.747   1.293   5.341 -0.1351  0.9207 -0.3782
 4236SOL     OW24343   2.144   2.054  16.561  0.1612 -0.6380  0.0490
 4236SOL    HW124344   2.202   1.991  16.605  2.0525  2.6835  2.3561
 4236SOL    HW224345   2.216   2.115  16.544  0.2963 -1.2428 -1.5926
 4237SOL     OW24346   1.795   3.903  12.006  0.0108 -0.5595  0.2766
 4237SOL    HW124347   1.774   3.997  12.005  2.3684 -0.0361  1.2147
 4237SOL    HW224348   1.844   3.894  11.925 -1.9502 -1.0136 -0.8581
 4238SOL     OW24349   3.115   0.641   5.080  0.0410 -0.3831  0.1907
 4238SOL    HW124350   3.168   0.585   5.023 -1.5913 -1.5208 -0.2235
 4238SOL    HW224351   3.137   0.609   5.168  1.7981 -0.1033 -0.1512
 4239SOL     OW24352   0.827   3.042   5.305 -0.3154  1.2732 -0.7638
 4239SOL    HW124353   0.832   2.967   5.246 -2.1465 -0.4098  1.2218
 4239SOL    HW224354   0.899   3.007   5.357 -0.4075  2.5848  0.2315
 4240SOL     OW24355   1.953   2.306  15.938 -1.0955 -0.7781 -0.4109
 4240SOL    HW124356   1.993   2.263  15.862 -0.7240 -1.3650  0.1171
 4240SOL    HW224357   2.001   2.268  16.011 -0.6591  0.2393 -0.1712
 4241SOL     OW24358   2.215   1.809   8.082  0.2824 -0.0580 -0.4287
 4241SOL    HW124359   2.122   1.819   8.101  0.5798 -0.8032  1.4127
 4241SOL    HW224360   2.259   1.791   8.165  1.9119  0.5042 -1.1700
 4242SOL     OW24361   4.435   2.058   5.409  1.0784 -0.4603  0.6590
 4242SOL    HW124362   4.436   1.970   5.372  1.2285 -0.2564  0.1767
 4242SOL    HW224363   4.525   2.079   5.437  0.6919  1.2253  0.6347
 4243SOL     OW24364   3.246   2.772  11.222 -0.2834  0.0892  0.0598
 4243SOL    HW124365   3.193   2.719  11.161  0.7619  0.5960 -1.2952
 4243SOL    HW224366   3.180   2.778  11.291 -0.0525 -0.1415  0.2968
 4244SOL     OW24367   4.200   0.801   4.369  0.3934 -0.2781 -0.3691
 4244SOL    HW124368   4.149   0.860   4.423  2.6983  0.9457  0.4627
 4244SOL    HW224369   4.269   0.776   4.431  0.1234 -1.7260 -0.6344
 4245SOL     OW24370   0.726   4.360   5.209  0.6724  0.4397 -0.0390
 4245SOL    HW124371   0.694   4.396   5.126  0.2900  2.1656  0.8694
 4245SOL    HW224372   0.803   4.413   5.229 -0.1431  0.6522  2.5021
 4246SOL     OW24373   3.050   3.370  11.874  0.5131 -0.2762 -0.6352
 4246SOL    HW124374   3.009   3.426  11.939  0.5854 -2.2606  1.1370
 4246SOL    HW224375   3.109   3.310  11.920  0.4924  1.5799  1.7308
 4247SOL     OW24376   2.681   3.254   2.123 -0.6246 -0.5931 -0.2295
 4247SOL    HW124377   2.645   3.260   2.211 -0.2757  2.4060 -0.2708
 4247SOL    HW224378   2.648   3.169   2.095  0.3465 -1.1414  0.3087
 4248SOL     OW24379   4.573   1.873   0.124 -0.1156  0.0247  0.1235
 4248SOL    HW124380   4.547   1.793   0.079  0.8629  0.2417 -0.8056
 4248SOL    HW224381   4.512   1.937   0.086 -2.1317 -1.1147  1.4493
 4249SOL     OW24382   1.625   0.697   3.050 -0.0092 -0.1254 -0.2782
 4249SOL    HW124383   1.594   0.776   3.093  0.9356 -1.0058  2.0257
 4249SOL    HW224384   1.597   0.705   2.959 -0.6180 -1.6058 -0.2276
 4250SOL     OW24385   4.082   2.369   6.579 -0.1172  0.6426 -0.1871
 4250SOL    HW124386   4.131   2.344   6.500 -0.2202 -0.3822  0.0631
 4250SOL    HW224387   4.146   2.406   6.639 -0.2690 -0.2989  0.5622
 4251SOL     OW24388   0.546   0.126   7.069  0.1529 -0.3819 -0.5777
 4251SOL    HW124389   0.511   0.185   7.002  1.5353 -1.7140 -2.4889
 4251SOL    HW224390   0.629   0.170   7.090 -0.9728  1.0501  0.8887
 4252SOL     OW24391   4.500   3.386   3.055 -0.2869 -0.1980 -0.2223
 4252SOL    HW124392   4.459   3.392   2.968  0.9115 -0.2628 -0.7812
 4252SOL    HW224393   4.517   3.478   3.078  1.7025 -0.5478 -0.3461
 4253SOL     OW24394   0.390   0.595   4.999 -0.8034  0.0746  0.7284
 4253SOL    HW124395   0.346   0.569   5.080 -1.9821 -0.4721 -0.0838
 4253SOL    HW224396   0.407   0.688   5.011 -0.6608  0.2370 -0.6985
 4254SOL     OW24397   1.527   2.134   3.281  0.4002  0.2824 -0.3926
 4254SOL    HW124398   1.578   2.063   3.323  0.1137  0.2753 -0.0509
 4254SOL    HW224399   1.443   2.090   3.267  0.3912 -0.9551  3.4117
 4255SOL     OW24400   0.274   0.145   8.303  0.0191 -0.0497  0.3891
 4255SOL    HW124401   0.329   0.181   8.233 -2.7727  1.3274 -1.1000
 4255SOL    HW224402   0.291   0.052   8.286 -2.1286 -0.2027 -0.8778
 4256SOL     OW24403   3.953   4.320   5.150  0.5751 -0.1181 -0.5336
 4256SOL    HW124404   4.029   4.345   5.096  0.3992 -2.1231 -1.7167
 4256SOL    HW224405   3.968   4.370   5.230 -0.2538 -0.4659 -0.1709
 4257SOL     OW24406   3.554   0.178   5.191  0.4496 -0.6012 -0.3788
 4257SOL    HW124407   3.546   0.083   5.202 -0.8515 -0.2074  1.9812
 4257SOL    HW224408   3.638   0.198   5.232  0.1684 -2.2039  0.9504
 4258SOL     OW24409   0.022   1.215  12.311 -0.0387 -0.4786 -0.6562
 4258SOL    HW124410   0.082   1.233  12.239  1.8872  0.2157  1.1372
 4258SOL    HW224411   4.726   1.133  12.274 -1.5242 -1.6043  3.1639
 4259SOL     OW24412   2.719   3.934   7.508 -0.2719  0.4558  0.2766
 4259SOL    HW124413   2.715   3.856   7.564  1.9217  0.3514  0.2754
 4259SOL    HW224414   2.683   3.898   7.427 -0.1319 -0.3982  0.5911
 4260SOL     OW24415   2.948   3.600   3.597  0.0724  0.3809 -0.1896
 4260SOL    HW124416   3.000   3.591   3.676 -0.4906  0.2594  0.1682
 4260SOL    HW224417   2.932   3.694   3.588  0.2497  0.3764 -0.5683
 4261SOL     OW24418   1.280   0.964   4.556 -0.3021 -0.2806 -0.0140
 4261SOL    HW124419   1.251   0.979   4.646  0.8725 -1.5000  0.5677
 4261SOL    HW224420   1.282   1.052   4.520 -0.4013 -0.7704 -1.2325
 4262SOL     OW24421   0.397   0.340   4.827  0.1983  0.1352 -0.6215
 4262SOL    HW124422   0.420   0.399   4.899 -2.4500  0.3667  0.0613
 4262SOL    HW224423   0.401   0.257   4.874  0.7913  0.1235 -0.6934
 4263SOL     OW24424   3.634   4.194   1.365  0.0160 -0.4121 -0.1700
 4263SOL    HW124425   3.593   4.258   1.306  2.1972  0.3243 -0.8990
 4263SOL    HW224426   3.693   4.254   1.412 -1.6692  0.6611  0.5610
 4264SOL     OW24427   2.654   3.283  12.880  0.1994 -0.7993 -0.6984
 4264SOL    HW124428   2.744   3.268  12.908  0.1293  1.1446  0.6245
 4264SOL    HW224429   2.602   3.241  12.949  0.3489 -1.0048 -0.7114
 4265SOL     OW24430   0.621   3.380   2.664 -0.3131  0.6767  0.3317
 4265SOL    HW124431   0.605   3.311   2.728 -0.5853  1.3664  1.0052
 4265SOL    HW224432   0.553   3.348   2.604  0.6239 -0.6414 -0.0190
 4266SOL     OW24433   1.776   2.799   8.707 -0.0981 -0.4147 -0.3646
 4266SOL    HW124434   1.732   2.719   8.735 -1.0961 -0.1017 -1.0527
 4266SOL    HW224435   1.704   2.836   8.656 -0.4191 -0.2365  0.2268
 4267SOL     OW24436   1.019   1.028  11.914 -0.3187 -0.1974 -0.4294
 4267SOL    HW124437   0.970   1.044  11.834  0.6541 -0.8596 -1.1520
 4267SOL    HW224438   1.098   1.080  11.900  0.1430 -0.4911  1.0699
 4268SOL     OW24439   4.000   2.309   9.225 -0.2938  0.0403 -0.2225
 4268SOL    HW124440   4.044   2.388   9.192  1.1408  0.2199  2.1087
 4268SOL    HW224441   4.059   2.245   9.185  1.3495  0.2077  1.9634
 4269SOL     OW24442   1.767   2.218   7.500 -0.0375 -0.1156 -0.4891
 4269SOL    HW124443   1.709   2.163   7.552 -0.8354  1.1183 -0.0871
 4269SOL    HW224444   1.823   2.249   7.570  0.7187  0.5650 -1.3993
 4270SOL     OW24445   3.127   1.094   5.372  0.5961  0.3793 -0.2216
 4270SOL    HW124446   3.212   1.051   5.361  0.7886  1.0255 -1.2605
 4270SOL    HW224447   3.153   1.183   5.349  0.2787  0.2620 -1.0471
 4271SOL     OW24448   1.673   3.610   9.299  0.6571  0.3367 -0.6015
 4271SOL    HW124449   1.763   3.619   9.332  0.5371  0.4246 -0.2999
 4271SOL    HW224450   1.631   3.667   9.363 -1.5007  0.9115 -2.5003
 4272SOL     OW24451   1.441   2.764   7.607 -0.4150 -0.0347 -0.0749
 4272SOL    HW124452   1.532   2.775   7.631 -1.1735  0.1922  2.7197
 4272SOL    HW224453   1.431   2.833   7.541 -0.7039 -0.7040 -0.7376
 4273SOL     OW24454   3.820   1.223   0.806 -0.2472 -0.0014  0.2653
 4273SOL    HW124455   3.766   1.270   0.743 -0.3515  0.4416  0.6887
 4273SOL    HW224456   3.843   1.145   0.755  0.1709  1.8352 -2.3255
 4274SOL     OW24457   1.305   4.159   6.601  0.4696  0.3234 -0.4535
 4274SOL    HW124458   1.217   4.189   6.581  0.0250  0.1244  1.2455
 4274SOL    HW224459   1.310   4.164   6.696  2.1999  1.0681 -0.5633
 4275SOL     OW24460   3.131   2.385   1.888 -0.0947  0.3504 -0.1164
 4275SOL    HW124461   3.126   2.317   1.822 -1.0345  0.1959  0.1185
 4275SOL    HW224462   3.217   2.423   1.869 -0.6128  2.7070  2.2129
 4276SOL     OW24463   2.753   4.658  13.408 -0.5637  0.6777  0.1764
 4276SOL    HW124464   2.728   4.685  13.319 -0.8647  1.3773  0.4748
 4276SOL    HW224465   2.761   4.564  13.393 -1.3693 -0.0352  4.3186
 4277SOL     OW24466   0.012   0.918   4.605  0.1092 -0.6100 -0.3140
 4277SOL    HW124467   0.030   0.913   4.511 -1.9916  1.2509 -0.8053
 4277SOL    HW224468   0.034   0.832   4.641  1.4905  0.3202  1.0497
 4278SOL     OW24469   1.565   0.040   3.182 -0.1924  0.0310 -0.6609
 4278SOL    HW124470   1.578   0.072   3.271  1.2427 -0.6909 -0.5999
 4278SOL    HW224471   1.645   0.065   3.135 -1.0014  0.9404 -1.5648
 4279SOL     OW24472   3.621   1.657   7.789  0.0204 -0.1372 -0.0810
 4279SOL    HW124473   3.670   1.726   7.744 -0.5001  0.1075 -0.2822
 4279SOL    HW224474   3.688   1.590   7.778  1.5917  1.1067  1.9962
 4280SOL     OW24475   3.380   3.192   9.234  0.0262 -0.2164 -0.1635
 4280SOL    HW124476   3.475   3.187   9.234 -0.0206 -1.1333  0.1180
 4280SOL    HW224477   3.362   3.133   9.307 -0.2640 -1.8873 -1.5882
 4281SOL     OW24478   2.636   0.997   2.927  0.5637  0.0019  0.2006
 4281SOL    HW124479   2.731   0.991   2.916  0.4012 -0.4853 -0.9939
 4281SOL    HW224480   2.615   1.089   2.915 -1.1306 -0.3782  0.2907
 4282SOL     OW24481   3.172   2.351   4.459  0.6228  0.1456 -0.4649
 4282SOL    HW124482   3.143   2.368   4.549  1.4274 -0.3825 -0.1104
 4282SOL    HW224483   3.118   2.422   4.424 -0.2232 -2.0637 -3.6261
 4283SOL     OW24484   4.030   0.133   4.654 -0.2638  0.0329  0.5254
 4283SOL    HW124485   4.105   0.120   4.712  0.7322 -1.0704 -0.9886
 4283SOL    HW224486   4.014   0.039   4.640 -1.4593  0.2999  0.1646
 4284SOL     OW24487   3.957   1.303   5.648  0.2373  0.3619 -0.0136
 4284SOL    HW124488   3.987   1.393   5.664  0.9328 -0.3878  2.8840
 4284SOL    HW224489   3.878   1.307   5.702  0.8443 -0.6959  0.9642
 4285SOL     OW24490   2.094   1.672   0.498 -0.1982 -0.1274  0.3720
 4285SOL    HW124491   2.130   1.727   0.568 -2.1574 -0.8386  1.9375
 4285SOL    HW224492   2.175   1.638   0.459  0.0331 -0.6582  1.3284
 4286SOL     OW24493   1.831   1.620   5.640 -0.3337  0.2011 -0.0444
 4286SOL    HW124494   1.878   1.547   5.681  1.7011  0.2861 -2.1823
 4286SOL    HW224495   1.800   1.663   5.720 -0.4702 -1.6992  0.9287
 4287SOL     OW24496   4.439   3.002   5.710  0.5051  0.2527 -0.1071
 4287SOL    HW124497   4.508   2.938   5.728  1.0448  1.0728  0.7472
 4287SOL    HW224498   4.417   3.021   5.801 -4.0625 -0.0529 -1.1555
 4288SOL     OW24499   3.740   2.118  15.372 -0.3827  0.4202  0.2105
 4288SOL    HW124500   3.671   2.059  15.401  0.1139  0.2217  0.9893
 4288SOL    HW224501   3.798   2.121  15.448  2.0450  2.3434 -1.7153
 4289SOL     OW24502   2.932   1.945   1.576 -0.0027 -0.9096 -0.1688
 4289SOL    HW124503   2.895   1.869   1.622 -2.6630 -0.0972 -0.9808
 4289SOL    HW224504   2.874   1.943   1.501 -0.9905  0.8530  0.5620
 4290SOL     OW24505   0.770   4.538  11.400 -0.1909 -0.7099 -0.7904
 4290SOL    HW124506   0.800   4.592  11.326 -1.5765 -0.1391 -0.9383
 4290SOL    HW224507   0.707   4.480  11.356 -1.2082 -1.4320  1.6413
 4291SOL     OW24508   0.712   1.335   8.503 -0.7818 -0.6144  0.4273
 4291SOL    HW124509   0.688   1.243   8.520  1.6856 -0.7773  2.9749
 4291SOL    HW224510   0.634   1.354   8.450 -0.0061  0.1998 -0.4059
 4292SOL     OW24511   2.468   2.256   8.391 -0.0349 -0.1378 -0.5077
 4292SOL    HW124512   2.459   2.321   8.321 -1.1638  1.8311  1.4517
 4292SOL    HW224513   2.436   2.172   8.359  0.7315 -0.8839  0.6664
 4293SOL     OW24514   3.651   4.450   5.083  0.0538  0.8939  0.4851
 4293SOL    HW124515   3.690   4.406   5.159 -0.4752  1.6126  1.1644
 4293SOL    HW224516   3.698   4.408   5.011 -0.5324  0.0499  0.6006
 4294SOL     OW24517   1.351   1.062  11.383  0.0892  0.2610 -0.1586
 4294SOL    HW124518   1.341   1.041  11.290 -1.3244 -0.4456  0.1605
 4294SOL    HW224519   1.401   1.144  11.381 -1.0126  1.0191  3.2710
 4295SOL     OW24520   0.386   2.989   4.061 -0.1463 -0.4725 -0.0817
 4295SOL    HW124521   0.440   2.912   4.078  1.1616  0.3897 -0.3477
 4295SOL    HW224522   0.388   3.031   4.147 -0.8765  0.6217 -0.6035
 4296SOL     OW24523   3.151   2.003   4.919  0.4485  0.6258  0.2741
 4296SOL    HW124524   3.135   1.919   4.963  0.9968  0.3899  0.0369
 4296SOL    HW224525   3.108   1.994   4.834  2.4907  1.2950 -0.8415
 4297SOL     OW24526   2.138   2.633   4.943  0.8310  0.6618 -0.2870
 4297SOL    HW124527   2.051   2.604   4.973  0.3477  2.3057 -0.0728
 4297SOL    HW224528   2.132   2.720   4.981  0.4034  0.9978 -1.1116
 4298SOL     OW24529   2.546   0.559   2.581 -0.2593  0.1236 -0.2806
 4298SOL    HW124530   2.639   0.553   2.558 -0.4870  2.0373 -1.7087
 4298SOL    HW224531   2.522   0.472   2.551 -2.2687  0.5027  0.2273
 4299SOL     OW24532   4.196   4.280   4.997 -0.7096  0.2371  0.0591
 4299SOL    HW124533   4.192   4.270   4.902  2.4913  1.4429 -0.1925
 4299SOL    HW224534   4.236   4.199   5.030  0.7140  1.5019  1.3868
 4300SOL     OW24535   1.834   1.401   5.452 -0.2696  0.2524  0.1480
 4300SOL    HW124536   1.813   1.416   5.544  1.5095  0.0735  0.5824
 4300SOL    HW224537   1.910   1.343   5.456  0.8579  1.5424 -2.9624
 4301SOL     OW24538   0.172   1.643   9.015 -0.6332 -0.1552 -0.6850
 4301SOL    HW124539   0.218   1.601   9.088 -0.1449  0.8118 -0.4339
 4301SOL    HW224540   0.252   1.676   8.974  1.0934 -1.5123  1.6106
 4302SOL     OW24541   4.193   3.333  15.829 -0.0457  0.4813  0.0032
 4302SOL    HW124542   4.128   3.345  15.760 -0.3943 -1.0367  0.0876
 4302SOL    HW224543   4.151   3.277  15.894 -1.5460 -1.9891 -3.1067
 4303SOL     OW24544   0.091   2.368   4.289 -0.4201 -0.0477  0.1060
 4303SOL    HW124545   0.056   2.388   4.376  0.5936 -1.1487  0.7599
 4303SOL    HW224546   0.022   2.413   4.240  2.7046  1.7609 -2.6066
 4304SOL     OW24547   3.255   2.952   3.938 -0.4091 -0.3903  0.4577
 4304SOL    HW124548   3.235   3.045   3.934  0.4771 -0.1999  0.4728
 4304SOL    HW224549   3.284   2.938   3.848 -1.2505  2.0271 -0.1742
 4305SOL     OW24550   3.352   1.775   9.831 -0.2039 -1.0124 -0.0123
 4305SOL    HW124551   3.294   1.800   9.759  2.1400  0.3782 -1.3798
 4305SOL    HW224552   3.386   1.696   9.790 -0.2912 -0.9958 -0.1154
 4306SOL     OW24553   3.052   0.890   5.002 -0.0846 -0.1686 -0.0001
 4306SOL    HW124554   3.055   0.795   5.014  0.8073 -0.0223  0.9270
 4306SOL    HW224555   3.063   0.884   4.907  0.6806 -2.7148  0.2411
 4307SOL     OW24556   1.202   3.718  12.779 -0.4507 -0.2977  0.7748
 4307SOL    HW124557   1.239   3.769  12.851  0.3369  2.6046 -1.7031
 4307SOL    HW224558   1.280   3.686  12.734 -0.3398  0.2562  0.5767
 4308SOL     OW24559   2.048   0.378   3.789  0.6660 -0.1052 -0.5992
 4308SOL    HW124560   2.063   0.453   3.731 -0.2006  0.5381  0.0072
 4308SOL    HW224561   2.129   0.369   3.839  1.3884 -1.6137 -2.0343
 4309SOL     OW24562   0.651   0.257   2.205  0.2761  0.0184  0.1498
 4309SOL    HW124563   0.678   0.291   2.120  0.0135  2.2221  0.9506
 4309SOL    HW224564   0.610   0.179   2.168 -1.5452  0.3741  1.3895
 4310SOL     OW24565   1.255   1.644   5.106  0.1575  0.0505  0.2394
 4310SOL    HW124566   1.229   1.582   5.038 -1.5335  2.6367 -1.4596
 4310SOL    HW224567   1.317   1.598   5.163  0.4229 -0.6936 -0.6510
 4311SOL     OW24568   2.302   1.420   9.766  0.2834  0.1382 -0.2313
 4311SOL    HW124569   2.340   1.507   9.768 -1.1074  0.7627 -0.9847
 4311SOL    HW224570   2.383   1.371   9.780  2.1931  2.9976 -1.4394
 4312SOL     OW24571   2.992   1.004   9.110 -0.2619 -0.4374 -0.3070
 4312SOL    HW124572   3.028   1.004   9.199  0.5857  2.3297 -0.6494
 4312SOL    HW224573   3.054   0.942   9.070  0.2633  0.1872 -0.4525
 4313SOL     OW24574   4.097   3.691   4.256  0.1792  0.3421  0.4814
 4313SOL    HW124575   4.164   3.692   4.188 -1.0734  0.8240 -0.7447
 4313SOL    HW224576   4.146   3.645   4.325  0.5760 -0.5909 -0.4302
 4314SOL     OW24577   2.361   1.536  12.315  0.0071 -0.3081  0.0588
 4314SOL    HW124578   2.435   1.490  12.356  1.6263  1.8213 -0.5327
 4314SOL    HW224579   2.363   1.512  12.223 -1.1016  0.2217 -0.0997
 4315SOL     OW24580   3.328   1.593   4.345  0.5350 -0.0238 -0.0262
 4315SOL    HW124581   3.371   1.537   4.409  1.1276  0.1000 -0.3083
 4315SOL    HW224582   3.237   1.568   4.360  1.1450 -1.0359  1.9416
 4316SOL     OW24583   2.964   1.279   2.939 -0.2508  0.2281 -0.1828
 4316SOL    HW124584   3.035   1.294   2.877  1.4415  1.9205  2.1834
 4316SOL    HW224585   2.958   1.183   2.935  3.5180 -0.0727  1.3608
 4317SOL     OW24586   4.517   3.233   4.319 -0.2896  0.3227 -0.8367
 4317SOL    HW124587   4.479   3.208   4.234 -2.1271 -1.4717  0.5231
 4317SOL    HW224588   4.607   3.202   4.308 -0.2246  0.1348  0.2423
 4318SOL     OW24589   4.616   3.475   1.004 -0.2525 -0.3860 -0.4076
 4318SOL    HW124590   4.683   3.417   0.966 -1.3632 -3.0802  1.7909
 4318SOL    HW224591   4.544   3.470   0.942  0.1635 -0.5683 -0.8788
 4319SOL     OW24592   4.133   1.113   5.934  0.1303  0.9636  0.3425
 4319SOL    HW124593   4.183   1.156   6.004  0.0284  0.4720  0.7108
 4319SOL    HW224594   4.105   1.187   5.880  2.4095  0.1539 -1.9441
 4320SOL     OW24595   3.215   2.920   1.846  0.4433  0.3817  0.1613
 4320SOL    HW124596   3.147   2.937   1.911 -0.1978  1.9629 -0.9176
 4320SOL    HW224597   3.207   2.998   1.790 -2.4426  0.2934  0.4505
 4321SOL     OW24598   4.467   4.511  16.537  0.4483  0.4152  0.5341
 4321SOL    HW124599   4.553   4.551  16.544  0.6539  0.7640 -3.6675
 4321SOL    HW224600   4.479   4.467  16.452 -1.7994  0.8104  0.0121
 4322SOL     OW24601   4.496   3.477  13.656 -0.1416 -0.2828 -0.0769
 4322SOL    HW124602   4.470   3.439  13.572  0.5393  1.5776 -1.1313
 4322SOL    HW224603   4.493   3.569  13.629 -2.0322  0.1632  1.7181
 4323SOL     OW24604   0.214   1.719   7.625  0.2634  0.1776  0.1655
 4323SOL    HW124605   0.280   1.752   7.686 -0.7893  3.2203 -0.3596
 4323SOL    HW224606   0.270   1.687   7.555 -0.6023  0.4482 -0.6472
 4324SOL     OW24607   3.092   0.875  13.632 -0.3461  0.3407 -0.7316
 4324SOL    HW124608   3.101   0.783  13.606  0.7644  0.2519 -0.0372
 4324SOL    HW224609   2.998   0.891  13.623  0.0073  3.1568  0.8715
 4325SOL     OW24610   4.125   1.530   2.749  0.7326  0.5710  0.3412
 4325SOL    HW124611   4.217   1.533   2.775  1.4968 -3.6464 -1.9521
 4325SOL    HW224612   4.086   1.552   2.834 -1.9480 -0.6432 -0.5728
 4326SOL     OW24613   2.679   0.291   8.182 -0.3697  0.7593 -0.1565
 4326SOL    HW124614   2.772   0.287   8.160  0.1005 -0.9706  2.1713
 4326SOL    HW224615   2.682   0.314   8.275  0.4433  0.9496 -0.2353
 4327SOL     OW24616   1.784   0.957  16.219  0.1664 -0.4189  0.2268
 4327SOL    HW124617   1.749   0.943  16.307  2.3570  2.1129  1.5115
 4327SOL    HW224618   1.747   1.041  16.191  1.8095  0.9266  2.0590
 4328SOL     OW24619   3.232   2.357   8.993  0.2206 -0.6590 -0.1920
 4328SOL    HW124620   3.197   2.445   9.011 -0.3265 -1.0553  0.6700
 4328SOL    HW224621   3.316   2.380   8.952 -0.1132  1.9200  0.5531
 4329SOL     OW24622   2.779   1.174   9.707  0.5148  0.8555  0.7067
 4329SOL    HW124623   2.759   1.103   9.646  0.0497  1.2871  0.3475
 4329SOL    HW224624   2.821   1.239   9.650  1.9623  0.0764  0.8870
 4330SOL     OW24625   2.823   0.932   9.448 -0.3745  0.2913  0.2666
 4330SOL    HW124626   2.753   0.869   9.431  0.9339 -0.7646 -1.1731
 4330SOL    HW224627   2.807   1.002   9.385 -0.1364  1.7734  1.8603
 4331SOL     OW24628   0.234   4.612  12.153  1.1450 -0.5060  0.4723
 4331SOL    HW124629   0.326   4.634  12.140  2.1192 -3.1196  2.9541
 4331SOL    HW224630   0.202   4.689  12.202 -2.8263 -0.6795 -1.8498
 4332SOL     OW24631   0.321   2.143   6.442 -0.1580 -0.3303 -0.1674
 4332SOL    HW124632   0.395   2.088   6.416  1.3272  0.8422  1.5501
 4332SOL    HW224633   0.246   2.084   6.450  0.0438 -0.4147  1.1610
 4333SOL     OW24634   3.213   2.939   4.325 -0.3846 -0.0169 -0.0861
 4333SOL    HW124635   3.234   2.917   4.415 -1.6238 -2.1801 -0.3215
 4333SOL    HW224636   3.219   3.033   4.308 -0.2109  0.1151  0.7022
 4334SOL     OW24637   0.819   0.233   7.119 -0.2265  0.5442  0.6106
 4334SOL    HW124638   0.899   0.229   7.067 -1.0798  0.9656 -0.7384
 4334SOL    HW224639   0.800   0.327   7.121  0.8747  0.8263 -1.6172
 4335SOL     OW24640   2.123   2.812  12.680  0.2396  0.3020  0.4368
 4335SOL    HW124641   2.046   2.758  12.661  0.2676  1.5682 -3.2910
 4335SOL    HW224642   2.146   2.782  12.768 -0.4766  2.3277  1.3367
 4336SOL     OW24643   1.876   3.393   9.576 -0.8621  0.2863  0.5304
 4336SOL    HW124644   1.863   3.477   9.534 -2.1410  0.2681  0.8974
 4336SOL    HW224645   1.932   3.347   9.513  2.2972  3.3161  1.1374
 4337SOL     OW24646   3.112   3.956   8.868 -0.1559 -0.2945 -0.1601
 4337SOL    HW124647   3.138   4.033   8.919 -1.8872 -0.2638  0.6739
 4337SOL    HW224648   3.168   3.977   8.793 -1.9719  1.8242 -0.9394
 4338SOL     OW24649   0.073   0.404   7.399  0.4778  0.5714 -0.4668
 4338SOL    HW124650   0.058   0.378   7.308  0.6045 -1.3798  0.0740
 4338SOL    HW224651   0.020   0.342   7.449  0.7726  0.5354 -0.2015
 4339SOL     OW24652   3.596   0.223   6.795 -0.3838 -0.2674 -0.0463
 4339SOL    HW124653   3.625   0.313   6.785  0.2462 -0.4498  0.1444
 4339SOL    HW224654   3.673   0.189   6.749 -1.2981  0.8959 -2.4049
 4340SOL     OW24655   3.752   1.955   7.304  0.1665 -0.5973  0.2743
 4340SOL    HW124656   3.759   1.861   7.290 -0.3109 -0.4344 -0.9971
 4340SOL    HW224657   3.806   1.966   7.383 -1.2392  0.2190  1.1166
 4341SOL     OW24658   4.731   1.185  10.996  0.0151 -0.5887  0.4387
 4341SOL    HW124659   4.705   1.247  11.064 -0.8364 -0.2799 -0.1591
 4341SOL    HW224660   4.654   1.185  10.940 -0.0321  2.2975  0.5277
 4342SOL     OW24661   2.106   3.410   2.367  0.1689 -0.1294 -0.1463
 4342SOL    HW124662   2.095   3.486   2.309 -1.6258 -0.2940 -0.0255
 4342SOL    HW224663   2.130   3.338   2.309  1.3823  0.5893 -0.5315
 4343SOL     OW24664   3.414   4.184   5.531 -0.4841 -0.5162 -0.2194
 4343SOL    HW124665   3.355   4.111   5.548  0.8000 -1.6772 -0.7458
 4343SOL    HW224666   3.370   4.261   5.566  1.0385 -0.3153  1.2291
 4344SOL     OW24667   2.652   3.977  17.560  0.0365  0.0529 -0.2248
 4344SOL    HW124668   2.678   4.008  17.647  0.7046  1.0261 -0.7646
 4344SOL    HW224669   2.618   3.889  17.571 -1.3318  0.5495 -0.5095
 4345SOL     OW24670   0.513   1.786   8.680  0.2578 -0.1624 -0.1903
 4345SOL    HW124671   0.486   1.801   8.589  0.8300  1.1913 -0.1396
 4345SOL    HW224672   0.472   1.863   8.719  4.4343  1.9034  0.1559
 4346SOL     OW24673   2.637   4.523  15.420  0.4809  0.5219 -0.2591
 4346SOL    HW124674   2.673   4.441  15.453 -0.8347 -0.5671 -1.5137
 4346SOL    HW224675   2.708   4.587  15.429 -0.0663  1.2013 -0.8069
 4347SOL     OW24676   3.986   2.485  17.411 -0.4304 -0.2220 -0.5573
 4347SOL    HW124677   3.936   2.484  17.330  0.3910 -0.5128 -1.0661
 4347SOL    HW224678   4.012   2.394  17.429 -1.8877 -1.3221 -4.0634
 4348SOL     OW24679   1.094   1.820   5.933  0.4490  0.4541 -0.0911
 4348SOL    HW124680   1.086   1.845   6.025 -2.5696 -0.8105  0.0059
 4348SOL    HW224681   1.113   1.897   5.880 -0.4911  0.5417 -0.3031
 4349SOL     OW24682   1.229   1.761   2.811 -0.3910  0.2381 -0.7645
 4349SOL    HW124683   1.311   1.713   2.802 -1.3706 -0.8558 -3.6023
 4349SOL    HW224684   1.195   1.734   2.896  2.5846  1.5281  0.8289
 4350SOL     OW24685   0.651   0.707   9.794  0.3556 -0.1213 -0.1810
 4350SOL    HW124686   0.630   0.631   9.848  1.3821 -0.6091 -0.4786
 4350SOL    HW224687   0.582   0.763   9.831  0.1741  0.1772 -0.9730
 4351SOL     OW24688   4.683   2.038  10.527  0.0592 -0.1473  0.5395
 4351SOL    HW124689   0.004   2.106  10.495 -1.1651 -0.1247 -1.6151
 4351SOL    HW224690   4.604   2.089  10.512 -0.6026 -1.1708  0.5547
 4352SOL     OW24691   3.779   4.179  16.975  0.5312  0.3856 -0.0474
 4352SOL    HW124692   3.701   4.233  16.964  0.6842  0.6539  0.1695
 4352SOL    HW224693   3.844   4.235  17.018  0.4504  2.0471 -2.0831
 4353SOL     OW24694   0.924   2.877   2.367 -0.0797  0.0261  0.3440
 4353SOL    HW124695   0.948   2.942   2.433 -1.3508  1.8912 -1.0650
 4353SOL    HW224696   0.834   2.906   2.358 -1.0425 -3.8871 -2.5030
 4354SOL     OW24697   3.445   0.485   4.224  0.4248 -0.3859 -0.0291
 4354SOL    HW124698   3.478   0.573   4.205 -0.8079  0.7406  3.0792
 4354SOL    HW224699   3.504   0.453   4.293 -1.1574 -0.4229  1.2815
 4355SOL     OW24700   2.666   2.244   4.409 -0.1094 -0.2056  0.7238
 4355SOL    HW124701   2.571   2.257   4.404  0.1018  1.2265  0.3186
 4355SOL    HW224702   2.681   2.183   4.481  0.9565  0.5920  1.1707
 4356SOL     OW24703   0.517   4.207  13.278  0.0946  0.1658 -0.3259
 4356SOL    HW124704   0.424   4.222  13.262 -0.7293 -0.4867  3.8719
 4356SOL    HW224705   0.567   4.261  13.217 -1.1880  0.7020 -0.8882
 4357SOL     OW24706   3.448   2.884   1.586 -0.0295  0.2202 -0.0759
 4357SOL    HW124707   3.451   2.979   1.597  2.7901  0.1366 -0.1349
 4357SOL    HW224708   3.483   2.878   1.497 -2.7341  2.6229 -1.2995
 4358SOL     OW24709   1.296   0.991  11.122 -0.4925  0.0037  0.2976
 4358SOL    HW124710   1.241   1.030  11.054  1.6391  0.5917 -1.1186
 4358SOL    HW224711   1.353   0.941  11.064  1.4853  1.1342  1.2428
 4359SOL     OW24712   1.940   2.426   4.935 -0.2740 -0.1592 -0.0645
 4359SOL    HW124713   1.896   2.341   4.943 -1.0471  0.2592  0.1233
 4359SOL    HW224714   1.927   2.450   5.027  0.6637 -0.7167  0.2076
 4360SOL     OW24715   3.702   2.628   8.480 -0.2219 -0.5394  0.2264
 4360SOL    HW124716   3.714   2.714   8.439 -3.5046 -0.8182 -1.3213
 4360SOL    HW224717   3.784   2.590   8.447 -0.0477  1.9169 -2.2188
 4361SOL     OW24718   0.114   3.353  17.290  0.1700 -0.6566  0.1637
 4361SOL    HW124719   0.138   3.262  17.277  0.7537 -0.5226  0.3224
 4361SOL    HW224720   0.019   3.354  17.273  0.0426  0.3650  0.9294
 4362SOL     OW24721   3.018   1.790   1.205 -0.0615 -0.1227  0.4448
 4362SOL    HW124722   3.002   1.702   1.239  1.5057 -1.0983 -1.3123
 4362SOL    HW224723   3.092   1.816   1.260 -0.3444 -3.1638  2.2764
 4363SOL     OW24724   2.814   0.613   4.483 -0.5407  0.0367 -0.2299
 4363SOL    HW124725   2.793   0.694   4.437 -0.8097 -0.5130 -1.0811
 4363SOL    HW224726   2.732   0.567   4.466  1.6390 -3.1326 -2.1080
 4364SOL     OW24727   0.892   2.922  11.531 -0.3348 -0.0200 -0.4949
 4364SOL    HW124728   0.827   2.976  11.576  0.1139  1.6063 -1.8319
 4364SOL    HW224729   0.833   2.883  11.466 -0.6334 -1.1237  0.4343
 4365SOL     OW24730   1.959   4.352   4.040  0.1338 -0.3978 -0.4912
 4365SOL    HW124731   2.028   4.293   4.009  0.9798  0.4624 -0.2516
 4365SOL    HW224732   2.001   4.438   4.033 -0.5998  0.0240  0.3860
 4366SOL     OW24733   3.398   2.927   6.437  0.0558 -0.5713 -0.2550
 4366SOL    HW124734   3.472   2.954   6.382 -1.0935  2.0702 -0.5118
 4366SOL    HW224735   3.332   2.991   6.411  1.3127 -0.5558 -3.4610
 4367SOL     OW24736   3.313   2.141   5.627 -0.0231 -0.3702  0.5671
 4367SOL    HW124737   3.254   2.127   5.553 -0.1235  1.6972  0.2737
 4367SOL    HW224738   3.320   2.236   5.624 -1.8218 -0.2270  0.9594
 4368SOL     OW24739   3.629   1.183   7.845 -0.3805  0.0249 -0.2442
 4368SOL    HW124740   3.712   1.141   7.825 -0.2806  0.2601 -0.3284
 4368SOL    HW224741   3.607   1.222   7.760 -0.6505 -1.6468 -0.9446
 4369SOL     OW24742   2.728   3.789   3.750 -0.0357  0.1512  0.0516
 4369SOL    HW124743   2.722   3.851   3.822  1.7832  0.9807 -0.5011
 4369SOL    HW224744   2.793   3.829   3.691  0.8216  1.6157  2.0029
 4370SOL     OW24745   0.004   0.734   3.959 -0.0705  1.0792 -0.0396
 4370SOL    HW124746   0.039   0.662   4.011 -0.7100  0.3878 -0.5600
 4370SOL    HW224747   4.653   0.709   3.935  0.6955 -0.6697 -1.0346
 4371SOL     OW24748   2.237   2.956   7.797 -0.0620  0.0059 -0.1334
 4371SOL    HW124749   2.145   2.949   7.772 -0.7684 -1.7517  2.9172
 4371SOL    HW224750   2.238   3.033   7.854  1.9676 -0.4229  0.4264
 4372SOL     OW24751   4.017   0.825  11.491  0.4389 -0.7839  0.3134
 4372SOL    HW124752   3.944   0.791  11.440  0.7425  0.7327 -1.1287
 4372SOL    HW224753   4.036   0.908  11.448  1.0207 -0.0777  1.9274
 4373SOL     OW24754   4.627   2.611   7.541  0.3843  0.3147  0.4537
 4373SOL    HW124755   4.691   2.682   7.548 -1.3556  2.1062 -2.2262
 4373SOL    HW224756   4.649   2.579   7.453  0.4299  1.8675 -0.1053
 4374SOL     OW24757   4.289   0.356   9.351 -0.1669  0.2722  0.1987
 4374SOL    HW124758   4.331   0.278   9.386 -3.5400 -2.0613 -0.8912
 4374SOL    HW224759   4.196   0.332   9.344  0.3708 -1.0889 -2.2295
 4375SOL     OW24760   0.132   0.063   5.292 -0.5488  0.0492 -0.3669
 4375SOL    HW124761   0.041   0.090   5.283  0.0206  1.8477 -0.7188
 4375SOL    HW224762   0.113   4.712   5.263 -1.0382  0.5914 -1.6891
 4376SOL     OW24763   2.473   2.353   4.832  0.0278  0.4601 -0.5058
 4376SOL    HW124764   2.405   2.302   4.874  2.6731 -2.2611  0.5004
 4376SOL    HW224765   2.518   2.277   4.795 -0.7525 -1.3034  2.2400
 4377SOL     OW24766   0.024   4.223   6.052 -0.1307 -0.0970  0.3433
 4377SOL    HW124767   4.704   4.218   5.976 -0.5474 -0.7178  0.7059
 4377SOL    HW224768   0.044   4.317   6.052  0.0009 -0.1261 -2.6019
 4378SOL     OW24769   1.557   3.947   4.605 -0.2592 -0.0039 -0.0203
 4378SOL    HW124770   1.624   3.895   4.561 -0.7296 -1.9658  1.5681
 4378SOL    HW224771   1.589   3.926   4.693  1.2952  0.9175 -0.3615
 4379SOL     OW24772   1.708   0.509   9.096  0.2388  0.3101 -0.3835
 4379SOL    HW124773   1.627   0.531   9.143 -0.3146 -1.9123 -0.3027
 4379SOL    HW224774   1.682   0.476   9.010 -1.5393 -2.6799  1.2858
 4380SOL     OW24775   1.837   3.780  15.679  0.4279 -0.0178 -0.3723
 4380SOL    HW124776   1.762   3.801  15.734  0.0898  1.0024 -1.2112
 4380SOL    HW224777   1.824   3.838  15.604  0.0927  0.8840  0.3947
 4381SOL     OW24778   3.566   3.557   2.048 -0.1095 -0.0510 -0.4951
 4381SOL    HW124779   3.496   3.500   2.077 -0.6345 -0.7610 -3.1359
 4381SOL    HW224780   3.509   3.611   1.993 -1.8340  0.4584  1.7889
 4382SOL     OW24781   0.470   1.697  17.346  0.5772 -0.0133 -0.5384
 4382SOL    HW124782   0.451   1.672  17.436 -2.2138 -1.9040 -1.6553
 4382SOL    HW224783   0.491   1.610  17.313 -0.4270 -0.1583 -0.8210
 4383SOL     OW24784   3.918   3.408  10.107 -0.4724  0.0716  0.5185
 4383SOL    HW124785   3.979   3.397  10.179 -1.0940  0.8979  1.1739
 4383SOL    HW224786   3.902   3.320  10.074  0.4723 -0.0867  0.4927
 4384SOL     OW24787   1.158   4.250  14.499  0.2059  0.6870  0.2905
 4384SOL    HW124788   1.122   4.316  14.559 -1.2428  0.7763 -0.6725
 4384SOL    HW224789   1.206   4.195  14.560  0.8971 -1.5313 -2.3102
 4385SOL     OW24790   4.457   2.232  13.969 -0.5726  0.0651  0.8178
 4385SOL    HW124791   4.389   2.200  14.028 -0.0798 -1.1272  0.7309
 4385SOL    HW224792   4.531   2.196  14.018  1.3851 -0.0519 -2.2283
 4386SOL     OW24793   2.076   0.907   1.378 -0.1250 -0.1424 -0.0218
 4386SOL    HW124794   2.161   0.946   1.397 -0.1772 -0.8247  1.5601
 4386SOL    HW224795   2.084   0.830   1.434  4.9561  1.8853  1.9735
 4387SOL     OW24796   4.325   4.672  12.086  0.2871  0.0087 -0.2062
 4387SOL    HW124797   4.283   4.721  12.015  1.2948 -1.0203 -1.5060
 4387SOL    HW224798   4.370   0.002  12.137 -1.9283 -0.3736  2.2977
 4388SOL     OW24799   1.368   0.122  11.945  0.3153  0.1861  0.0150
 4388SOL    HW124800   1.312   0.150  11.873  1.5050 -1.5821 -1.5922
 4388SOL    HW224801   1.377   0.199  12.002 -1.8556  0.6791 -0.3065
 4389SOL     OW24802   1.876   3.957   2.263  0.1408  0.2487  0.2631
 4389SOL    HW124803   1.819   3.958   2.340  0.6071 -2.1019  0.6562
 4389SOL    HW224804   1.909   4.046   2.251 -1.1048  1.0548  2.7056
 4390SOL     OW24805   3.532   0.648   8.950  0.0224  0.1783 -0.2313
 4390SOL    HW124806   3.477   0.599   8.889 -1.3665  0.2303  0.9721
 4390SOL    HW224807   3.510   0.610   9.035 -1.0121  0.7774 -0.2370
 4391SOL     OW24808   4.090   0.653   8.212 -0.1651  0.0874  0.1464
 4391SOL    HW124809   4.088   0.558   8.205  1.5675  0.0966 -0.6517
 4391SOL    HW224810   4.176   0.673   8.249  0.3360  0.5413 -1.2312
 4392SOL     OW24811   2.974   1.894   9.049  0.3347  0.3098  0.2843
 4392SOL    HW124812   2.925   1.860   9.125  0.2962  1.5754  0.8295
 4392SOL    HW224813   3.002   1.811   9.010  0.3435  0.6759 -0.4689
 4393SOL     OW24814   1.054   3.956  17.315 -0.8412 -0.1935  0.2080
 4393SOL    HW124815   0.985   4.009  17.355 -2.2208 -1.9657  0.1609
 4393SOL    HW224816   1.127   3.966  17.377 -1.4228  1.7216  0.5727
 4394SOL     OW24817   2.971   3.984   2.645  0.5638 -0.7221 -0.6753
 4394SOL    HW124818   2.950   3.999   2.737  1.3726  0.0982 -0.6299
 4394SOL    HW224819   3.044   4.045   2.635  0.9068 -1.0366 -0.0924
 4395SOL     OW24820   2.937   3.881   5.166  0.6488 -0.0955  0.0400
 4395SOL    HW124821   2.853   3.883   5.119  0.7453  0.7339 -0.0998
 4395SOL    HW224822   2.936   3.967   5.209 -1.2206  0.1460 -0.4415
 4396SOL     OW24823   2.480   0.099   7.686  0.7443  0.0780 -0.6288
 4396SOL    HW124824   2.420   0.117   7.759  0.9798  1.7854 -0.8560
 4396SOL    HW224825   2.478   0.003   7.678 -2.1045  0.0356  0.4488
 4397SOL     OW24826   1.396   4.468  16.297 -0.3366  0.0582 -0.1315
 4397SOL    HW124827   1.370   4.485  16.207  0.8553 -1.1650 -0.6998
 4397SOL    HW224828   1.484   4.432  16.292 -0.2914  0.4212 -1.8204
 4398SOL     OW24829   3.825   1.870  12.062 -0.2287  0.4843  0.6682
 4398SOL    HW124830   3.761   1.891  12.130 -0.7746 -0.4999  0.4532
 4398SOL    HW224831   3.819   1.775  12.067 -1.0038  0.4724 -0.4998
 4399SOL     OW24832   0.843   2.594   5.741 -0.6705 -0.0824 -0.2225
 4399SOL    HW124833   0.839   2.589   5.645 -1.4568  1.7815 -0.2841
 4399SOL    HW224834   0.850   2.687   5.763 -1.1776 -0.4303  1.3541
 4400SOL     OW24835   4.435   2.046   6.750 -0.4131  0.0979  0.1119
 4400SOL    HW124836   4.362   2.028   6.691  1.4021 -1.9225 -1.5064
 4400SOL    HW224837   4.390   2.071   6.831 -0.8622  0.7578 -0.3391
 4401SOL     OW24838   0.483   2.786   6.472  0.6488 -0.2434  0.0411
 4401SOL    HW124839   0.548   2.853   6.452  0.8120 -0.4964 -0.2726
 4401SOL    HW224840   0.524   2.752   6.551  2.0336  2.0497  0.2918
 4402SOL     OW24841   3.494   4.408   7.940  0.3959 -0.0742 -0.2530
 4402SOL    HW124842   3.464   4.323   7.973 -0.3282  0.0642 -0.5607
 4402SOL    HW224843   3.523   4.382   7.852 -1.1258 -0.1648 -0.7282
 4403SOL     OW24844   1.009   3.516   8.008 -0.0758 -0.4450 -0.2299
 4403SOL    HW124845   0.987   3.608   8.017  0.1505 -0.6045  1.8999
 4403SOL    HW224846   1.067   3.504   8.083 -0.8441  0.1998  0.4590
 4404SOL     OW24847   0.707   2.755  13.352 -0.3908 -0.2135 -0.0013
 4404SOL    HW124848   0.743   2.671  13.323  1.7986 -0.2544  2.8073
 4404SOL    HW224849   0.627   2.769  13.302 -0.5536 -1.0730  0.0143
 4405SOL     OW24850   1.932   2.948   6.169  0.0805 -0.4413 -0.0067
 4405SOL    HW124851   1.961   2.905   6.088 -2.1823 -1.8156 -0.1030
 4405SOL    HW224852   1.912   3.032   6.128  1.0830  0.3903  1.2284
 4406SOL     OW24853   2.646   0.693  13.444 -0.8961 -0.1550 -0.9727
 4406SOL    HW124854   2.696   0.730  13.372  2.7380 -1.3515  0.9726
 4406SOL    HW224855   2.696   0.721  13.521 -0.1404  0.6880 -1.7753
 4407SOL     OW24856   2.426   4.391   6.311 -0.1535 -0.2466 -0.5356
 4407SOL    HW124857   2.491   4.368   6.377  1.9640  2.1192 -1.7980
 4407SOL    HW224858   2.459   4.348   6.231  0.0887 -1.0653  0.0007
 4408SOL     OW24859   3.293   2.551   3.925  0.2118  0.0804  0.2794
 4408SOL    HW124860   3.379   2.512   3.910  0.1763  0.0317  0.2041
 4408SOL    HW224861   3.324   2.635   3.890 -1.3450  0.3173 -0.5120
 4409SOL     OW24862   1.781   3.885   7.924  0.2234 -0.2950  0.1185
 4409SOL    HW124863   1.782   3.792   7.903  1.2024 -0.1115 -0.6661
 4409SOL    HW224864   1.822   3.917   7.844  0.1393 -0.2777  0.0826
 4410SOL     OW24865   3.675   0.050   8.840 -0.2889 -0.1205 -0.6369
 4410SOL    HW124866   3.691   4.716   8.778 -0.9863 -0.7826 -0.0382
 4410SOL    HW224867   3.768   0.064   8.860 -0.2864  0.6038 -1.1538
 4411SOL     OW24868   2.026   0.747  16.104  0.0605 -0.0918  0.4733
 4411SOL    HW124869   1.967   0.738  16.179 -0.3562 -2.5698 -0.1656
 4411SOL    HW224870   1.998   0.680  16.041  1.4156  1.2249 -1.5309
 4412SOL     OW24871   0.635   2.442   1.103  0.0440  0.5737  0.0817
 4412SOL    HW124872   0.714   2.480   1.063  1.1552 -0.7198  1.0625
 4412SOL    HW224873   0.571   2.457   1.033  0.2333  1.6572  0.1262
 4413SOL     OW24874   4.075   1.012  10.166 -0.1901  0.2023  0.3781
 4413SOL    HW124875   4.132   1.025  10.241  1.5913  0.3990 -1.0168
 4413SOL    HW224876   3.992   0.985  10.207 -0.5760  3.5191  1.8312
 4414SOL     OW24877   1.515   1.028   6.734 -0.9203  0.0015  0.4045
 4414SOL    HW124878   1.487   0.951   6.684 -2.9925  0.1285  1.3520
 4414SOL    HW224879   1.454   1.024   6.808  2.2738 -2.8446  2.8973
 4415SOL     OW24880   3.786   0.461   2.032  0.1289 -0.8393  0.5756
 4415SOL    HW124881   3.798   0.490   2.122 -1.6710  0.7452  0.3072
 4415SOL    HW224882   3.877   0.446   2.007 -0.0569 -0.5871 -0.2491
 4416SOL     OW24883   4.571   2.184  14.241 -0.5440 -0.4626  0.1923
 4416SOL    HW124884   4.574   2.090  14.225  0.0353 -0.7169  1.8313
 4416SOL    HW224885   4.660   2.210  14.218 -0.7978  0.5739  0.4038
 4417SOL     OW24886   3.708   2.548   8.753  0.4358 -0.7140 -0.4531
 4417SOL    HW124887   3.694   2.565   8.660 -1.0683 -3.7272 -0.7747
 4417SOL    HW224888   3.778   2.611   8.767  0.9536 -1.3879 -0.0610
 4418SOL     OW24889   0.860   4.208   4.964  0.8816 -0.3764  0.5534
 4418SOL    HW124890   0.907   4.172   5.039  1.6420 -0.8049 -0.1275
 4418SOL    HW224891   0.876   4.301   4.982 -0.0706  0.0485 -0.8056
 4419SOL     OW24892   0.347   3.929   7.115 -0.1891  0.1202 -0.5045
 4419SOL    HW124893   0.372   3.973   7.196  4.6029  0.4061 -2.1458
 4419SOL    HW224894   0.415   3.862   7.110  1.1431  1.2463  2.3776
 4420SOL     OW24895   0.322   3.223   3.441  0.2590  0.2450 -0.1008
 4420SOL    HW124896   0.231   3.215   3.414 -0.1732 -0.6332  1.5565
 4420SOL    HW224897   0.315   3.170   3.521 -2.3815 -1.1306 -1.2704
 4421SOL     OW24898   2.006   3.066   1.522  0.0016 -0.3587 -0.2699
 4421SOL    HW124899   1.953   3.061   1.602 -0.3454 -0.8870 -0.5268
 4421SOL    HW224900   1.953   3.126   1.469  0.0893 -0.6522 -0.6934
 4422SOL     OW24901   4.433   2.429   3.773  0.9115  0.0595  0.5171
 4422SOL    HW124902   4.403   2.456   3.686 -0.3527 -0.5379  0.7669
 4422SOL    HW224903   4.479   2.350   3.743  2.3278  1.3883 -0.7900
 4423SOL     OW24904   2.763   2.477   7.515  0.3425  0.5056 -0.7882
 4423SOL    HW124905   2.764   2.500   7.608 -0.9713 -1.8505 -0.2016
 4423SOL    HW224906   2.669   2.459   7.511  0.3972  0.6104 -2.7089
 4424SOL     OW24907   3.205   4.594   8.044  0.5639  0.2729 -0.5030
 4424SOL    HW124908   3.178   4.526   7.982 -0.4022 -0.4234  0.6821
 4424SOL    HW224909   3.193   4.567   8.135 -0.2719 -0.8685 -0.9534
 4425SOL     OW24910   1.108   0.775   5.443  0.0855 -0.2099  0.3529
 4425SOL    HW124911   1.094   0.788   5.537  0.7106  0.2553  0.3782
 4425SOL    HW224912   1.115   0.858   5.397 -1.1669  1.2280  2.7521
 4426SOL     OW24913   1.435   2.282   4.262  0.5382  0.2653 -0.4121
 4426SOL    HW124914   1.367   2.312   4.202 -0.4223 -0.0940  0.5042
 4426SOL    HW224915   1.497   2.355   4.263  0.4905  0.2873  0.4754
 4427SOL     OW24916   2.468   4.596  15.153  0.1106 -0.2565  0.3484
 4427SOL    HW124917   2.381   4.617  15.187  1.4324  0.9533  2.9727
 4427SOL    HW224918   2.513   4.541  15.217 -1.2685 -3.6375 -1.6478
 4428SOL     OW24919   1.392   3.879   6.210 -0.3986 -0.0711 -0.1780
 4428SOL    HW124920   1.403   3.822   6.286  0.3622  0.2872 -0.0192
 4428SOL    HW224921   1.299   3.864   6.194 -0.2389 -0.0806 -1.1097
 4429SOL     OW24922   2.121   1.172   2.812  0.4516 -0.0380  0.8215
 4429SOL    HW124923   2.066   1.214   2.879  2.5166 -0.1530  2.5708
 4429SOL    HW224924   2.185   1.238   2.785  0.6368 -0.0196  1.3141
 4430SOL     OW24925   1.143   1.495   3.680  0.3087 -0.3313  0.1233
 4430SOL    HW124926   1.184   1.440   3.614  1.1221 -0.4791  0.7461
 4430SOL    HW224927   1.054   1.494   3.646  0.4519  3.1857 -0.3992
 4431SOL     OW24928   1.576   3.172   5.369 -0.0591 -0.3130  0.9567
 4431SOL    HW124929   1.624   3.245   5.331 -2.1610  0.8801  0.5777
 4431SOL    HW224930   1.487   3.206   5.361  0.1444  0.5907  2.6693
 4432SOL     OW24931   1.131   4.002   5.852 -0.1865  0.2106  0.8462
 4432SOL    HW124932   1.223   4.009   5.831 -0.8714 -0.9118 -2.4664
 4432SOL    HW224933   1.093   4.078   5.807  1.1227  0.1259 -0.3865
 4433SOL     OW24934   3.265   2.464   6.972 -0.4623 -0.6008  0.7101
 4433SOL    HW124935   3.295   2.383   7.012  0.2509 -2.7588 -4.2292
 4433SOL    HW224936   3.345   2.504   6.937  0.4718 -1.2937  2.0455
 4434SOL     OW24937   0.405   4.053   0.748 -0.5420  0.2227  0.0349
 4434SOL    HW124938   0.468   4.025   0.814 -1.9105 -1.7693  0.5073
 4434SOL    HW224939   0.451   4.039   0.665  0.9869 -0.0609  0.9448
 4435SOL     OW24940   2.030   1.158   4.110 -0.6104 -0.2244  0.1799
 4435SOL    HW124941   2.095   1.216   4.150 -0.6038 -1.4876  2.0399
 4435SOL    HW224942   2.090   1.102   4.062  0.4558  0.4182  0.7606
 4436SOL     OW24943   4.716   1.625   3.768 -0.3273  0.1038  0.3709
 4436SOL    HW124944   4.664   1.615   3.847 -1.0931 -1.0338 -0.2830
 4436SOL    HW224945   4.669   1.689   3.714 -1.6278 -0.6221  0.6465
 4437SOL     OW24946   1.798   0.153   9.707 -0.3904 -0.6081  0.0099
 4437SOL    HW124947   1.869   0.177   9.649 -1.1275 -0.5957 -0.8884
 4437SOL    HW224948   1.847   0.131   9.786 -0.2763  1.1238  0.4348
 4438SOL     OW24949   3.027   2.995  10.802 -0.4469  0.5887 -0.3316
 4438SOL    HW124950   3.120   2.984  10.779 -0.1731 -1.1086  1.5783
 4438SOL    HW224951   3.032   3.053  10.877  0.7831  1.9360 -1.4471
 4439SOL     OW24952   0.831   4.503  13.389  0.2101 -0.2353  0.0583
 4439SOL    HW124953   0.741   4.504  13.420  0.6059  0.0997  1.1833
 4439SOL    HW224954   0.854   4.596  13.386  0.3603 -0.2251  1.6226
 4440SOL     OW24955   4.172   2.839   7.442 -0.0616  0.9423  0.2400
 4440SOL    HW124956   4.257   2.814   7.478 -0.2403  0.7502  0.5310
 4440SOL    HW224957   4.203   2.882   7.362  0.9221 -3.4772 -1.7486
 4441SOL     OW24958   2.529   2.094   7.800 -0.0811  0.6600  0.2507
 4441SOL    HW124959   2.572   2.156   7.859 -0.8371 -0.4794  1.9840
 4441SOL    HW224960   2.451   2.077   7.853  0.6105  1.1457  1.4206
 4442SOL     OW24961   4.262   3.106   3.062  0.6150 -0.2809  0.4322
 4442SOL    HW124962   4.257   3.089   2.968  2.6291 -2.1176  0.6629
 4442SOL    HW224963   4.186   3.163   3.077 -0.1673 -1.2554  0.1036
 4443SOL     OW24964   4.158   0.785   3.144 -0.0677  0.6986  0.7295
 4443SOL    HW124965   4.136   0.865   3.193 -2.9438  1.8739 -2.5078
 4443SOL    HW224966   4.211   0.828   3.077 -0.8664 -2.1852 -1.7551
 4444SOL     OW24967   2.811   3.037   0.847 -0.4001  0.2520  0.1981
 4444SOL    HW124968   2.764   2.963   0.808 -0.7142  0.8006 -0.4767
 4444SOL    HW224969   2.791   3.016   0.938  1.8979 -1.4671  0.2987
 4445SOL     OW24970   0.880   2.638   3.365 -0.2539  0.0145  0.1329
 4445SOL    HW124971   0.795   2.630   3.323  0.1259  1.9361 -1.0131
 4445SOL    HW224972   0.875   2.721   3.412 -1.8880  0.7740 -1.4004
 4446SOL     OW24973   2.161   1.973  15.797  0.7757 -0.4108  0.3972
 4446SOL    HW124974   2.107   1.957  15.874 -0.4959  2.6921  0.1242
 4446SOL    HW224975   2.130   2.060  15.771  1.6898 -0.3497 -0.4858
 4447SOL     OW24976   4.192   3.845   7.281 -0.0766 -0.0032 -0.7816
 4447SOL    HW124977   4.168   3.753   7.287 -1.1467  0.5399  2.8541
 4447SOL    HW224978   4.180   3.876   7.370  0.2378  1.4264 -1.2323
 4448SOL     OW24979   0.387   4.131   9.261 -0.1284 -0.1814 -0.1165
 4448SOL    HW124980   0.327   4.206   9.253  0.0583  0.2246  2.2981
 4448SOL    HW224981   0.431   4.154   9.343  0.1207  0.8499 -0.5350
 4449SOL     OW24982   0.446   3.246   8.167 -0.3252  0.0690  0.3477
 4449SOL    HW124983   0.414   3.286   8.086  0.4699 -0.3540 -0.1779
 4449SOL    HW224984   0.377   3.273   8.227 -1.8488 -0.2445 -1.2309
 4450SOL     OW24985   2.217   2.271   9.688  0.1479 -0.4306 -0.5810
 4450SOL    HW124986   2.170   2.197   9.724 -1.2973 -0.1707 -1.9565
 4450SOL    HW224987   2.149   2.311   9.634  1.2789  0.3368 -1.4403
 4451SOL     OW24988   3.136   1.520   0.182  0.0725  0.2350 -0.6985
 4451SOL    HW124989   3.228   1.495   0.193 -0.6319 -0.7356  3.1654
 4451SOL    HW224990   3.141   1.567   0.099 -0.7673  2.9856  0.7959
 4452SOL     OW24991   2.249   1.489   0.372 -0.0589 -0.4558  0.3048
 4452SOL    HW124992   2.301   1.530   0.303  0.1877 -4.2248 -1.6975
 4452SOL    HW224993   2.228   1.405   0.332 -3.7161  0.2454  0.7359
 4453SOL     OW24994   3.386   4.608   6.660  0.0500 -0.4959 -0.4193
 4453SOL    HW124995   3.307   4.614   6.714  0.1059 -0.1156 -0.3771
 4453SOL    HW224996   3.357   4.650   6.579 -1.7907  1.4685  1.2743
 4454SOL     OW24997   2.553   1.394   6.827 -0.2824 -0.4816  0.3719
 4454SOL    HW124998   2.567   1.424   6.737  1.9301 -1.3809  0.4008
 4454SOL    HW224999   2.458   1.395   6.826 -0.2602 -0.3070 -1.7507
 4455SOL     OW25000   4.397   3.124   4.991 -0.3023  0.0309 -0.2241
 4455SOL    HW125001   4.312   3.102   4.954 -1.6873  1.1818  2.2586
 4455SOL    HW225002   4.428   3.035   5.007 -0.2430  0.4045  1.7916
 4456SOL     OW25003   3.170   0.482   5.313  0.6884 -0.4962 -0.5417
 4456SOL    HW125004   3.230   0.414   5.282  1.0220 -1.4446  2.1947
 4456SOL    HW225005   3.108   0.429   5.363 -1.3467  1.7179 -0.6989
 4457SOL     OW25006   1.702   2.238   9.161 -0.1505 -0.1094 -0.0146
 4457SOL    HW125007   1.788   2.214   9.126  0.6462  2.5517  0.1378
 4457SOL    HW225008   1.653   2.246   9.079  0.9372  0.0739 -0.6458
 4458SOL     OW25009   1.510   1.665   2.764  0.9417 -0.4466  0.0963
 4458SOL    HW125010   1.504   1.605   2.690  1.2133 -0.2239 -0.1103
 4458SOL    HW225011   1.597   1.638   2.795  0.1359  0.2031  2.8400
 4459SOL     OW25012   0.739   2.117  11.962  0.2512 -0.1339  0.2895
 4459SOL    HW125013   0.659   2.106  12.013  0.9706  1.5376  1.8091
 4459SOL    HW225014   0.793   2.159  12.030  0.5895 -0.8477  0.4602
 4460SOL     OW25015   2.834   0.434  11.283  0.5565 -0.3981 -0.2602
 4460SOL    HW125016   2.777   0.456  11.210  0.9147 -1.2915 -0.8130
 4460SOL    HW225017   2.845   0.523  11.316  1.8177 -0.9164  0.7212
 4461SOL     OW25018   4.265   1.199   8.847 -0.0810 -0.5522 -0.4258
 4461SOL    HW125019   4.271   1.283   8.893 -1.5560 -0.1419 -0.9953
 4461SOL    HW225020   4.356   1.194   8.817  0.4326 -0.4216  1.0995
 4462SOL     OW25021   2.706   3.174   2.743 -0.3315 -0.3150  0.0352
 4462SOL    HW125022   2.777   3.119   2.710  0.2574  1.6232 -1.8573
 4462SOL    HW225023   2.629   3.118   2.753 -0.5601  0.2586  1.5118
 4463SOL     OW25024   2.387   4.476  15.546 -0.0163  0.4068  0.5322
 4463SOL    HW125025   2.413   4.425  15.623  0.9196 -0.0876 -0.1253
 4463SOL    HW225026   2.472   4.473  15.503 -0.4416  0.1913 -0.2965
 4464SOL     OW25027   1.318   0.852   2.699  0.6196  0.1052  0.1936
 4464SOL    HW125028   1.258   0.849   2.774 -0.0288 -0.1532 -0.3423
 4464SOL    HW225029   1.252   0.823   2.636  0.9917 -0.2587 -0.0361
 4465SOL     OW25030   3.694   1.635  15.090 -0.6692 -0.2190  0.1246
 4465SOL    HW125031   3.768   1.583  15.060 -0.8366 -2.2650  3.2018
 4465SOL    HW225032   3.635   1.609  15.020 -2.8935  2.6149  0.9576
 4466SOL     OW25033   0.055   4.326   5.209  0.1517  0.4758  0.2178
 4466SOL    HW125034   4.731   4.270   5.256  1.1131 -0.8283 -0.0504
 4466SOL    HW225035   0.061   4.292   5.120 -0.3047  0.0584  0.3426
 4467SOL     OW25036   0.539   3.320  10.613  0.1009  0.3954 -0.2122
 4467SOL    HW125037   0.537   3.286  10.523  0.4888  1.5312 -0.6470
 4467SOL    HW225038   0.633   3.332  10.629  0.5642 -1.6832 -1.2715
 4468SOL     OW25039   1.735   1.515   3.554  0.1536  0.6930  0.3433
 4468SOL    HW125040   1.707   1.586   3.612 -0.2761  1.2581 -0.5445
 4468SOL    HW225041   1.829   1.535   3.548  0.7364 -1.6681  1.4935
 4469SOL     OW25042   1.088   0.883  14.747 -0.4509 -0.2476  0.4556
 4469SOL    HW125043   1.143   0.942  14.798  0.4439 -0.3059 -0.4355
 4469SOL    HW225044   1.001   0.917  14.765 -0.5776  0.6620 -1.7926
 4470SOL     OW25045   1.616   1.983  16.225 -0.9426  0.0955 -0.1108
 4470SOL    HW125046   1.561   1.926  16.279  0.0922 -0.7019  0.0877
 4470SOL    HW225047   1.705   1.965  16.254 -0.0893  2.6289 -1.1358
 4471SOL     OW25048   0.641   3.351   9.548 -0.1829  0.1827  0.2448
 4471SOL    HW125049   0.629   3.441   9.577 -0.3815 -0.4000  1.9358
 4471SOL    HW225050   0.551   3.330   9.521 -0.5160  1.1326  0.6004
 4472SOL     OW25051   0.710   4.212  15.677 -0.3796  0.3037  0.2531
 4472SOL    HW125052   0.760   4.293  15.667  2.2962 -1.2003  1.4438
 4472SOL    HW225053   0.779   4.151  15.702  0.5859  1.3888  0.2183
 4473SOL     OW25054   4.441   2.486  17.612  0.3993  0.2382  0.2271
 4473SOL    HW125055   4.412   2.412  17.559 -0.6830  0.5795  0.3317
 4473SOL    HW225056   4.358   2.524  17.640 -1.2917 -2.8828 -0.5397
 4474SOL     OW25057   3.146   2.320   1.618  0.1837  0.2061  0.2121
 4474SOL    HW125058   3.074   2.380   1.600 -0.6365 -1.3469 -1.6314
 4474SOL    HW225059   3.223   2.373   1.595  1.2546 -0.7961  1.4539
 4475SOL     OW25060   3.274   4.703  17.419 -0.5065  0.1786 -0.3909
 4475SOL    HW125061   3.183   4.677  17.424 -0.4275 -0.3350 -1.7095
 4475SOL    HW225062   3.288   4.673  17.330 -3.7136 -0.3460 -0.7123
 4476SOL     OW25063   3.010   1.962   3.884 -0.1366  0.4584 -0.3240
 4476SOL    HW125064   2.929   1.984   3.929 -1.3694 -0.9512 -1.8358
 4476SOL    HW225065   3.038   1.874   3.909 -2.4283 -0.8826 -2.4811
 4477SOL     OW25066   1.339   0.307   9.376  0.0748  0.4695 -0.1377
 4477SOL    HW125067   1.272   0.259   9.424 -0.4124  1.0288 -0.2577
 4477SOL    HW225068   1.358   0.255   9.298  1.4719  0.8070 -0.0201
 4478SOL     OW25069   2.890   3.136  15.805 -0.0712 -0.6265  0.2310
 4478SOL    HW125070   2.893   3.041  15.796 -0.3659 -0.8985  3.1277
 4478SOL    HW225071   2.981   3.157  15.786  0.1656 -2.2787 -0.5153
 4479SOL     OW25072   2.319   1.056   3.059 -0.3500 -0.5424  0.0423
 4479SOL    HW125073   2.379   1.107   3.005  0.5013 -1.2250  0.3396
 4479SOL    HW225074   2.278   1.002   2.990  2.2793 -0.9224 -1.2186
 4480SOL     OW25075   0.703   0.201   7.798 -0.5433  0.1652  0.2352
 4480SOL    HW125076   0.658   0.234   7.876  0.1819  1.7317 -0.0092
 4480SOL    HW225077   0.643   0.236   7.733 -0.4080 -0.5088 -0.2569
 4481SOL     OW25078   4.109   1.653   4.394  0.1313  0.0407 -0.2056
 4481SOL    HW125079   4.130   1.625   4.483  0.1517  1.7510  0.3181
 4481SOL    HW225080   4.066   1.736   4.410 -1.7957 -1.1992  0.9620
 4482SOL     OW25081   4.037   0.442   1.966 -0.4403  0.1844 -0.7372
 4482SOL    HW125082   4.106   0.507   1.981 -1.8100  1.9060 -1.9270
 4482SOL    HW225083   4.072   0.359   1.997 -3.2928 -0.2245  1.4317
 4483SOL     OW25084   2.858   1.048   5.958 -0.1060 -0.1607  0.1142
 4483SOL    HW125085   2.818   1.029   6.043  1.3282 -3.0884  0.1333
 4483SOL    HW225086   2.943   1.005   5.962 -0.1554 -0.3341 -0.7121
 4484SOL     OW25087   0.095   0.404   3.184 -0.0594  0.5110  0.3057
 4484SOL    HW125088   0.042   0.449   3.249  0.5994  1.1649  0.3787
 4484SOL    HW225089   0.182   0.397   3.222  0.8799  0.7101 -1.8290
 4485SOL     OW25090   0.958   4.636   7.254  0.1095  0.3238  0.0731
 4485SOL    HW125091   0.989   4.585   7.328  0.2730  1.0318  0.4902
 4485SOL    HW225092   0.865   4.628   7.276 -0.0430  2.1320  0.0825
 4486SOL     OW25093   3.666   2.922   0.660  0.1153 -0.3061 -0.1567
 4486SOL    HW125094   3.666   2.995   0.598  0.5559  0.3997  0.6740
 4486SOL    HW225095   3.739   2.950   0.714  1.0636 -1.3808 -0.8845
 4487SOL     OW25096   2.552   0.418   3.803  0.7303  0.5950  0.0132
 4487SOL    HW125097   2.627   0.359   3.802  1.7266  1.8727 -0.2588
 4487SOL    HW225098   2.592   0.496   3.840  1.2226  0.0413  0.6502
 4488SOL     OW25099   0.679   2.409   8.096  0.3337  0.1454 -0.2116
 4488SOL    HW125100   0.629   2.369   8.025 -0.7609  0.5408  0.3427
 4488SOL    HW225101   0.737   2.335   8.116 -2.0219 -1.0528  2.1742
 4489SOL     OW25102   4.419   0.653  17.414  0.2139  0.5677 -0.2387
 4489SOL    HW125103   4.411   0.729  17.357  0.7061  1.2997  0.6604
 4489SOL    HW225104   4.373   0.584  17.366  1.3127 -1.3523  1.4500
 4490SOL     OW25105   1.493   4.058   3.197 -0.1595  0.3857 -0.1892
 4490SOL    HW125106   1.454   3.971   3.205 -1.4516  1.0339  0.5562
 4490SOL    HW225107   1.438   4.096   3.128  1.5176  1.0838 -1.1390
 4491SOL     OW25108   2.524   0.579   9.494 -0.0652 -0.6103 -0.0322
 4491SOL    HW125109   2.592   0.607   9.556 -0.1052 -2.8397  1.0412
 4491SOL    HW225110   2.525   0.658   9.440 -3.4668 -0.7339 -0.2417
 4492SOL     OW25111   4.161   0.849  10.463  0.1759 -0.1631 -0.0153
 4492SOL    HW125112   4.248   0.811  10.453 -0.0025 -0.1488 -1.7809
 4492SOL    HW225113   4.158   0.931  10.412 -0.6808 -0.1718  0.0158
 4493SOL     OW25114   3.908   3.555   6.415 -0.6517  0.1850  0.1749
 4493SOL    HW125115   3.985   3.579   6.364 -1.0689  1.0896 -0.0160
 4493SOL    HW225116   3.931   3.557   6.508  0.1789  2.1462 -0.0815
 4494SOL     OW25117   3.076   3.162   6.815 -0.4938  0.1404  0.2139
 4494SOL    HW125118   3.044   3.244   6.779  0.2348  0.1649 -0.3710
 4494SOL    HW225119   3.059   3.179   6.908  0.3613 -2.6805  0.8849
 4495SOL     OW25120   4.394   0.638   7.536  0.2792  0.2121 -0.5087
 4495SOL    HW125121   4.398   0.563   7.595  0.2943  1.2033  0.7502
 4495SOL    HW225122   4.299   0.651   7.537  0.2877  0.1954  0.6559
 4496SOL     OW25123   3.725   3.183   0.575  0.1601  0.0502 -0.4468
 4496SOL    HW125124   3.721   3.278   0.571  1.6486  0.2007  1.5342
 4496SOL    HW225125   3.693   3.165   0.487 -0.8004  0.6133 -0.2103
 4497SOL     OW25126   3.342   1.096   4.056  0.3413  0.6494 -0.2111
 4497SOL    HW125127   3.310   1.060   3.974 -2.2295  1.5108  0.4426
 4497SOL    HW225128   3.436   1.077   4.049 -0.1484 -2.0247  0.3241
 4498SOL     OW25129   4.096   3.611   9.451 -0.0553 -0.2070  0.5069
 4498SOL    HW125130   4.077   3.683   9.390  0.8896 -0.5647 -0.2297
 4498SOL    HW225131   4.176   3.650   9.486  0.0346  0.9589 -0.9847
 4499SOL     OW25132   1.077   4.557   3.169  0.3234 -0.6068 -0.1573
 4499SOL    HW125133   1.090   4.535   3.262 -0.5023 -0.6381 -0.0502
 4499SOL    HW225134   1.169   4.570   3.145 -0.4750 -0.9295 -3.3614
 4500SOL     OW25135   4.533   3.924  10.960 -0.1189 -0.2699 -0.1315
 4500SOL    HW125136   4.588   3.965  11.027 -1.1081  0.8010  0.0295
 4500SOL    HW225137   4.499   4.002  10.917  1.5346 -0.4033 -1.6917
 4501SOL     OW25138   3.016   4.026   8.138 -0.3383 -0.4098 -0.0643
 4501SOL    HW125139   2.956   4.068   8.077 -1.3230  0.1462  1.2800
 4501SOL    HW225140   2.966   4.038   8.219  1.1365 -0.5864  0.8688
 4502SOL     OW25141   4.006   4.453  16.017  0.1188 -0.2100  0.8225
 4502SOL    HW125142   4.011   4.511  16.093  2.6087 -0.2324  0.6603
 4502SOL    HW225143   3.969   4.514  15.953 -0.2311  0.2103  1.4158
 4503SOL     OW25144   3.283   1.170   8.362  0.5167 -0.0392 -0.2477
 4503SOL    HW125145   3.338   1.155   8.439  0.0986  1.4930  0.3565
 4503SOL    HW225146   3.241   1.084   8.354 -1.4117  0.8697  0.1924
 4504SOL     OW25147   4.628   4.186   6.636 -0.5406 -0.2009 -0.4270
 4504SOL    HW125148   4.581   4.232   6.705 -1.5011 -1.4086 -0.2819
 4504SOL    HW225149   4.622   4.252   6.567 -1.4714  1.4413  1.2432
 4505SOL     OW25150   4.176   3.194   5.422  0.1095 -0.5516 -0.3846
 4505SOL    HW125151   4.239   3.224   5.355 -1.8089  0.3966 -1.7512
 4505SOL    HW225152   4.198   3.101   5.410  0.4943  0.0074 -4.2544
 4506SOL     OW25153   3.134   3.671   5.153 -0.9991  0.0232 -0.4635
 4506SOL    HW125154   3.131   3.670   5.248  0.9512 -2.3508 -0.4259
 4506SOL    HW225155   3.101   3.759   5.134 -0.1554  0.7105  1.3033
 4507SOL     OW25156   0.250   1.175  14.227  0.5955 -0.4594 -0.2548
 4507SOL    HW125157   0.255   1.083  14.201  1.9722 -0.8670  1.5010
 4507SOL    HW225158   0.222   1.160  14.317  0.2833  2.4398  0.1506
 4508SOL     OW25159   0.534   4.307   5.414 -0.1082  0.2517 -0.4411
 4508SOL    HW125160   0.500   4.396   5.418 -3.3229 -0.9094 -1.7226
 4508SOL    HW225161   0.582   4.314   5.331 -0.9284  2.7012 -0.7048
 4509SOL     OW25162   2.548   4.435   8.622 -0.6184 -0.6348  0.2038
 4509SOL    HW125163   2.533   4.526   8.645  2.4025 -0.3637  1.0055
 4509SOL    HW225164   2.581   4.404   8.706 -0.4049 -1.4812 -0.1889
 4510SOL     OW25165   0.562   1.666   5.958  0.2502  0.3717 -0.6262
 4510SOL    HW125166   0.607   1.751   5.967 -0.7005  1.0527 -2.2890
 4510SOL    HW225167   0.560   1.649   5.864  0.1568  1.9673 -0.9251
 4511SOL     OW25168   0.765   3.155   4.690 -0.0400 -0.3307  0.1758
 4511SOL    HW125169   0.766   3.217   4.763 -0.5110 -1.1972  0.9315
 4511SOL    HW225170   0.793   3.077   4.738  0.0149  0.6276  1.7283
 4512SOL     OW25171   3.437   3.389  11.162  0.0374  0.0820 -0.3923
 4512SOL    HW125172   3.405   3.446  11.231 -1.1915  0.5869 -1.3966
 4512SOL    HW225173   3.488   3.452  11.111  1.1778 -0.4209  0.1201
 4513SOL     OW25174   1.763   4.683   2.781  0.0648  0.4416 -0.1501
 4513SOL    HW125175   1.721   4.651   2.701 -0.1535 -1.3920  0.6871
 4513SOL    HW225176   1.743   4.604   2.832  2.6235 -0.0158  0.1629
 4514SOL     OW25177   0.030   0.295   2.575 -0.1670 -0.3124  0.4006
 4514SOL    HW125178   0.047   0.245   2.655 -0.7004  0.5531  1.0473
 4514SOL    HW225179   0.104   0.355   2.583 -0.5119 -0.1842  2.5639
 4515SOL     OW25180   0.005   3.060   3.738 -0.2111  0.5451 -0.4269
 4515SOL    HW125181   4.665   3.092   3.692 -1.7113 -0.6243  1.3322
 4515SOL    HW225182   4.728   3.090   3.827 -0.0228  2.0015 -0.8881
 4516SOL     OW25183   3.865   3.009   2.217  0.7726 -0.0627 -0.4256
 4516SOL    HW125184   3.956   3.039   2.226  1.3912 -2.1104  0.2537
 4516SOL    HW225185   3.866   2.947   2.290 -0.6317 -1.4373 -1.5942
 4517SOL     OW25186   0.195   2.869   3.553  0.1288 -0.3031  0.7428
 4517SOL    HW125187   0.119   2.888   3.608 -1.2465  1.1704 -1.6372
 4517SOL    HW225188   0.271   2.877   3.610  0.1099  1.9697  0.4554
 4518SOL     OW25189   2.783   3.551   4.100 -0.3097 -0.0823 -0.4234
 4518SOL    HW125190   2.785   3.618   4.169 -2.6029 -0.1566 -0.3058
 4518SOL    HW225191   2.789   3.467   4.146 -1.7269 -0.5153 -1.0409
 4519SOL     OW25192   4.332   4.224   9.100  0.0480 -0.5473  0.1055
 4519SOL    HW125193   4.284   4.217   9.017  2.6601  1.5458 -1.6155
 4519SOL    HW225194   4.424   4.223   9.073  1.0878  0.9584  3.6842
 4520SOL     OW25195   0.651   1.327   4.532  0.4944 -0.3550 -0.2598
 4520SOL    HW125196   0.715   1.377   4.481  1.9084 -0.7225  1.1478
 4520SOL    HW225197   0.625   1.267   4.462  2.9742  1.4220 -2.7230
 4521SOL     OW25198   0.441   2.072   8.818  0.0091 -0.2598  0.6384
 4521SOL    HW125199   0.419   2.151   8.866  0.4454  1.2962 -1.7311
 4521SOL    HW225200   0.489   2.106   8.743 -3.3905  1.6919 -0.6199
 4522SOL     OW25201   1.784   3.808   9.753 -0.3055  0.4782  0.0447
 4522SOL    HW125202   1.775   3.721   9.792 -3.6138  0.5628 -0.5332
 4522SOL    HW225203   1.694   3.839   9.744 -1.8002 -3.3148  1.9686
 4523SOL     OW25204   1.417   1.765   2.440  0.0086  0.6274 -0.0169
 4523SOL    HW125205   1.413   1.763   2.345 -0.5614  2.4124 -0.0400
 4523SOL    HW225206   1.350   1.701   2.462  0.1212  0.2029 -0.9031
 4524SOL     OW25207   0.371   3.568   9.240  0.1517 -0.3239  0.3017
 4524SOL    HW125208   0.403   3.613   9.161  1.6844 -3.0886 -0.6590
 4524SOL    HW225209   0.403   3.621   9.313 -0.9165  0.4098  0.2474
 4525SOL     OW25210   2.480   0.750   3.696  0.0415  0.3191  0.1697
 4525SOL    HW125211   2.437   0.704   3.768  1.5588 -0.5598  0.5090
 4525SOL    HW225212   2.574   0.747   3.713 -0.1343 -0.9877  0.9556
 4526SOL     OW25213   4.124   2.246  10.702 -0.7276  0.0384 -1.0299
 4526SOL    HW125214   4.209   2.287  10.718 -1.0191  0.4197 -0.4570
 4526SOL    HW225215   4.072   2.277  10.776  0.4814  0.4665 -0.3512
 4527SOL     OW25216   1.589   1.099  15.354 -0.1080  0.1517  0.0091
 4527SOL    HW125217   1.653   1.153  15.400 -1.4939  1.4703  0.3939
 4527SOL    HW225218   1.581   1.148  15.272 -1.9123 -0.3092 -0.1010
 4528SOL     OW25219   0.626   3.808   6.020 -0.6856  0.0409  0.0356
 4528SOL    HW125220   0.655   3.893   5.987  1.1812 -0.2522  0.8988
 4528SOL    HW225221   0.542   3.842   6.051 -1.0383 -1.1523  0.4171
 4529SOL     OW25222   2.767   1.348  10.906  0.0199  0.3405 -0.4177
 4529SOL    HW125223   2.698   1.413  10.922  0.4313  0.9401 -1.0679
 4529SOL    HW225224   2.764   1.335  10.811  1.0336 -0.3311 -0.3561
 4530SOL     OW25225   4.366   2.741   7.028  0.2754 -0.3576  0.3345
 4530SOL    HW125226   4.356   2.754   6.933  0.5481 -0.6947  0.2594
 4530SOL    HW225227   4.455   2.705   7.022  1.1689  2.2181 -2.0751
 4531SOL     OW25228   3.723   3.340   6.015 -0.0951  0.1984 -0.2838
 4531SOL    HW125229   3.664   3.296   5.954 -1.8654  3.8434 -1.2157
 4531SOL    HW225230   3.674   3.416   6.046 -0.5473 -0.4870  0.7039
 4532SOL     OW25231   4.732   4.481   6.434  0.2881 -0.1290 -0.0671
 4532SOL    HW125232   0.065   4.471   6.497 -1.3045  2.3164  2.0858
 4532SOL    HW225233   0.031   4.546   6.374  0.2112  0.7550  0.8448
 4533SOL     OW25234   3.273   4.110  15.777  0.2360 -0.4939 -0.2624
 4533SOL    HW125235   3.269   4.164  15.856 -1.6161  0.5941 -1.0855
 4533SOL    HW225236   3.198   4.050  15.784 -0.5447  0.4168 -0.7537
 4534SOL     OW25237   1.760   3.656   3.605  0.0690 -0.1679 -0.0328
 4534SOL    HW125238   1.702   3.602   3.659  0.2614 -0.6406 -0.3025
 4534SOL    HW225239   1.738   3.614   3.522 -2.7047 -0.7095  0.9580
 4535SOL     OW25240   2.169   2.960   8.696 -0.2549  0.4444  0.1649
 4535SOL    HW125241   2.180   3.043   8.650  3.8045  0.4214  1.1677
 4535SOL    HW225242   2.231   2.903   8.651  0.5613  0.4354  1.3131
 4536SOL     OW25243   1.679   3.318  13.812 -0.6807  0.4780 -0.2821
 4536SOL    HW125244   1.659   3.296  13.721 -0.9448 -0.8995  0.1185
 4536SOL    HW225245   1.670   3.414  13.806  0.8793  0.4302 -3.4915
 4537SOL     OW25246   0.939   0.459   4.968  0.3072 -0.4982  0.5348
 4537SOL    HW125247   0.863   0.429   5.018 -0.2290  0.6966  0.4310
 4537SOL    HW225248   0.916   0.433   4.878  1.2443 -3.6302  1.1857
 4538SOL     OW25249   4.554   4.175   6.191  0.0871  0.0842 -0.0425
 4538SOL    HW125250   4.504   4.137   6.119  1.0580 -0.3133 -0.4933
 4538SOL    HW225251   4.637   4.182   6.144  1.2263  0.0503  1.9662
 4539SOL     OW25252   2.798   2.486  10.630 -0.6785  0.2747  0.2371
 4539SOL    HW125253   2.857   2.520  10.563 -1.0399  2.1451  0.8479
 4539SOL    HW225254   2.731   2.455  10.569  1.4101 -2.7309 -0.4993
 4540SOL     OW25255   2.563   2.513   8.845  0.6099 -0.1088 -0.1371
 4540SOL    HW125256   2.550   2.477   8.758 -0.2399  2.6396 -1.1396
 4540SOL    HW225257   2.511   2.447   8.891  0.3407  0.3460  0.2080
 4541SOL     OW25258   3.501   0.717   7.453  0.1822  0.0825 -0.4039
 4541SOL    HW125259   3.442   0.766   7.395 -0.6863  1.5095  1.6836
 4541SOL    HW225260   3.430   0.680   7.506 -1.6173  1.4316 -1.8982
 4542SOL     OW25261   1.470   4.694  11.634 -0.1594 -0.4667 -0.4388
 4542SOL    HW125262   1.494   0.037  11.677 -2.7071 -1.8810  3.6893
 4542SOL    HW225263   1.414   4.641  11.691  1.6602 -1.0326  0.7880
 4543SOL     OW25264   0.373   2.497   7.242 -0.3743 -0.0196  0.3977
 4543SOL    HW125265   0.455   2.474   7.287 -0.1371 -1.4035 -0.7481
 4543SOL    HW225266   0.327   2.414   7.233 -0.7160  0.5457 -2.9578
 4544SOL     OW25267   1.941   1.931   9.195  0.4210  0.7281  0.4983
 4544SOL    HW125268   2.022   1.896   9.233  0.2084  1.6836  1.8672
 4544SOL    HW225269   1.977   1.997   9.136  0.3043 -0.3246 -0.7476
 4545SOL     OW25270   0.346   1.084   9.194 -0.4680  0.4907 -0.0198
 4545SOL    HW125271   0.288   1.039   9.255  0.9764 -1.0922  0.1942
 4545SOL    HW225272   0.296   1.166   9.192  1.0277  1.3546 -1.6169
 4546SOL     OW25273   3.988   3.834   8.294 -0.4064 -0.0439 -0.1121
 4546SOL    HW125274   4.006   3.903   8.357 -1.3395  0.9076 -0.8960
 4546SOL    HW225275   3.895   3.821   8.310 -0.5550 -0.9766 -1.7556
 4547SOL     OW25276   1.544   1.046   1.191 -0.3948 -0.4257  0.0613
 4547SOL    HW125277   1.537   1.095   1.273  0.9973 -1.0692  0.5632
 4547SOL    HW225278   1.536   0.961   1.233 -1.4100  0.5189  1.7850
 4548SOL     OW25279   4.447   2.150   3.120 -0.1368 -0.7008  0.1559
 4548SOL    HW125280   4.447   2.245   3.104  0.0305 -0.5960  0.7819
 4548SOL    HW225281   4.447   2.146   3.215  2.9244 -1.3185  0.0968
 4549SOL     OW25282   0.842   2.012   2.838  0.4512 -0.1465 -0.8875
 4549SOL    HW125283   0.933   2.025   2.863  0.5859 -1.5840 -0.5913
 4549SOL    HW225284   0.841   1.916   2.846 -0.0439 -0.0143  0.8202
 4550SOL     OW25285   3.074   0.254   7.631 -0.2000  0.1157  0.1868
 4550SOL    HW125286   3.057   0.342   7.596 -4.7422 -1.2203 -0.8577
 4550SOL    HW225287   3.092   0.208   7.549  2.5927  1.2895  0.1292
 4551SOL     OW25288   3.810   3.106   8.509  0.2128 -0.0750 -0.8721
 4551SOL    HW125289   3.738   3.088   8.570  0.5215 -2.1017 -1.1295
 4551SOL    HW225290   3.761   3.121   8.428  1.9235  0.1160 -1.8836
 4552SOL     OW25291   3.147   0.618  13.512 -0.1255  0.1220  0.2034
 4552SOL    HW125292   3.114   0.528  13.522 -0.8293  0.3007 -0.5467
 4552SOL    HW225293   3.065   0.653  13.476  0.2982  0.4164 -0.4579
 4553SOL     OW25294   0.400   2.323  15.050  0.3669 -0.0069  1.0199
 4553SOL    HW125295   0.369   2.413  15.060  0.2120 -0.0634  1.0392
 4553SOL    HW225296   0.473   2.325  15.112  1.6839 -0.0315 -0.5030
 4554SOL     OW25297   1.312   3.827  10.626 -0.4192 -0.0979 -0.3880
 4554SOL    HW125298   1.321   3.740  10.586  0.0045  0.8569 -2.3254
 4554SOL    HW225299   1.360   3.810  10.707 -0.2931 -0.8290 -0.6174
 4555SOL     OW25300   3.887   1.592  11.763 -0.4165 -0.5234  0.3207
 4555SOL    HW125301   3.877   1.501  11.789 -1.8190 -1.3079 -2.8666
 4555SOL    HW225302   3.897   1.639  11.846  0.0692  1.0576 -0.6331
 4556SOL     OW25303   4.622   2.814   3.711  0.3796 -0.3337  0.4161
 4556SOL    HW125304   4.588   2.783   3.627  1.3254 -3.1176  1.0715
 4556SOL    HW225305   4.629   2.909   3.696  1.5424 -0.7673 -1.6697
 4557SOL     OW25306   0.439   1.317  12.098 -0.0620  0.0402 -0.3110
 4557SOL    HW125307   0.387   1.383  12.146 -3.3915 -3.3019  0.6604
 4557SOL    HW225308   0.384   1.243  12.122  0.9992 -1.8696 -3.7754
 4558SOL     OW25309   3.205   3.413   7.808 -0.5327 -0.4931  0.1520
 4558SOL    HW125310   3.272   3.394   7.873  1.0178 -1.6259 -1.7684
 4558SOL    HW225311   3.220   3.505   7.785  0.3135 -0.5790  0.3418
 4559SOL     OW25312   4.440   4.024  15.365  0.9994 -0.1414 -0.3759
 4559SOL    HW125313   4.504   4.024  15.294  0.8775  0.5882 -0.4788
 4559SOL    HW225314   4.362   4.040  15.312  1.4087  0.6775 -0.7233
 4560SOL     OW25315   3.553   1.056   7.313 -0.4003 -0.3516 -0.7488
 4560SOL    HW125316   3.496   0.989   7.276 -2.0937  0.8227 -0.2908
 4560SOL    HW225317   3.494   1.092   7.380 -0.8914 -1.5029 -0.5668
 4561SOL     OW25318   4.512   4.599  12.272  0.5534  0.6341 -0.2187
 4561SOL    HW125319   4.514   4.504  12.265  1.6680  0.5293  1.3071
 4561SOL    HW225320   4.433   4.618  12.222  0.6136 -0.4653 -0.7283
 4562SOL     OW25321   3.423   3.294   0.757 -0.4121  0.3595 -0.3656
 4562SOL    HW125322   3.475   3.217   0.780  2.5619  2.5508  0.2589
 4562SOL    HW225323   3.493   3.359   0.756  1.3351 -1.5123  1.4445
 4563SOL     OW25324   0.817   2.547   8.714  0.1916 -0.0306 -0.0768
 4563SOL    HW125325   0.807   2.455   8.739 -0.0356  0.1568  0.5092
 4563SOL    HW225326   0.728   2.576   8.692  1.3821  3.3099 -0.5207
 4564SOL     OW25327   1.821   1.285   2.814  0.0590 -0.1450  0.0632
 4564SOL    HW125328   1.802   1.376   2.838 -0.8023  0.1628 -1.7698
 4564SOL    HW225329   1.788   1.248   2.896  2.4158 -1.1838  0.5328
 4565SOL     OW25330   0.009   0.560   6.896 -0.0625  0.4416 -0.0342
 4565SOL    HW125331   4.718   0.606   6.975  0.3043 -0.9563  0.9080
 4565SOL    HW225332   0.017   0.469   6.923 -2.0492  0.5454  0.9620
 4566SOL     OW25333   4.108   4.603   4.995 -0.1465  0.1441 -0.2935
 4566SOL    HW125334   4.128   4.675   4.935  0.4778  0.0462 -0.2097
 4566SOL    HW225335   4.192   4.578   5.034 -0.9785 -1.2119  0.6532
 4567SOL     OW25336   2.575   0.636  16.878  0.0603 -0.2121 -0.1225
 4567SOL    HW125337   2.655   0.681  16.907  1.9861 -3.4260 -0.4756
 4567SOL    HW225338   2.587   0.630  16.783  1.8535 -2.5496  0.2553
 4568SOL     OW25339   4.112   2.402   2.897  0.5920 -0.1440 -0.0650
 4568SOL    HW125340   4.093   2.374   2.986  0.0447 -0.0955 -0.1646
 4568SOL    HW225341   4.045   2.357   2.845  1.7779 -0.8184 -1.0291
 4569SOL     OW25342   0.623   2.448   7.310 -0.4367  0.2924 -0.2448
 4569SOL    HW125343   0.678   2.406   7.377 -0.0902 -0.1290 -0.7903
 4569SOL    HW225344   0.638   2.381   7.244  0.9516  1.2575 -0.8996
 4570SOL     OW25345   3.154   0.272   8.636  0.4561 -0.1760 -0.4355
 4570SOL    HW125346   3.067   0.313   8.638  0.5160 -0.0885  0.3136
 4570SOL    HW225347   3.158   0.267   8.541  1.3053  0.8315 -0.4572
 4571SOL     OW25348   2.589   3.304   4.704  0.1184 -0.1457  0.2639
 4571SOL    HW125349   2.494   3.301   4.709  0.0920  1.4711  0.7017
 4571SOL    HW225350   2.605   3.233   4.643 -0.9171 -0.0183 -0.1559
 4572SOL     OW25351   4.614   1.729   9.070 -0.0348  0.1194 -0.3143
 4572SOL    HW125352   4.572   1.671   9.134 -1.0857 -0.5156 -1.5962
 4572SOL    HW225353   4.701   1.725   9.110  0.5500  1.4014 -1.4567
 4573SOL     OW25354   0.016   1.934   6.765  0.3150  0.0811 -0.1763
 4573SOL    HW125355   4.671   1.922   6.720  0.8906  1.2574 -1.5590
 4573SOL    HW225356   0.004   1.884   6.845 -0.1000  1.7502  0.8195
 4574SOL     OW25357   1.545   3.066   6.022  0.3400  0.2057  0.1853
 4574SOL    HW125358   1.624   3.068   5.968 -0.9666 -2.6172 -1.8429
 4574SOL    HW225359   1.541   3.157   6.050 -0.7503  0.1196  0.3230
 4575SOL     OW25360   1.209   1.605   8.652 -0.1473  0.7277 -0.1903
 4575SOL    HW125361   1.144   1.638   8.714  1.3175 -0.2254  1.8578
 4575SOL    HW225362   1.165   1.526   8.622 -0.5532  0.8645  0.0553
 4576SOL     OW25363   2.499   1.147   4.478  0.2816  0.1007  0.1370
 4576SOL    HW125364   2.437   1.073   4.477  0.6751 -0.2441  1.6856
 4576SOL    HW225365   2.548   1.144   4.396  1.0043 -2.0052  0.6362
 4577SOL     OW25366   0.334   2.227   8.193  0.5590 -0.7740 -0.5027
 4577SOL    HW125367   0.259   2.168   8.201 -0.3693  0.6554  1.2334
 4577SOL    HW225368   0.410   2.169   8.186  1.6781  0.6424 -0.1431
 4578SOL     OW25369   4.325   2.690  12.585 -0.2253  0.3434  0.3908
 4578SOL    HW125370   4.280   2.657  12.508 -2.0381  0.9229  1.1930
 4578SOL    HW225371   4.363   2.612  12.624  0.0028  0.8860  1.2638
 4579SOL     OW25372   2.366   1.928   7.461 -0.1213  0.1455  0.1264
 4579SOL    HW125373   2.422   1.908   7.536  2.5781  0.7592 -1.7115
 4579SOL    HW225374   2.418   1.900   7.385  1.2728  0.1436  1.0893
 4580SOL     OW25375   3.907   2.835  10.117 -0.2259  0.3674  0.6007
 4580SOL    HW125376   3.868   2.799  10.037 -0.0863 -0.5124  0.9302
 4580SOL    HW225377   3.915   2.754  10.167 -1.0880 -0.7558 -1.0598
 4581SOL     OW25378   0.908   0.405   0.487  0.1000 -0.1255 -0.4761
 4581SOL    HW125379   0.917   0.353   0.407 -2.4369 -2.5096  0.7689
 4581SOL    HW225380   0.964   0.351   0.543 -0.2883  1.8285  1.7816
 4582SOL     OW25381   0.106   0.475   2.372 -0.3315  0.4917  0.3239
 4582SOL    HW125382   0.065   0.397   2.410  0.5994 -1.8161 -3.3820
 4582SOL    HW225383   0.028   0.528   2.356 -0.4250  1.6663  4.7155
 4583SOL     OW25384   0.745   2.237   0.865  0.1874  0.7038 -0.1812
 4583SOL    HW125385   0.678   2.176   0.834  0.7621 -0.0815  0.1402
 4583SOL    HW225386   0.823   2.183   0.858  0.9180  1.4510  2.3266
 4584SOL     OW25387   3.374   2.398   7.931 -0.1191  0.2596  0.0068
 4584SOL    HW125388   3.396   2.486   7.961  2.6015 -1.1187  2.0857
 4584SOL    HW225389   3.303   2.409   7.867 -0.2694  3.0515  0.6610
 4585SOL     OW25390   4.630   4.142  13.550  0.1661  0.4238 -0.0285
 4585SOL    HW125391   4.633   4.134  13.454 -0.6331  1.1019 -0.1040
 4585SOL    HW225392   4.643   4.235  13.564  0.8853  0.0965  1.4550
 4586SOL     OW25393   4.304   3.832   8.926 -0.0484 -0.5698  0.6488
 4586SOL    HW125394   4.283   3.759   8.983 -0.4705 -0.7770  0.2281
 4586SOL    HW225395   4.223   3.884   8.932 -1.1881 -2.1974 -0.7640
 4587SOL     OW25396   2.928   1.904  10.521  1.2100 -0.1109  0.2246
 4587SOL    HW125397   2.964   1.884  10.434  0.1416  1.4370 -0.5884
 4587SOL    HW225398   3.002   1.920  10.579 -0.6274  2.3927  1.8620
 4588SOL     OW25399   1.483   3.612   3.772 -0.0722  0.1782 -0.1063
 4588SOL    HW125400   1.424   3.540   3.747 -1.3609  1.4097 -0.6309
 4588SOL    HW225401   1.452   3.686   3.720  1.3606 -0.2928 -1.6644
 4589SOL     OW25402   0.062   0.592   8.972  0.0882 -0.7624 -0.2348
 4589SOL    HW125403   0.132   0.571   8.910  0.9380  0.8563  0.1649
 4589SOL    HW225404   0.025   0.667   8.924 -0.6480 -0.4766  0.7883
 4590SOL     OW25405   2.279   2.335  11.140 -0.3308  0.1889 -0.5271
 4590SOL    HW125406   2.303   2.280  11.215  1.6738 -1.5368 -2.4217
 4590SOL    HW225407   2.352   2.317  11.081 -0.7347 -2.2484 -0.2700
 4591SOL     OW25408   4.421   0.346   4.148  0.0667 -0.1134  0.8707
 4591SOL    HW125409   4.366   0.338   4.070  0.0257 -0.4119  0.9276
 4591SOL    HW225410   4.420   0.441   4.159  1.2837  0.2135 -1.6550
 4592SOL     OW25411   2.435   2.241   9.532  0.1614 -0.0580  0.3134
 4592SOL    HW125412   2.421   2.300   9.458 -1.3634 -2.4536 -1.2927
 4592SOL    HW225413   2.359   2.263   9.585  0.9853  0.7584  1.1645
 4593SOL     OW25414   3.767   4.007   2.856 -0.2286 -0.1475  0.1657
 4593SOL    HW125415   3.686   3.992   2.806 -0.7109  3.5058 -0.1329
 4593SOL    HW225416   3.832   3.987   2.789 -1.1701  1.7332 -1.3141
 4594SOL     OW25417   1.824   1.304   4.772 -0.1181 -0.2525  0.8016
 4594SOL    HW125418   1.840   1.316   4.865 -0.4698  1.4788  0.6362
 4594SOL    HW225419   1.847   1.392   4.743 -1.9515 -0.6636 -1.9630
 4595SOL     OW25420   1.142   3.917  11.111 -0.4117  0.5012  0.4425
 4595SOL    HW125421   1.134   4.010  11.088  3.1312  1.3812  2.6044
 4595SOL    HW225422   1.087   3.886  11.040  0.6038  0.8820 -0.4977
 4596SOL     OW25423   0.096   3.336   9.253 -0.6593 -0.2833 -0.8897
 4596SOL    HW125424   0.063   3.347   9.163  0.7550  2.0930 -1.1138
 4596SOL    HW225425   0.187   3.320   9.229  0.2516  3.8206 -0.2369
 4597SOL     OW25426   2.755   0.559   1.566 -0.3108  0.0547 -0.7810
 4597SOL    HW125427   2.788   0.505   1.638 -0.4569  1.0699  0.0677
 4597SOL    HW225428   2.798   0.641   1.592 -2.1073  0.8589 -0.2798
 4598SOL     OW25429   3.274   0.616   5.705  0.7788  0.1397 -0.2003
 4598SOL    HW125430   3.242   0.669   5.632 -1.3789 -0.7596  0.1062
 4598SOL    HW225431   3.218   0.542   5.683 -1.1310  1.8119 -1.0082
 4599SOL     OW25432   4.633   1.228   8.091  0.1782  0.0640  0.1312
 4599SOL    HW125433   4.656   1.249   8.001  0.2113  0.7414  0.3009
 4599SOL    HW225434   4.544   1.258   8.073  0.2170 -0.6600 -1.2823
 4600SOL     OW25435   2.586   1.862   7.657  1.0311 -0.4730  0.0152
 4600SOL    HW125436   2.620   1.801   7.722  0.0292  0.6788  1.6217
 4600SOL    HW225437   2.593   1.941   7.711 -3.1848 -0.4070  0.4932
 4601SOL     OW25438   2.622   2.351   2.672 -0.5855  0.5813 -0.1117
 4601SOL    HW125439   2.574   2.432   2.687 -0.9246  0.4169 -0.3061
 4601SOL    HW225440   2.716   2.368   2.672 -0.6515  0.9351 -1.6752
 4602SOL     OW25441   3.637   3.019   3.867 -0.1427 -0.3757 -0.1039
 4602SOL    HW125442   3.595   3.040   3.950  2.0737  2.4302  0.3094
 4602SOL    HW225443   3.664   2.931   3.897  0.1867 -0.6736 -1.2863
 4603SOL     OW25444   4.164   4.709  11.533 -0.0576  0.1893  0.0569
 4603SOL    HW125445   4.255   4.681  11.549  0.6455  0.6958 -3.1512
 4603SOL    HW225446   4.134   4.640  11.475 -2.6147  3.0519 -1.9698
 4604SOL     OW25447   2.277   1.302   6.898  0.1872  0.3395 -0.4535
 4604SOL    HW125448   2.244   1.214   6.918 -1.0991  0.7261 -0.8396
 4604SOL    HW225449   2.285   1.338   6.986 -2.1645 -0.9465  0.2805
 4605SOL     OW25450   4.669   0.635   9.721 -0.3015 -0.8549 -0.1871
 4605SOL    HW125451   0.002   0.576   9.696  0.7361  0.3522 -0.0790
 4605SOL    HW225452   4.592   0.579   9.731  0.2143 -1.3617  0.9022
 4606SOL     OW25453   0.247   2.592   3.784  0.2691  0.1693 -0.2175
 4606SOL    HW125454   0.164   2.579   3.737  1.7381 -2.1580 -2.2291
 4606SOL    HW225455   0.246   2.523   3.850  0.7411 -0.1216 -0.5083
 4607SOL     OW25456   2.445   0.460   6.126 -0.1165 -0.3378  0.0851
 4607SOL    HW125457   2.483   0.476   6.039 -0.0600 -0.3728  0.1038
 4607SOL    HW225458   2.358   0.499   6.113 -0.2437 -1.3166 -1.9999
 4608SOL     OW25459   0.548   1.146  12.846  0.5488 -0.1800 -0.4661
 4608SOL    HW125460   0.483   1.216  12.856 -0.4738 -1.2532  0.3871
 4608SOL    HW225461   0.582   1.142  12.935 -2.3601 -2.6272  0.5674
 4609SOL     OW25462   1.911   1.670   3.023 -0.3985 -1.2110  0.4036
 4609SOL    HW125463   1.880   1.759   3.041  2.5161 -0.0724 -0.2858
 4609SOL    HW225464   1.854   1.622   3.084 -0.0379  2.0273  3.2985
 4610SOL     OW25465   2.116   0.912   3.495  0.2821 -0.1991 -0.2538
 4610SOL    HW125466   2.165   0.855   3.435  1.3973 -1.2570  1.6756
 4610SOL    HW225467   2.165   0.906   3.577  1.1771  0.7397 -0.7092
 4611SOL     OW25468   3.712   4.493   6.417 -0.3878  0.0667  0.1933
 4611SOL    HW125469   3.785   4.475   6.476  1.0629 -0.2957 -1.7144
 4611SOL    HW225470   3.644   4.501   6.484 -2.1356 -0.1799 -1.5576
 4612SOL     OW25471   1.950   3.991   5.218  0.6383  0.0921 -0.1351
 4612SOL    HW125472   1.886   3.920   5.209 -0.4341  0.7993  2.1048
 4612SOL    HW225473   2.006   3.964   5.145  0.1969 -2.7738  0.5636
 4613SOL     OW25474   1.837   0.187   3.010  0.2230  0.4216 -0.0782
 4613SOL    HW125475   1.766   0.230   2.962  0.0521  1.9500  1.5325
 4613SOL    HW225476   1.908   0.250   2.998  0.0918  0.7343  0.7772
 4614SOL     OW25477   3.015   4.519   9.187 -0.1304  0.8948  0.1303
 4614SOL    HW125478   3.074   4.593   9.199 -2.9118  2.9315  1.4311
 4614SOL    HW225479   3.021   4.513   9.092  0.8622 -0.9110  0.2946
 4615SOL     OW25480   1.758   4.644   9.847 -0.0329 -0.5371  0.0455
 4615SOL    HW125481   1.847   4.628   9.816  1.0428  0.7619  2.4445
 4615SOL    HW225482   1.736   4.702   9.774  0.0591 -0.3696  0.1494
 4616SOL     OW25483   0.514   3.850   2.959 -0.0792  0.0894  0.5117
 4616SOL    HW125484   0.440   3.848   3.020 -1.0537 -3.5343 -0.7847
 4616SOL    HW225485   0.526   3.756   2.947 -0.4324  0.3729 -1.9465
 4617SOL     OW25486   3.366   0.640   3.864 -0.5151  0.2410  0.6230
 4617SOL    HW125487   3.357   0.546   3.853 -1.8772  0.3254  0.9792
 4617SOL    HW225488   3.378   0.667   3.773  1.1976  1.6295  1.2580
 4618SOL     OW25489   2.229   2.365   2.111  0.2600 -0.5065  0.6327
 4618SOL    HW125490   2.201   2.297   2.172 -0.9381 -0.5352  0.0560
 4618SOL    HW225491   2.146   2.396   2.075  0.8232  0.7025  0.3677
 4619SOL     OW25492   0.681   2.520   9.073  0.0630  0.1648  0.0308
 4619SOL    HW125493   0.749   2.587   9.071 -0.7079  1.0145  1.9402
 4619SOL    HW225494   0.600   2.572   9.075 -1.3541 -2.0611  0.4846
 4620SOL     OW25495   3.284   2.702   5.900  0.6218  0.4507 -0.4833
 4620SOL    HW125496   3.344   2.723   5.972  2.0649  0.6533 -1.7605
 4620SOL    HW225497   3.342   2.712   5.825 -0.1770  0.3299 -1.1190
 4621SOL     OW25498   4.308   4.030   5.077 -0.4637 -0.2607 -0.2619
 4621SOL    HW125499   4.266   3.978   5.008 -1.4465  0.6567 -0.3525
 4621SOL    HW225500   4.402   4.022   5.063 -0.3426 -0.4676  0.7124
 4622SOL     OW25501   2.590   3.082   6.935 -0.4551 -0.2104  0.1246
 4622SOL    HW125502   2.533   3.150   6.899  1.3590  0.5779 -1.2523
 4622SOL    HW225503   2.628   3.117   7.016 -0.0871 -1.6179  0.5658
 4623SOL     OW25504   1.699   2.892   0.181  0.3918  0.1000  0.0192
 4623SOL    HW125505   1.617   2.941   0.190  0.2775 -0.1309  0.2427
 4623SOL    HW225506   1.667   2.805   0.205 -2.0850  0.2696 -2.6266
 4624SOL     OW25507   3.534   1.866  14.894 -0.3146  0.3803  1.0617
 4624SOL    HW125508   3.544   1.774  14.869  1.6720  1.0652 -0.6123
 4624SOL    HW225509   3.511   1.856  14.987 -1.5650 -1.6244  0.5376
 4625SOL     OW25510   3.974   2.430  16.552  1.0810  0.0490  0.2185
 4625SOL    HW125511   3.985   2.335  16.560 -2.0796 -0.2263  1.4098
 4625SOL    HW225512   3.894   2.433  16.499  0.8617 -0.5427  0.5229
 4626SOL     OW25513   4.729   0.945   1.757  0.0183 -0.4387  0.1049
 4626SOL    HW125514   0.081   0.960   1.786  0.1522 -2.5691  0.7375
 4626SOL    HW225515   4.678   0.984   1.828  2.3302 -0.3251  1.7036
 4627SOL     OW25516   4.424   4.453   4.315 -0.0673 -0.4263 -0.3054
 4627SOL    HW125517   4.346   4.450   4.260 -0.4690  0.7290  0.2044
 4627SOL    HW225518   4.386   4.491   4.394  1.3774  1.2547 -0.4181
 4628SOL     OW25519   2.195   0.749   4.198  0.3409 -0.2746 -0.1607
 4628SOL    HW125520   2.137   0.681   4.164 -0.1707  1.0882 -1.9940
 4628SOL    HW225521   2.131   0.810   4.236  0.6385 -0.1387  0.1257
 4629SOL     OW25522   2.981   3.026  12.146 -0.1588  0.0779  0.3200
 4629SOL    HW125523   3.029   3.046  12.226  0.3346  0.8540 -0.1693
 4629SOL    HW225524   2.942   3.112  12.129 -0.6809 -0.2216  0.0014
 4630SOL     OW25525   3.270   3.599   6.321  0.4730  0.1754 -0.3398
 4630SOL    HW125526   3.297   3.565   6.406  1.0837 -0.1968 -0.6858
 4630SOL    HW225527   3.337   3.661   6.296  1.2489 -1.0060 -1.2042
 4631SOL     OW25528   2.567   3.349   9.787  0.0946 -0.3218  0.6413
 4631SOL    HW125529   2.514   3.429   9.781 -0.9232 -1.2145 -2.2038
 4631SOL    HW225530   2.508   3.299   9.842 -0.5444  0.5985  0.7972
 4632SOL     OW25531   1.567   0.255   2.435  0.2221  0.1000 -0.2196
 4632SOL    HW125532   1.573   0.334   2.381  3.2267  2.7232  3.8992
 4632SOL    HW225533   1.557   0.187   2.368  0.4504 -0.6182  0.4811
 4633SOL     OW25534   1.614   1.515   4.041  0.1794 -0.3916 -0.0887
 4633SOL    HW125535   1.687   1.454   4.054 -0.3156 -0.9004  0.2952
 4633SOL    HW225536   1.627   1.573   4.116 -2.3970  0.2177 -0.1069
 4634SOL     OW25537   2.748   3.944   1.647  0.0422 -0.7227  0.2575
 4634SOL    HW125538   2.743   3.897   1.730 -2.2923 -1.3720 -0.2393
 4634SOL    HW225539   2.819   3.903   1.598  1.0302 -0.2956  1.3492
 4635SOL     OW25540   2.775   0.084   1.364  0.3572 -0.4129  0.1540
 4635SOL    HW125541   2.840   0.148   1.395  0.4241 -1.6773  2.6290
 4635SOL    HW225542   2.722   0.136   1.304  1.5836  0.0811 -0.5097
 4636SOL     OW25543   3.090   0.321  11.222  0.3688  0.1409 -0.2130
 4636SOL    HW125544   3.056   0.253  11.282 -0.0427 -2.2806 -3.1939
 4636SOL    HW225545   3.007   0.369  11.218  0.0314 -0.3726  0.4449
 4637SOL     OW25546   4.435   3.606   1.495 -0.1753  0.1042 -0.6889
 4637SOL    HW125547   4.481   3.688   1.514 -0.4611  0.0739  0.1105
 4637SOL    HW225548   4.371   3.610   1.566 -1.1018  0.6797 -1.5474
 4638SOL     OW25549   1.403   2.368   5.792 -0.0126 -0.1349 -0.5651
 4638SOL    HW125550   1.423   2.461   5.788  1.3833 -0.3996  0.0217
 4638SOL    HW225551   1.489   2.332   5.817 -0.0947  0.2567  0.2713
 4639SOL     OW25552   2.709   2.256  16.468 -0.4560 -0.4691 -0.2771
 4639SOL    HW125553   2.664   2.319  16.412  1.5659 -0.1437 -1.5153
 4639SOL    HW225554   2.761   2.306  16.531 -0.7041 -0.1598 -0.3163
 4640SOL     OW25555   3.165   1.099  16.305 -0.1306  0.5685  0.0707
 4640SOL    HW125556   3.117   1.178  16.280  0.6807  1.2071  0.5229
 4640SOL    HW225557   3.256   1.126  16.293  0.6436 -1.3997  1.6586
 4641SOL     OW25558   1.655   1.708   8.148 -0.0377 -0.2298 -0.0635
 4641SOL    HW125559   1.704   1.734   8.226 -0.6146 -0.1494  0.2707
 4641SOL    HW225560   1.623   1.619   8.161  2.8123 -1.3596 -0.5891
 4642SOL     OW25561   1.056   0.170   6.982 -0.1719  0.8924 -0.2281
 4642SOL    HW125562   1.118   0.196   6.914 -0.5341 -0.0523 -0.9160
 4642SOL    HW225563   1.115   0.137   7.049 -1.7960  1.3686  1.4573
 4643SOL     OW25564   1.886   0.104  12.982  0.2250 -0.3207  0.9963
 4643SOL    HW125565   1.899   0.196  12.958 -0.7243 -1.2649 -3.1813
 4643SOL    HW225566   1.869   0.068  12.895 -1.3223 -0.0772  1.1861
 4644SOL     OW25567   1.594   0.235  12.301  0.0449 -0.0031  0.0761
 4644SOL    HW125568   1.652   0.307  12.325  0.6220 -0.7209  0.8333
 4644SOL    HW225569   1.643   0.154  12.295 -0.5249 -0.3342 -0.1086
 4645SOL     OW25570   1.361   0.097  14.953  0.7536 -0.0404  0.0279
 4645SOL    HW125571   1.336   0.185  14.984  0.1666 -0.9589  2.1327
 4645SOL    HW225572   1.433   0.126  14.897  0.3095  3.3140  1.1715
 4646SOL     OW25573   4.150   1.953   5.123 -0.8534 -0.1238  0.3644
 4646SOL    HW125574   4.221   1.940   5.186 -0.7880 -0.3762  0.2387
 4646SOL    HW225575   4.201   1.951   5.042  0.6878 -0.7357  1.3667
 4647SOL     OW25576   0.483   2.557   2.085  0.0280 -0.4015  0.3111
 4647SOL    HW125577   0.416   2.504   2.128 -0.2328 -0.2902  0.0392
 4647SOL    HW225578   0.430   2.624   2.042 -0.1253 -0.3748  0.5421
 4648SOL     OW25579   1.575   2.485   0.557  0.4641 -0.5262  0.0305
 4648SOL    HW125580   1.552   2.472   0.649 -3.1135 -2.8311 -1.1563
 4648SOL    HW225581   1.524   2.432   0.495  0.4127 -0.3983 -0.0378
 4649SOL     OW25582   0.369   3.097   7.094 -0.0499  0.6592  0.2334
 4649SOL    HW125583   0.298   3.045   7.056 -0.0545  0.6565  0.2458
 4649SOL    HW225584   0.421   3.113   7.015 -0.2695  0.2256  0.0030
 4650SOL     OW25585   0.355   2.147   6.712 -0.1204  0.2562  0.8078
 4650SOL    HW125586   0.331   2.155   6.619  0.3816 -0.3487  0.6243
 4650SOL    HW225587   0.410   2.069   6.718  2.2253  1.8784  0.3587
 4651SOL     OW25588   0.751   3.960  17.329  0.5130  0.0202 -0.4482
 4651SOL    HW125589   0.789   3.873  17.336 -1.0071 -0.4755  1.6662
 4651SOL    HW225590   0.727   3.958  17.236 -0.6800 -1.2514 -0.1071
 4652SOL     OW25591   4.014   1.852   8.842  0.4510  0.0339 -0.0290
 4652SOL    HW125592   4.012   1.878   8.750 -0.9367  0.3811  0.0923
 4652SOL    HW225593   4.040   1.935   8.883  0.4790 -0.7066  1.4608
 4653SOL     OW25594   1.946   2.336   4.015  0.2470 -0.3438  0.3962
 4653SOL    HW125595   1.895   2.411   4.045  1.1340 -0.4398  2.1102
 4653SOL    HW225596   1.878   2.276   3.984  0.5133 -1.0781  1.2541
 4654SOL     OW25597   4.733   1.518   5.581 -0.0660 -0.4578 -0.1810
 4654SOL    HW125598   0.020   1.433   5.616  1.0749  0.5896  1.5193
 4654SOL    HW225599   4.706   1.553   5.665  2.3152  0.1295  0.3344
 4655SOL     OW25600   3.904   0.960   2.565 -0.6634  0.1332 -0.3053
 4655SOL    HW125601   3.905   1.022   2.492  1.8529  0.4878  0.0195
 4655SOL    HW225602   3.932   1.023   2.632 -1.2991 -1.1218  1.1375
 4656SOL     OW25603   0.735   1.231   4.041  0.0918 -0.2138 -0.7073
 4656SOL    HW125604   0.736   1.326   4.048  0.1602 -0.3537  1.1916
 4656SOL    HW225605   0.754   1.223   3.947 -0.6765 -1.2275 -0.7766
 4657SOL     OW25606   4.236   2.171  14.758 -0.3395  0.3063  0.6515
 4657SOL    HW125607   4.195   2.242  14.708 -1.5671 -1.1199 -0.3522
 4657SOL    HW225608   4.188   2.100  14.716 -0.0178 -0.8022  2.1796
 4658SOL     OW25609   0.562   4.519   8.077  0.1321 -0.6156 -0.0930
 4658SOL    HW125610   0.571   4.453   8.009  1.1179 -1.1480  0.5473
 4658SOL    HW225611   0.635   4.492   8.133  1.0322 -0.2342 -1.0709
 4659SOL     OW25612   2.283   4.645   2.755  0.2877 -0.4872  0.1688
 4659SOL    HW125613   2.195   4.646   2.792  0.1440 -1.7780 -0.1547
 4659SOL    HW225614   2.333   4.604   2.826  0.1395 -0.4751  0.2784
 4660SOL     OW25615   0.202   3.946   3.351 -0.0380 -0.1068  0.1408
 4660SOL    HW125616   0.252   3.967   3.430  0.1779 -0.0985  0.0043
 4660SOL    HW225617   0.114   3.953   3.386 -0.0162  1.2386 -0.0609
 4661SOL     OW25618   0.807   2.947   8.349  0.2776 -0.2441 -0.8362
 4661SOL    HW125619   0.831   2.860   8.317  0.8273  0.3680 -2.0702
 4661SOL    HW225620   0.853   3.003   8.287 -0.7950  1.5498 -0.0022
 4662SOL     OW25621   2.916   3.505   0.703  0.1268  0.0336 -0.0741
 4662SOL    HW125622   2.917   3.443   0.777  1.8260 -0.2426 -0.3222
 4662SOL    HW225623   2.937   3.590   0.742 -2.0703 -0.0870  1.3523
 4663SOL     OW25624   2.692   1.444   0.781 -0.2343  0.2437  0.4440
 4663SOL    HW125625   2.609   1.416   0.743 -0.1516  1.2935 -0.5063
 4663SOL    HW225626   2.747   1.460   0.705 -0.5325 -2.0713 -0.2448
 4664SOL     OW25627   4.150   2.544   8.752  0.5670  0.4028  0.4074
 4664SOL    HW125628   4.141   2.516   8.844 -0.1998  0.1330  0.2528
 4664SOL    HW225629   4.220   2.484   8.725  1.0658  1.7031 -1.1557
 4665SOL     OW25630   3.166   4.675   5.317 -1.0974 -0.6216  0.0822
 4665SOL    HW125631   3.241   4.627   5.353  0.5326  1.0381 -1.0794
 4665SOL    HW225632   3.183   4.666   5.223 -0.8360  0.4450  0.0308
 4666SOL     OW25633   0.779   2.287  12.666  0.7575 -0.1175  0.4636
 4666SOL    HW125634   0.686   2.284  12.648  0.9708 -2.7793 -0.1358
 4666SOL    HW225635   0.776   2.299  12.761 -3.0233  1.9218  0.0671
 4667SOL     OW25636   1.033   2.791   4.362  0.6275 -0.1521 -0.5204
 4667SOL    HW125637   1.108   2.850   4.360 -0.5672  1.3908  0.0717
 4667SOL    HW225638   0.988   2.833   4.435  2.5409  1.8482 -0.4776
 4668SOL     OW25639   4.269   2.233   6.437  0.5729 -0.0881  0.4107
 4668SOL    HW125640   4.327   2.272   6.501  1.4569  1.8897 -1.5881
 4668SOL    HW225641   4.333   2.179   6.391 -0.7092 -1.3321  0.0655
 4669SOL     OW25642   0.537   3.157   5.985 -0.1350  0.7697 -0.3172
 4669SOL    HW125643   0.591   3.134   5.909 -0.0627 -1.8211  0.5393
 4669SOL    HW225644   0.493   3.073   5.996 -0.4982  0.8899 -0.8322
 4670SOL     OW25645   2.395   1.388   3.551 -0.1041 -0.6021  0.4391
 4670SOL    HW125646   2.485   1.385   3.583 -0.0570 -2.1078  0.1787
 4670SOL    HW225647   2.412   1.417   3.461  0.9062 -0.5146  0.6563
 4671SOL     OW25648   1.915   3.957   7.715  0.2605  0.4491 -0.4726
 4671SOL    HW125649   1.897   3.933   7.624  1.1931  0.4021 -0.6401
 4671SOL    HW225650   1.920   4.052   7.707  1.7387  0.4601  0.5817
 4672SOL     OW25651   3.827   2.105   7.000 -0.3456  0.0319  0.4690
 4672SOL    HW125652   3.855   2.020   7.032 -0.3827 -1.2258 -2.8837
 4672SOL    HW225653   3.895   2.167   7.028  0.1041  0.4288 -1.5345
 4673SOL     OW25654   2.495   1.620   4.562  0.0377 -0.0318 -0.0350
 4673SOL    HW125655   2.495   1.531   4.597  1.5758 -0.5837 -1.4021
 4673SOL    HW225656   2.468   1.603   4.472 -1.3803  0.5296  0.2906
 4674SOL     OW25657   4.606   2.724   3.229  0.5244  0.0866 -0.4228
 4674SOL    HW125658   4.536   2.784   3.202 -1.1259 -0.8455  1.8780
 4674SOL    HW225659   4.660   2.714   3.150 -1.3736  0.7597 -1.8284
 4675SOL     OW25660   0.984   4.515   3.784  0.1440  0.7976  0.2943
 4675SOL    HW125661   1.014   4.583   3.845  1.1630 -0.0247  0.7219
 4675SOL    HW225662   1.059   4.456   3.794 -1.0145 -0.6749  0.1377
 4676SOL     OW25663   2.419   2.404   1.235 -0.4290  0.2186  0.5960
 4676SOL    HW125664   2.488   2.351   1.195 -1.1372  1.1517 -1.8811
 4676SOL    HW225665   2.368   2.420   1.155  0.3860 -0.8836 -0.1421
 4677SOL     OW25666   1.204   1.557   3.370 -0.1519  0.3997 -0.1374
 4677SOL    HW125667   1.161   1.472   3.369  0.7066 -0.0753  1.9095
 4677SOL    HW225668   1.287   1.534   3.412  0.5893  3.6803  0.1690
 4678SOL     OW25669   2.036   0.908  15.799 -0.0995 -0.0261  0.0246
 4678SOL    HW125670   1.968   0.877  15.739 -2.3848  0.5504  2.3149
 4678SOL    HW225671   2.092   0.830  15.801  2.4073  1.7214 -1.1736
 4679SOL     OW25672   4.518   0.130   4.736  0.1530  0.5941  0.0849
 4679SOL    HW125673   4.578   0.137   4.662  0.0584  0.6615  0.0144
 4679SOL    HW225674   4.472   0.214   4.728  0.9371  0.7367 -2.8346
 4680SOL     OW25675   0.934   1.482   2.926 -0.1586 -0.2194 -0.6617
 4680SOL    HW125676   1.011   1.509   2.975 -1.5240  2.4216  0.0258
 4680SOL    HW225677   0.959   1.484   2.834 -1.7817 -1.5155 -1.1342
 4681SOL     OW25678   1.288   3.661   3.074 -0.1685 -0.4236 -0.3942
 4681SOL    HW125679   1.211   3.606   3.064  0.2940 -0.9780 -0.9023
 4681SOL    HW225680   1.312   3.670   2.981  0.5663  1.1087 -0.0664
 4682SOL     OW25681   0.651   2.860   4.998  0.1691  0.3689 -0.3088
 4682SOL    HW125682   0.616   2.895   5.080 -1.3282 -0.5343 -0.5593
 4682SOL    HW225683   0.578   2.805   4.968  0.7337 -0.2499 -0.5284
 4683SOL     OW25684   2.551   3.668  12.484 -0.1315 -0.2604 -0.1631
 4683SOL    HW125685   2.599   3.622  12.553 -0.0646 -0.6171 -0.4466
 4683SOL    HW225686   2.459   3.644  12.499  0.5503 -1.7186  1.7049
 4684SOL     OW25687   0.343   2.549   8.137 -0.3737 -0.7101 -0.4748
 4684SOL    HW125688   0.317   2.617   8.200  0.2585 -1.4645  0.6026
 4684SOL    HW225689   0.432   2.578   8.115 -0.7774  0.8556 -0.0692
 4685SOL     OW25690   4.681   4.558   4.507  0.2725 -0.0230 -0.5656
 4685SOL    HW125691   4.694   4.492   4.440  1.9538  0.1181 -0.3766
 4685SOL    HW225692   4.615   4.610   4.460 -1.4422  0.1620  2.0111
 4686SOL     OW25693   4.342   4.122   5.358 -0.0907 -0.1355  0.2163
 4686SOL    HW125694   4.315   4.045   5.408  1.6950 -0.3420  0.8361
 4686SOL    HW225695   4.309   4.093   5.272  0.4389  2.5674 -0.8977
 4687SOL     OW25696   4.016   1.225   7.944 -0.3805 -0.1562  0.0530
 4687SOL    HW125697   4.021   1.209   8.038  1.5743 -1.9875 -0.3754
 4687SOL    HW225698   3.950   1.159   7.924  1.7957 -2.6586  1.2197
 4688SOL     OW25699   1.925   4.681  16.141  0.4918 -0.1723  0.3383
 4688SOL    HW125700   1.930   0.029  16.182 -1.0303  0.6286 -1.1751
 4688SOL    HW225701   1.911   4.692  16.047  0.5980  0.9651  0.4534
 4689SOL     OW25702   0.255   0.478   8.474 -0.2767  0.0124 -0.5951
 4689SOL    HW125703   0.275   0.571   8.477 -2.7040  0.5883 -2.0005
 4689SOL    HW225704   0.196   0.484   8.398 -2.6676 -0.2802  1.2420
 4690SOL     OW25705   2.996   0.901   6.237 -0.0302 -0.0585  0.3233
 4690SOL    HW125706   2.948   0.982   6.254  0.2307  0.5251 -1.6849
 4690SOL    HW225707   2.933   0.837   6.271 -0.7469  0.6993  0.4266
 4691SOL     OW25708   0.970   0.784  13.079 -0.0593 -0.1907 -0.3077
 4691SOL    HW125709   1.060   0.795  13.110 -0.6680 -0.1550  1.4279
 4691SOL    HW225710   1.004   0.786  12.990  1.4615  1.8543  0.2992
 4692SOL     OW25711   2.503   4.547  13.177 -0.0246  0.4395  0.5181
 4692SOL    HW125712   2.583   4.598  13.164 -0.3824  0.8184 -0.2109
 4692SOL    HW225713   2.533   4.468  13.131 -0.2548 -0.1890  1.4342
 4693SOL     OW25714   3.499   1.505  12.864 -0.4189 -0.7404 -0.0276
 4693SOL    HW125715   3.473   1.597  12.870 -0.0004 -0.5981 -0.3523
 4693SOL    HW225716   3.488   1.492  12.958  1.9867  0.8959  0.4778
 4694SOL     OW25717   4.318   2.107   1.164 -0.2275  0.1046  0.1414
 4694SOL    HW125718   4.249   2.172   1.182  0.3768  0.3404  1.5760
 4694SOL    HW225719   4.375   2.140   1.233 -0.1802  1.0413 -0.3475
 4695SOL     OW25720   1.573   3.341  15.349 -0.1453 -0.4851  0.2252
 4695SOL    HW125721   1.616   3.358  15.433  1.6947 -0.6536 -0.6831
 4695SOL    HW225722   1.644   3.286  15.316 -0.1467 -0.6166  0.4420
 4696SOL     OW25723   3.845   3.721  13.337 -0.2360  0.5486 -0.0348
 4696SOL    HW125724   3.939   3.718  13.358 -0.2470  0.3221 -0.0210
 4696SOL    HW225725   3.825   3.628  13.348  0.6019  0.3860  0.1472
 4697SOL     OW25726   4.582   0.607   8.174 -0.7006  0.0707  0.7392
 4697SOL    HW125727   4.529   0.618   8.253  1.7886  0.6815  2.3279
 4697SOL    HW225728   4.630   0.690   8.172  0.2127 -0.5076 -1.2870
 4698SOL     OW25729   1.840   3.708   7.227  0.0755 -0.0693  0.1276
 4698SOL    HW125730   1.931   3.713   7.196 -0.4536 -0.5096 -1.4886
 4698SOL    HW225731   1.831   3.613   7.223  0.3292  0.0871 -4.1498
 4699SOL     OW25732   0.888   2.823  13.559  0.5823 -0.2914 -0.2017
 4699SOL    HW125733   0.817   2.789  13.505  0.6185  0.8337 -0.9687
 4699SOL    HW225734   0.915   2.889  13.495 -0.7783  0.1320 -0.3375
 4700SOL     OW25735   1.438   3.728   4.346 -0.0534 -0.5729 -0.0460
 4700SOL    HW125736   1.442   3.678   4.264  2.5852 -0.4294 -0.0023
 4700SOL    HW225737   1.523   3.771   4.346  0.5734 -1.9111  3.8839
 4701SOL     OW25738   3.084   3.613  15.911  0.5629  0.0798  0.1119
 4701SOL    HW125739   3.161   3.644  15.960  0.6683 -1.7204  1.1197
 4701SOL    HW225740   3.121   3.554  15.845  0.3045  0.4146 -0.3222
 4702SOL     OW25741   1.099   3.622   8.861  0.3728 -0.2976  0.2141
 4702SOL    HW125742   1.031   3.650   8.922 -2.0753 -0.6101 -2.3671
 4702SOL    HW225743   1.111   3.527   8.868  1.4865 -0.2330 -0.7202
 4703SOL     OW25744   2.933   1.397   7.940  0.2479  0.1119 -0.7209
 4703SOL    HW125745   2.988   1.323   7.913  1.4617  0.6597  0.2856
 4703SOL    HW225746   2.858   1.393   7.881 -0.0138 -1.0308 -0.3112
 4704SOL     OW25747   0.588   2.244   7.680  0.3769 -0.3368  0.0036
 4704SOL    HW125748   0.672   2.258   7.636  1.0577  0.7903  1.6386
 4704SOL    HW225749   0.547   2.327   7.658  0.9099  0.4524  1.9674
 4705SOL     OW25750   0.124   3.733   7.028 -0.3446 -0.0903  0.0223
 4705SOL    HW125751   0.208   3.774   7.045  0.4333 -1.3104 -0.8933
 4705SOL    HW225752   0.073   3.803   6.988 -0.2249  0.3589  0.6532
 4706SOL     OW25753   3.367   2.287   2.382  0.4986 -0.9545 -0.4707
 4706SOL    HW125754   3.449   2.328   2.408 -0.7102  1.2603 -0.1796
 4706SOL    HW225755   3.338   2.330   2.302 -0.0329  0.1419  0.3112
 4707SOL     OW25756   2.478   0.679   7.050  0.2052 -0.5879  0.1350
 4707SOL    HW125757   2.536   0.616   7.092  0.0976 -0.1579  0.9113
 4707SOL    HW225758   2.539   0.746   7.018 -0.8571 -1.2316 -3.2476
 4708SOL     OW25759   0.534   0.042  14.974 -0.4643 -0.5102  0.9742
 4708SOL    HW125760   0.484   4.698  14.976  0.1035 -0.8972 -0.4606
 4708SOL    HW225761   0.545   0.057  14.880  2.3688 -1.4078  1.1602
 4709SOL     OW25762   1.711   0.100   2.225 -0.0482  0.4935 -0.4186
 4709SOL    HW125763   1.775   0.156   2.268  0.7580 -0.7576 -0.0230
 4709SOL    HW225764   1.711   0.152   2.144 -0.2978 -0.8567 -1.2800
 4710SOL     OW25765   0.152   4.449  10.640 -0.7224 -0.1242  0.5074
 4710SOL    HW125766   0.167   4.484  10.552 -0.4579  1.7848  1.3226
 4710SOL    HW225767   0.239   4.469  10.674 -0.6888 -1.1026  1.0063
 4711SOL     OW25768   0.684   4.166   9.416 -0.5029  1.0904  0.4484
 4711SOL    HW125769   0.701   4.258   9.435 -1.2142  1.0696  1.1853
 4711SOL    HW225770   0.603   4.156   9.466 -0.0165 -3.0398  0.3633
 4712SOL     OW25771   2.906   3.674  10.155 -0.2041 -0.1778  0.1981
 4712SOL    HW125772   2.874   3.584  10.163  0.1727 -0.4435 -1.2268
 4712SOL    HW225773   2.843   3.713  10.215 -1.4470 -1.0380 -0.5492
 4713SOL     OW25774   4.326   1.581   6.995  0.2699  0.1189 -0.2742
 4713SOL    HW125775   4.232   1.587   6.978  0.3861 -0.1583 -1.0160
 4713SOL    HW225776   4.350   1.674   6.996 -1.0856  0.4770 -0.2042
 4714SOL     OW25777   4.676   1.318   0.637  0.0972  0.1901 -0.2509
 4714SOL    HW125778   4.681   1.331   0.731  1.1212 -1.5272 -0.0738
 4714SOL    HW225779   0.026   1.298   0.606 -0.3696 -2.1520 -0.0800
 4715SOL     OW25780   3.643   0.859   1.369  0.1278 -0.4331  0.0580
 4715SOL    HW125781   3.656   0.940   1.320  1.9547 -0.4606  0.4944
 4715SOL    HW225782   3.664   0.890   1.457 -1.3171  1.3533 -0.2101
 4716SOL     OW25783   1.532   1.394   2.431  0.2086  0.4162  0.1438
 4716SOL    HW125784   1.572   1.308   2.442  0.8641  0.3872 -2.4937
 4716SOL    HW225785   1.462   1.363   2.373  3.8224 -1.2601 -3.3035
 4717SOL     OW25786   2.310   1.800  12.375  0.1835  0.0518 -0.7237
 4717SOL    HW125787   2.388   1.798  12.431 -0.9071 -0.7626  0.7523
 4717SOL    HW225788   2.311   1.716  12.330  2.0277  0.5003 -1.5091
 4718SOL     OW25789   1.067   2.444   4.887 -0.4541 -0.3634 -0.0296
 4718SOL    HW125790   1.039   2.354   4.868  1.2741 -1.2094  1.4324
 4718SOL    HW225791   1.059   2.445   4.982 -1.6578  0.4452 -0.1479
 4719SOL     OW25792   0.065   2.545   4.778  0.0665 -0.3386 -0.2751
 4719SOL    HW125793   0.160   2.555   4.785 -0.3802  4.3510 -0.7283
 4719SOL    HW225794   0.061   2.499   4.694 -0.5941 -0.5836 -0.1026
 4720SOL     OW25795   0.438   3.882  17.418  0.0474 -0.7039 -0.1102
 4720SOL    HW125796   0.421   3.896  17.324 -2.4590  1.4941  0.6621
 4720SOL    HW225797   0.460   3.790  17.423 -0.8721 -0.9312 -0.2435
 4721SOL     OW25798   1.939   1.983   8.646 -0.0716  0.0014 -0.3716
 4721SOL    HW125799   1.857   2.000   8.692 -1.2445 -3.4187 -1.1850
 4721SOL    HW225800   1.956   2.076   8.628  1.4481 -0.2382 -0.1987
 4722SOL     OW25801   0.253   0.707  10.239  0.0259 -0.4354  0.0044
 4722SOL    HW125802   0.254   0.623  10.285  1.6507  0.2087  1.1488
 4722SOL    HW225803   0.325   0.760  10.274 -0.5991  0.3126  0.1414
 4723SOL     OW25804   4.359   2.775   1.856 -0.1929 -0.1402 -0.1329
 4723SOL    HW125805   4.382   2.773   1.764 -4.0214  1.7342 -1.1367
 4723SOL    HW225806   4.269   2.806   1.846 -0.5643 -1.0227  0.4947
 4724SOL     OW25807   1.386   2.437   6.436  0.2900  0.4991  0.5362
 4724SOL    HW125808   1.380   2.364   6.498 -1.4461  0.0673 -0.1763
 4724SOL    HW225809   1.297   2.469   6.450  0.8759  1.9695  0.9704
 4725SOL     OW25810   1.215   0.335   2.759  0.1706 -0.0464  0.1213
 4725SOL    HW125811   1.175   0.253   2.787  0.0580  0.1425  0.5063
 4725SOL    HW225812   1.259   0.360   2.840 -0.8541 -1.3323  1.0563
 4726SOL     OW25813   3.531   3.186   6.554 -0.2791  0.1002 -0.2974
 4726SOL    HW125814   3.462   3.128   6.586  0.0079 -0.6354 -1.0296
 4726SOL    HW225815   3.510   3.204   6.463 -0.3192 -0.3013 -0.3655
 4727SOL     OW25816   2.319   0.979  16.211 -0.2213  0.5313  0.4489
 4727SOL    HW125817   2.228   0.978  16.183  0.2461 -2.1218 -0.9259
 4727SOL    HW225818   2.361   1.042  16.152 -1.5985  0.2649 -0.8042
 4728SOL     OW25819   3.779   0.760   6.314 -0.3096 -0.3228 -0.3453
 4728SOL    HW125820   3.714   0.774   6.382 -0.6421  2.3393 -1.1956
 4728SOL    HW225821   3.857   0.746   6.368 -0.9348  0.7119  0.8335
 4729SOL     OW25822   2.807   3.468   7.430 -0.0333  0.9958 -0.0642
 4729SOL    HW125823   2.726   3.514   7.408 -0.1170 -0.1741 -2.1856
 4729SOL    HW225824   2.784   3.448   7.521  0.3917  1.1876  0.0872
 4730SOL     OW25825   3.031   3.125  10.038 -0.1894 -0.2622 -0.7846
 4730SOL    HW125826   3.077   3.044  10.016  0.9097 -0.2692  1.6151
 4730SOL    HW225827   3.095   3.191  10.009  0.2455  0.3768  1.6825
 4731SOL     OW25828   0.946   4.608   4.596 -0.6125 -0.7204  0.2469
 4731SOL    HW125829   1.013   4.621   4.529 -0.6164  0.0892  0.4020
 4731SOL    HW225830   0.958   4.684   4.652  0.8099  0.4872 -1.6914
 4732SOL     OW25831   0.389   1.147   6.732 -0.0945  0.1904 -0.3548
 4732SOL    HW125832   0.379   1.054   6.750 -0.3505 -0.0155 -1.5656
 4732SOL    HW225833   0.380   1.155   6.637 -1.0541  1.6127 -0.1429
 4733SOL     OW25834   2.823   2.454  14.010  0.1314  0.3124  0.7201
 4733SOL    HW125835   2.773   2.512  13.952  0.2846 -0.7650 -0.4879
 4733SOL    HW225836   2.913   2.461  13.976 -0.3114 -1.1390 -0.7378
 4734SOL     OW25837   2.338   2.363   3.507 -0.4197 -0.8106  0.1060
 4734SOL    HW125838   2.421   2.319   3.493  0.4249  1.6360 -2.6542
 4734SOL    HW225839   2.291   2.305   3.566  0.6296 -2.6239 -0.8678
 4735SOL     OW25840   2.243   3.364   6.153 -1.0590 -0.3858  0.1619
 4735SOL    HW125841   2.216   3.362   6.061  0.1378 -0.3187 -0.1979
 4735SOL    HW225842   2.260   3.276   6.186  1.8691  0.1768  0.2336
 4736SOL     OW25843   1.435   4.463   9.008 -0.3751 -0.0448 -0.3106
 4736SOL    HW125844   1.528   4.487   9.013 -0.4192  0.6328 -2.7258
 4736SOL    HW225845   1.449   4.377   9.047  0.1137  0.3547  0.3936
 4737SOL     OW25846   2.649   1.138   8.374  0.0499 -0.3034 -0.1358
 4737SOL    HW125847   2.635   1.227   8.340 -0.7188 -0.4523 -0.2036
 4737SOL    HW225848   2.646   1.163   8.467  3.2999 -0.8554  0.1199
 4738SOL     OW25849   4.230   0.966   6.670  0.0265 -0.0237  0.1489
 4738SOL    HW125850   4.158   0.932   6.617 -0.1009  1.6433 -0.7351
 4738SOL    HW225851   4.285   1.015   6.610 -1.6259 -1.0625 -2.1857
 4739SOL     OW25852   4.150   2.264   5.493  0.5445  0.1220  0.2858
 4739SOL    HW125853   4.070   2.279   5.443  1.2163  1.3263 -0.4222
 4739SOL    HW225854   4.218   2.296   5.433  1.3823 -1.1753  0.5497
 4740SOL     OW25855   4.184   3.640   6.814 -0.1277 -0.6157 -0.3787
 4740SOL    HW125856   4.181   3.676   6.726 -0.3561 -0.8949 -0.4858
 4740SOL    HW225857   4.108   3.674   6.863 -0.0428  0.1748 -0.7939
 4741SOL     OW25858   4.604   4.649   4.881  0.3786 -0.3263 -0.2810
 4741SOL    HW125859   4.542   4.584   4.848 -0.1518  0.7805 -1.4764
 4741SOL    HW225860   4.585   4.726   4.827 -0.0775 -0.7818 -0.7674
 4742SOL     OW25861   1.099   2.321  16.593  0.2642 -0.5949  0.2349
 4742SOL    HW125862   1.063   2.233  16.601 -1.8059  0.1736 -0.6613
 4742SOL    HW225863   1.071   2.363  16.675  0.4472  0.1636 -0.0891
 4743SOL     OW25864   3.046   4.458   6.303 -0.2445 -0.1106 -0.3240
 4743SOL    HW125865   2.954   4.468   6.328 -0.9296 -1.4790 -2.3113
 4743SOL    HW225866   3.035   4.417   6.218  1.9969 -2.8293  0.7164
 4744SOL     OW25867   0.537   3.301   7.522 -0.5729  0.2314  0.1982
 4744SOL    HW125868   0.487   3.247   7.461 -2.2462 -0.3892  2.0965
 4744SOL    HW225869   0.606   3.332   7.463  0.9481 -0.8090  1.4193
 4745SOL     OW25870   4.676   1.573   4.500  0.5582 -0.2473  0.6094
 4745SOL    HW125871   4.589   1.611   4.511  0.9935  0.7845  0.5108
 4745SOL    HW225872   4.733   1.633   4.547  0.3721 -0.2862  0.8812
 4746SOL     OW25873   1.472   3.185   1.810 -0.5476  0.4445 -0.2581
 4746SOL    HW125874   1.514   3.263   1.773  0.0297  0.5934  0.7241
 4746SOL    HW225875   1.390   3.227   1.833 -1.4983 -0.1417 -2.6139
 4747SOL     OW25876   3.151   2.384  14.923  0.2314  0.1731  0.6529
 4747SOL    HW125877   3.167   2.470  14.962  2.1387 -0.1945  0.6707
 4747SOL    HW225878   3.243   2.361  14.913 -0.2434 -0.6349 -1.6280
 4748SOL     OW25879   3.505   2.424   8.520 -0.4279  0.5538 -0.1828
 4748SOL    HW125880   3.424   2.467   8.548 -1.6826 -2.2860  0.5094
 4748SOL    HW225881   3.565   2.496   8.499 -1.1479  2.2848  3.6193
 4749SOL     OW25882   3.404   1.026   0.366 -0.2655 -0.2656 -0.0408
 4749SOL    HW125883   3.379   1.117   0.379 -0.4959 -0.4300  0.7015
 4749SOL    HW225884   3.325   1.007   0.317  0.3728  0.4237 -1.3276
 4750SOL     OW25885   0.728   0.482   7.463  0.1171 -0.2475  0.7124
 4750SOL    HW125886   0.809   0.434   7.451 -0.1673 -0.6551  0.4062
 4750SOL    HW225887   0.672   0.423   7.514 -0.0696  1.0385  1.9885
 4751SOL     OW25888   4.633   1.346   3.730 -0.1653  0.1320 -0.0365
 4751SOL    HW125889   4.682   1.385   3.657  2.9168 -2.7672  0.4520
 4751SOL    HW225890   4.547   1.383   3.714 -0.3238 -0.7308 -1.2055
 4752SOL     OW25891   3.348   3.025   9.436 -0.4871 -0.0354  0.1866
 4752SOL    HW125892   3.381   3.096   9.492 -1.1137  0.3311  0.0819
 4752SOL    HW225893   3.409   2.953   9.453 -1.5105 -0.7593  0.7686
 4753SOL     OW25894   2.735   3.399  15.362  0.6011  0.1305  0.2941
 4753SOL    HW125895   2.828   3.418  15.349 -0.4504  3.3029 -2.6663
 4753SOL    HW225896   2.709   3.468  15.423  0.1379  0.4330 -0.2452
 4754SOL     OW25897   3.773   1.470   9.683  0.0417  0.6102 -0.3268
 4754SOL    HW125898   3.821   1.482   9.765 -0.5790  3.5549 -0.4083
 4754SOL    HW225899   3.838   1.504   9.622 -0.4609  0.5104 -0.9122
 4755SOL     OW25900   2.347   2.711   3.409  0.2723 -0.4203 -0.5528
 4755SOL    HW125901   2.358   2.709   3.504 -1.7963  0.2518 -0.3158
 4755SOL    HW225902   2.435   2.681   3.385  0.2467 -1.4907  0.7073
 4756SOL     OW25903   2.099   3.409   6.959  0.3284 -0.1942 -0.0725
 4756SOL    HW125904   2.037   3.360   6.905 -1.3293  2.7814 -0.8674
 4756SOL    HW225905   2.145   3.338   7.004 -1.7471 -1.3363  0.2163
 4757SOL     OW25906   4.401   3.583  12.995  0.1141 -0.0574  0.6008
 4757SOL    HW125907   4.441   3.591  13.082 -3.3442  1.0979  2.0589
 4757SOL    HW225908   4.469   3.632  12.950  1.1873 -1.6391  0.4830
 4758SOL     OW25909   0.143   1.239  16.934 -0.4813  0.1430 -0.5602
 4758SOL    HW125910   0.190   1.282  16.863 -0.4691  1.8926  0.5011
 4758SOL    HW225911   0.050   1.239  16.911 -0.7600 -0.4318  0.5185
 4759SOL     OW25912   4.620   2.568  14.854  0.8723  0.0637 -0.1618
 4759SOL    HW125913   4.650   2.586  14.764  0.1270  1.6830 -0.0850
 4759SOL    HW225914   4.705   2.556  14.896  0.2169 -1.4617  0.7094
 4760SOL     OW25915   0.491   2.307   9.262  0.1938  0.1484 -0.4035
 4760SOL    HW125916   0.481   2.374   9.195  0.3600  1.1369  0.5622
 4760SOL    HW225917   0.397   2.289   9.270 -0.2753  2.4683 -0.6416
 4761SOL     OW25918   2.011   3.569   3.272 -0.3324  0.0753  0.5964
 4761SOL    HW125919   2.067   3.492   3.259  0.3820  0.9582 -1.4931
 4761SOL    HW225920   1.997   3.597   3.181 -0.1545 -0.4547  0.4046
 4762SOL     OW25921   0.832   3.040   4.937 -0.6967 -0.2871 -0.4657
 4762SOL    HW125922   0.783   3.097   4.996  0.0305  0.3765 -0.5060
 4762SOL    HW225923   0.778   2.961   4.947 -0.6400 -0.2309  0.2735
 4763SOL     OW25924   4.632   4.598   5.832  0.0789  0.4325 -0.2035
 4763SOL    HW125925   4.585   4.521   5.799  0.7628 -0.2528  0.4209
 4763SOL    HW225926   4.685   4.554   5.899 -1.5211  1.9966  2.0876
 4764SOL     OW25927   1.570   3.004   7.899 -0.1264 -0.0132 -0.1049
 4764SOL    HW125928   1.482   2.984   7.869  0.5641  0.7791 -2.6768
 4764SOL    HW225929   1.624   2.965   7.830  0.6009 -0.4883  0.7297
 4765SOL     OW25930   1.864   1.591   8.733 -0.2856  0.5677  0.0953
 4765SOL    HW125931   1.795   1.557   8.676  0.1221 -0.8055  0.4211
 4765SOL    HW225932   1.810   1.605   8.811  1.4940  1.7983  1.1007
 4766SOL     OW25933   3.002   3.807   5.643 -0.3546 -0.1048 -0.3042
 4766SOL    HW125934   3.006   3.902   5.653  0.8524 -0.2107  0.1777
 4766SOL    HW225935   2.908   3.790   5.644 -0.5818  1.0657 -2.6135
 4767SOL     OW25936   0.652   1.830   4.957 -0.7042  0.3658  0.0246
 4767SOL    HW125937   0.673   1.880   5.036  1.7631 -1.8688  0.7824
 4767SOL    HW225938   0.710   1.870   4.892 -0.5905  0.4141  0.1572
 4768SOL     OW25939   4.043   4.364   9.627  0.3209  0.4888  0.6175
 4768SOL    HW125940   4.134   4.359   9.598 -0.3474  0.5470 -1.4939
 4768SOL    HW225941   4.029   4.276   9.661 -1.2638  0.6619  0.4281
 4769SOL     OW25942   4.008   2.974   4.197  0.1749 -0.0822 -0.1408
 4769SOL    HW125943   4.038   2.920   4.270  0.6670 -1.4761 -1.3865
 4769SOL    HW225944   4.048   2.938   4.118 -1.3639  1.9465 -1.8676
 4770SOL     OW25945   2.976   4.108  16.449 -0.2315  0.6297 -0.2077
 4770SOL    HW125946   2.981   4.150  16.535  0.0016 -1.4206  0.7693
 4770SOL    HW225947   2.946   4.177  16.390 -1.6834  0.0488 -0.1375
 4771SOL     OW25948   0.227   0.558   6.288 -0.3106  0.0880 -0.2320
 4771SOL    HW125949   0.232   0.468   6.319 -0.3257  0.6194  1.3256
 4771SOL    HW225950   0.199   0.616   6.359  1.7192 -0.8309  1.3224
 4772SOL     OW25951   1.537   1.592   5.584  0.2403 -0.2458  0.0734
 4772SOL    HW125952   1.529   1.621   5.493 -2.2403  1.9355  0.9845
 4772SOL    HW225953   1.632   1.598   5.597  0.1128 -1.4868  1.4817
 4773SOL     OW25954   4.552   3.756   3.652 -0.2032  0.0286 -0.3235
 4773SOL    HW125955   4.583   3.727   3.738  0.2432  1.2409 -0.0771
 4773SOL    HW225956   4.546   3.674   3.603  0.7832 -0.5356  0.5056
 4774SOL     OW25957   1.621   2.470   6.101  0.4882 -0.4672  0.0317
 4774SOL    HW125958   1.598   2.411   6.173  0.0909 -0.0221  0.2727
 4774SOL    HW225959   1.530   2.493   6.081  0.2635 -2.1498 -0.9124
 4775SOL     OW25960   0.012   4.102   8.654  0.0381  0.1979 -0.1948
 4775SOL    HW125961   0.015   4.183   8.603 -0.9932 -0.5535 -1.4646
 4775SOL    HW225962   0.073   4.129   8.722 -0.8639 -0.0870  0.7295
 4776SOL     OW25963   3.791   2.847  16.658  0.3073 -0.0722  0.1706
 4776SOL    HW125964   3.724   2.861  16.724  0.1520 -3.2501  0.7156
 4776SOL    HW225965   3.804   2.752  16.648  1.9398  0.0172  1.3976
 4777SOL     OW25966   2.169   4.301   5.969 -0.8974 -0.0836  0.0509
 4777SOL    HW125967   2.157   4.261   6.055  0.4721  0.3701  0.4471
 4777SOL    HW225968   2.259   4.275   5.950 -0.3155  2.3284 -0.5075
 4778SOL     OW25969   4.603   0.883   5.677 -0.2947  0.0481  0.1804
 4778SOL    HW125970   4.548   0.925   5.611 -1.2743 -1.2929  0.1365
 4778SOL    HW225971   4.639   0.820   5.615  1.9796  1.3138  0.2248
 4779SOL     OW25972   4.672   4.378  10.767  0.0499 -0.6988 -0.1149
 4779SOL    HW125973   0.025   4.394  10.741  0.7209 -2.8026  0.9227
 4779SOL    HW225974   4.651   4.293  10.729  1.7573 -1.6032  0.9528
 4780SOL     OW25975   2.515   1.791  10.726 -0.0506 -0.5063  0.2075
 4780SOL    HW125976   2.605   1.815  10.747 -1.2360  1.2995  3.0646
 4780SOL    HW225977   2.486   1.758  10.811  1.5058 -0.1826  0.8638
 4781SOL     OW25978   2.032   2.709  12.256 -0.2755 -0.0007  0.2376
 4781SOL    HW125979   2.074   2.628  12.285  0.9294  0.1020 -1.1714
 4781SOL    HW225980   2.111   2.762  12.245 -0.3869 -0.2028 -1.4780
 4782SOL     OW25981   4.353   3.728   1.952 -0.0794  0.5595 -0.7851
 4782SOL    HW125982   4.281   3.760   1.897 -0.7478 -0.2699 -0.3965
 4782SOL    HW225983   4.425   3.779   1.916  0.4051  0.7990  0.5272
 4783SOL     OW25984   1.917   3.225   6.052  0.0067  0.3297  0.1839
 4783SOL    HW125985   1.974   3.187   5.985  0.8398  0.2735  0.9374
 4783SOL    HW225986   1.901   3.311   6.013  0.5077  0.4695  0.2926
 4784SOL     OW25987   0.544   3.507   8.465  0.0548  0.0781 -0.1238
 4784SOL    HW125988   0.590   3.588   8.487 -0.8718  0.9560 -1.4558
 4784SOL    HW225989   0.498   3.542   8.389  1.8222 -0.9561 -1.6911
 4785SOL     OW25990   1.691   4.305  14.131  0.5359  0.0234 -0.1101
 4785SOL    HW125991   1.740   4.369  14.080 -0.2594  1.3901  0.8402
 4785SOL    HW225992   1.636   4.280  14.058  1.2275  1.2843 -1.0596
 4786SOL     OW25993   3.531   4.655   4.907  0.2803  0.0369 -0.4203
 4786SOL    HW125994   3.468   4.630   4.840  0.5418 -2.0485  0.1029
 4786SOL    HW225995   3.543   4.574   4.957  0.9461  0.3115 -0.1243
 4787SOL     OW25996   2.625   2.885   3.666 -0.5167 -0.5755  0.1605
 4787SOL    HW125997   2.544   2.854   3.707 -0.5233 -1.0203 -0.1928
 4787SOL    HW225998   2.595   2.975   3.653  2.1543  0.3966  0.6906
 4788SOL     OW25999   0.740   0.054  10.544 -0.2727  0.1655 -0.0323
 4788SOL    HW126000   0.727   4.699  10.565  2.1947 -0.4496 -1.2756
 4788SOL    HW226001   0.789   0.081  10.622 -1.9447 -0.5050  1.2625
 4789SOL     OW26002   1.343   3.958   0.511  0.3403 -0.4006 -0.0650
 4789SOL    HW126003   1.289   3.996   0.581  0.7910  1.1754 -0.5758
 4789SOL    HW226004   1.351   3.864   0.524 -0.3951 -0.3245  0.9548
 4790SOL     OW26005   3.778   1.748   1.662  0.4086 -0.2173 -0.3993
 4790SOL    HW126006   3.716   1.776   1.728  0.3586 -3.2461  0.8634
 4790SOL    HW226007   3.861   1.771   1.704  0.2071 -1.0525  0.4669
 4791SOL     OW26008   1.429   0.149   9.187  0.2079  0.4205 -0.1369
 4791SOL    HW126009   1.388   0.066   9.164  3.4796 -0.8479 -1.3890
 4791SOL    HW226010   1.516   0.120   9.161  0.2434  0.2489  0.1720
 4792SOL     OW26011   1.907   0.488   5.981 -0.3434 -0.1797  0.2862
 4792SOL    HW126012   1.880   0.398   6.000 -0.7985 -0.2187 -0.5604
 4792SOL    HW226013   1.927   0.508   6.073 -1.1318 -1.7057  0.7838
 4793SOL     OW26014   3.925   4.421   5.751 -0.2358  0.1203  0.2294
 4793SOL    HW126015   3.872   4.413   5.672  0.5608  4.2550 -0.7257
 4793SOL    HW226016   3.994   4.479   5.719  0.4067 -0.1067  1.2061
 4794SOL     OW26017   2.896   2.448   1.589 -0.2579 -0.7180 -0.4677
 4794SOL    HW126018   2.813   2.460   1.636 -0.6472  0.6305 -1.5110
 4794SOL    HW226019   2.885   2.371   1.534 -0.7131 -1.0363  0.0642
 4795SOL     OW26020   2.288   0.783   3.257  0.2211  0.0447 -0.1999
 4795SOL    HW126021   2.242   0.744   3.183 -1.0123 -0.2335  0.7088
 4795SOL    HW226022   2.339   0.848   3.208  0.7627 -0.7044 -0.6341
 4796SOL     OW26023   4.350   2.144   4.328  0.4287 -0.4910 -0.3204
 4796SOL    HW126024   4.383   2.132   4.239  3.5079  2.7682  0.3649
 4796SOL    HW226025   4.406   2.217   4.356 -1.4374  0.7647  0.1650
 4797SOL     OW26026   3.902   4.688   5.929 -0.3318 -0.2832 -0.3477
 4797SOL    HW126027   3.969   4.625   5.955 -0.3450  0.3397  1.1893
 4797SOL    HW226028   3.927   4.699   5.837 -0.7340 -3.6780 -0.8683
 4798SOL     OW26029   0.755   1.997   2.578 -0.1684 -0.5394  0.1802
 4798SOL    HW126030   0.834   2.027   2.624  0.4647 -0.9649 -0.6322
 4798SOL    HW226031   0.745   1.906   2.607  0.1258 -0.6431 -0.0381
 4799SOL     OW26032   2.297   2.164   2.481  0.2003 -0.3183  0.1800
 4799SOL    HW126033   2.240   2.239   2.498 -0.8762 -0.3052 -3.5140
 4799SOL    HW226034   2.255   2.117   2.409  1.8685 -0.3484 -0.7769
 4800SOL     OW26035   0.938   0.941   2.063  0.1669  0.3146 -0.4495
 4800SOL    HW126036   0.980   0.929   1.978  0.6532 -0.5523 -0.0853
 4800SOL    HW226037   0.964   0.865   2.115  0.9309  0.5319 -0.5109
 4801SOL     OW26038   0.719   2.719  11.380 -0.5485  0.6420  0.2630
 4801SOL    HW126039   0.628   2.748  11.369 -1.2833 -1.6870  0.0366
 4801SOL    HW226040   0.745   2.715  11.288  0.2967 -0.4898  0.5524
 4802SOL     OW26041   2.626   3.276   0.755 -0.4750 -0.1222 -0.1277
 4802SOL    HW126042   2.584   3.203   0.709  2.2129 -1.9226  0.2518
 4802SOL    HW226043   2.712   3.264   0.717  0.8700  0.5364  2.6637
 4803SOL     OW26044   3.063   2.252   5.471  0.5700  0.2064 -0.5055
 4803SOL    HW126045   2.979   2.275   5.433  0.1624  0.0447  0.3064
 4803SOL    HW226046   3.042   2.248   5.564 -0.1044  0.2125 -0.6562
 4804SOL     OW26047   2.958   3.196   1.184  0.3738  0.5491 -0.3471
 4804SOL    HW126048   2.887   3.260   1.188  1.2160  1.3787  0.9988
 4804SOL    HW226049   2.956   3.145   1.265 -1.0272  1.5087  0.2250
 4805SOL     OW26050   0.178   1.038  15.739  0.1032  0.2964 -0.0490
 4805SOL    HW126051   0.206   1.105  15.801 -2.0372  2.2194 -1.1291
 4805SOL    HW226052   0.164   1.091  15.660  0.3247 -0.7843 -0.8068
 4806SOL     OW26053   1.777   0.107   7.943 -0.4075  0.4212 -0.6556
 4806SOL    HW126054   1.709   0.121   8.009  0.9437 -0.6924  0.9455
 4806SOL    HW226055   1.729   0.146   7.870 -2.1379  0.1107  0.2936
 4807SOL     OW26056   0.291   3.002   1.714  0.1260  0.3982  0.2671
 4807SOL    HW126057   0.323   3.023   1.802  1.6929  0.6424 -0.3778
 4807SOL    HW226058   0.299   2.907   1.713  0.1997  0.3996  0.6114
 4808SOL     OW26059   4.092   4.028   8.924  0.0631  0.3904  0.4483
 4808SOL    HW126060   4.024   4.043   8.989 -2.2532 -1.5890 -1.5241
 4808SOL    HW226061   4.135   4.114   8.919  0.9960  0.0583  2.9052
 4809SOL     OW26062   1.973   2.118  14.874 -0.3590  0.1715 -0.1696
 4809SOL    HW126063   2.052   2.115  14.819  0.4109  2.9844  0.7872
 4809SOL    HW226064   1.972   2.204  14.916  0.0333  0.6812 -1.1999
 4810SOL     OW26065   3.484   3.283  10.572 -0.2768 -0.2780 -0.2034
 4810SOL    HW126066   3.412   3.222  10.555 -0.1469 -0.7542  0.9554
 4810SOL    HW226067   3.549   3.214  10.567  1.3456  1.4506 -2.6834
 4811SOL     OW26068   1.723   0.837  13.004  0.1268 -0.1862 -0.3869
 4811SOL    HW126069   1.805   0.885  12.988 -1.0299  1.3390 -1.7502
 4811SOL    HW226070   1.657   0.887  12.956 -1.2433  0.7792  2.5056
 4812SOL     OW26071   0.129   4.495   2.804  0.8114 -0.0099  0.0632
 4812SOL    HW126072   0.104   4.573   2.854  2.9695  1.0931 -0.5573
 4812SOL    HW226073   0.225   4.487   2.802  0.7114 -1.5073  1.9123
 4813SOL     OW26074   2.146   4.602   8.437 -0.2262  0.1695  0.6189
 4813SOL    HW126075   2.177   4.675   8.490 -1.3420  0.1436  1.3047
 4813SOL    HW226076   2.226   4.552   8.425 -0.5801 -0.4879  0.9643
 4814SOL     OW26077   0.103   3.563  12.140 -0.0034  0.2693  0.7377
 4814SOL    HW126078   0.127   3.482  12.185  0.5145  0.5370  0.9475
 4814SOL    HW226079   0.032   3.530  12.085 -0.3350  2.3356 -0.0872
 4815SOL     OW26080   0.621   1.076  11.973  0.8946 -0.3277  0.6472
 4815SOL    HW126081   0.536   1.112  12.000  0.9304 -1.4083  2.2369
 4815SOL    HW226082   0.640   1.001  12.030  0.5261 -0.9485 -0.0379
 4816SOL     OW26083   2.388   2.536   5.676 -0.2314 -0.8930 -0.0651
 4816SOL    HW126084   2.469   2.496   5.645  1.5089  0.0968  3.1440
 4816SOL    HW226085   2.416   2.625   5.655 -0.8929 -0.5460  0.5076
 4817SOL     OW26086   1.875   2.339   6.264  0.3764  0.3823  0.3551
 4817SOL    HW126087   1.781   2.338   6.250  0.3326 -0.8675  0.6899
 4817SOL    HW226088   1.874   2.376   6.353 -1.2215  0.1091  0.4477
 4818SOL     OW26089   2.438   0.170  13.323  0.5810 -0.0178  0.1518
 4818SOL    HW126090   2.374   0.232  13.357 -0.9062 -0.5690 -1.6194
 4818SOL    HW226091   2.516   0.225  13.326  0.2705  0.4172  0.2109
 4819SOL     OW26092   2.327   1.763   8.335 -0.3293 -0.1027 -0.0814
 4819SOL    HW126093   2.341   1.669   8.348 -0.4255 -0.1642 -0.4188
 4819SOL    HW226094   2.240   1.778   8.372 -1.0936 -2.1491 -0.9998
 4820SOL     OW26095   2.284   3.566   2.933  1.0196  0.0561  0.3170
 4820SOL    HW126096   2.359   3.611   2.894 -1.1310  0.1463 -3.7036
 4820SOL    HW226097   2.229   3.582   2.857  3.5469  2.4315 -1.0079
 4821SOL     OW26098   1.660   1.240   3.308  0.4649  0.5086 -0.1950
 4821SOL    HW126099   1.625   1.252   3.396  0.6093  2.0561 -0.3522
 4821SOL    HW226100   1.730   1.178   3.327 -0.3503 -0.2101  0.4815
 4822SOL     OW26101   3.753   1.730   8.502 -0.5534 -0.2708  0.0930
 4822SOL    HW126102   3.678   1.756   8.555 -1.1233  0.3495 -1.0310
 4822SOL    HW226103   3.782   1.817   8.475 -0.8503  0.3981  1.9347
 4823SOL     OW26104   4.283   2.863   9.249 -0.3630  0.0344 -0.1724
 4823SOL    HW126105   4.260   2.913   9.328 -0.3432  0.5452 -0.4908
 4823SOL    HW226106   4.324   2.787   9.290 -0.9340 -0.3616 -0.3354
 4824SOL     OW26107   4.410   2.100  11.013  0.5176 -0.0130  0.4342
 4824SOL    HW126108   4.447   2.090  10.925 -0.6216  4.2456 -0.5226
 4824SOL    HW226109   4.454   2.030  11.062  1.3988 -0.2016 -0.6263
 4825SOL     OW26110   1.149   2.926   2.663  0.0758  0.1923  0.0659
 4825SOL    HW126111   1.122   2.971   2.584  0.1686  1.2278  0.6321
 4825SOL    HW226112   1.131   2.835   2.640  0.4531  0.1648 -0.1314
 4826SOL     OW26113   3.100   0.935   4.729  0.1103 -0.2540 -0.1166
 4826SOL    HW126114   3.194   0.931   4.751  0.0650 -1.2178 -0.0785
 4826SOL    HW226115   3.106   0.931   4.634  0.8995  0.9715 -0.1096
 4827SOL     OW26116   2.285   1.711   4.084  0.0526  0.3829 -0.1265
 4827SOL    HW126117   2.233   1.779   4.042  0.9428  2.2987  1.8819
 4827SOL    HW226118   2.261   1.733   4.174 -0.1494  1.1496 -0.3645
 4828SOL     OW26119   1.754   4.337   2.511  1.3026 -0.9187 -0.2695
 4828SOL    HW126120   1.683   4.373   2.564  1.8094  1.5161 -1.2435
 4828SOL    HW226121   1.776   4.420   2.469 -1.1145  0.2607  0.8492
 4829SOL     OW26122   0.416   1.559   8.081 -0.3822  0.2924 -0.7803
 4829SOL    HW126123   0.347   1.492   8.078  0.7459 -0.8349 -1.8843
 4829SOL    HW226124   0.457   1.550   7.995  0.3256  0.6940 -0.4863
 4830SOL     OW26125   4.179   0.054  15.705 -0.4156 -0.1205  0.7402
 4830SOL    HW126126   4.096   0.084  15.741 -0.3005  0.0965  0.8243
 4830SOL    HW226127   4.229   0.136  15.706  0.1510 -0.4707  1.9703
 4831SOL     OW26128   1.426   0.779   6.593  0.3243 -0.7780 -0.7248
 4831SOL    HW126129   1.348   0.762   6.646  0.3678  2.2860  0.3591
 4831SOL    HW226130   1.480   0.717   6.641 -0.2853 -1.2882 -0.6905
 4832SOL     OW26131   4.463   3.303  17.541  0.2371 -0.0176 -0.1974
 4832SOL    HW126132   4.512   3.222  17.548  0.2058  0.0520  0.8974
 4832SOL    HW226133   4.452   3.317  17.447  1.2079  4.3738  0.3243
 4833SOL     OW26134   3.717   2.573   5.934  0.0843 -0.4623  0.4859
 4833SOL    HW126135   3.724   2.492   5.883  0.5298 -1.0235  1.4403
 4833SOL    HW226136   3.789   2.571   5.998 -0.0496 -0.6182  0.6311
 4834SOL     OW26137   0.239   1.330  14.853  0.1451  0.5384 -0.2466
 4834SOL    HW126138   0.297   1.406  14.847 -0.7806  1.2970  0.4562
 4834SOL    HW226139   0.209   1.345  14.943 -0.2452  0.3108 -0.3388
 4835SOL     OW26140   0.358   1.379   4.362 -0.2362  0.5066  0.0687
 4835SOL    HW126141   0.419   1.323   4.316  1.3177  2.8888 -0.7511
 4835SOL    HW226142   0.272   1.340   4.343 -0.4162  2.2775 -2.7059
 4836SOL     OW26143   0.478   2.946   5.192  0.4874  0.5058  0.1489
 4836SOL    HW126144   0.409   2.891   5.228 -1.8997  1.5037 -2.8950
 4836SOL    HW226145   0.506   3.007   5.260 -0.1517  1.0084 -0.0332
 4837SOL     OW26146   1.237   0.012   4.808 -0.3358  0.1439  0.0798
 4837SOL    HW126147   1.149   0.050   4.810 -0.7128 -0.6928 -1.0595
 4837SOL    HW226148   1.284   0.089   4.841 -0.5312 -0.2744  1.3260
 4838SOL     OW26149   3.920   1.348   4.520  0.4757  0.2146 -0.0040
 4838SOL    HW126150   3.865   1.418   4.555 -0.9452 -0.7626 -0.2901
 4838SOL    HW226151   3.877   1.350   4.435 -1.0853  0.0331  0.7721
 4839SOL     OW26152   1.766   4.461   9.511  0.2394  0.3954  0.3402
 4839SOL    HW126153   1.709   4.423   9.577 -0.4775 -0.5690 -0.8406
 4839SOL    HW226154   1.829   4.504   9.570  1.6654  1.0402 -1.6434
 4840SOL     OW26155   3.822   1.922   2.310  0.4918  0.5511 -0.0453
 4840SOL    HW126156   3.788   1.989   2.250 -1.7392  0.6685  1.3135
 4840SOL    HW226157   3.751   1.858   2.307  0.9286  0.1516 -1.4683
 4841SOL     OW26158   0.406   4.249   2.192 -0.5458 -0.3219  0.0676
 4841SOL    HW126159   0.469   4.248   2.120  0.5799  1.8444  1.0022
 4841SOL    HW226160   0.318   4.229   2.161 -0.3769 -0.4651 -0.3114
 4842SOL     OW26161   2.628   2.036  12.621  0.3422 -0.6060 -0.0948
 4842SOL    HW126162   2.604   1.944  12.634  0.1901 -0.5810 -0.1885
 4842SOL    HW226163   2.689   2.052  12.693 -1.5275  1.5218  1.0340
 4843SOL     OW26164   4.196   1.853   2.144  0.0002 -0.6101 -0.1873
 4843SOL    HW126165   4.149   1.873   2.225  1.4065  2.2195 -0.0647
 4843SOL    HW226166   4.198   1.758   2.154 -0.3000 -0.4294  1.6264
 4844SOL     OW26167   2.084   4.389  13.700  0.0179 -0.0923 -0.3983
 4844SOL    HW126168   1.995   4.410  13.670  0.0136  1.6103  0.8515
 4844SOL    HW226169   2.119   4.476  13.683 -0.5246  0.3282  0.6682
 4845SOL     OW26170   3.849   1.535  10.842  0.1294 -0.8482  0.0431
 4845SOL    HW126171   3.768   1.526  10.792  0.6186  1.6483 -1.2095
 4845SOL    HW226172   3.879   1.624  10.822  0.7549 -0.4653  2.6715
 4846SOL     OW26173   0.385   1.970   3.675  0.3598 -0.1332 -0.2194
 4846SOL    HW126174   0.351   1.897   3.624 -0.1837 -1.0094  1.4038
 4846SOL    HW226175   0.441   2.007   3.607 -1.6127 -1.1935 -2.4556
 4847SOL     OW26176   0.847   1.031   1.754  0.8153  0.0160  0.0947
 4847SOL    HW126177   0.808   0.996   1.674  1.7785  1.0445 -0.8313
 4847SOL    HW226178   0.939   1.029   1.725  1.6058  0.2792  2.5513
 4848SOL     OW26179   0.946   1.805  14.794 -0.1227  0.0482 -0.0849
 4848SOL    HW126180   0.986   1.826  14.878 -1.2660 -0.7588  0.6571
 4848SOL    HW226181   0.993   1.859  14.730  0.4260  0.6518  0.8456
 4849SOL     OW26182   0.768   2.876   6.124 -0.4963 -0.6053  0.4069
 4849SOL    HW126183   0.675   2.855   6.128 -0.8119  0.5648 -0.7290
 4849SOL    HW226184   0.771   2.971   6.140  1.0322 -0.1290 -2.7601
 4850SOL     OW26185   2.041   0.284   7.770 -0.5421  0.0608  0.3111
 4850SOL    HW126186   2.133   0.297   7.749 -0.4705  1.2752  1.4265
 4850SOL    HW226187   2.041   0.192   7.796 -1.1704  0.2147  0.8590
 4851SOL     OW26188   0.087   0.937   5.007  0.1628 -0.2597 -0.5429
 4851SOL    HW126189   0.041   1.021   5.017  0.7842 -0.0285  0.2993
 4851SOL    HW226190   0.016   0.880   5.036  1.0997 -0.4839  1.2755
 4852SOL     OW26191   0.248   1.168   5.552 -0.1158 -0.2444 -0.3935
 4852SOL    HW126192   0.157   1.159   5.524 -0.1821  0.1798 -0.3229
 4852SOL    HW226193   0.269   1.082   5.589  0.2139 -0.3781 -0.8855
 4853SOL     OW26194   2.921   3.577   6.413 -0.5510  0.1365  0.3262
 4853SOL    HW126195   2.950   3.639   6.345 -0.2650  0.6106  0.8792
 4853SOL    HW226196   2.929   3.642   6.483 -1.4484  1.3173 -0.6549
 4854SOL     OW26197   2.307   4.254   7.611 -0.9144 -0.0708  0.3532
 4854SOL    HW126198   2.326   4.240   7.704 -2.2801 -2.0659  0.3332
 4854SOL    HW226199   2.331   4.345   7.594 -0.2198  0.0279  1.8517
 4855SOL     OW26200   2.367   4.491   5.662 -0.4407 -0.2677 -0.2762
 4855SOL    HW126201   2.321   4.412   5.634  0.2395 -0.7818  0.0706
 4855SOL    HW226202   2.313   4.548   5.607 -0.0190  1.3998  1.0504
 4856SOL     OW26203   2.327   1.987   8.915  0.4392  0.0130  0.0863
 4856SOL    HW126204   2.311   1.925   8.845  0.0981 -1.2303  1.2776
 4856SOL    HW226205   2.384   2.045   8.864 -0.6152  1.6460  0.7356
 4857SOL     OW26206   4.004   2.216  14.348  0.3720  0.1664 -0.3257
 4857SOL    HW126207   3.991   2.133  14.395  1.0419  0.0506 -0.3375
 4857SOL    HW226208   4.043   2.184  14.267 -1.3634  1.3189 -1.6129
 4858SOL     OW26209   0.206   4.725   5.876  0.3607 -0.0749 -0.5502
 4858SOL    HW126210   0.171   4.731   5.787 -0.3602 -0.9649 -0.3238
 4858SOL    HW226211   0.297   0.015   5.879  0.9066 -2.0267  1.4714
 4859SOL     OW26212   3.027   3.430   8.663  0.1548  0.2638 -0.7807
 4859SOL    HW126213   3.058   3.502   8.608  0.4768  1.0557  0.4469
 4859SOL    HW226214   2.939   3.460   8.683  0.8252  0.8866  1.1753
 4860SOL     OW26215   0.789   4.625   6.969  1.0296  0.1689  0.1500
 4860SOL    HW126216   0.771   4.533   6.989  0.8501 -0.2666 -2.0213
 4860SOL    HW226217   0.821   4.652   7.055  1.4886  0.4919 -0.1263
 4861SOL     OW26218   3.068   1.869   2.589 -0.2950 -0.0339 -0.1956
 4861SOL    HW126219   3.092   1.858   2.497 -0.8667 -1.9403 -0.1295
 4861SOL    HW226220   3.150   1.864   2.638 -0.9127  0.7371  0.9311
 4862SOL     OW26221   1.435   2.043   1.622  0.5512 -0.2306  0.7599
 4862SOL    HW126222   1.420   2.137   1.634  0.3458 -0.3235  1.1996
 4862SOL    HW226223   1.530   2.044   1.630  0.5201  1.0032  0.9790
 4863SOL     OW26224   2.019   4.163   5.401 -0.2660  0.2606 -0.6586
 4863SOL    HW126225   1.964   4.240   5.388 -1.8475 -0.1670  3.6658
 4863SOL    HW226226   1.986   4.102   5.335 -0.3190 -0.3573 -0.0637
 4864SOL     OW26227   2.070   0.245   6.240 -0.3251  0.5725  0.6367
 4864SOL    HW126228   2.030   0.329   6.261  0.0319  0.7327  0.6835
 4864SOL    HW226229   2.057   0.247   6.146 -0.8687  1.2587  0.7233
 4865SOL     OW26230   2.021   4.174   3.326  0.5639 -0.2699 -0.1991
 4865SOL    HW126231   1.983   4.261   3.313 -0.0354 -0.6641 -1.0844
 4865SOL    HW226232   2.039   4.150   3.235  1.7467  0.3817 -0.1404
 4866SOL     OW26233   3.682   3.663   6.633 -0.1897  0.2738 -0.0490
 4866SOL    HW126234   3.764   3.647   6.587 -1.3047 -0.2036 -1.9017
 4866SOL    HW226235   3.704   3.732   6.696  1.5463 -1.4108  1.1747
 4867SOL     OW26236   4.206   1.841   4.230 -0.5215 -0.2634 -0.0188
 4867SOL    HW126237   4.301   1.825   4.237 -0.0463  2.3989 -0.1848
 4867SOL    HW226238   4.183   1.755   4.263  2.5080 -1.2060 -0.2951
 4868SOL     OW26239   4.296   2.781  16.972 -0.7682  0.3502 -0.4827
 4868SOL    HW126240   4.269   2.801  16.882 -1.9664 -0.2990 -0.2752
 4868SOL    HW226241   4.210   2.775  17.015 -0.9257 -4.4338 -1.4611
 4869SOL     OW26242   1.363   0.911   3.319 -0.2190  0.2973  0.1552
 4869SOL    HW126243   1.437   0.921   3.380  0.2592  1.7713 -0.6608
 4869SOL    HW226244   1.402   0.921   3.232  0.2044 -0.4476  0.2622
 4870SOL     OW26245   3.774   1.607  12.085  0.1853 -0.2796 -0.0678
 4870SOL    HW126246   3.810   1.518  12.091  2.1723  0.5320  0.0195
 4870SOL    HW226247   3.686   1.609  12.047  1.7631  1.1546 -3.5384
 4871SOL     OW26248   0.400   4.431   6.057 -0.2905 -0.3028 -0.0716
 4871SOL    HW126249   0.396   4.488   6.133  1.8641  0.0982 -0.2494
 4871SOL    HW226250   0.429   4.356   6.109  1.3940 -0.1216 -0.7352
 4872SOL     OW26251   4.549   2.221   6.528  0.0704 -0.2020  0.1417
 4872SOL    HW126252   4.521   2.174   6.606 -0.1457 -0.7207 -0.2496
 4872SOL    HW226253   4.570   2.311   6.556 -0.2821 -0.4913  1.3249
 4873SOL     OW26254   2.950   2.236   6.400  0.1537 -0.2487  0.6439
 4873SOL    HW126255   3.009   2.190   6.340  0.1972 -0.9134  1.1867
 4873SOL    HW226256   2.976   2.199   6.485  0.9015  0.7740  0.8564
 4874SOL     OW26257   3.062   3.622   9.651 -0.1805 -0.5054  0.2354
 4874SOL    HW126258   2.992   3.672   9.694  0.1472  2.1401 -2.3086
 4874SOL    HW226259   3.047   3.533   9.683 -0.1598 -0.7850 -0.5492
 4875SOL     OW26260   2.915   4.265   4.640  0.0276 -0.4519  0.0536
 4875SOL    HW126261   2.862   4.191   4.669 -0.4102  0.3616  1.3375
 4875SOL    HW226262   3.004   4.234   4.655  0.4903 -0.1167 -2.0613
 4876SOL     OW26263   0.090   0.578  15.476 -0.1378  0.3625 -0.4993
 4876SOL    HW126264   0.082   0.642  15.547 -0.6177  2.9926 -2.8975
 4876SOL    HW226265   0.182   0.593  15.455 -0.9798  1.6745 -3.2615
 4877SOL     OW26266   3.921   1.255  17.213 -0.1389  0.3145  0.1460
 4877SOL    HW126267   3.881   1.192  17.152 -1.0594 -0.9576  2.0611
 4877SOL    HW226268   3.964   1.308  17.146  0.3956 -2.0940 -1.3964
 4878SOL     OW26269   1.333   3.943  16.113 -0.5252  0.1724  0.5287
 4878SOL    HW126270   1.266   3.967  16.048 -1.6859  0.8935  1.9852
 4878SOL    HW226271   1.371   4.031  16.118 -1.0058  0.3994  0.2751
 4879SOL     OW26272   3.936   0.355  12.018  0.9200 -0.4726  0.9277
 4879SOL    HW126273   3.921   0.312  12.102  1.5394  0.4144  1.4873
 4879SOL    HW226274   4.022   0.393  12.030  0.1670  1.1142  1.2451
 4880SOL     OW26275   1.104   2.949   9.538  0.0871  0.3439  0.6695
 4880SOL    HW126276   1.151   2.951   9.455  0.5137 -0.8991  0.8753
 4880SOL    HW226277   1.149   3.010   9.596 -1.2539  2.9055 -0.9842
 4881SOL     OW26278   2.894   1.398   5.206 -0.3475 -0.5824  0.4562
 4881SOL    HW126279   2.872   1.489   5.222  2.7487  0.2115  0.3010
 4881SOL    HW226280   2.986   1.400   5.234  0.1064 -0.8601 -1.0143
 4882SOL     OW26281   2.768   3.626  15.746  0.4775 -0.6435 -0.3888
 4882SOL    HW126282   2.722   3.633  15.662 -2.2778 -2.4663  0.9863
 4882SOL    HW226283   2.829   3.556  15.723  1.0430  0.4411 -2.1633
 4883SOL     OW26284   3.287   1.267   0.371  0.2219 -0.3062 -0.4409
 4883SOL    HW126285   3.320   1.347   0.413 -0.6233 -0.9341  1.4127
 4883SOL    HW226286   3.194   1.285   0.360  0.3565 -0.4917 -1.7829
 4884SOL     OW26287   4.553   1.485   4.282  0.7642 -0.2171  0.3733
 4884SOL    HW126288   4.625   1.492   4.345  1.8198  0.3390 -0.9069
 4884SOL    HW226289   4.513   1.571   4.297 -2.0351 -1.9910  3.1981
 4885SOL     OW26290   1.511   0.496   3.678  0.1129 -0.1984  0.1865
 4885SOL    HW126291   1.511   0.578   3.727 -0.1974 -1.0049  1.5593
 4885SOL    HW226292   1.605   0.498   3.663 -0.4145 -0.9157 -3.1900
 4886SOL     OW26293   0.388   2.752   0.096 -0.8990 -0.0857  0.0675
 4886SOL    HW126294   0.472   2.795   0.078 -0.6188 -1.3149 -1.5903
 4886SOL    HW226295   0.327   2.784   0.029 -0.6825  1.3287  0.5494
 4887SOL     OW26296   1.341   1.093   2.589 -0.2779  0.8027 -0.2012
 4887SOL    HW126297   1.281   1.069   2.518 -0.6022 -1.3977  0.8090
 4887SOL    HW226298   1.347   1.005   2.627  1.2845 -0.3153 -3.0456
 4888SOL     OW26299   3.329   2.081   8.732  0.3883  0.0334  0.1922
 4888SOL    HW126300   3.399   2.143   8.752 -1.3926  1.9856  0.3897
 4888SOL    HW226301   3.304   2.114   8.645  0.6591  0.0872  0.1343
 4889SOL     OW26302   3.625   0.845   4.754  0.3347  0.2572 -0.0986
 4889SOL    HW126303   3.615   0.797   4.672  0.2872 -0.6884  0.4575
 4889SOL    HW226304   3.705   0.804   4.787 -0.7905 -1.3209  0.6550
 4890SOL     OW26305   4.553   1.160   8.801  0.0347 -0.1251  0.0920
 4890SOL    HW126306   4.585   1.214   8.728  1.4929  0.5851  1.2628
 4890SOL    HW226307   4.606   1.194   8.872  0.3984  1.4415 -0.9439
 4891SOL     OW26308   4.415   0.956   8.671  0.3076  0.2144  0.2252
 4891SOL    HW126309   4.373   0.919   8.748 -1.3516  1.9835  0.1534
 4891SOL    HW226310   4.480   1.011   8.715 -2.9683  3.0490  1.4871
 4892SOL     OW26311   1.353   3.294   5.997  0.1924  0.9188  0.2265
 4892SOL    HW126312   1.323   3.374   5.954 -1.4468 -0.6360 -1.4840
 4892SOL    HW226313   1.429   3.329   6.044  1.0069  0.8900 -1.0886
 4893SOL     OW26314   0.087   4.058   5.383  0.4736 -0.4399  0.2710
 4893SOL    HW126315   0.154   4.074   5.317 -0.9515 -3.1854 -1.8288
 4893SOL    HW226316   0.131   4.060   5.468  1.4486  1.0748 -0.2670
 4894SOL     OW26317   2.039   4.618   1.632  0.0026  1.1858 -0.4088
 4894SOL    HW126318   1.953   4.642   1.666 -1.2184 -1.8941 -1.2721
 4894SOL    HW226319   2.094   4.651   1.703 -0.9923 -2.6477  2.1115
 4895SOL     OW26320   0.110   0.459  11.041  0.2997 -0.1260 -0.8324
 4895SOL    HW126321   0.049   0.532  11.028  0.3686  0.0437 -0.1961
 4895SOL    HW226322   0.150   0.493  11.121 -2.2492  1.4068 -0.2258
 4896SOL     OW26323   0.605   2.640   8.571  0.3790 -0.6661 -0.1538
 4896SOL    HW126324   0.597   2.601   8.484 -1.6592  2.3087 -1.2704
 4896SOL    HW226325   0.515   2.641   8.605 -0.0387 -0.6551 -1.2752
 4897SOL     OW26326   3.172   2.896   8.807 -0.5601 -0.0081 -0.3153
 4897SOL    HW126327   3.115   2.916   8.733  0.5051  0.0064 -1.1309
 4897SOL    HW226328   3.136   2.939   8.885  0.6597  1.1949 -0.4360
 4898SOL     OW26329   1.709   0.113   0.593 -0.4214  0.6106 -0.0046
 4898SOL    HW126330   1.647   0.107   0.665 -0.4990 -1.6811 -0.2696
 4898SOL    HW226331   1.657   0.077   0.521  0.4962 -0.5738 -0.0690
 4899SOL     OW26332   3.830   3.009   5.084  0.5555  0.6426  0.0052
 4899SOL    HW126333   3.781   3.039   5.161 -0.8026 -0.7597 -0.3295
 4899SOL    HW226334   3.866   2.924   5.108 -0.1689  0.4200  0.2894
 4900SOL     OW26335   2.932   4.175  12.029 -0.6527  0.2937 -0.2440
 4900SOL    HW126336   2.898   4.253  11.986 -0.8668 -0.8237 -2.1023
 4900SOL    HW226337   2.950   4.216  12.113 -0.2094 -1.7366  0.6442
 4901SOL     OW26338   0.269   2.175  12.204 -0.0707  0.3706 -0.9183
 4901SOL    HW126339   0.326   2.112  12.247 -1.3629  0.8362  1.4922
 4901SOL    HW226340   0.190   2.122  12.199 -1.6863  2.6375  0.3961
 4902SOL     OW26341   0.919   0.282   7.410 -0.1186  0.5013 -0.6601
 4902SOL    HW126342   0.889   0.229   7.335 -1.7202 -0.9747  1.0149
 4902SOL    HW226343   0.993   0.228   7.439 -0.9671  0.8886  2.1767
 4903SOL     OW26344   1.788   0.381   8.199 -0.2135 -0.4105  0.1511
 4903SOL    HW126345   1.776   0.469   8.234  1.0546 -0.1301 -0.1212
 4903SOL    HW226346   1.858   0.348   8.256 -0.3053  1.0983  1.1303
 4904SOL     OW26347   1.669   2.109   5.136 -0.2839 -0.1216  0.4480
 4904SOL    HW126348   1.727   2.087   5.209 -0.9274 -1.0887  0.6697
 4904SOL    HW226349   1.586   2.088   5.179  1.8404 -0.3423  4.4729
 4905SOL     OW26350   0.055   2.254   8.953  0.1391 -0.6768  0.2406
 4905SOL    HW126351   0.028   2.286   8.867 -0.8492  0.0811  0.8325
 4905SOL    HW226352   4.735   2.178   8.961 -0.8165 -0.0467 -0.6604
 4906SOL     OW26353   2.570   4.363  12.964  0.0840 -0.3324  0.0317
 4906SOL    HW126354   2.554   4.430  12.898  1.9225 -0.8130 -0.9148
 4906SOL    HW226355   2.572   4.282  12.913  3.1661 -1.4594  1.9181
 4907SOL     OW26356   2.365   3.382   8.887  0.1073 -0.6866  0.1127
 4907SOL    HW126357   2.419   3.313   8.925 -0.9799 -2.1110 -0.9587
 4907SOL    HW226358   2.421   3.417   8.817  0.4870  0.1544  0.8326
 4908SOL     OW26359   0.175   1.344  13.266 -0.2527  0.1137  0.0825
 4908SOL    HW126360   0.098   1.401  13.273 -0.9531 -0.7037 -0.9202
 4908SOL    HW226361   0.247   1.405  13.253  0.1469 -0.4157 -0.2094
 4909SOL     OW26362   3.214   3.484   0.781  0.6615  0.9279 -0.3054
 4909SOL    HW126363   3.152   3.472   0.710  2.4768 -0.9251 -1.5738
 4909SOL    HW226364   3.281   3.421   0.756 -0.0717 -0.0108  0.1048
 4910SOL     OW26365   0.664   3.381   6.884 -0.1255 -0.5060  0.0216
 4910SOL    HW126366   0.596   3.426   6.835  0.7413  0.5017 -0.2592
 4910SOL    HW226367   0.666   3.297   6.838  0.6372 -1.3274  1.5630
 4911SOL     OW26368   2.775   3.219   8.267  0.2289  0.1363 -0.6645
 4911SOL    HW126369   2.706   3.189   8.327  0.3235  2.7178  0.7311
 4911SOL    HW226370   2.727   3.288   8.221  1.3350  1.0800 -0.4026
 4912SOL     OW26371   2.029   1.103   5.038 -0.3164 -0.4414 -0.7763
 4912SOL    HW126372   2.034   1.031   4.974  0.4259 -0.2369 -0.9406
 4912SOL    HW226373   2.099   1.069   5.093  0.3793  1.5991 -0.4294
 4913SOL     OW26374   1.227   3.912   8.047 -0.0534 -0.1501  0.0241
 4913SOL    HW126375   1.246   3.972   7.975 -0.9103 -0.6388 -0.6196
 4913SOL    HW226376   1.310   3.913   8.094 -0.1473 -0.9067  0.2116
 4914SOL     OW26377   2.758   3.125   9.946  0.4314 -0.0351 -0.2711
 4914SOL    HW126378   2.727   3.177  10.020  0.7237  1.0163 -0.8820
 4914SOL    HW226379   2.848   3.115   9.976  0.1824  1.0453  0.8300
 4915SOL     OW26380   3.217   2.358   0.340  0.3309  0.5556 -0.7644
 4915SOL    HW126381   3.167   2.439   0.353  1.8144  0.9171  2.6566
 4915SOL    HW226382   3.157   2.303   0.290  0.2620  0.7729 -0.9192
 4916SOL     OW26383   3.232   1.206   4.280  0.2527  0.6063  0.1579
 4916SOL    HW126384   3.286   1.158   4.216  0.2647  0.1961  0.4731
 4916SOL    HW226385   3.146   1.192   4.240  1.5673  0.8083 -2.7867
 4917SOL     OW26386   1.195   3.648   9.830  0.1531 -0.6687 -0.1829
 4917SOL    HW126387   1.133   3.703   9.781  1.3696  1.9955  1.3109
 4917SOL    HW226388   1.151   3.646   9.915  1.5721 -1.1512  0.5363
 4918SOL     OW26389   0.522   1.144   7.649 -0.0999 -0.7979 -0.3877
 4918SOL    HW126390   0.435   1.183   7.651 -0.1353 -0.8091 -1.4077
 4918SOL    HW226391   0.505   1.051   7.664  1.8377 -1.0777 -0.0240
 4919SOL     OW26392   4.571   2.960  17.284 -0.0970  0.2790 -0.1032
 4919SOL    HW126393   4.613   2.909  17.215 -0.6440  0.8779 -0.8660
 4919SOL    HW226394   4.495   2.905  17.305  0.7362 -0.7405  0.2278
 4920SOL     OW26395   0.586   4.374   6.634 -0.7302  0.2052 -0.3155
 4920SOL    HW126396   0.543   4.459   6.628 -2.4368 -0.6590 -0.1698
 4920SOL    HW226397   0.561   4.341   6.547 -3.2990  0.2642  0.4125
 4921SOL     OW26398   3.444   1.862   4.831 -0.2881  0.4359  0.4113
 4921SOL    HW126399   3.421   1.771   4.848 -0.3631  0.3929  0.0863
 4921SOL    HW226400   3.364   1.911   4.849 -0.7700 -1.2806  2.8584
 4922SOL     OW26401   4.623   4.424   1.722 -0.1643  0.0724 -0.1758
 4922SOL    HW126402   4.612   4.362   1.794  0.9280 -1.7955 -1.6005
 4922SOL    HW226403   4.704   4.467   1.748 -0.4152  0.8030 -0.5953
 4923SOL     OW26404   0.374   3.054   1.459 -0.3772 -0.1504 -0.5741
 4923SOL    HW126405   0.325   3.056   1.541  1.8877  0.4806  0.7870
 4923SOL    HW226406   0.466   3.041   1.484 -0.8289  0.3565  1.3344
 4924SOL     OW26407   2.742   4.194  16.262  0.0699 -0.5976  0.0998
 4924SOL    HW126408   2.716   4.147  16.341 -0.6377  1.0951  0.8704
 4924SOL    HW226409   2.662   4.225  16.219 -0.1284  0.7841  1.4453
 4925SOL     OW26410   1.317   4.473   1.152 -0.0787 -0.2195  0.4969
 4925SOL    HW126411   1.296   4.561   1.184  0.6291 -0.4281  1.5231
 4925SOL    HW226412   1.242   4.420   1.180 -1.1923  0.5401 -1.0074
 4926SOL     OW26413   3.977   2.600   3.963 -0.0906 -0.1937  0.1533
 4926SOL    HW126414   4.004   2.564   4.048 -1.0425  0.4864  0.7515
 4926SOL    HW226415   3.985   2.527   3.902  0.8621 -0.6299  0.7996
 4927SOL     OW26416   1.198   2.756   5.227 -0.0665 -0.1917  0.8685
 4927SOL    HW126417   1.286   2.788   5.208 -0.0790 -1.1592 -0.8061
 4927SOL    HW226418   1.172   2.733   5.138 -0.5397  0.2731  0.8817
 4928SOL     OW26419   0.786   3.963  12.911  0.1612  0.9339 -0.3963
 4928SOL    HW126420   0.732   3.895  12.951  0.5468  0.7715 -0.1542
 4928SOL    HW226421   0.843   3.903  12.862  0.3491  1.8213 -1.2697
 4929SOL     OW26422   0.131   1.040   8.976 -0.3656  0.1123 -0.0021
 4929SOL    HW126423   0.155   1.128   8.945  0.2318  0.0327  0.2455
 4929SOL    HW226424   0.189   0.986   8.923 -1.2086 -0.1446 -0.6619
 4930SOL     OW26425   0.442   4.549  10.696 -0.0488  0.4963  0.0528
 4930SOL    HW126426   0.450   4.608  10.770  1.5839 -1.0461  1.1102
 4930SOL    HW226427   0.521   4.496  10.708 -0.1720  0.1593 -0.6281
 4931SOL     OW26428   3.624   3.747   9.138 -0.7574  0.2628  0.1769
 4931SOL    HW126429   3.581   3.661   9.146  0.9960 -0.5661  0.6417
 4931SOL    HW226430   3.562   3.788   9.077  0.8452  0.9719 -0.9862
 4932SOL     OW26431   0.347   3.982   6.624  0.4601 -0.1136 -0.1535
 4932SOL    HW126432   0.337   4.006   6.716 -2.5571 -1.0907 -0.2228
 4932SOL    HW226433   0.325   4.065   6.583 -1.4346  0.2737  1.6252
 4933SOL     OW26434   2.204   4.212   5.208  0.9015  0.5311 -0.1030
 4933SOL    HW126435   2.201   4.130   5.160  3.0536  0.4741 -0.1274
 4933SOL    HW226436   2.160   4.190   5.291 -0.9352  1.4425 -0.8552
 4934SOL     OW26437   0.174   4.040   1.463 -0.4380 -0.1705  0.0551
 4934SOL    HW126438   0.188   3.995   1.380 -1.1462  0.6533 -0.5079
 4934SOL    HW226439   0.094   4.092   1.457 -0.1674  0.4236  1.5502
 4935SOL     OW26440   0.740   1.806   7.169 -0.3494  0.1922  0.2218
 4935SOL    HW126441   0.823   1.841   7.138 -1.4646  0.4530 -2.4237
 4935SOL    HW226442   0.754   1.807   7.264  0.8304  1.0992  0.0315
 4936SOL     OW26443   4.470   4.576  12.571  0.3320  0.1034 -0.2316
 4936SOL    HW126444   4.488   4.484  12.592  0.9925  0.4573  0.7341
 4936SOL    HW226445   4.481   4.562  12.477  2.0348 -1.1350  0.1487
 4937SOL     OW26446   4.689   0.586   3.333  0.1688 -0.4754 -0.0110
 4937SOL    HW126447   4.690   0.663   3.277  0.0217 -0.6820 -0.2961
 4937SOL    HW226448   0.002   0.614   3.408  0.8124  1.1040 -1.0450
 4938SOL     OW26449   3.205   3.628   9.097  0.3955  0.4076 -0.4215
 4938SOL    HW126450   3.200   3.536   9.125  0.5759  0.8847  1.1515
 4938SOL    HW226451   3.198   3.623   9.001  1.3338 -0.1690 -0.4616
 4939SOL     OW26452   0.863   4.622  14.189  0.4887 -0.0817  0.9295
 4939SOL    HW126453   0.887   4.529  14.188 -0.4927 -0.3204 -2.1098
 4939SOL    HW226454   0.838   4.634  14.280  1.2837  0.2882  1.0933
 4940SOL     OW26455   1.782   2.176   4.898 -0.3438 -0.3697 -0.2668
 4940SOL    HW126456   1.731   2.155   4.977 -1.2017  0.9148 -0.4698
 4940SOL    HW226457   1.778   2.090   4.858 -0.7336 -0.9142  0.9474
 4941SOL     OW26458   4.530   1.014   2.791  0.1563  0.6620 -0.2173
 4941SOL    HW126459   4.625   1.027   2.799  0.6306 -1.2059 -2.4723
 4941SOL    HW226460   4.517   1.004   2.696  1.4905 -2.5392 -0.0618
 4942SOL     OW26461   2.780   1.920  10.740 -0.3608  0.2016 -0.0895
 4942SOL    HW126462   2.826   1.844  10.775 -0.2328 -0.4273 -1.5997
 4942SOL    HW226463   2.808   1.927  10.649 -2.7102 -2.2102 -1.0044
 4943SOL     OW26464   2.219   1.130  12.730 -0.3910  0.2908  0.1749
 4943SOL    HW126465   2.307   1.161  12.754 -0.4875  1.4711 -1.0239
 4943SOL    HW226466   2.221   1.159  12.639 -1.7774 -1.6920 -0.4889
 4944SOL     OW26467   1.547   2.957   3.959  0.0224 -0.3950 -0.0846
 4944SOL    HW126468   1.470   2.993   4.003  0.0730 -0.2093 -0.1473
 4944SOL    HW226469   1.608   2.976   4.030 -1.1990  1.1054  0.5592
 4945SOL     OW26470   0.225   3.148   9.016 -0.2514 -0.6256 -0.0938
 4945SOL    HW126471   0.142   3.106   9.037  0.7539 -3.0556 -0.9903
 4945SOL    HW226472   0.288   3.091   9.059 -1.1027 -2.6263 -1.5053
 4946SOL     OW26473   4.632   4.698  15.176 -0.3972  0.5138 -0.0813
 4946SOL    HW126474   4.671   0.046  15.162  0.4400  0.4639  1.9475
 4946SOL    HW226475   4.710   4.647  15.199 -0.2243  0.7538 -0.1311
 4947SOL     OW26476   3.955   1.603   2.060  0.5427 -0.4236  0.0234
 4947SOL    HW126477   3.930   1.544   1.988  0.7900 -0.5180  0.0138
 4947SOL    HW226478   3.950   1.690   2.021 -2.7403 -0.6109 -0.0450
 4948SOL     OW26479   1.732   3.622   1.959  0.0023  0.0318  0.1058
 4948SOL    HW126480   1.753   3.712   1.936  0.6712  0.3551  1.9432
 4948SOL    HW226481   1.791   3.577   1.899 -0.0807  0.3767 -0.2316
 4949SOL     OW26482   1.522   0.830   4.859  0.7988 -0.7114  0.0011
 4949SOL    HW126483   1.479   0.915   4.869 -3.0062 -2.6580 -0.0755
 4949SOL    HW226484   1.603   0.879   4.840  0.1174  0.6329  0.5568
 4950SOL     OW26485   2.459   3.043   3.920  0.2049 -0.3006  0.2509
 4950SOL    HW126486   2.491   3.090   3.997 -0.8124  5.2018 -2.6329
 4950SOL    HW226487   2.501   3.081   3.843  0.4753 -1.7294 -0.3036
 4951SOL     OW26488   0.641   1.343   0.310  0.1067 -0.2884  0.3180
 4951SOL    HW126489   0.605   1.355   0.222  1.9197  0.0926 -0.3547
 4951SOL    HW226490   0.705   1.414   0.311 -0.4306  0.1819  1.2286
 4952SOL     OW26491   0.716   1.422   6.340  0.2284 -0.1213  0.3259
 4952SOL    HW126492   0.708   1.411   6.435  0.6867 -1.5481  0.2057
 4952SOL    HW226493   0.785   1.357   6.326  0.1363 -0.1855  0.1770
 4953SOL     OW26494   0.997   0.299  10.133 -0.2994  0.3435 -0.0220
 4953SOL    HW126495   1.009   0.324  10.224 -0.0662 -1.7097  0.5042
 4953SOL    HW226496   1.087   0.279  10.107 -1.4846 -0.4107 -3.5339
 4954SOL     OW26497   2.089   3.647   8.466 -0.0988  0.2249  0.5948
 4954SOL    HW126498   2.130   3.646   8.380 -0.3054 -0.3809  0.5012
 4954SOL    HW226499   2.151   3.685   8.529 -0.5180  0.5719  0.7958
 4955SOL     OW26500   3.785   3.104   1.551 -0.2836 -0.3600 -0.4284
 4955SOL    HW126501   3.744   3.191   1.552 -3.8469 -2.0709  1.3869
 4955SOL    HW226502   3.706   3.056   1.575 -1.3154  1.4136 -0.2606
 4956SOL     OW26503   1.544   4.455   4.561 -0.2207 -0.2029  0.2893
 4956SOL    HW126504   1.561   4.408   4.480  2.7319 -0.6826  1.1817
 4956SOL    HW226505   1.569   4.545   4.538 -1.8306 -0.0051 -0.6936
 4957SOL     OW26506   4.251   1.252   9.286 -0.2565  0.0171 -0.2214
 4957SOL    HW126507   4.221   1.292   9.204 -0.7237  1.5454  0.6921
 4957SOL    HW226508   4.164   1.242   9.326 -1.4724 -1.9260 -3.3523
 4958SOL     OW26509   1.508   4.534   6.842 -0.3940  0.4831 -0.4927
 4958SOL    HW126510   1.542   4.467   6.902 -1.7540  0.6118  0.4283
 4958SOL    HW226511   1.460   4.592   6.901 -2.9731 -2.7480  0.6374
 4959SOL     OW26512   3.009   2.698  14.977  0.0492 -0.1795 -0.0533
 4959SOL    HW126513   2.963   2.782  14.974  0.0099 -0.2342 -0.9563
 4959SOL    HW226514   2.973   2.665  14.895 -0.2561 -0.1710  0.0771
 4960SOL     OW26515   2.041   2.074   7.822 -0.3659 -0.3215  0.0912
 4960SOL    HW126516   2.126   2.037   7.800  0.0090  1.0564 -0.8012
 4960SOL    HW226517   2.069   2.163   7.801 -1.9478  0.2640  0.4704
 4961SOL     OW26518   3.526   0.896   3.681  0.1691  0.7171  0.1758
 4961SOL    HW126519   3.579   0.942   3.616 -0.4325 -0.0121 -0.8338
 4961SOL    HW226520   3.579   0.822   3.713 -2.2218 -0.9894  0.1611
 4962SOL     OW26521   1.686   2.917   7.639 -0.0463 -0.4308  0.1824
 4962SOL    HW126522   1.705   2.955   7.553 -0.2402  3.6097  1.9368
 4962SOL    HW226523   1.760   2.860   7.661 -1.5876 -2.1096  1.0285
 4963SOL     OW26524   2.956   3.419   2.306 -1.1553 -0.0386 -0.5793
 4963SOL    HW126525   2.926   3.410   2.397 -2.8978  2.0586 -0.9560
 4963SOL    HW226526   2.944   3.513   2.293 -0.5413 -0.1613 -2.0724
 4964SOL     OW26527   3.843   2.539   5.633  0.1495 -0.0330  0.1503
 4964SOL    HW126528   3.821   2.628   5.659 -0.2922  0.2164 -1.0983
 4964SOL    HW226529   3.922   2.520   5.685  0.3564  0.6546  0.0805
 4965SOL     OW26530   3.285   3.943   5.918 -0.3593  0.2877 -0.6395
 4965SOL    HW126531   3.363   3.997   5.913 -0.8847  1.3336  2.3534
 4965SOL    HW226532   3.216   4.004   5.946 -1.0224 -0.1607 -1.2967
 4966SOL     OW26533   2.154   0.189   3.537  0.1380 -0.0963  0.3099
 4966SOL    HW126534   2.217   0.244   3.490 -0.1058  0.3159  0.4707
 4966SOL    HW226535   2.084   0.201   3.473 -0.3135 -2.3666  0.3671
 4967SOL     OW26536   3.141   0.952   5.736  0.1374  0.3032 -0.5041
 4967SOL    HW126537   3.155   0.972   5.829 -0.2200 -0.1035 -0.3669
 4967SOL    HW226538   3.228   0.921   5.712  0.2600 -0.8278  1.4253
 4968SOL     OW26539   2.516   0.844   7.938 -0.2496  0.0468  0.3030
 4968SOL    HW126540   2.542   0.921   7.888 -2.4101 -0.2276 -1.2693
 4968SOL    HW226541   2.491   0.886   8.020 -0.6151  2.1897 -0.8891
 4969SOL     OW26542   2.635   3.207   1.707  0.4115  0.0070  0.3872
 4969SOL    HW126543   2.720   3.175   1.676  0.1157 -1.2381  0.8397
 4969SOL    HW226544   2.586   3.125   1.719  1.0329 -0.2458  1.1764
 4970SOL     OW26545   0.042   3.179  12.069 -0.6343 -0.0546  0.0859
 4970SOL    HW126546   4.719   3.249  12.046  1.1264  2.1903  2.2721
 4970SOL    HW226547   0.083   3.233  12.137  0.1943 -1.2293  0.5252
 4971SOL     OW26548   3.659   1.673   1.197  0.1315  0.2141 -0.3350
 4971SOL    HW126549   3.648   1.712   1.110  1.2181 -0.8377 -0.9575
 4971SOL    HW226550   3.729   1.730   1.227 -0.5560  0.1712  1.3663
 4972SOL     OW26551   0.365   0.637   6.704 -0.1436 -0.0310  0.5421
 4972SOL    HW126552   0.339   0.583   6.778 -0.9314  1.3640  1.2662
 4972SOL    HW226553   0.425   0.576   6.659  0.2046  0.3880  0.4362
 4973SOL     OW26554   0.865   2.640   5.448 -0.0061  0.0327  0.8898
 4973SOL    HW126555   0.868   2.656   5.354  0.0918  1.7512  1.1880
 4973SOL    HW226556   0.903   2.723   5.477 -0.3245  1.1730 -1.9878
 4974SOL     OW26557   2.388   0.129  16.700 -0.1376  0.0031 -0.5077
 4974SOL    HW126558   2.322   0.186  16.662  1.8459  1.4406 -1.7562
 4974SOL    HW226559   2.334   0.091  16.770  0.0843  0.0640 -0.3044
 4975SOL     OW26560   0.781   3.612   2.618 -0.1314 -0.2996 -0.0710
 4975SOL    HW126561   0.704   3.557   2.635 -1.0015  1.7142  2.5416
 4975SOL    HW226562   0.845   3.546   2.646 -0.9747 -0.9391  0.3567
 4976SOL     OW26563   4.394   2.229   6.980  0.5537  0.1575  0.3714
 4976SOL    HW126564   4.430   2.191   7.060  2.8182 -0.3953 -0.9041
 4976SOL    HW226565   4.333   2.300   7.000  0.1825  0.5783 -2.2744
 4977SOL     OW26566   1.636   1.661   6.521 -0.4588 -0.1789 -0.4901
 4977SOL    HW126567   1.714   1.658   6.576  1.1128 -1.2396 -2.7799
 4977SOL    HW226568   1.589   1.603   6.581  1.2798 -1.7699 -0.6738
 4978SOL     OW26569   4.008   4.595  15.553  0.1248 -0.2784 -0.0030
 4978SOL    HW126570   4.010   4.590  15.649  0.6075 -0.0087 -0.0002
 4978SOL    HW226571   4.090   4.643  15.539 -0.2520  1.1110  2.4472
 4979SOL     OW26572   2.434   0.286   8.511 -0.0806  0.1373 -0.9161
 4979SOL    HW126573   2.397   0.285   8.599 -2.1386  3.2456 -1.7743
 4979SOL    HW226574   2.359   0.310   8.458 -1.4496 -0.6595  0.6323
 4980SOL     OW26575   2.359   4.402  10.195 -0.1649 -0.1121 -0.4351
 4980SOL    HW126576   2.452   4.424  10.202 -0.3228  0.5444 -0.3820
 4980SOL    HW226577   2.318   4.483  10.226  1.9068  1.3365 -1.4442
 4981SOL     OW26578   3.634   1.774   2.871 -0.1225 -0.3147  0.4309
 4981SOL    HW126579   3.558   1.769   2.929  0.4406  0.7557  1.2573
 4981SOL    HW226580   3.683   1.844   2.914 -2.1464  1.1998  0.2641
 4982SOL     OW26581   3.347   1.986  16.780 -0.2523  0.3349 -0.3386
 4982SOL    HW126582   3.288   2.057  16.756 -0.5287  1.0358  2.4463
 4982SOL    HW226583   3.376   1.958  16.693  0.0232 -1.6675  0.4090
 4983SOL     OW26584   0.647   1.926  15.559 -0.6177 -0.3081  0.1219
 4983SOL    HW126585   0.689   1.928  15.645 -0.5194 -1.1502  0.0943
 4983SOL    HW226586   0.556   1.934  15.589 -0.8309  1.3673 -1.0071
 4984SOL     OW26587   3.932   2.994  16.026  0.3754 -0.3272  0.1738
 4984SOL    HW126588   3.968   2.994  15.937  1.7396  0.9923  0.7264
 4984SOL    HW226589   3.893   2.907  16.025 -0.7559  0.1771  0.2721
 4985SOL     OW26590   4.329   2.721   5.206 -0.0647 -0.1571 -0.0688
 4985SOL    HW126591   4.269   2.647   5.207 -0.0414 -0.1274  2.0951
 4985SOL    HW226592   4.413   2.676   5.214 -0.1645 -0.0479  1.5663
 4986SOL     OW26593   3.642   1.132   5.748 -0.0146 -0.1662  0.3538
 4986SOL    HW126594   3.705   1.192   5.788 -0.5055  0.9344 -0.5058
 4986SOL    HW226595   3.618   1.078   5.823 -1.5985  1.8539  1.3058
 4987SOL     OW26596   3.825   2.747   2.874  0.0033 -0.0788 -0.4971
 4987SOL    HW126597   3.898   2.723   2.932  0.0743 -1.1482 -1.0264
 4987SOL    HW226598   3.823   2.663   2.829 -0.0786 -0.3693  0.0516
 4988SOL     OW26599   3.976   1.302   1.010  0.0627 -0.2023 -0.3425
 4988SOL    HW126600   3.891   1.323   1.048 -0.4550 -1.2612 -0.9036
 4988SOL    HW226601   3.937   1.252   0.938  0.2104  1.5934 -1.6630
 4989SOL     OW26602   0.447   1.589  15.146  0.2985 -0.4684  0.1333
 4989SOL    HW126603   0.440   1.683  15.162  4.0266 -0.1229 -0.3340
 4989SOL    HW226604   0.424   1.540  15.225  0.6470 -0.5637  0.1728
 4990SOL     OW26605   3.918   2.868   5.736 -0.0717 -0.3887  0.2240
 4990SOL    HW126606   3.923   2.885   5.642  3.1787 -2.1126  0.0927
 4990SOL    HW226607   3.999   2.907   5.769 -0.8382  0.0157  1.6147
 4991SOL     OW26608   0.550   3.835   3.630  0.7649 -0.8847 -0.2280
 4991SOL    HW126609   0.537   3.811   3.538  1.4432  0.4911 -0.6897
 4991SOL    HW226610   0.583   3.925   3.624  1.0091 -0.8751  1.3546
 4992SOL     OW26611   1.647   1.483   7.811  0.0280 -0.1580  0.1391
 4992SOL    HW126612   1.652   1.411   7.874 -0.8868  0.2454  0.6692
 4992SOL    HW226613   1.670   1.558   7.866  2.9952  0.3153 -1.7057
 4993SOL     OW26614   0.740   1.491   2.452  0.5415 -0.8616 -0.1477
 4993SOL    HW126615   0.684   1.461   2.380 -0.5060 -1.4259  0.8982
 4993SOL    HW226616   0.761   1.420   2.512 -2.3347 -0.8707  0.8424
 4994SOL     OW26617   1.128   0.829  14.056  0.1371 -0.3038 -0.0792
 4994SOL    HW126618   1.217   0.802  14.032  0.2733  0.0611  0.0058
 4994SOL    HW226619   1.076   0.799  13.981 -2.0916  1.7090  0.6661
 4995SOL     OW26620   3.443   0.684   2.676 -0.0582  0.0222 -0.4698
 4995SOL    HW126621   3.516   0.739   2.649  0.1042  0.1657  0.2666
 4995SOL    HW226622   3.475   0.596   2.655  4.7242  1.3051  1.4440
 4996SOL     OW26623   3.722   4.627   5.437  0.1855  0.3346 -0.0786
 4996SOL    HW126624   3.757   4.557   5.491 -1.0730  0.0605  0.3896
 4996SOL    HW226625   3.781   4.625   5.362 -1.3646  1.4219 -1.3306
 4997SOL     OW26626   2.678   3.915   1.150 -0.2188  0.0645  0.2134
 4997SOL    HW126627   2.726   3.997   1.156  1.4517 -0.8075 -1.1058
 4997SOL    HW226628   2.611   3.932   1.084 -0.7431  0.4452  0.8462
 4998SOL     OW26629   2.336   0.620   3.907  0.4163 -0.1700 -0.0065
 4998SOL    HW126630   2.366   0.627   3.998  2.0698  2.6493 -0.7872
 4998SOL    HW226631   2.262   0.561   3.924  1.4857 -2.0987 -2.0305
 4999SOL     OW26632   4.201   3.116  17.518 -0.2689 -0.2502 -0.8039
 4999SOL    HW126633   4.192   3.208  17.494  1.2820 -0.1688 -1.0862
 4999SOL    HW226634   4.267   3.094  17.453  1.4848  1.5419  0.3618
 5000SOL     OW26635   2.576   2.464   6.327  1.3386  0.2634  0.2960
 5000SOL    HW126636   2.641   2.409   6.371 -0.3794 -1.6176  0.4542
 5000SOL    HW226637   2.535   2.497   6.407  0.5721 -0.9373  0.3857
 5001SOL     OW26638   3.458   0.006   6.325 -0.0358  0.4330 -0.1127
 5001SOL    HW126639   3.377   4.707   6.362 -0.3869 -0.7230 -2.0514
 5001SOL    HW226640   3.457   0.091   6.369  1.6832  0.3507  0.0773
 5002SOL     OW26641   1.258   3.305   3.159  0.6070  0.3185 -0.6329
 5002SOL    HW126642   1.269   3.309   3.064 -1.8740  0.1137 -0.9287
 5002SOL    HW226643   1.213   3.221   3.159  0.1407  0.5915  2.1527
 5003SOL     OW26644   4.519   1.719   8.513  0.3002  0.4133  0.2149
 5003SOL    HW126645   4.467   1.793   8.481  0.4982 -0.5716 -2.4055
 5003SOL    HW226646   4.508   1.730   8.607  1.9492  0.2285  0.4226
 5004SOL     OW26647   1.162   0.388  17.543  0.6216  0.5012 -0.1364
 5004SOL    HW126648   1.142   0.436  17.463  0.0860 -1.4833 -1.1998
 5004SOL    HW226649   1.083   0.410  17.593 -0.2321  0.9970 -1.7221
 5005SOL     OW26650   1.869   4.025   0.284 -0.0488 -0.4495  0.9501
 5005SOL    HW126651   1.901   3.968   0.355  2.4914 -1.3880 -0.9571
 5005SOL    HW226652   1.774   4.018   0.288 -0.2422  2.3321  0.9641
 5006SOL     OW26653   1.666   0.236   6.358  0.5958 -0.1567 -0.2936
 5006SOL    HW126654   1.735   0.238   6.425  0.3180  0.3324 -0.0213
 5006SOL    HW226655   1.718   0.240   6.277  1.7420  0.6556  0.4826
 5007SOL     OW26656   1.940   4.692   7.338 -0.0502 -0.6106 -0.4310
 5007SOL    HW126657   1.946   0.030   7.395  0.1992 -1.7464  1.0598
 5007SOL    HW226658   2.030   4.658   7.335  0.6450  1.2238 -0.1342
 5008SOL     OW26659   3.156   4.005   3.938  0.2866 -0.0968 -0.2667
 5008SOL    HW126660   3.097   4.010   3.863 -0.1074  1.0544  0.1120
 5008SOL    HW226661   3.125   4.074   3.997  0.2374  0.4676 -0.9558
 5009SOL     OW26662   0.022   3.635   1.745 -0.0584 -0.0822 -0.1071
 5009SOL    HW126663   0.054   3.719   1.710 -0.4406 -0.1329 -0.5649
 5009SOL    HW226664   4.670   3.656   1.769  0.8712  2.6026  1.1489
 5010SOL     OW26665   0.635   2.002   0.755  0.0079 -0.2901 -0.2450
 5010SOL    HW126666   0.563   1.940   0.768 -1.5848  2.1119  2.1018
 5010SOL    HW226667   0.715   1.953   0.775 -0.1539 -0.6864 -0.5449
 5011SOL     OW26668   3.551   2.290   6.511  0.4421  0.0434  0.0073
 5011SOL    HW126669   3.606   2.228   6.463  0.8743 -0.6248  1.3494
 5011SOL    HW226670   3.509   2.232   6.576  2.4733 -1.1652  0.2389
 5012SOL     OW26671   1.858   2.272   7.239  0.0359 -0.2347  0.2731
 5012SOL    HW126672   1.803   2.254   7.316  0.3516 -1.6387  0.1808
 5012SOL    HW226673   1.947   2.274   7.276 -0.9788  3.0751  2.5099
 5013SOL     OW26674   4.733   3.946   6.585 -0.4775 -0.2871  0.3735
 5013SOL    HW126675   0.001   4.039   6.606 -1.5899 -0.1984  0.2915
 5013SOL    HW226676   4.665   3.949   6.518 -0.6143 -1.2602  0.4759
 5014SOL     OW26677   3.368   3.429  17.431 -0.4783  0.2186  0.3154
 5014SOL    HW126678   3.381   3.402  17.340 -0.1413  0.6518  0.2337
 5014SOL    HW226679   3.450   3.411  17.478 -1.6027 -2.6860  1.1306
 5015SOL     OW26680   0.297   4.392  15.637  0.2059  0.4767 -0.2395
 5015SOL    HW126681   0.306   4.434  15.551  2.0904 -3.4086 -1.9692
 5015SOL    HW226682   0.202   4.379  15.636  0.1142  1.2807 -2.1116
 5016SOL     OW26683   4.050   3.589   3.765 -0.0376 -0.1959  0.8704
 5016SOL    HW126684   4.034   3.539   3.845 -3.2774 -1.1058 -0.3272
 5016SOL    HW226685   4.050   3.675   3.807 -0.9305  0.5329 -0.6218
 5017SOL     OW26686   0.527   1.909   4.635 -0.8840  0.6454  0.3738
 5017SOL    HW126687   0.449   1.912   4.579 -0.4668 -0.3637 -0.2612
 5017SOL    HW226688   0.563   1.820   4.633 -0.8339  0.6734 -0.0276
 5018SOL     OW26689   1.704   3.517   2.232  0.6854  0.5801 -0.8786
 5018SOL    HW126690   1.715   3.543   2.141 -3.6594  0.7530 -1.3261
 5018SOL    HW226691   1.786   3.542   2.276 -0.2916  0.3578  1.0952
 5019SOL     OW26692   0.395   1.865  15.182  0.3111  0.0338 -0.3357
 5019SOL    HW126693   0.459   1.892  15.248 -2.0470 -1.0006  2.3522
 5019SOL    HW226694   0.307   1.864  15.219 -0.2345  0.2354 -1.6144
 5020SOL     OW26695   4.568   0.393   3.604  0.3762  0.1931  0.2582
 5020SOL    HW126696   4.547   0.303   3.580  0.3429  0.1119  0.5935
 5020SOL    HW226697   4.654   0.380   3.643  0.9253 -0.1220 -1.0473
 5021SOL     OW26698   1.235   0.082  11.547  0.3871  0.9993 -0.1095
 5021SOL    HW126699   1.278   0.126  11.474  1.3252 -0.1797 -0.2825
 5021SOL    HW226700   1.301   0.022  11.582  0.1954 -0.4154 -2.1097
 5022SOL     OW26701   3.382   1.793   6.153 -0.1946 -0.1270 -0.3294
 5022SOL    HW126702   3.333   1.732   6.097 -1.2475  0.0349  0.4087
 5022SOL    HW226703   3.384   1.743   6.234 -0.6567  1.1027  0.4360
 5023SOL     OW26704   2.980   4.291  12.277 -0.0998 -0.1385  0.1584
 5023SOL    HW126705   2.909   4.355  12.277 -0.7989 -0.9222 -1.4940
 5023SOL    HW226706   3.045   4.329  12.336 -0.2339  0.3537 -0.0153
 5024SOL     OW26707   3.015   0.622  13.823  0.3494 -0.2760 -0.3893
 5024SOL    HW126708   3.069   0.569  13.882  1.6623 -0.5850 -1.8545
 5024SOL    HW226709   3.027   0.701  13.875 -0.5267 -0.5487  0.2302
 5025SOL     OW26710   4.077   0.379   8.210  0.3579  0.0847  0.5358
 5025SOL    HW126711   4.035   0.333   8.138 -0.2701 -0.5524  1.3000
 5025SOL    HW226712   4.122   0.304   8.251 -0.7779 -0.6259  0.4864
 5026SOL     OW26713   0.427   2.289  13.248  0.3155  0.8518  0.0415
 5026SOL    HW126714   0.377   2.281  13.330 -1.6415 -0.0563 -1.2559
 5026SOL    HW226715   0.514   2.316  13.279  1.0250 -0.7275 -0.5241
 5027SOL     OW26716   3.192   2.405   3.493 -0.7031 -0.0483  0.3604
 5027SOL    HW126717   3.243   2.376   3.569  0.7426 -1.3832 -1.1146
 5027SOL    HW226718   3.107   2.422   3.534  0.2086  0.6425  1.9545
 5028SOL     OW26719   2.520   2.822   6.580  0.1353 -0.0204 -0.3417
 5028SOL    HW126720   2.593   2.869   6.620 -0.2980 -1.1247  1.7538
 5028SOL    HW226721   2.540   2.828   6.486  0.8784 -0.8138 -0.2346
 5029SOL     OW26722   1.880   3.571  14.053  0.3295  0.7748 -0.2134
 5029SOL    HW126723   1.953   3.594  14.111 -0.3921  0.1565  0.9304
 5029SOL    HW226724   1.824   3.505  14.094  1.6060  0.2131  0.6186
 5030SOL     OW26725   2.041   4.685   2.191  0.0723  0.4172  0.3360
 5030SOL    HW126726   2.111   4.622   2.206  0.5094  0.5456 -1.1358
 5030SOL    HW226727   2.074   0.027   2.231  0.9830 -0.4314  1.2833
 5031SOL     OW26728   4.330   2.826   4.144  0.1377 -0.6251 -0.0658
 5031SOL    HW126729   4.264   2.757   4.148  0.0768 -0.4626  1.5082
 5031SOL    HW226730   4.270   2.901   4.133  0.5289 -0.7619 -3.1003
 5032SOL     OW26731   0.919   3.836   5.586 -0.1503  0.1602 -0.0145
 5032SOL    HW126732   0.879   3.820   5.671 -0.7049  1.1113 -0.0978
 5032SOL    HW226733   0.884   3.759   5.540  1.0760 -1.0783  1.1508
 5033SOL     OW26734   3.455   1.442  13.141 -0.8876  0.1193 -1.0592
 5033SOL    HW126735   3.512   1.408  13.211 -1.2589  1.8848  0.0997
 5033SOL    HW226736   3.430   1.523  13.186 -0.2773 -0.3769  0.2006
 5034SOL     OW26737   2.496   4.653   8.819  0.0690  0.1959  0.4201
 5034SOL    HW126738   2.562   4.636   8.887  1.4751  2.3627 -0.3913
 5034SOL    HW226739   2.417   4.655   8.873  0.2685  0.3411  0.7079
 5035SOL     OW26740   3.163   0.709   3.118 -0.2433  0.5114  0.2241
 5035SOL    HW126741   3.217   0.754   3.183  0.5078 -0.3686  0.2057
 5035SOL    HW226742   3.230   0.716   3.049  1.3241 -1.0469  1.5939
 5036SOL     OW26743   3.854   4.647   2.418  0.7973  0.2128 -0.1709
 5036SOL    HW126744   3.884   4.603   2.497  0.5006 -3.0251 -1.8801
 5036SOL    HW226745   3.855   4.579   2.351  2.1145 -0.4686  0.5349
 5037SOL     OW26746   3.782   2.010   0.769 -0.1511 -0.0515  0.5919
 5037SOL    HW126747   3.752   1.937   0.715 -0.8284  0.4109  0.3266
 5037SOL    HW226748   3.727   2.081   0.734  1.8322  0.3375 -1.7701
 5038SOL     OW26749   2.849   0.128   8.998  0.1395  0.4795 -0.4216
 5038SOL    HW126750   2.824   0.182   9.072  0.6152 -1.1494  0.9184
 5038SOL    HW226751   2.929   0.176   8.978  0.5778 -0.3960 -0.7899
 5039SOL     OW26752   0.239   1.749   6.705 -0.3178  0.0666 -0.1032
 5039SOL    HW126753   0.331   1.774   6.693 -0.4386  1.1379  1.2128
 5039SOL    HW226754   0.202   1.826   6.749  0.6482 -0.3242  1.3687
 5040SOL     OW26755   1.449   2.384   2.924  0.6339 -0.4364 -0.0152
 5040SOL    HW126756   1.432   2.343   2.839 -2.1171 -0.8446  0.7356
 5040SOL    HW226757   1.367   2.385   2.972  1.5381 -1.2796  1.5477
 5041SOL     OW26758   0.184   2.083  10.299  0.1286  0.4429 -0.1445
 5041SOL    HW126759   0.254   2.119  10.355  2.4643  0.8851 -3.3542
 5041SOL    HW226760   0.124   2.158  10.304  0.7188  0.8071  1.6104
 5042SOL     OW26761   2.875   0.421   5.104 -0.5008  0.2612  0.7828
 5042SOL    HW126762   2.911   0.431   5.192  0.3976  0.9148  0.3366
 5042SOL    HW226763   2.856   0.512   5.085  2.9013  0.3443 -2.2826
 5043SOL     OW26764   2.698   0.433   7.694 -0.2032 -0.3321 -0.5911
 5043SOL    HW126765   2.674   0.508   7.748 -0.7760 -2.9182  2.7419
 5043SOL    HW226766   2.767   0.398   7.750 -0.9614  0.3566  0.7573
 5044SOL     OW26767   4.150   0.792   7.772 -0.4966 -0.1389 -0.7858
 5044SOL    HW126768   4.092   0.808   7.846 -0.2082  0.6671 -0.7330
 5044SOL    HW226769   4.223   0.744   7.811 -1.2639 -1.1538 -0.5856
 5045SOL     OW26770   2.171   0.108   3.111  0.4537 -0.1559  0.2989
 5045SOL    HW126771   2.194   0.138   3.023 -0.2292  0.3454  0.2842
 5045SOL    HW226772   2.239   0.150   3.163 -0.5713  0.5397  1.0650
 5046SOL     OW26773   1.752   3.493   5.452 -0.2496 -0.1071 -0.4850
 5046SOL    HW126774   1.821   3.511   5.516 -1.3500 -0.1166  0.7063
 5046SOL    HW226775   1.698   3.571   5.440 -0.4016 -0.2307 -0.6089
 5047SOL     OW26776   0.951   1.057   4.144 -0.0127  0.4519 -0.3712
 5047SOL    HW126777   0.856   1.068   4.155  0.1147  0.1499  1.0851
 5047SOL    HW226778   0.975   1.125   4.081 -0.4628  1.5188  0.6021
 5048SOL     OW26779   1.974   0.249   9.517 -0.0089  0.0142 -0.2213
 5048SOL    HW126780   1.992   0.275   9.427 -0.2399  2.1631  0.3530
 5048SOL    HW226781   2.040   0.300   9.565  0.2571  0.1711 -0.7518
 5049SOL     OW26782   3.225   1.113   5.038  0.3771 -0.2041  0.0548
 5049SOL    HW126783   3.172   1.035   5.057 -0.2317 -0.3766 -2.3729
 5049SOL    HW226784   3.302   1.070   5.000 -0.0686 -1.9525  1.1345
 5050SOL     OW26785   2.983   2.882   5.717  0.3410 -0.2141 -0.2579
 5050SOL    HW126786   2.962   2.815   5.651 -0.3513  0.4926 -0.7519
 5050SOL    HW226787   3.078   2.889   5.715  0.3031  0.7737  1.4656
 5051SOL     OW26788   0.847   3.680  13.585  0.0736 -0.1392 -0.1765
 5051SOL    HW126789   0.772   3.664  13.528 -0.3549  0.7119  0.1493
 5051SOL    HW226790   0.900   3.745  13.539  0.7958 -1.5747 -1.3178
 5052SOL     OW26791   4.474   3.699   3.055 -0.2054 -0.0890  0.0398
 5052SOL    HW126792   4.542   3.764   3.072 -0.9364  0.3094  1.4912
 5052SOL    HW226793   4.401   3.759   3.040 -0.2251  0.4073  2.1183
 5053SOL     OW26794   1.668   3.482   1.509  0.9783 -0.2809 -0.7481
 5053SOL    HW126795   1.672   3.564   1.557  1.3058  0.9655 -2.8871
 5053SOL    HW226796   1.582   3.496   1.469 -1.3856 -3.5730  3.1483
 5054SOL     OW26797   0.658   2.441   1.582  0.1193 -0.7377 -0.6308
 5054SOL    HW126798   0.572   2.484   1.574 -0.1024 -1.3873 -1.5919
 5054SOL    HW226799   0.675   2.404   1.496 -0.1298  0.1221 -1.0479
 5055SOL     OW26800   2.388   4.509   3.424 -0.5253  0.0426  0.1284
 5055SOL    HW126801   2.295   4.529   3.428 -0.4082  0.2902  1.8564
 5055SOL    HW226802   2.427   4.586   3.466  1.4135 -1.6289  1.4130
 5056SOL     OW26803   4.233   3.792   6.585 -0.2352 -0.3320 -0.4229
 5056SOL    HW126804   4.298   3.841   6.535  1.2876 -0.1640  1.7246
 5056SOL    HW226805   4.181   3.855   6.635  1.7196  0.6917  0.2951
 5057SOL     OW26806   2.554   3.043   0.658 -0.0556  0.3243 -0.2357
 5057SOL    HW126807   2.540   3.038   0.563  0.5841  0.6690 -0.3432
 5057SOL    HW226808   2.619   2.974   0.675 -0.9441 -0.4588 -0.0151
 5058SOL     OW26809   2.293   0.337   3.352  0.2670  0.7318 -0.8074
 5058SOL    HW126810   2.359   0.319   3.420  0.4073  0.2116 -1.0814
 5058SOL    HW226811   2.335   0.306   3.272 -1.0053  0.9190 -1.5421
 5059SOL     OW26812   1.396   2.531   7.020  0.2908 -0.5214  0.0678
 5059SOL    HW126813   1.435   2.545   6.933 -1.1666  1.0486 -0.3410
 5059SOL    HW226814   1.469   2.554   7.076  0.1401  2.6453 -1.0350
 5060SOL     OW26815   3.494   3.833   3.387  0.4889  1.0243  0.3871
 5060SOL    HW126816   3.575   3.827   3.438  1.9756  3.7843 -1.6163
 5060SOL    HW226817   3.428   3.796   3.446  2.2993 -0.7594  1.2852
 5061SOL     OW26818   0.200   3.162   7.690  0.7827  0.4948  0.5467
 5061SOL    HW126819   0.220   3.215   7.613 -2.9679 -1.4562 -1.7409
 5061SOL    HW226820   0.287   3.139   7.723  1.4909  2.1304 -0.1920
 5062SOL     OW26821   2.432   0.207   3.174  0.4792  0.4546 -0.4224
 5062SOL    HW126822   2.464   0.133   3.122 -0.4783 -0.0525 -0.2740
 5062SOL    HW226823   2.473   0.275   3.121 -1.0686  1.7864  0.0993
 5063SOL     OW26824   4.369   3.188  11.004 -0.0655  0.2224  0.0752
 5063SOL    HW126825   4.435   3.221  11.066  0.1263  2.1974 -1.2106
 5063SOL    HW226826   4.291   3.229  11.040  0.6907 -0.4533  2.5145
 5064SOL     OW26827   3.025   0.970   9.652 -0.1623 -0.1810 -0.4274
 5064SOL    HW126828   2.984   0.944   9.569 -1.9196 -0.2379  0.4608
 5064SOL    HW226829   2.959   0.945   9.716  0.8636 -0.8686  0.3528
 5065SOL     OW26830   0.732   1.512   4.351 -0.2183 -0.2326 -0.3436
 5065SOL    HW126831   0.659   1.525   4.289  1.1584 -0.0309 -1.9113
 5065SOL    HW226832   0.804   1.481   4.295  0.3353  0.9611 -0.2731
 5066SOL     OW26833   1.463   3.574   1.220  0.2633 -0.5990  0.6517
 5066SOL    HW126834   1.424   3.567   1.307 -1.3534  3.2617  0.2333
 5066SOL    HW226835   1.489   3.666   1.221  1.0444 -0.7901 -2.8398
 5067SOL     OW26836   2.889   4.730   3.915  0.3141  0.3341  0.1306
 5067SOL    HW126837   2.845   4.647   3.934  1.1395 -0.5401 -1.7971
 5067SOL    HW226838   2.975   4.709   3.877  0.3829 -1.7154  1.4722
 5068SOL     OW26839   1.996   2.591   4.285 -0.0762  0.1972 -0.0116
 5068SOL    HW126840   2.029   2.527   4.348 -1.8183 -1.9678 -1.2885
 5068SOL    HW226841   2.054   2.664   4.305  0.9397 -0.4927 -0.4784
 5069SOL     OW26842   4.502   4.329   6.408  0.3916  0.0992  0.1460
 5069SOL    HW126843   4.590   4.369   6.409 -0.4035  1.9092 -2.4466
 5069SOL    HW226844   4.508   4.275   6.329  0.6158 -0.2336  0.3930
 5070SOL     OW26845   4.224   0.683   2.429 -0.5275  0.1357 -0.3582
 5070SOL    HW126846   4.221   0.749   2.361 -0.9947  0.8922  0.4040
 5070SOL    HW226847   4.162   0.715   2.494  1.0258  1.7651  0.3266
 5071SOL     OW26848   2.526   1.998   3.799 -0.1629 -0.4611 -0.3274
 5071SOL    HW126849   2.613   2.000   3.837 -0.5431 -1.2098  0.5797
 5071SOL    HW226850   2.521   1.903   3.787  1.4142 -0.4689 -0.9553
 5072SOL     OW26851   0.528   2.551  12.577 -0.5957 -0.5017 -0.3245
 5072SOL    HW126852   0.535   2.459  12.600 -1.4499 -0.1226  1.4605
 5072SOL    HW226853   0.488   2.542  12.491  0.9685  1.3405 -1.2536
 5073SOL     OW26854   2.253   0.710   9.421 -0.0470  0.0389  0.2447
 5073SOL    HW126855   2.339   0.668   9.421 -0.3384 -0.5602 -0.2253
 5073SOL    HW226856   2.255   0.745   9.510  0.5189 -0.1808  0.3161
 5074SOL     OW26857   2.266   2.893   8.122 -0.4459 -0.0533  0.1319
 5074SOL    HW126858   2.196   2.828   8.110 -0.0448 -0.8815  2.3890
 5074SOL    HW226859   2.344   2.844   8.147 -0.9849 -0.9348  0.1197
 5075SOL     OW26860   2.321   2.262  11.887  0.4899 -0.4259  0.2422
 5075SOL    HW126861   2.277   2.330  11.937  0.2465 -0.2393 -0.2260
 5075SOL    HW226862   2.317   2.185  11.944  1.3113 -1.2123 -0.7374
 5076SOL     OW26863   0.238   1.431  14.296 -0.2528 -0.1346 -0.0627
 5076SOL    HW126864   0.247   1.336  14.295 -4.4109 -0.5285 -0.5538
 5076SOL    HW226865   0.224   1.463  14.207 -0.1831 -4.3665 -1.5601
 5077SOL     OW26866   1.629   4.436   0.058  0.1750 -0.0533 -0.4571
 5077SOL    HW126867   1.648   4.414   0.149  1.8049 -0.5943 -0.9395
 5077SOL    HW226868   1.630   4.347   0.022  1.2697 -0.9985  1.9234
 5078SOL     OW26869   1.057   4.245   6.557  0.0988 -0.9775 -0.5367
 5078SOL    HW126870   1.042   4.305   6.484 -0.9126  0.1534  0.6021
 5078SOL    HW226871   0.995   4.291   6.614 -0.9394 -1.9432 -0.8792
 5079SOL     OW26872   0.634   2.915   2.345  0.2963 -0.2732 -0.1280
 5079SOL    HW126873   0.676   2.907   2.260  0.9763  0.1451  0.1657
 5079SOL    HW226874   0.539   2.899   2.350  0.0975 -0.0446 -3.4725
 5080SOL     OW26875   3.972   3.466   8.519 -0.2676 -0.1795 -0.0895
 5080SOL    HW126876   4.009   3.380   8.537 -1.2739 -0.7825 -0.8837
 5080SOL    HW226877   3.952   3.445   8.428 -1.3371  3.2250 -0.6749
 5081SOL     OW26878   2.124   2.564  11.132 -0.0558 -0.4820  0.8223
 5081SOL    HW126879   2.140   2.471  11.118 -0.3205 -0.2857 -0.8015
 5081SOL    HW226880   2.145   2.575  11.225 -0.2062  1.1299  0.6644
 5082SOL     OW26881   3.913   2.772   8.196  0.5687  0.8346 -0.0199
 5082SOL    HW126882   3.917   2.789   8.291 -1.3158  0.4049  0.1397
 5082SOL    HW226883   3.835   2.717   8.204  0.6899  0.2353 -3.2584
 5083SOL     OW26884   3.336   1.051   6.220  0.0998 -0.2724  0.5106
 5083SOL    HW126885   3.336   0.957   6.238 -1.1601 -0.8181 -2.3616
 5083SOL    HW226886   3.278   1.075   6.292 -0.0936 -1.8213  0.8524
 5084SOL     OW26887   4.354   2.650   7.566  0.2606 -0.1354  0.0328
 5084SOL    HW126888   4.444   2.660   7.534 -0.1752  0.7347 -0.8894
 5084SOL    HW226889   4.361   2.561   7.600  0.7003  0.9750  2.8402
 5085SOL     OW26890   4.034   2.527   9.002  0.4125 -0.0102  0.0136
 5085SOL    HW126891   3.970   2.470   8.958 -0.9636 -0.2070  2.2733
 5085SOL    HW226892   3.988   2.586   9.062 -1.2299  0.4939 -1.7270
 5086SOL     OW26893   4.649   1.746   5.460  0.0975 -0.5691  0.4008
 5086SOL    HW126894   4.558   1.720   5.469 -0.6479  1.8464 -0.0942
 5086SOL    HW226895   4.692   1.666   5.491 -0.0488 -0.4130  1.0048
 5087SOL     OW26896   1.142   3.240   8.241 -0.2112  0.5075  0.3691
 5087SOL    HW126897   1.142   3.250   8.146 -1.5962  0.6830  0.3962
 5087SOL    HW226898   1.234   3.262   8.255 -0.3793  1.3735  0.0592
 5088SOL     OW26899   0.496   3.313  17.543 -0.1980 -0.5061 -0.2699
 5088SOL    HW126900   0.459   3.225  17.543  4.5090 -2.4443 -0.0833
 5088SOL    HW226901   0.409   3.353  17.553  1.5119  2.6952  1.7376
 5089SOL     OW26902   3.805   1.286   5.885 -0.5417 -0.0550 -0.5376
 5089SOL    HW126903   3.863   1.352   5.923  0.4634 -1.3618  0.1599
 5089SOL    HW226904   3.799   1.234   5.965 -1.5709  1.7867  0.5771
 5090SOL     OW26905   1.265   3.201  11.370  0.7083 -0.1223  0.1889
 5090SOL    HW126906   1.192   3.213  11.431  1.2170  1.2199  0.5399
 5090SOL    HW226907   1.336   3.220  11.432  2.5185 -4.0823 -0.6898
 5091SOL     OW26908   1.007   1.215  10.821 -0.2632 -0.6988 -0.4469
 5091SOL    HW126909   0.953   1.137  10.810 -1.1936  0.0963 -1.6169
 5091SOL    HW226910   0.957   1.274  10.877 -1.7465  1.0364 -3.5587
 5092SOL     OW26911   1.752   0.846   8.883 -0.2258  0.2673  0.5039
 5092SOL    HW126912   1.844   0.869   8.892 -0.4802  1.5476 -0.1086
 5092SOL    HW226913   1.723   0.850   8.974  0.7092  1.4421  0.7490
 5093SOL     OW26914   4.226   4.292   2.179  0.2502 -0.2280  0.7668
 5093SOL    HW126915   4.270   4.264   2.259  1.3993  3.1263  1.3314
 5093SOL    HW226916   4.294   4.348   2.140  0.2129 -0.0531  0.9518
 5094SOL     OW26917   1.006   2.226   8.933  0.0161 -0.0550 -0.3139
 5094SOL    HW126918   0.971   2.246   9.020 -0.2554  0.7986 -0.6197
 5094SOL    HW226919   0.929   2.225   8.877 -0.4188 -1.7555  0.3339
 5095SOL     OW26920   4.172   2.159   2.352  0.8014 -0.0729  0.3411
 5095SOL    HW126921   4.160   2.160   2.257  0.4900 -0.5958  0.3776
 5095SOL    HW226922   4.170   2.065   2.370  0.2523 -0.2283 -0.5589
 5096SOL     OW26923   2.172   0.089   4.627  0.6186  0.9161 -0.4599
 5096SOL    HW126924   2.265   0.074   4.615  1.0378  3.1920 -0.0854
 5096SOL    HW226925   2.157   0.177   4.590  0.6151  0.3474 -1.8102
 5097SOL     OW26926   0.051   1.867   5.669  0.1741 -0.0871 -0.3305
 5097SOL    HW126927   0.003   1.814   5.605 -1.7346  1.2822 -0.0266
 5097SOL    HW226928   0.135   1.824   5.682 -0.3278 -0.6196  1.1063
 5098SOL     OW26929   1.516   3.477  13.591 -0.0911 -0.0901 -0.3115
 5098SOL    HW126930   1.559   3.521  13.665 -0.1976 -0.4564 -0.0346
 5098SOL    HW226931   1.434   3.452  13.634  0.6172 -0.3690  0.8835
 5099SOL     OW26932   4.144   0.744   5.887  0.2154  0.4364  0.0578
 5099SOL    HW126933   4.218   0.687   5.907 -0.3304 -0.1116  0.5183
 5099SOL    HW226934   4.100   0.731   5.970  2.4411 -0.6232  1.0783
 5100SOL     OW26935   3.217   1.473   9.029 -0.4028 -0.1831  0.4667
 5100SOL    HW126936   3.311   1.494   9.023  0.1105 -1.9857  1.9826
 5100SOL    HW226937   3.196   1.540   9.094  0.1708  1.3849 -0.9810
 5101SOL     OW26938   0.745   0.311   6.238 -0.4043  0.8581  0.4835
 5101SOL    HW126939   0.829   0.315   6.194  0.2525 -0.4631  1.6333
 5101SOL    HW226940   0.706   0.398   6.230  0.6295  1.1240 -1.6886
 5102SOL     OW26941   3.538   2.625   2.301  0.3030 -0.1355 -0.4707
 5102SOL    HW126942   3.542   2.612   2.206 -2.5957 -1.3164 -0.4313
 5102SOL    HW226943   3.632   2.618   2.315 -0.0554 -0.0137  2.0455
 5103SOL     OW26944   4.050   1.977  15.226  0.1746  0.7212  0.3426
 5103SOL    HW126945   4.076   2.063  15.192  1.5946  1.0247  2.1533
 5103SOL    HW226946   4.131   1.927  15.235 -0.0240  0.0771 -1.4489
 5104SOL     OW26947   2.218   1.874   5.255  0.1440  0.7089  0.0746
 5104SOL    HW126948   2.131   1.912   5.239 -0.5679 -1.7213 -1.8828
 5104SOL    HW226949   2.267   1.956   5.260 -0.0913  0.9030 -0.8775
 5105SOL     OW26950   3.174   3.995   1.707  0.0971 -0.6315  0.4675
 5105SOL    HW126951   3.171   3.900   1.691 -1.3947 -0.5077  0.0566
 5105SOL    HW226952   3.257   4.018   1.663 -0.8239  0.2908 -0.7889
 5106SOL     OW26953   0.127   3.484   5.996 -0.5048 -0.4604 -0.8166
 5106SOL    HW126954   0.180   3.465   6.073 -2.1019  1.9064  0.8534
 5106SOL    HW226955   0.127   3.579   6.002 -0.6749 -0.6300  1.8595
 5107SOL     OW26956   1.272   4.054  10.455 -0.2796 -0.0202  0.0646
 5107SOL    HW126957   1.289   3.976  10.508 -0.5445 -0.2966 -0.2602
 5107SOL    HW226958   1.208   4.100  10.510 -1.0382 -0.8483 -0.1335
 5108SOL     OW26959   2.936   0.556   6.559 -0.0897 -0.2104  0.1319
 5108SOL    HW126960   2.989   0.482   6.528  0.1435 -0.9397  2.2114
 5108SOL    HW226961   2.895   0.517   6.637  2.8948 -1.5169  1.0763
 5109SOL     OW26962   1.830   0.185   2.678  0.1482 -0.0714  0.3712
 5109SOL    HW126963   1.745   0.184   2.634 -0.5821 -0.2439  1.7725
 5109SOL    HW226964   1.815   0.120   2.747  1.0786 -0.2584  0.3957
 5110SOL     OW26965   2.210   3.460   7.704 -0.0384  0.0482 -0.1080
 5110SOL    HW126966   2.117   3.438   7.709  0.1982 -0.5814  1.7630
 5110SOL    HW226967   2.250   3.391   7.756 -0.6967  1.9198  2.9473
 5111SOL     OW26968   4.317   4.121   6.914 -0.6143  1.4483  0.4822
 5111SOL    HW126969   4.323   4.192   6.978 -0.0280  0.8763  1.0607
 5111SOL    HW226970   4.225   4.100   6.934  0.1905 -0.3515  2.2976
 5112SOL     OW26971   3.240   3.147  14.786  0.0406 -0.0976 -0.0892
 5112SOL    HW126972   3.327   3.181  14.765 -0.9057  1.6142 -1.2394
 5112SOL    HW226973   3.258   3.053  14.793 -0.1253 -0.1471 -0.3144
 5113SOL     OW26974   2.999   2.240   3.337  0.0370  0.7420  0.5862
 5113SOL    HW126975   3.090   2.269   3.331 -0.1653  1.2036 -0.2583
 5113SOL    HW226976   2.953   2.286   3.267  1.6363 -0.1283 -1.0313
 5114SOL     OW26977   1.227   3.885   9.058  0.3910  0.9156 -0.3454
 5114SOL    HW126978   1.249   3.793   9.049  1.0912  1.0797 -0.3925
 5114SOL    HW226979   1.159   3.903   8.993 -0.2786  1.2168  0.4512
 5115SOL     OW26980   2.051   3.915  10.823 -0.5219  0.7020 -0.0785
 5115SOL    HW126981   1.981   3.902  10.887  1.1735 -0.8587  1.4508
 5115SOL    HW226982   2.086   3.826  10.816 -0.9515  0.5432 -0.2173
 5116SOL     OW26983   4.018   2.234  15.057  0.4414  0.0509 -0.1543
 5116SOL    HW126984   3.949   2.294  15.087 -0.3670 -0.5939 -0.7162
 5116SOL    HW226985   3.962   2.157  15.050 -0.3395  0.7144 -1.2717
 5117SOL     OW26986   2.816   4.193   7.250 -0.4760 -0.2743 -0.1436
 5117SOL    HW126987   2.905   4.161   7.266  0.4607  2.8180  0.7918
 5117SOL    HW226988   2.810   4.255   7.322 -0.3570 -1.1030  0.5814
 5118SOL     OW26989   3.960   2.520   6.071 -0.2409  0.2634 -0.0214
 5118SOL    HW126990   3.927   2.431   6.085  1.3713 -0.6992 -2.5255
 5118SOL    HW226991   3.996   2.510   5.983  1.0603 -0.2725  0.5677
 5119SOL     OW26992   1.030   1.218  12.428  1.3354 -0.0808 -0.1559
 5119SOL    HW126993   1.118   1.186  12.450  1.5092  1.2889  1.1190
 5119SOL    HW226994   1.030   1.308  12.461 -2.5400 -0.6476  1.3470
 5120SOL     OW26995   1.128   3.328  15.319  0.0628  0.2549  0.3191
 5120SOL    HW126996   1.131   3.423  15.333  1.3656  0.3522 -0.6689
 5120SOL    HW226997   1.096   3.328  15.228  0.2374 -0.0003  0.2577
 5121SOL     OW26998   2.933   4.145  10.925  0.1804  0.1062  0.3767
 5121SOL    HW126999   2.912   4.120  10.835  0.5934  2.2705 -0.3170
 5121SOL    HW227000   3.028   4.144  10.930  0.2539  0.0126 -0.8675
 5122SOL     OW27001   0.345   1.471   5.518  0.1504  0.4088 -0.1829
 5122SOL    HW127002   0.316   1.380   5.529  2.6314 -0.6779 -2.5917
 5122SOL    HW227003   0.354   1.474   5.422 -3.4797  1.5314 -0.4850
 5123SOL     OW27004   3.772   0.680  15.224  0.1256  0.4353 -0.0106
 5123SOL    HW127005   3.739   0.769  15.233 -0.3289  0.1646  1.0149
 5123SOL    HW227006   3.789   0.662  15.131  1.3310  0.4488  0.1978
 5124SOL     OW27007   1.036   2.900   8.793  0.0948  0.0568  0.0429
 5124SOL    HW127008   1.068   2.989   8.778 -0.2143 -0.3768 -3.0581
 5124SOL    HW227009   0.963   2.891   8.732  2.0814 -0.9422 -2.1601
 5125SOL     OW27010   0.171   4.093   5.663  0.5662  0.3420 -0.3335
 5125SOL    HW127011   0.264   4.107   5.644  0.7012 -0.5873 -0.3695
 5125SOL    HW227012   0.188   4.014   5.714 -0.1115  0.2095 -0.3094
 5126SOL     OW27013   4.291   0.304  10.182  0.4877  0.3823 -0.2864
 5126SOL    HW127014   4.243   0.242  10.236 -0.5245  2.5537  1.3250
 5126SOL    HW227015   4.353   0.250  10.134  1.1292  0.2241  0.7155
 5127SOL     OW27016   0.072   4.563  14.177  0.4324  0.2109  0.7026
 5127SOL    HW127017   0.122   4.627  14.129  0.5446 -0.6687 -0.3477
 5127SOL    HW227018   0.018   4.617  14.235 -0.9987 -1.8352  1.2912
 5128SOL     OW27019   4.127   2.901  15.475 -0.2899 -0.5677  0.4007
 5128SOL    HW127020   4.220   2.914  15.457 -0.3600 -1.4095 -0.5296
 5128SOL    HW227021   4.109   2.992  15.498 -0.2807 -0.5620  0.3854
 5129SOL     OW27022   0.333   0.054   7.348  0.4052 -0.9213  0.3407
 5129SOL    HW127023   0.272   0.072   7.276 -0.6791 -0.1063  1.4802
 5129SOL    HW227024   0.360   4.704   7.322 -0.3162 -1.2222  0.5956
 5130SOL     OW27025   1.075   3.017   3.630 -0.1472 -0.1927 -0.3798
 5130SOL    HW127026   1.050   3.101   3.591  0.5163  1.1398  2.0293
 5130SOL    HW227027   1.147   3.052   3.683 -0.6229  1.1382 -0.6040
 5131SOL     OW27028   4.046   4.470   1.894  0.1597 -0.3071 -0.1574
 5131SOL    HW127029   4.076   4.396   1.841 -0.1221  0.4426 -1.3620
 5131SOL    HW227030   3.960   4.477   1.853 -0.8784 -0.4132  2.0428
 5132SOL     OW27031   0.905   2.425   2.611  0.0704  0.4871  0.6687
 5132SOL    HW127032   0.916   2.421   2.516 -2.0937  1.0379  0.3872
 5132SOL    HW227033   0.811   2.406   2.610  0.5042 -1.6396  1.4861
 5133SOL     OW27034   4.086   1.838  10.555  0.1580  0.7792 -0.0188
 5133SOL    HW127035   4.094   1.744  10.571  0.2404  0.8009  0.0669
 5133SOL    HW227036   3.998   1.841  10.593 -0.4337  3.3887 -1.6106
 5134SOL     OW27037   1.173   1.997   3.793  0.5474  0.3661  0.6589
 5134SOL    HW127038   1.172   2.041   3.709 -3.3911 -1.3273 -0.1692
 5134SOL    HW227039   1.192   1.905   3.772 -1.9540  0.2600 -1.0445
 5135SOL     OW27040   1.082   4.136  13.511 -0.4615 -0.2104  0.2653
 5135SOL    HW127041   1.128   4.178  13.438 -0.0452 -1.7496 -0.3447
 5135SOL    HW227042   1.090   4.208  13.574  0.4353  0.5171 -0.6687
 5136SOL     OW27043   4.174   1.894  17.347  0.1014  0.1342  0.0005
 5136SOL    HW127044   4.187   1.969  17.289 -0.3043 -0.0020 -0.2690
 5136SOL    HW227045   4.078   1.897  17.356  0.0200  0.2995 -0.9594
 5137SOL     OW27046   4.545   2.914  16.990  0.2176 -0.2920  0.5292
 5137SOL    HW127047   4.458   2.874  16.986 -0.3769  1.0259  0.4633
 5137SOL    HW227048   4.594   2.833  16.972 -0.0128 -0.4477  0.6046
 5138SOL     OW27049   1.944   3.693   2.260 -0.3297  0.4134  0.4080
 5138SOL    HW127050   1.929   3.694   2.355 -2.1916  0.0859  0.1265
 5138SOL    HW227051   1.914   3.781   2.237  0.8709  0.7978  0.3607
 5139SOL     OW27052   3.159   1.819   0.700 -0.1175  0.0476  0.2505
 5139SOL    HW127053   3.153   1.802   0.794  1.6383 -0.6798  0.2304
 5139SOL    HW227054   3.073   1.791   0.671 -0.3182 -0.3424  1.2330
 5140SOL     OW27055   4.016   3.934  16.837 -0.8811  0.0210 -0.0520
 5140SOL    HW127056   4.085   3.997  16.858 -1.4848 -0.2432  2.6893
 5140SOL    HW227057   3.978   3.903  16.920  2.6906  1.6113  2.1497
 5141SOL     OW27058   3.602   2.311   8.089 -0.2582 -0.4899 -0.1239
 5141SOL    HW127059   3.661   2.375   8.048 -0.3310  0.2900  0.9984
 5141SOL    HW227060   3.518   2.337   8.052 -0.7327 -0.3226  1.0777
 5142SOL     OW27061   4.402   3.497   7.946 -0.1208  0.2955  0.3465
 5142SOL    HW127062   4.358   3.556   8.008 -1.2392  1.1592 -1.2632
 5142SOL    HW227063   4.479   3.468   7.995 -2.6831 -2.5114  2.7412
 5143SOL     OW27064   1.233   3.698   7.860 -0.0195  0.3126  0.3577
 5143SOL    HW127065   1.320   3.706   7.821  0.9393 -0.4320  2.3937
 5143SOL    HW227066   1.229   3.773   7.920 -2.4644  0.3767  0.0988
 5144SOL     OW27067   3.847   1.428  15.026  0.0158 -0.1584 -0.1057
 5144SOL    HW127068   3.817   1.341  15.000 -0.8998 -0.2881  1.4123
 5144SOL    HW227069   3.874   1.414  15.116 -0.6325 -0.4828  0.0292
 5145SOL     OW27070   2.158   2.305  17.379  0.4055 -0.2596  0.6816
 5145SOL    HW127071   2.212   2.295  17.457  0.9208 -0.6451  0.2750
 5145SOL    HW227072   2.108   2.385  17.394  0.1505 -0.3740  0.4441
 5146SOL     OW27073   3.120   3.068   4.595  0.2509  0.1197  0.6301
 5146SOL    HW127074   3.188   3.001   4.597 -1.5870 -1.7413  0.5136
 5146SOL    HW227075   3.144   3.120   4.671 -1.5619  0.5380  0.9145
 5147SOL     OW27076   1.384   0.447   2.981 -0.0738  0.3240 -0.3610
 5147SOL    HW127077   1.334   0.467   3.061 -1.0038  1.3184 -1.1791
 5147SOL    HW227078   1.393   0.534   2.943  0.9504 -0.2967 -1.5177
 5148SOL     OW27079   2.753   1.972   6.568  0.1646 -0.1009 -0.3604
 5148SOL    HW127080   2.831   2.016   6.600 -1.0943  1.9124 -0.0508
 5148SOL    HW227081   2.802   1.920   6.505  3.3836  1.4768  0.8589
 5149SOL     OW27082   0.234   0.707   2.546 -0.2349  0.2634  0.0636
 5149SOL    HW127083   0.290   0.701   2.469 -0.1547  0.4308  0.1069
 5149SOL    HW227084   0.238   0.620   2.585 -0.1589  0.2899  0.1153
 5150SOL     OW27085   1.026   2.557   4.662 -0.4367 -0.0839 -0.4592
 5150SOL    HW127086   0.982   2.632   4.701  0.4191  0.9841 -1.5628
 5150SOL    HW227087   1.040   2.509   4.744 -3.0980  0.7423  0.4543
 5151SOL     OW27088   4.472   4.392   6.759 -0.2752  0.1410  0.7495
 5151SOL    HW127089   4.522   4.473   6.748 -2.4768  1.2353 -1.2876
 5151SOL    HW227090   4.384   4.421   6.734 -0.1782  0.0594  0.3166
 5152SOL     OW27091   3.454   0.930  14.876  0.3329 -0.6634 -0.3232
 5152SOL    HW127092   3.389   1.000  14.880  2.5147  1.5305 -2.8624
 5152SOL    HW227093   3.411   0.887  14.803  1.9432  1.3003 -2.4465
 5153SOL     OW27094   1.941   0.584   7.378  0.1330  0.0846 -0.7234
 5153SOL    HW127095   1.927   0.647   7.307  0.3991  1.9811  0.9132
 5153SOL    HW227096   2.036   0.581   7.379  0.1316 -1.5238 -4.7412
 5154SOL     OW27097   1.842   0.009   3.541 -0.3496 -0.0319  0.3644
 5154SOL    HW127098   1.768   4.696   3.508 -1.7438  1.9643  0.4293
 5154SOL    HW227099   1.834   0.099   3.509  0.7765  1.0404  3.1026
 5155SOL     OW27100   1.498   4.574   8.758  0.2340  0.6198  0.0994
 5155SOL    HW127101   1.458   4.555   8.842  0.3004 -1.2858 -0.2915
 5155SOL    HW227102   1.522   4.667   8.762  3.1388 -0.2246  2.1906
 5156SOL     OW27103   4.083   3.135   8.546 -0.6904 -0.1425 -0.7675
 5156SOL    HW127104   4.127   3.084   8.477 -0.7072  0.0864 -0.9473
 5156SOL    HW227105   3.991   3.117   8.524 -0.2703 -0.7452 -2.0648
 5157SOL     OW27106   2.171   0.129   5.948  0.3316  0.3158 -0.0780
 5157SOL    HW127107   2.252   0.138   5.898  1.3027 -2.9128  0.9563
 5157SOL    HW227108   2.189   0.041   5.980  0.0577 -0.0968 -1.0559
 5158SOL     OW27109   3.906   2.246   5.935  0.7374  0.1004  0.0625
 5158SOL    HW127110   3.993   2.250   5.896  0.2076 -0.2486 -1.1691
 5158SOL    HW227111   3.860   2.216   5.856 -0.0139  0.0237  0.5340
 5159SOL     OW27112   4.559   0.275  14.071  0.0740  0.5768 -0.2359
 5159SOL    HW127113   4.483   0.220  14.054  1.3096 -1.7040  1.5701
 5159SOL    HW227114   4.510   0.356  14.087 -1.4756 -1.0594  3.1212
 5160SOL     OW27115   3.971   4.303  11.884  0.1718  0.3164  0.4006
 5160SOL    HW127116   3.978   4.376  11.822 -0.1036 -0.0395 -0.0483
 5160SOL    HW227117   3.905   4.254  11.834  0.5470  0.9737 -0.7447
 5161SOL     OW27118   2.540   0.698   5.072 -0.4563  0.4967 -0.1401
 5161SOL    HW127119   2.617   0.710   5.127 -1.0121 -0.5030  0.8463
 5161SOL    HW227120   2.494   0.774   5.109 -0.7632  0.6922 -0.9251
 5162SOL     OW27121   4.356   1.601   5.118 -0.1501 -0.0995  0.2562
 5162SOL    HW127122   4.425   1.546   5.155  2.5151  1.7896 -1.9279
 5162SOL    HW227123   4.351   1.568   5.029 -0.2421  1.1335 -0.1933
 5163SOL     OW27124   2.410   0.375  17.372  0.8218  0.0252 -0.4945
 5163SOL    HW127125   2.462   0.434  17.427  0.1590  0.2999 -0.1504
 5163SOL    HW227126   2.424   0.424  17.290  1.4555 -1.9433 -1.5502
 5164SOL     OW27127   0.988   0.404   7.869 -0.0529  0.0911 -0.4809
 5164SOL    HW127128   0.946   0.319   7.853  0.2535  0.1536 -1.5889
 5164SOL    HW227129   1.039   0.413   7.788 -0.2575 -1.6547 -0.8107
 5165SOL     OW27130   3.260   0.884  14.664  0.0679  0.4926  0.3629
 5165SOL    HW127131   3.182   0.905  14.613 -0.0386 -0.4221  0.1418
 5165SOL    HW227132   3.277   0.799  14.623 -0.7509  0.3376  0.3512
 5166SOL     OW27133   2.248   0.101  11.513 -0.4196  0.1034 -0.2886
 5166SOL    HW127134   2.194   0.172  11.479  0.6550 -0.3850 -3.0226
 5166SOL    HW227135   2.315   0.086  11.447  0.4858 -0.7727  0.8233
 5167SOL     OW27136   3.307   1.638   4.864 -0.1539 -0.1411  0.4284
 5167SOL    HW127137   3.291   1.543   4.867 -0.0782 -0.1606  0.2297
 5167SOL    HW227138   3.291   1.663   4.954  2.4208 -2.3592  1.5203
 5168SOL     OW27139   1.962   4.109  16.772 -0.0675  0.3564  0.1932
 5168SOL    HW127140   2.037   4.151  16.730  1.2464  0.5514  2.7162
 5168SOL    HW227141   1.912   4.076  16.698 -0.9639  0.3585  0.7947
 5169SOL     OW27142   1.467   3.334   6.892 -0.0930  0.3385 -0.1444
 5169SOL    HW127143   1.431   3.261   6.842  2.2877 -0.0493 -1.2726
 5169SOL    HW227144   1.491   3.398   6.824  1.1266 -2.4763 -2.3544
 5170SOL     OW27145   3.525   4.059  10.311 -0.0669  0.0128 -0.1123
 5170SOL    HW127146   3.465   3.988  10.289  0.3554 -0.2552 -0.4200
 5170SOL    HW227147   3.591   4.032  10.247  0.7610  1.4755  0.1287
 5171SOL     OW27148   2.171   3.910  16.851 -0.3636 -0.0799 -0.1381
 5171SOL    HW127149   2.139   4.000  16.862  0.7145 -0.1037  3.2723
 5171SOL    HW227150   2.153   3.877  16.939 -2.9628  3.0369  0.5311
 5172SOL     OW27151   1.298   3.597  10.509 -0.2386  0.1916  0.0917
 5172SOL    HW127152   1.351   3.560  10.438  1.5225  0.5526  1.2115
 5172SOL    HW227153   1.235   3.526  10.509 -0.4296  0.3724 -3.5375
 5173SOL     OW27154   3.272   1.604   5.128 -0.2142 -0.1309 -0.2500
 5173SOL    HW127155   3.235   1.521   5.097 -1.4105  0.1997  0.2775
 5173SOL    HW227156   3.308   1.589   5.215 -1.9594  0.8053  0.6490
 5174SOL     OW27157   2.271   2.732   6.409  0.3579  0.6838 -0.1618
 5174SOL    HW127158   2.352   2.726   6.359  0.1189  0.0698 -0.4777
 5174SOL    HW227159   2.238   2.642   6.414  0.7726  0.7093  3.3365
 5175SOL     OW27160   3.000   3.879   2.083  0.1699  0.1413 -0.0603
 5175SOL    HW127161   3.083   3.832   2.097 -0.4937 -1.1295 -0.4054
 5175SOL    HW227162   3.024   3.969   2.063  0.8358  0.7169  3.3481
 5176SOL     OW27163   2.580   2.348  14.109 -0.3110 -0.3182 -0.5797
 5176SOL    HW127164   2.559   2.397  14.030  0.2416  1.1218  0.1676
 5176SOL    HW227165   2.668   2.380  14.127  0.2338 -1.5176 -1.1143
 5177SOL     OW27166   1.367   1.062   5.134  0.1666 -0.0767 -0.5155
 5177SOL    HW127167   1.450   1.103   5.111 -0.7053  1.4445 -1.0062
 5177SOL    HW227168   1.308   1.121   5.086 -1.9641 -1.7637  0.0094
 5178SOL     OW27169   2.921   2.636   5.548 -0.0950 -0.0885 -0.4678
 5178SOL    HW127170   2.868   2.587   5.611 -0.1159  0.0697 -0.3636
 5178SOL    HW227171   2.907   2.598   5.461  3.1661 -1.4626 -0.4222
 5179SOL     OW27172   2.765   0.128   9.918 -0.2495 -0.4280  0.4579
 5179SOL    HW127173   2.777   0.050   9.972  2.0877  0.4958  1.2773
 5179SOL    HW227174   2.838   0.184   9.943 -0.1240 -0.9752  1.2901
 5180SOL     OW27175   1.873   4.651   5.900  0.2101  0.1916  0.3660
 5180SOL    HW127176   1.899   4.701   5.823 -1.3763 -0.7422 -0.7747
 5180SOL    HW227177   1.947   4.663   5.959 -1.5018 -0.0878  2.6134
 5181SOL     OW27178   3.475   0.885  14.385 -0.1477 -0.4234 -0.0533
 5181SOL    HW127179   3.407   0.819  14.398 -1.3574  0.6202 -0.9907
 5181SOL    HW227180   3.531   0.865  14.459  0.9718 -2.1794 -1.3917
 5182SOL     OW27181   1.942   3.864   3.058  0.2345 -0.1418  0.1592
 5182SOL    HW127182   2.014   3.814   3.098  0.4328  2.2743  2.8759
 5182SOL    HW227183   1.917   3.927   3.126 -0.5188 -1.7257  1.3398
 5183SOL     OW27184   0.226   1.101  13.168 -0.2132 -0.0441 -0.3752
 5183SOL    HW127185   0.280   1.062  13.237  0.4450 -0.0059 -0.8654
 5183SOL    HW227186   0.223   1.188  13.208  0.9207  0.0161 -0.4100
 5184SOL     OW27187   3.169   1.273   5.953 -0.1794 -0.2168  0.2094
 5184SOL    HW127188   3.151   1.188   5.992 -1.0728 -1.1702 -2.2835
 5184SOL    HW227189   3.095   1.295   5.896  0.6561 -1.1796 -1.2519
 5185SOL     OW27190   2.560   1.253  14.129 -0.6167  0.3277 -0.3070
 5185SOL    HW127191   2.556   1.323  14.194 -1.2152  0.8629 -0.9139
 5185SOL    HW227192   2.466   1.250  14.113 -0.3917 -4.1907 -0.5973
 5186SOL     OW27193   2.286   0.526   5.735  0.4053 -0.2092 -0.3609
 5186SOL    HW127194   2.264   0.515   5.643 -0.7509 -0.0136 -0.1184
 5186SOL    HW227195   2.246   0.445   5.767  0.9388 -0.0493  0.7279
 5187SOL     OW27196   2.123   4.112   6.426 -0.1811  0.1165  0.4571
 5187SOL    HW127197   2.151   4.164   6.502 -0.0861  1.5774 -0.5636
 5187SOL    HW227198   2.030   4.092   6.441  0.1217  0.2865  2.5749
 5188SOL     OW27199   2.775   1.939   4.937 -0.3696 -0.3459 -0.0827
 5188SOL    HW127200   2.713   1.885   4.888 -0.6469 -0.0786 -0.0281
 5188SOL    HW227201   2.853   1.884   4.938  1.0641  1.6735 -0.7151
 5189SOL     OW27202   1.342   3.547   8.575 -0.6378  0.3036  0.4651
 5189SOL    HW127203   1.398   3.545   8.653 -1.8299  2.2833  1.3522
 5189SOL    HW227204   1.349   3.636   8.542  1.0321 -0.0702 -0.2045
 5190SOL     OW27205   2.598   3.294  16.822 -0.3279  0.0544  0.2830
 5190SOL    HW127206   2.664   3.320  16.885 -0.1657 -1.1778  0.6274
 5190SOL    HW227207   2.631   3.336  16.742 -1.9792  1.5466  0.3749
 5191SOL     OW27208   0.523   4.710   4.643 -0.1222 -0.2438 -0.1167
 5191SOL    HW127209   0.475   4.643   4.693 -0.5459 -0.2490 -0.5284
 5191SOL    HW227210   0.490   4.690   4.556  1.9119 -2.3018 -0.3959
 5192SOL     OW27211   1.903   2.541   8.421 -0.0485 -0.1173  0.8090
 5192SOL    HW127212   1.883   2.622   8.374  2.5554 -0.2822 -0.6092
 5192SOL    HW227213   1.828   2.524   8.478  0.7909 -1.5826  1.4870
 5193SOL     OW27214   3.545   3.471   4.434  0.0337  0.6097 -0.0311
 5193SOL    HW127215   3.607   3.539   4.409  0.8365 -0.1739 -0.1585
 5193SOL    HW227216   3.480   3.475   4.364 -0.7211 -0.8507  0.5940
 5194SOL     OW27217   0.961   4.322   7.196  0.1265 -0.2691  0.2770
 5194SOL    HW127218   1.036   4.378   7.175 -1.1313  0.1033 -3.2395
 5194SOL    HW227219   0.998   4.236   7.176 -1.1191 -0.6497 -0.4051
 5195SOL     OW27220   1.492   3.932   9.101 -0.5192 -1.1280  0.4101
 5195SOL    HW127221   1.400   3.906   9.090  0.2843 -3.0774 -1.7141
 5195SOL    HW227222   1.510   3.963   9.012 -2.0199 -1.7308 -0.1196
 5196SOL     OW27223   2.793   0.453  12.340 -0.3392 -0.3235 -0.0505
 5196SOL    HW127224   2.703   0.456  12.308 -1.4910 -0.3107  3.2493
 5196SOL    HW227225   2.803   0.362  12.370 -1.3292 -0.3985  0.0522
 5197SOL     OW27226   1.139   3.859  15.232 -0.1958  0.5942 -0.0308
 5197SOL    HW127227   1.165   3.877  15.141  0.9262 -0.0544  0.1535
 5197SOL    HW227228   1.115   3.946  15.264 -0.2490  0.0317  1.4703
 5198SOL     OW27229   3.774   2.499   4.584 -0.1176  0.2390  0.5714
 5198SOL    HW127230   3.752   2.579   4.535 -1.1931  0.2908  1.1411
 5198SOL    HW227231   3.700   2.492   4.644 -0.4748  0.3035  0.1449
 5199SOL     OW27232   0.954   0.368   9.283 -0.0025 -0.0120 -0.4429
 5199SOL    HW127233   0.928   0.280   9.311 -2.8838  1.3396  1.0831
 5199SOL    HW227234   0.947   0.407   9.370  2.3105 -0.7166  0.0506
 5200SOL     OW27235   3.122   0.852   2.419  0.3756  0.1446  0.4491
 5200SOL    HW127236   3.077   0.932   2.447 -0.7375 -0.2835 -0.0854
 5200SOL    HW227237   3.182   0.887   2.353 -0.8842  1.4612 -0.0154
 5201SOL     OW27238   1.145   2.801   5.522  0.4642 -0.3424 -0.1008
 5201SOL    HW127239   1.173   2.722   5.569 -0.6945 -1.8159 -1.8862
 5201SOL    HW227240   1.229   2.815   5.478 -0.3107 -0.0278 -1.4745
 5202SOL     OW27241   0.866   1.852   2.080  0.0556 -0.3576 -0.7045
 5202SOL    HW127242   0.821   1.905   2.145 -0.5915 -2.4756  0.5492
 5202SOL    HW227243   0.882   1.772   2.130 -1.9874 -0.5694 -0.4079
 5203SOL     OW27244   1.250   3.094   4.981 -0.0950  0.3637 -0.1225
 5203SOL    HW127245   1.212   3.129   5.062 -0.7473 -0.8889  0.1023
 5203SOL    HW227246   1.311   3.164   4.956 -0.3153  0.4699 -0.3561
 5204SOL     OW27247   2.728   3.425   6.902 -0.8334 -0.0861  0.2309
 5204SOL    HW127248   2.780   3.436   6.823 -1.8650  0.6248 -0.3474
 5204SOL    HW227249   2.705   3.516   6.923  0.2735 -0.5480  3.4553
 5205SOL     OW27250   3.025   2.483   6.833 -0.0420  0.0241  0.0770
 5205SOL    HW127251   3.066   2.433   6.763  0.8169  0.0822  0.5372
 5205SOL    HW227252   3.087   2.473   6.906  0.7142  0.3135 -0.5309
 5206SOL     OW27253   3.470   2.326  16.863 -0.4586 -0.0569 -0.1064
 5206SOL    HW127254   3.433   2.267  16.928 -0.8136  1.8398  1.4424
 5206SOL    HW227255   3.396   2.386  16.854  0.2897  0.6527 -1.6134
 5207SOL     OW27256   1.225   2.752   7.060 -0.2663 -0.3966 -0.4402
 5207SOL    HW127257   1.178   2.719   6.983 -0.1257 -1.2794 -0.1495
 5207SOL    HW227258   1.311   2.711   7.047 -1.1607 -2.4705  0.1998
 5208SOL     OW27259   0.290   3.127   2.386  0.1433 -0.4996  0.6873
 5208SOL    HW127260   0.313   3.040   2.354  0.7814 -0.2691  0.5174
 5208SOL    HW227261   0.196   3.120   2.370  0.2947  2.3170 -1.4021
 5209SOL     OW27262   2.223   2.749  10.959  0.7422 -0.7512  0.1665
 5209SOL    HW127263   2.206   2.689  11.032  0.8966 -0.4271  0.4658
 5209SOL    HW227264   2.132   2.773  10.944  1.1037 -0.1811 -1.1258
 5210SOL     OW27265   0.411   1.482   9.101 -1.0109  0.3212  0.0569
 5210SOL    HW127266   0.438   1.425   9.030 -2.9253  1.4189 -1.5643
 5210SOL    HW227267   0.487   1.539   9.111 -0.1323 -0.4508 -2.3701
 5211SOL     OW27268   2.147   0.768  14.142 -0.6141  0.0321  0.6341
 5211SOL    HW127269   2.115   0.744  14.055  3.1243 -2.6081  0.0158
 5211SOL    HW227270   2.188   0.851  14.119 -2.5197  0.5450 -0.9998
 5212SOL     OW27271   3.001   1.763  13.928 -0.4870 -0.1655  0.1213
 5212SOL    HW127272   3.053   1.690  13.963  0.0152 -0.1653 -0.6304
 5212SOL    HW227273   3.068   1.832  13.925 -2.4439  1.6212 -2.2431
 5213SOL     OW27274   4.483   1.098   7.492 -0.3097  0.6812 -0.6143
 5213SOL    HW127275   4.528   1.021   7.525  0.1779  0.5752 -1.5061
 5213SOL    HW227276   4.426   1.120   7.565  1.5214  0.0013  1.0217
 5214SOL     OW27277   0.210   4.137   1.797  0.2663  0.1810  0.1952
 5214SOL    HW127278   0.235   4.194   1.725 -0.6815 -0.2614 -0.4853
 5214SOL    HW227279   0.175   4.200   1.861 -1.2116  0.2292 -0.6522
 5215SOL     OW27280   2.070   1.684   5.562  0.1864  0.4484 -0.5930
 5215SOL    HW127281   2.075   1.676   5.467  2.5809  1.0180 -0.5270
 5215SOL    HW227282   1.979   1.665   5.583 -0.5294  1.2300 -3.0210
 5216SOL     OW27283   3.228   1.690   5.918 -0.7408 -0.0213  0.2010
 5216SOL    HW127284   3.135   1.681   5.896 -0.3450 -0.7080 -1.1869
 5216SOL    HW227285   3.270   1.630   5.857 -1.0816  0.0858 -0.1422
 5217SOL     OW27286   2.768   2.305   7.133  0.1257 -0.1179 -0.5720
 5217SOL    HW127287   2.806   2.222   7.161  0.9788 -0.1242 -1.7444
 5217SOL    HW227288   2.827   2.364   7.181 -0.0347 -0.4160 -0.0131
 5218SOL     OW27289   3.723   1.959   3.781  0.1052 -0.2364  0.2574
 5218SOL    HW127290   3.689   1.902   3.712  0.0858 -1.2112  1.0770
 5218SOL    HW227291   3.656   1.956   3.849  0.3372  3.3068  0.6419
 5219SOL     OW27292   1.340   2.790   4.717 -0.4830 -0.4429 -0.1077
 5219SOL    HW127293   1.397   2.813   4.790  0.4408 -0.2728 -0.8752
 5219SOL    HW227294   1.268   2.741   4.755 -1.3267  0.8817  0.0043
 5220SOL     OW27295   0.262   1.284   8.832  0.1726  0.0135  0.0292
 5220SOL    HW127296   0.228   1.368   8.865 -0.2592 -0.2545  0.2617
 5220SOL    HW227297   0.356   1.302   8.834  0.4996 -1.8341  1.3610
 5221SOL     OW27298   3.427   4.500   6.194 -0.5098 -0.9192 -0.3784
 5221SOL    HW127299   3.463   4.574   6.244  0.6605 -2.4745  1.0892
 5221SOL    HW227300   3.408   4.437   6.264  1.5259 -2.2780 -1.0453
 5222SOL     OW27301   1.146   4.262   3.840  0.3284  0.5348  0.1881
 5222SOL    HW127302   1.069   4.213   3.869  0.1591  0.1909 -0.8715
 5222SOL    HW227303   1.192   4.264   3.924 -0.6422  0.4272  0.7247
 5223SOL     OW27304   3.908   3.998   9.533  0.1497 -0.0158 -0.4495
 5223SOL    HW127305   3.854   3.989   9.455  0.8605 -1.8180 -0.7424
 5223SOL    HW227306   3.882   3.918   9.579 -1.0092  0.8204  0.3812
 5224SOL     OW27307   2.988   3.049   7.321  0.2484 -0.0116 -0.1463
 5224SOL    HW127308   3.068   3.043   7.268 -0.0546 -0.7696 -0.5226
 5224SOL    HW227309   3.028   2.994   7.388 -1.4960  0.0296  0.9186
 5225SOL     OW27310   4.130   3.040  10.641  0.4527 -0.1548 -0.6082
 5225SOL    HW127311   4.163   3.120  10.601 -0.0711 -0.5360 -1.7768
 5225SOL    HW227312   4.049   3.043  10.592 -1.4717 -2.6133  2.3583
 5226SOL     OW27313   4.695   1.546   9.730  0.1192 -0.0724  0.2493
 5226SOL    HW127314   4.645   1.527   9.650 -0.9483  3.3143  0.1029
 5226SOL    HW227315   4.640   1.613   9.770  1.2216 -0.5042  2.4530
 5227SOL     OW27316   1.956   0.332  12.843 -0.1517  0.4221 -0.7961
 5227SOL    HW127317   2.023   0.312  12.778 -1.3576 -0.9308 -1.6112
 5227SOL    HW227318   1.986   0.422  12.857  0.8858  0.0213 -0.4712
 5228SOL     OW27319   3.463   4.155   8.034 -0.5567  0.3609 -0.0712
 5228SOL    HW127320   3.461   4.178   8.127 -0.7038  0.0496  0.0024
 5228SOL    HW227321   3.371   4.133   8.022 -0.7803 -0.4427  3.0263
 5229SOL     OW27322   3.401   3.410   5.639 -0.6875  0.1996  0.3951
 5229SOL    HW127323   3.321   3.460   5.654 -1.1271 -0.8783  1.7154
 5229SOL    HW227324   3.407   3.383   5.731 -3.3383  0.5346  0.6742
 5230SOL     OW27325   0.886   1.791   6.778 -0.1189 -0.2844  0.0224
 5230SOL    HW127326   0.812   1.744   6.817 -1.5466  2.2678  0.4202
 5230SOL    HW227327   0.860   1.813   6.688  1.8873 -0.3070 -0.5525
 5231SOL     OW27328   4.037   3.918  11.607 -0.7525 -0.2388 -0.4531
 5231SOL    HW127329   4.011   3.878  11.690  1.1364 -0.3923  0.0647
 5231SOL    HW227330   4.071   4.003  11.634 -2.2592  1.0225 -2.5570
 5232SOL     OW27331   3.295   2.310   5.372 -0.3458 -0.6122 -0.3876
 5232SOL    HW127332   3.202   2.300   5.390 -0.5107  1.8670  0.1487
 5232SOL    HW227333   3.329   2.345   5.455  2.0450 -2.3031 -0.6469
 5233SOL     OW27334   1.451   1.033   1.562  0.8921  0.3557 -0.3782
 5233SOL    HW127335   1.405   0.963   1.517 -0.3000  2.1632 -1.9652
 5233SOL    HW227336   1.429   1.004   1.650 -0.9982  1.1007 -0.6019
 5234SOL     OW27337   2.544   1.079   6.896 -0.4269 -0.8187 -0.3591
 5234SOL    HW127338   2.496   1.074   6.979 -1.2496 -0.2134 -0.7944
 5234SOL    HW227339   2.575   1.169   6.897 -0.9316 -0.6684  2.0200
 5235SOL     OW27340   2.480   1.324   9.150  0.2719  0.3431  0.3429
 5235SOL    HW127341   2.415   1.256   9.135  0.5214  0.2751 -0.4104
 5235SOL    HW227342   2.457   1.357   9.237  0.2945  0.5638  0.2647
 5236SOL     OW27343   3.561   1.490   5.504  0.1209  0.1419 -0.0390
 5236SOL    HW127344   3.577   1.472   5.597 -1.8383  0.2475  0.3147
 5236SOL    HW227345   3.647   1.524   5.479  0.4191 -0.3017  0.3849
 5237SOL     OW27346   1.959   2.883   7.362 -0.4185 -0.2469  0.6610
 5237SOL    HW127347   1.912   2.908   7.283  0.4562 -2.8111 -0.6813
 5237SOL    HW227348   2.043   2.928   7.350 -0.9040  0.1965 -0.9735
 5238SOL     OW27349   4.180   0.192   4.167  0.2925 -0.1616  0.2399
 5238SOL    HW127350   4.201   0.130   4.098 -0.7183 -0.1303 -0.0934
 5238SOL    HW227351   4.141   0.266   4.121  1.3386 -0.0998 -0.5403
 5239SOL     OW27352   1.243   0.257   5.404  0.0834  0.7797  0.5775
 5239SOL    HW127353   1.216   0.231   5.316  1.4441 -1.6954  0.9035
 5239SOL    HW227354   1.217   0.174   5.444  3.0530 -0.5007 -0.1521
 5240SOL     OW27355   2.250   1.412   8.627 -0.4180 -0.6509  0.7474
 5240SOL    HW127356   2.325   1.378   8.677  1.0016  0.0804 -0.8943
 5240SOL    HW227357   2.211   1.460   8.700 -0.9057  0.3414 -0.1770
 5241SOL     OW27358   4.248   3.280  16.875 -0.6584  0.0015  0.0371
 5241SOL    HW127359   4.161   3.289  16.838  0.2203 -0.8261 -2.2147
 5241SOL    HW227360   4.247   3.202  16.931  1.7822  1.5096  2.1702
 5242SOL     OW27361   1.712   3.177   2.571 -0.7018  0.1679 -0.3229
 5242SOL    HW127362   1.705   3.264   2.610  2.7132  0.7565 -1.0484
 5242SOL    HW227363   1.747   3.200   2.485  0.0717 -2.6117 -0.7444
 5243SOL     OW27364   2.557   4.508   5.051  0.2384 -0.0251 -0.4721
 5243SOL    HW127365   2.495   4.457   5.103  1.3140  0.2077  1.0249
 5243SOL    HW227366   2.495   4.539   4.984 -0.4684 -1.3686 -0.4346
 5244SOL     OW27367   0.180   3.890   1.691  0.5502 -0.0715 -0.3016
 5244SOL    HW127368   0.208   3.961   1.748  0.4219 -0.3391  0.0986
 5244SOL    HW227369   0.179   3.939   1.609  0.4159 -1.1058 -0.9226
 5245SOL     OW27370   1.372   0.404  14.400  0.0353  0.0043 -0.1043
 5245SOL    HW127371   1.422   0.366  14.329 -1.4885 -1.3611 -0.4440
 5245SOL    HW227372   1.313   0.330  14.418  0.7059 -0.0460  1.9161
 5246SOL     OW27373   3.275   3.941   5.592  0.2041  0.0346 -0.5905
 5246SOL    HW127374   3.191   3.985   5.609 -0.1999 -1.3468  1.0839
 5246SOL    HW227375   3.267   3.861   5.644  0.5268 -0.7705 -1.8049
 5247SOL     OW27376   3.536   0.551   6.789 -0.1782  0.3151 -0.1587
 5247SOL    HW127377   3.614   0.523   6.838 -0.2250 -0.0730 -0.3081
 5247SOL    HW227378   3.542   0.646   6.773  0.6678  0.4316  0.8082
 5248SOL     OW27379   2.630   3.194   2.442  0.0424  0.1598  0.5121
 5248SOL    HW127380   2.626   3.283   2.408 -1.0381  0.0850  0.4244
 5248SOL    HW227381   2.711   3.193   2.492  0.8546  0.1872 -0.7878
 5249SOL     OW27382   0.843   0.835   5.231  0.0694 -0.5892 -0.1389
 5249SOL    HW127383   0.818   0.837   5.139 -1.5291  1.2832  0.3187
 5249SOL    HW227384   0.934   0.806   5.236  0.5181  0.5243 -1.8161
 5250SOL     OW27385   0.257   0.628   9.978 -0.0666 -0.3018  0.8480
 5250SOL    HW127386   0.352   0.618   9.984  0.3654  2.4815 -0.9547
 5250SOL    HW227387   0.236   0.682  10.055  1.6426  0.6105  0.6758
 5251SOL     OW27388   3.284   2.782   0.618 -0.3088  0.1840  0.4010
 5251SOL    HW127389   3.290   2.708   0.678 -2.8983 -1.3845 -1.3006
 5251SOL    HW227390   3.304   2.746   0.532 -1.4270  0.8854 -0.1637
 5252SOL     OW27391   2.843   0.116  14.581  0.1755 -0.0085  0.0704
 5252SOL    HW127392   2.845   0.116  14.485 -0.7211 -1.3172  0.0441
 5252SOL    HW227393   2.906   0.186  14.596 -1.0831  1.2401 -0.3837
 5253SOL     OW27394   4.037   0.911   8.389 -0.0231 -0.0747  0.7270
 5253SOL    HW127395   4.074   0.999   8.386  1.9166 -0.9875 -1.7136
 5253SOL    HW227396   4.061   0.877   8.303  0.8608  0.8439  0.6137
 5254SOL     OW27397   2.804   4.545   1.481  0.3619  0.2243  0.0025
 5254SOL    HW127398   2.767   4.630   1.459  1.6467  1.2783  1.9607
 5254SOL    HW227399   2.770   4.537   1.570  1.3297  3.6019  0.6652
 5255SOL     OW27400   4.038   3.290   4.231  0.3067 -0.0150 -0.3057
 5255SOL    HW127401   3.963   3.319   4.282  2.5328  0.8524  2.5034
 5255SOL    HW227402   4.008   3.203   4.204 -0.8231 -0.0315  1.0515
 5256SOL     OW27403   4.559   3.994   3.208 -0.2100  0.9109 -0.4335
 5256SOL    HW127404   4.625   3.963   3.270 -1.2648  0.3519  0.4300
 5256SOL    HW227405   4.475   3.982   3.253  0.0596 -0.5094 -0.2952
 5257SOL     OW27406   0.209   1.041  17.352  0.1594 -0.2530  0.2924
 5257SOL    HW127407   0.190   1.118  17.405  2.6575 -0.8345  2.0363
 5257SOL    HW227408   0.261   0.995  17.418 -0.0464 -0.3576  0.3843
 5258SOL     OW27409   4.479   4.224  13.010  0.4714  0.1376  0.7104
 5258SOL    HW127410   4.520   4.138  13.005  1.2305  0.6801 -2.7587
 5258SOL    HW227411   4.438   4.216  12.923 -1.3281 -0.4135  1.6103
 5259SOL     OW27412   0.280   1.504  15.675  0.1214 -0.4727  0.5955
 5259SOL    HW127413   0.216   1.486  15.607 -1.8390  1.7754  1.8515
 5259SOL    HW227414   0.243   1.582  15.716  1.2177  0.0175  0.6547
 5260SOL     OW27415   1.967   4.006   1.911  0.5490  0.7699  0.5910
 5260SOL    HW127416   1.961   4.082   1.853 -2.4212  2.0535  2.5684
 5260SOL    HW227417   2.055   3.975   1.890 -0.1632 -0.5339 -0.4641
 5261SOL     OW27418   2.282   1.043  12.312 -0.3495  0.2412 -0.0405
 5261SOL    HW127419   2.252   0.981  12.246 -1.0723 -0.2855  0.7881
 5261SOL    HW227420   2.322   0.977  12.368 -0.8231  0.4230  0.5092
 5262SOL     OW27421   1.493   0.943   9.001 -0.4351  0.5161 -0.3868
 5262SOL    HW127422   1.502   1.028   9.044  0.8958 -1.2889  2.8925
 5262SOL    HW227423   1.522   0.884   9.070  0.1014  1.0765 -0.1274
 5263SOL     OW27424   0.898   0.126  16.523  0.0753 -0.7521 -0.1664
 5263SOL    HW127425   0.804   0.126  16.537  0.2594 -0.8080  1.0374
 5263SOL    HW227426   0.906   0.058  16.456 -1.5572 -0.0953 -1.0256
 5264SOL     OW27427   0.113   1.613   4.972 -0.5397 -0.1437  0.3281
 5264SOL    HW127428   0.089   1.695   5.017  2.9995  0.3626  1.2515
 5264SOL    HW227429   0.024   1.584   4.950 -0.5850 -1.4191  2.1430
 5265SOL     OW27430   3.473   1.211   8.936 -0.5384 -0.5912  0.2653
 5265SOL    HW127431   3.484   1.301   8.966 -1.2534 -0.5439  0.3805
 5265SOL    HW227432   3.556   1.197   8.891 -0.0144  0.9196  0.7650
 5266SOL     OW27433   4.649   3.831   7.654  0.2271  0.1387  0.1296
 5266SOL    HW127434   4.680   3.798   7.571  1.8684 -0.5425  1.0242
 5266SOL    HW227435   4.665   3.756   7.711 -2.7724 -1.5428 -1.2318
 5267SOL     OW27436   3.920   4.050  14.084  0.0777 -0.1559 -0.7273
 5267SOL    HW127437   3.949   4.022  14.171 -1.1483 -2.5532 -1.0833
 5267SOL    HW227438   3.830   4.084  14.088  0.1214 -0.2512  0.9915
 5268SOL     OW27439   0.652   2.251   8.996 -0.0530 -0.1190 -0.0750
 5268SOL    HW127440   0.665   2.343   9.021  2.0886  0.1485 -2.1515
 5268SOL    HW227441   0.594   2.238   9.071 -0.2447 -0.6630 -0.3152
 5269SOL     OW27442   1.012   3.875   8.461 -0.2866 -0.3163 -0.2868
 5269SOL    HW127443   1.009   3.902   8.369  0.7200 -0.9525 -0.5044
 5269SOL    HW227444   1.033   3.957   8.505 -2.2210 -0.6699  1.3247
 5270SOL     OW27445   3.575   2.134   2.769 -1.0167  0.8832 -0.4486
 5270SOL    HW127446   3.648   2.088   2.810 -2.2038 -0.9230 -0.3584
 5270SOL    HW227447   3.581   2.111   2.676  1.0585 -1.1460  0.1795
 5271SOL     OW27448   1.250   2.612   5.725  0.0388  0.3811 -0.3391
 5271SOL    HW127449   1.246   2.677   5.796 -0.4881  2.3739 -2.2015
 5271SOL    HW227450   1.184   2.556   5.765 -0.3366  0.5595 -0.7127
 5272SOL     OW27451   4.339   0.781   4.605 -0.6258  0.1471  0.5227
 5272SOL    HW127452   4.307   0.730   4.679  0.8485 -0.0221  1.0400
 5272SOL    HW227453   4.381   0.858   4.643 -1.0052  0.2753  0.6753
 5273SOL     OW27454   0.712   3.825  10.656 -0.3872 -0.0890 -0.1712
 5273SOL    HW127455   0.687   3.889  10.589 -2.0915  0.1628  0.7004
 5273SOL    HW227456   0.807   3.834  10.659 -0.3105 -0.8607 -0.2573
 5274SOL     OW27457   3.338   2.740   1.342 -0.1522 -0.3524  0.3013
 5274SOL    HW127458   3.275   2.676   1.310 -0.5595 -0.1051  0.6159
 5274SOL    HW227459   3.292   2.806   1.393 -1.8699 -1.2976 -0.0442
 5275SOL     OW27460   2.410   2.026   8.241  0.1885  0.2744 -0.4335
 5275SOL    HW127461   2.427   1.932   8.254 -0.1194  0.0795 -1.4709
 5275SOL    HW227462   2.338   2.035   8.303  1.5770  0.4348  1.1567
 5276SOL     OW27463   2.356   4.539   4.399 -0.0464 -0.2559 -0.0002
 5276SOL    HW127464   2.288   4.557   4.464  0.0968 -0.2448  0.1472
 5276SOL    HW227465   2.347   4.622   4.353 -1.6841 -1.0135 -1.0243
 5277SOL     OW27466   3.759   1.465   0.057 -0.1207 -0.2561  0.2503
 5277SOL    HW127467   3.834   1.478  17.750 -0.4890 -0.3305 -0.2532
 5277SOL    HW227468   3.722   1.389   0.012 -2.1643  0.6940  0.3238
 5278SOL     OW27469   4.724   1.592   8.404 -0.1577 -0.0993 -1.0107
 5278SOL    HW127470   4.651   1.644   8.440  1.3391  0.8811  0.5960
 5278SOL    HW227471   4.663   1.535   8.358  0.2165 -1.1206 -0.2300
 5279SOL     OW27472   0.044   2.968   9.160  0.5095 -0.2545 -0.0968
 5279SOL    HW127473   0.081   2.977   9.247 -1.6766 -1.6318  0.9722
 5279SOL    HW227474   4.710   3.031   9.159  1.1093  0.4335  0.5182
 5280SOL     OW27475   2.554   2.706   3.913  0.3483 -0.1547  0.3066
 5280SOL    HW127476   2.627   2.644   3.914  0.4237 -0.0606  0.6943
 5280SOL    HW227477   2.600   2.786   3.936 -2.4021  1.0512  1.6011
 5281SOL     OW27478   4.011   2.714   3.313  0.4003 -0.8089 -0.1997
 5281SOL    HW127479   3.935   2.659   3.294 -0.1348 -0.0697 -0.1881
 5281SOL    HW227480   4.038   2.727   3.222 -3.1211  1.7742 -0.8824
 5282SOL     OW27481   4.067   1.436   4.226 -0.5680  0.2833 -1.0704
 5282SOL    HW127482   4.076   1.510   4.285  0.0316 -0.2349 -0.5046
 5282SOL    HW227483   3.979   1.404   4.244  0.1060 -1.1249 -0.1800
 5283SOL     OW27484   1.355   1.755  12.403 -0.5407  0.0698 -0.2751
 5283SOL    HW127485   1.400   1.806  12.336  0.6448  1.4265  1.5270
 5283SOL    HW227486   1.275   1.803  12.425  1.0397  2.2972  0.5769
 5284SOL     OW27487   0.679   1.083   3.036  0.6435  0.2377 -0.3054
 5284SOL    HW127488   0.718   1.063   3.121 -1.2349 -2.3632 -0.0589
 5284SOL    HW227489   0.667   1.177   3.048  0.1433  0.1427 -0.0493
 5285SOL     OW27490   2.209   1.009   5.218  0.1470  0.2067 -0.6760
 5285SOL    HW127491   2.285   1.056   5.253 -0.4047 -0.2740  1.1780
 5285SOL    HW227492   2.228   0.918   5.242  1.5014  0.5136 -0.5980
 5286SOL     OW27493   0.768   0.073  11.542  0.0571  0.0384 -0.6581
 5286SOL    HW127494   0.835   0.090  11.609 -1.0606 -0.5732  0.6104
 5286SOL    HW227495   0.787   4.721  11.516  0.4286 -1.0734  3.5263
 5287SOL     OW27496   4.138   2.687   8.519 -0.3741  0.7828 -1.1688
 5287SOL    HW127497   4.143   2.651   8.608  0.3284 -2.0477 -2.3229
 5287SOL    HW227498   4.135   2.610   8.462 -3.0440 -0.6835  0.9547
 5288SOL     OW27499   2.588   4.393   6.644 -0.0761  0.4025 -0.4690
 5288SOL    HW127500   2.614   4.309   6.683  1.8787  0.2892 -2.0086
 5288SOL    HW227501   2.494   4.401   6.665  0.2231  1.2519  0.5440
 5289SOL     OW27502   2.968   2.855  14.074  0.5716  0.1162 -0.4891
 5289SOL    HW127503   2.993   2.770  14.112  0.9211 -0.4309 -1.9312
 5289SOL    HW227504   2.906   2.890  14.138  0.1112 -1.1301 -0.2420
 5290SOL     OW27505   2.850   2.642   4.606 -0.0297  0.2056 -0.2237
 5290SOL    HW127506   2.887   2.686   4.683  2.0713 -1.1683 -0.4382
 5290SOL    HW227507   2.830   2.560   4.650  1.6862 -0.7295 -1.1781
 5291SOL     OW27508   4.284   0.636  15.302  0.1518 -0.1721  0.3442
 5291SOL    HW127509   4.259   0.660  15.392  1.7976 -2.2075  1.3572
 5291SOL    HW227510   4.211   0.580  15.277  0.1554 -0.9342  2.0054
 5292SOL     OW27511   2.383   1.507   8.425 -0.1283  0.0787 -0.3960
 5292SOL    HW127512   2.438   1.553   8.487 -1.0767  1.4616 -0.5694
 5292SOL    HW227513   2.322   1.471   8.489  0.8204  0.5573  0.7651
 5293SOL     OW27514   0.777   0.092   5.384  0.0700  0.5943  0.2151
 5293SOL    HW127515   0.734   0.065   5.465  0.6905 -2.4256 -0.4728
 5293SOL    HW227516   0.811   0.181   5.398 -0.7681  0.5854  2.2936
 5294SOL     OW27517   1.791   4.658   1.760 -0.3027  0.8288  0.3557
 5294SOL    HW127518   1.748   4.573   1.748 -2.1481  1.9206 -0.8832
 5294SOL    HW227519   1.836   4.645   1.843  0.3115  0.4971 -0.0285
 5295SOL     OW27520   3.138   0.040   9.264 -0.2198 -0.1804  0.0070
 5295SOL    HW127521   3.175   0.093   9.335  1.6777 -3.7148  1.6105
 5295SOL    HW227522   3.197   4.705   9.278 -1.4738 -0.5844  3.2366
 5296SOL     OW27523   3.250   3.757  16.646  0.1657 -0.2323  0.3912
 5296SOL    HW127524   3.183   3.808  16.601  0.1691 -1.9278 -1.5485
 5296SOL    HW227525   3.275   3.813  16.720 -2.8052  1.6303 -0.0035
 5297SOL     OW27526   2.807   3.178  11.998  0.2613 -0.2252  0.5257
 5297SOL    HW127527   2.838   3.249  12.054  0.4426  1.5287 -1.8252
 5297SOL    HW227528   2.808   3.219  11.912  0.4630  1.1920  1.2069
 5298SOL     OW27529   4.586   3.057   6.316 -0.2729  0.2552 -0.1237
 5298SOL    HW127530   4.561   3.092   6.231 -0.6442 -2.3808 -1.1167
 5298SOL    HW227531   4.501   3.043   6.357 -0.2571  0.2885 -0.0789
 5299SOL     OW27532   0.983   0.677   0.972 -0.2139 -0.0491  0.0172
 5299SOL    HW127533   0.903   0.668   1.024 -0.6301  0.4410 -0.5337
 5299SOL    HW227534   0.953   0.635   0.891  0.4343  1.0251 -0.7831
 5300SOL     OW27535   3.662   0.896   9.037 -0.0152  0.0970 -0.2582
 5300SOL    HW127536   3.605   0.820   9.042  3.6348 -2.6100 -0.2586
 5300SOL    HW227537   3.627   0.946   9.111  0.2611 -0.8656  0.5121
 5301SOL     OW27538   4.255   3.498  10.194  0.0937 -0.3383 -0.3974
 5301SOL    HW127539   4.298   3.562  10.251  1.1015 -1.3995  0.0232
 5301SOL    HW227540   4.194   3.456  10.255  2.2506 -1.2834  1.0900
 5302SOL     OW27541   2.577   1.072   7.801 -0.2800 -0.1005 -0.0329
 5302SOL    HW127542   2.504   1.131   7.818 -1.0239 -0.0412 -3.3306
 5302SOL    HW227543   2.653   1.129   7.786  0.9342 -2.2117 -1.9688
 5303SOL     OW27544   1.751   4.589   2.419  0.4197 -0.2650  0.6126
 5303SOL    HW127545   1.732   4.639   2.340  2.0932 -1.5837 -0.6467
 5303SOL    HW227546   1.833   4.621   2.457  1.5437 -2.0606 -0.2929
 5304SOL     OW27547   0.149   2.612   2.533 -0.2687 -0.1694 -0.8485
 5304SOL    HW127548   0.068   2.627   2.583  1.6083  2.1987  1.4737
 5304SOL    HW227549   0.108   2.598   2.448  0.8034 -0.1094 -1.3773
 5305SOL     OW27550   3.343   0.834   1.468  0.4918  0.2063  0.2480
 5305SOL    HW127551   3.270   0.860   1.412  2.1037  1.6293 -1.1936
 5305SOL    HW227552   3.381   0.921   1.480  0.2723  0.5146 -1.2746
 5306SOL     OW27553   0.806   1.746   2.842  0.0230  0.2398 -0.1280
 5306SOL    HW127554   0.811   1.691   2.921 -0.7230  0.7161  0.2515
 5306SOL    HW227555   0.732   1.709   2.795  1.0472 -0.3876 -1.2572
 5307SOL     OW27556   1.763   3.736   8.212  0.7593 -0.0847 -0.2516
 5307SOL    HW127557   1.748   3.767   8.122 -2.4800 -0.5840  0.1228
 5307SOL    HW227558   1.825   3.799   8.249 -0.9041  2.4814 -1.7823
 5308SOL     OW27559   0.717   2.350   4.221 -0.1049 -0.3646  0.4088
 5308SOL    HW127560   0.787   2.376   4.282  0.1519  1.3796 -0.6319
 5308SOL    HW227561   0.723   2.422   4.159 -4.3806 -0.2716  0.1269
 5309SOL     OW27562   2.067   1.252   8.530 -0.1161 -0.5675 -0.0915
 5309SOL    HW127563   2.100   1.233   8.442 -1.7386 -1.2766 -0.5410
 5309SOL    HW227564   2.143   1.282   8.581 -1.2842 -0.2403  1.4302
 5310SOL     OW27565   0.491   2.782   6.935  0.0593  0.4404 -0.2983
 5310SOL    HW127566   0.397   2.773   6.948  0.1278  0.2516  0.0807
 5310SOL    HW227567   0.522   2.712   6.994 -0.7920  1.1829  1.0341
 5311SOL     OW27568   3.561   0.035   1.865 -0.2109  0.4605 -0.0309
 5311SOL    HW127569   3.593   4.721   1.938 -1.3925 -0.3903 -0.1188
 5311SOL    HW227570   3.475   4.736   1.846 -0.6586  1.1054  0.7299
 5312SOL     OW27571   1.514   4.353   7.061 -0.7556 -0.4153  0.0541
 5312SOL    HW127572   1.591   4.356   7.118 -1.2865  0.8097  0.6964
 5312SOL    HW227573   1.514   4.259   7.041 -0.7400 -0.0114 -1.8270
 5313SOL     OW27574   0.400   3.573   6.451  0.0996 -0.3281 -0.4736
 5313SOL    HW127575   0.323   3.630   6.449 -0.4817 -1.1047 -0.3560
 5313SOL    HW227576   0.468   3.614   6.398  0.8226  0.9121  1.4005
 5314SOL     OW27577   0.711   3.194  11.209  0.4809 -0.3374  0.1373
 5314SOL    HW127578   0.771   3.124  11.181  2.2932  0.7203  1.3171
 5314SOL    HW227579   0.756   3.277  11.192 -0.0210  0.0775  0.8202
 5315SOL     OW27580   3.126   4.359   8.664  0.0921  0.0395  0.0650
 5315SOL    HW127581   3.215   4.359   8.631  0.2858 -1.3341  0.5604
 5315SOL    HW227582   3.089   4.397   8.584 -3.8268 -0.2396  1.7080
 5316SOL     OW27583   1.220   1.346  16.329 -0.0301 -0.0063  0.1360
 5316SOL    HW127584   1.231   1.259  16.366  0.2176 -0.5572 -1.2506
 5316SOL    HW227585   1.175   1.395  16.399  0.7931  0.3003  0.4574
 5317SOL     OW27586   1.162   0.016  13.239 -0.4926  0.3525 -0.2083
 5317SOL    HW127587   1.146   0.068  13.317  0.1804  2.0844 -1.2167
 5317SOL    HW227588   1.095   4.687  13.225  1.2616 -1.2820 -0.9142
 5318SOL     OW27589   3.990   3.607   4.862 -0.0687 -0.0416 -0.3725
 5318SOL    HW127590   3.956   3.572   4.945  0.6435 -0.3119 -0.2012
 5318SOL    HW227591   3.930   3.680   4.849  0.7635  0.5879 -0.6355
 5319SOL     OW27592   0.017   0.292   8.574  0.4710 -0.5935 -0.4707
 5319SOL    HW127593   0.051   0.360   8.515 -0.5209  1.0895  0.8773
 5319SOL    HW227594   4.735   0.222   8.512  0.5451  0.4291 -1.6583
 5320SOL     OW27595   2.537   0.433  13.341 -0.4236 -0.2571  0.1752
 5320SOL    HW127596   2.496   0.487  13.273  0.8188  0.8625  0.3142
 5320SOL    HW227597   2.556   0.494  13.413  0.6204  1.3899 -1.4984
 5321SOL     OW27598   3.890   4.437   9.194 -0.2690  0.3927 -0.0108
 5321SOL    HW127599   3.843   4.487   9.261 -2.0204 -3.4775  1.6478
 5321SOL    HW227600   3.977   4.443   9.233  1.0246  3.6960 -3.3616
 5322SOL     OW27601   2.971   0.534   7.867 -0.2768  0.1608 -0.3506
 5322SOL    HW127602   2.959   0.541   7.962  3.0429  1.3627 -0.0162
 5322SOL    HW227603   3.005   0.621   7.848 -0.4675  0.3871  0.3558
 5323SOL     OW27604   1.465   0.060   5.086  0.6373 -0.0631 -0.0480
 5323SOL    HW127605   1.500   4.717   5.051 -0.0333  0.1541 -1.2260
 5323SOL    HW227606   1.487   0.122   5.017  0.7673 -0.7822 -0.6495
 5324SOL     OW27607   3.665   1.091   4.278 -0.2978 -0.7458 -0.3432
 5324SOL    HW127608   3.599   1.083   4.346  0.7195 -1.1196  0.5918
 5324SOL    HW227609   3.743   1.075   4.331 -0.9965  2.5121  1.6009
 5325SOL     OW27610   2.852   4.528   7.705 -0.1753 -0.3962  0.1747
 5325SOL    HW127611   2.799   4.579   7.766 -1.4536  0.2207 -1.4316
 5325SOL    HW227612   2.824   4.438   7.720  0.2291 -0.7171 -0.9967
 5326SOL     OW27613   2.332   4.705  16.444 -0.2754  0.0571  0.0150
 5326SOL    HW127614   2.377   0.035  16.494  0.3963 -0.3696 -0.0050
 5326SOL    HW227615   2.368   4.626  16.483  0.0368  1.5024  2.6734
 5327SOL     OW27616   3.402   0.570   1.446  0.2824 -0.1640 -1.2229
 5327SOL    HW127617   3.382   0.661   1.468  2.3908  0.6135 -2.5368
 5327SOL    HW227618   3.369   0.563   1.357 -1.3273  1.8439 -0.7871
 5328SOL     OW27619   2.558   2.783   8.814  0.5741 -0.0093  0.0208
 5328SOL    HW127620   2.555   2.689   8.832 -1.2196  0.0677  0.1132
 5328SOL    HW227621   2.525   2.815   8.898 -0.2902 -1.0194  0.0649
 5329SOL     OW27622   4.114   4.222  10.636  0.3211  0.3179 -0.4126
 5329SOL    HW127623   4.063   4.300  10.658  0.6221  0.5493 -0.5478
 5329SOL    HW227624   4.051   4.164  10.592  1.4610  0.1238 -1.7950
 5330SOL     OW27625   4.242   2.658   6.084 -0.0871  0.6783 -0.0175
 5330SOL    HW127626   4.169   2.720   6.089 -0.5117  0.3082 -1.8432
 5330SOL    HW227627   4.222   2.597   6.155 -1.6148  1.7175  0.4389
 5331SOL     OW27628   1.126   1.618  12.689  0.2713  0.4261  0.3090
 5331SOL    HW127629   1.114   1.706  12.726 -1.0835  0.7666 -0.9483
 5331SOL    HW227630   1.186   1.582  12.755  0.0026 -1.1583 -0.3118
 5332SOL     OW27631   2.240   3.804   2.021 -0.1553 -0.0009  0.2300
 5332SOL    HW127632   2.260   3.898   2.016 -0.4707  0.0997  0.9476
 5332SOL    HW227633   2.275   3.774   1.936 -4.7568 -0.1362 -1.6168
 5333SOL     OW27634   3.525   2.743  14.712 -0.3268  0.1334  0.2003
 5333SOL    HW127635   3.588   2.756  14.783 -1.7238  0.6950  1.3479
 5333SOL    HW227636   3.563   2.673  14.660  0.4952 -1.2902  2.7247
 5334SOL     OW27637   1.886   4.550   8.410  0.1434 -0.5644 -0.0466
 5334SOL    HW127638   1.977   4.577   8.394 -0.4887  0.1955 -2.4718
 5334SOL    HW227639   1.901   4.468   8.457  0.7868  0.6544  1.8849
 5335SOL     OW27640   0.935   2.216   3.686  0.3269 -0.1709 -0.0941
 5335SOL    HW127641   0.861   2.258   3.643  0.5101 -0.9367 -1.1420
 5335SOL    HW227642   0.904   2.183   3.770  0.8207  0.3504  0.2920
 5336SOL     OW27643   3.209   0.080   7.884 -0.4078 -0.1648  0.2522
 5336SOL    HW127644   3.116   0.100   7.880  0.3327  3.1985 -0.3598
 5336SOL    HW227645   3.207   4.727   7.911  1.0136 -0.1671  0.3793
 5337SOL     OW27646   1.984   2.815  10.642  0.1468  0.0755 -0.5107
 5337SOL    HW127647   1.956   2.853  10.725  0.1066  1.4844 -1.1579
 5337SOL    HW227648   2.039   2.743  10.672  1.9624  2.3440  1.5604
 5338SOL     OW27649   2.271   3.360   5.343 -0.7020 -0.6573 -1.0104
 5338SOL    HW127650   2.288   3.347   5.250  0.6204 -1.3280 -0.6878
 5338SOL    HW227651   2.340   3.423   5.365 -1.1316  0.2546 -2.3509
 5339SOL     OW27652   1.535   2.571   0.910  0.1830 -0.3806 -0.0661
 5339SOL    HW127653   1.595   2.499   0.890  1.1908  0.6987 -0.9077
 5339SOL    HW227654   1.533   2.556   1.004 -1.2164 -1.0617 -0.1997
 5340SOL     OW27655   2.126   2.692   3.274  0.7666  0.0980 -0.0352
 5340SOL    HW127656   2.108   2.600   3.295  0.4548  0.5021  1.4457
 5340SOL    HW227657   2.218   2.685   3.298  0.2857 -0.1150  1.7622
 5341SOL     OW27658   2.259   0.006  17.255 -0.3961  0.3874  0.2452
 5341SOL    HW127659   2.200   0.035  17.325  0.9669 -0.1384  1.6108
 5341SOL    HW227660   2.298   4.667  17.298  1.3915  1.3862  0.4056
 5342SOL     OW27661   3.652   1.390  10.714  0.5031 -0.1647 -0.1166
 5342SOL    HW127662   3.591   1.318  10.731  0.3370 -0.3507 -1.5296
 5342SOL    HW227663   3.689   1.366  10.629  1.1565 -3.0912  0.9879
 5343SOL     OW27664   0.111   0.750  11.784 -0.6410 -0.1630 -0.2728
 5343SOL    HW127665   0.096   0.729  11.876  1.0302 -1.5270 -0.3134
 5343SOL    HW227666   0.202   0.777  11.788 -0.6124 -0.1061 -1.3928
 5344SOL     OW27667   3.590   3.489   7.682 -0.1961 -0.4931 -0.5800
 5344SOL    HW127668   3.668   3.486   7.625 -0.4501  5.1638 -1.1343
 5344SOL    HW227669   3.522   3.475   7.616 -0.0782  0.9911 -1.0077
 5345SOL     OW27670   3.054   0.953   8.250 -0.5251 -0.8323 -0.4570
 5345SOL    HW127671   2.962   0.951   8.225 -0.2943 -1.0523 -1.3054
 5345SOL    HW227672   3.094   0.909   8.174 -0.3880 -0.1650 -0.7728
 5346SOL     OW27673   3.502   0.350  12.491 -0.0549  0.1527  0.5073
 5346SOL    HW127674   3.506   0.438  12.530 -0.7134  0.4833 -0.1610
 5346SOL    HW227675   3.411   0.330  12.515 -0.2498 -0.8188 -1.0165
 5347SOL     OW27676   4.123   3.787  11.358  0.2503 -0.9302  0.1356
 5347SOL    HW127677   4.163   3.711  11.399  1.4804 -0.1247  0.4122
 5347SOL    HW227678   4.098   3.838  11.435  0.3582 -1.3948  0.4792
 5348SOL     OW27679   0.674   2.614   7.051 -0.0891 -0.2469 -0.1634
 5348SOL    HW127680   0.706   2.542   6.996  1.5313  0.4571 -0.1565
 5348SOL    HW227681   0.641   2.571   7.130  0.2328 -0.3438 -0.0804
 5349SOL     OW27682   4.436   2.886   4.401 -0.3045  0.5246 -0.1159
 5349SOL    HW127683   4.494   2.815   4.428 -1.3158  0.6555  2.3469
 5349SOL    HW227684   4.431   2.867   4.307 -1.9436  0.5789 -0.0310
 5350SOL     OW27685   0.086   3.287   0.778 -0.3142 -0.4187 -0.8752
 5350SOL    HW127686   0.028   3.346   0.729  1.0733  2.3795  0.8557
 5350SOL    HW227687   0.026   3.219   0.808  1.1197 -1.1992  0.1776
 5351SOL     OW27688   4.364   3.141  17.277 -0.1312  0.5753  0.5364
 5351SOL    HW127689   4.434   3.078  17.259 -3.0683 -2.0711 -1.6789
 5351SOL    HW227690   4.304   3.120  17.206  2.8036 -0.4464 -1.6403
 5352SOL     OW27691   2.246   1.409   0.628  0.2137 -0.4694  0.0838
 5352SOL    HW127692   2.245   1.467   0.551  0.1229  0.5766  0.8667
 5352SOL    HW227693   2.159   1.431   0.662  0.9493 -0.0899  1.7284
 5353SOL     OW27694   3.078   4.375   6.036 -1.4688 -0.8110  0.3916
 5353SOL    HW127695   3.005   4.437   6.030  1.1353  2.3049  0.6686
 5353SOL    HW227696   3.051   4.292   5.998  0.2796 -1.6629  0.9926
 5354SOL     OW27697   3.269   1.150   8.066  0.5089  0.1036 -0.0471
 5354SOL    HW127698   3.319   1.086   8.116 -0.2881 -0.4418  0.0515
 5354SOL    HW227699   3.223   1.188   8.140 -1.0661 -2.2821  0.2170
 5355SOL     OW27700   4.338   4.451  14.580 -0.0944  0.7292  0.3914
 5355SOL    HW127701   4.270   4.384  14.593 -1.3848  1.8511 -0.5232
 5355SOL    HW227702   4.310   4.512  14.647 -2.7032 -0.7261  0.6409
 5356SOL     OW27703   2.502   4.200   1.056 -0.5114  0.4276  0.4679
 5356SOL    HW127704   2.529   4.283   1.096 -4.9631  2.4392 -0.7557
 5356SOL    HW227705   2.467   4.140   1.121 -0.4049  0.1250  0.2444
 5357SOL     OW27706   1.994   2.896   5.914  0.3159 -0.4261  0.4444
 5357SOL    HW127707   2.057   2.960   5.881 -0.4570 -0.3471 -0.8799
 5357SOL    HW227708   1.944   2.866   5.838  0.6383 -0.4191  0.2336
 5358SOL     OW27709   1.243   4.123  17.535  0.3680 -0.1072 -0.2732
 5358SOL    HW127710   1.204   4.196  17.487 -0.0367 -0.6724 -0.7978
 5358SOL    HW227711   1.290   4.084  17.460 -0.8059  0.3175 -1.2292
 5359SOL     OW27712   0.299   3.146  13.188 -0.5557 -0.4190  0.2731
 5359SOL    HW127713   0.214   3.104  13.174  0.2731 -2.2624  0.8266
 5359SOL    HW227714   0.346   3.096  13.122 -0.7738  0.1323 -0.3039
 5360SOL     OW27715   3.714   1.373  13.305 -0.0816  0.4156  0.0638
 5360SOL    HW127716   3.755   1.319  13.238  0.2039  1.7842 -0.8672
 5360SOL    HW227717   3.727   1.321  13.384 -2.4781  2.2581  1.6757
 5361SOL     OW27718   3.251   2.073   5.263  0.0334 -0.4057  0.5961
 5361SOL    HW127719   3.295   2.145   5.308  1.5375 -1.6999  1.2053
 5361SOL    HW227720   3.178   2.125   5.229 -0.7051 -0.8039  1.5793
 5362SOL     OW27721   0.275   4.286   7.255  0.1922 -0.7274 -0.1871
 5362SOL    HW127722   0.252   4.270   7.346 -0.3622  1.7400  0.1186
 5362SOL    HW227723   0.203   4.238   7.215 -0.7690  0.1244  0.5319
 5363SOL     OW27724   2.385   1.995   9.460  0.1016 -0.0116  0.2093
 5363SOL    HW127725   2.385   1.990   9.364 -1.9218  0.6092  0.1677
 5363SOL    HW227726   2.406   2.087   9.478  1.5035 -0.0244 -1.3660
 5364SOL     OW27727   1.870   1.838   4.892 -0.4195 -0.3321 -0.0486
 5364SOL    HW127728   1.886   1.892   4.815 -0.9850  0.5786  0.4736
 5364SOL    HW227729   1.915   1.889   4.959  2.7352 -0.3052 -2.1762
 5365SOL     OW27730   1.970   1.426   1.943 -0.4764 -0.1399  0.1639
 5365SOL    HW127731   1.887   1.465   1.915 -0.2024 -0.0257 -0.5083
 5365SOL    HW227732   1.940   1.335   1.941 -0.9434  0.0158  0.1387
 5366SOL     OW27733   0.078   1.790  17.478 -0.3231  0.4683 -0.2829
 5366SOL    HW127734   0.001   1.846  17.476 -0.7225 -0.1165 -1.5699
 5366SOL    HW227735   0.076   1.747  17.564  1.0305  0.3852 -0.2857
 5367SOL     OW27736   1.710   3.476   3.198 -0.0555 -0.2893 -0.4032
 5367SOL    HW127737   1.721   3.445   3.288 -0.1580 -0.1611 -0.3464
 5367SOL    HW227738   1.689   3.568   3.213 -1.9567 -0.6939 -0.5716
 5368SOL     OW27739   2.816   0.783  11.263  0.2937 -0.3156  0.6732
 5368SOL    HW127740   2.794   0.871  11.232  0.2946 -0.1070  1.2540
 5368SOL    HW227741   2.905   0.792  11.295  0.4820 -2.7136  0.8487
 5369SOL     OW27742   1.342   2.844   0.624 -0.4901 -0.2904 -0.2245
 5369SOL    HW127743   1.325   2.866   0.716  0.1543  0.6348 -0.3261
 5369SOL    HW227744   1.435   2.821   0.633 -0.0617  1.2041 -0.9203
 5370SOL     OW27745   1.057   3.686   7.430 -0.4327  0.6125 -0.0783
 5370SOL    HW127746   1.068   3.600   7.388  4.4728  0.8382  0.7969
 5370SOL    HW227747   1.023   3.651   7.513  1.2491  0.8129  0.6842
 5371SOL     OW27748   3.150   3.489   1.467 -0.1598 -0.2929 -0.4917
 5371SOL    HW127749   3.071   3.450   1.505  0.5125 -1.4958 -0.3217
 5371SOL    HW227750   3.198   3.420   1.422  0.3270 -0.1869 -0.1378
 5372SOL     OW27751   4.256   0.932   2.871 -0.2289  0.5903  0.4297
 5372SOL    HW127752   4.189   1.000   2.872 -0.4960  0.3236  0.7696
 5372SOL    HW227753   4.338   0.975   2.849 -1.9836  1.5694 -4.2554
 5373SOL     OW27754   4.338   4.375  12.364  0.4310 -0.0598  0.6292
 5373SOL    HW127755   4.264   4.397  12.420  0.8485  0.8015  0.8516
 5373SOL    HW227756   4.320   4.289  12.326  1.1782  0.5293 -1.0688
 5374SOL     OW27757   3.642   2.124   1.391  0.0613  0.1054  0.3368
 5374SOL    HW127758   3.709   2.169   1.339  0.5112  0.1382  0.9435
 5374SOL    HW227759   3.573   2.107   1.326  0.4476 -0.4144  0.0684
 5375SOL     OW27760   1.467   0.701   8.866 -0.3118 -0.1546 -0.1579
 5375SOL    HW127761   1.375   0.693   8.890  0.2390  0.6786  2.2573
 5375SOL    HW227762   1.485   0.785   8.906  0.7127 -0.7711  0.6666
 5376SOL     OW27763   1.724   3.283   2.025  0.1364 -0.1645 -0.2144
 5376SOL    HW127764   1.803   3.334   2.007  1.1025 -1.6349 -0.1773
 5376SOL    HW227765   1.659   3.329   1.972  0.8455  2.7012  1.4279
 5377SOL     OW27766   4.482   3.151   2.867  0.2290 -0.3914 -0.5031
 5377SOL    HW127767   4.506   3.222   2.807  1.8839 -0.6642 -0.1510
 5377SOL    HW227768   4.517   3.194   2.945 -0.5367  0.7107 -0.7572
 5378SOL     OW27769   1.825   1.607  10.242 -1.0591  0.1077 -0.4057
 5378SOL    HW127770   1.865   1.620  10.327 -0.1682 -0.1747 -0.7795
 5378SOL    HW227771   1.840   1.690  10.196  2.2748 -1.9286 -2.9802
 5379SOL     OW27772   0.468   3.144   4.952 -0.1579 -0.5129 -0.0264
 5379SOL    HW127773   0.540   3.207   4.946 -1.1490  0.4401 -2.0035
 5379SOL    HW227774   0.492   3.096   5.031 -1.4439  0.1443  0.7566
 5380SOL     OW27775   1.718   0.473   4.112  0.5880 -0.3452  0.9780
 5380SOL    HW127776   1.715   0.419   4.033 -1.3235  1.3994 -0.1529
 5380SOL    HW227777   1.754   0.549   4.066 -1.6758 -0.4918 -1.0510
 5381SOL     OW27778   0.115   2.724   6.526 -0.4187  0.2292  0.2954
 5381SOL    HW127779   0.090   2.789   6.460 -0.1028 -0.8081 -0.8554
 5381SOL    HW227780   0.199   2.758   6.556  0.1530  1.2740 -2.4451
 5382SOL     OW27781   3.756   2.284   6.787 -0.2287 -0.5702 -0.1055
 5382SOL    HW127782   3.778   2.295   6.695 -0.9144 -1.8671 -0.4267
 5382SOL    HW227783   3.757   2.189   6.799  0.0899 -0.4725  0.6574
 5383SOL     OW27784   1.624   0.095   9.004  0.2846  0.3941 -0.5879
 5383SOL    HW127785   1.705   0.085   8.953  1.5760 -0.2773  1.6169
 5383SOL    HW227786   1.559   0.107   8.935 -0.0628 -1.9032 -0.6391
 5384SOL     OW27787   3.035   1.304   3.809 -0.1704  0.8197  0.2040
 5384SOL    HW127788   2.962   1.295   3.747  2.6501  0.1847 -3.0743
 5384SOL    HW227789   3.052   1.211   3.824 -2.2143  0.4436  0.2081
 5385SOL     OW27790   3.328   0.944  13.514 -0.3089  0.1382  0.8574
 5385SOL    HW127791   3.378   0.864  13.532  1.0327  0.0279 -3.3182
 5385SOL    HW227792   3.244   0.913  13.549 -0.4344  0.0297  0.4675
 5386SOL     OW27793   2.025   0.093   9.862  0.3537 -0.2011  0.1721
 5386SOL    HW127794   2.030   0.001   9.888 -0.2431  0.0228  1.1033
 5386SOL    HW227795   2.117   0.104   9.842  0.0689  0.8374 -0.5303
 5387SOL     OW27796   4.098   4.047   8.417  0.5676 -0.5571 -0.6355
 5387SOL    HW127797   4.129   4.102   8.345 -0.6815  0.8090 -0.1374
 5387SOL    HW227798   4.179   4.045   8.468  0.0752  0.2535  0.1772
 5388SOL     OW27799   1.144   3.153  16.681  0.5592  0.2800  0.6882
 5388SOL    HW127800   1.221   3.155  16.738  0.6359 -1.2310  0.6248
 5388SOL    HW227801   1.076   3.125  16.741  0.3929 -2.1691 -0.6415
 5389SOL     OW27802   0.517   1.074  11.323 -0.0701 -0.1279 -0.1009
 5389SOL    HW127803   0.573   1.149  11.340  0.4800 -0.5245 -0.1716
 5389SOL    HW227804   0.481   1.071  11.411 -0.6483  0.6224 -0.3143
 5390SOL     OW27805   3.979   4.021   1.576  0.1067  0.1025 -0.0301
 5390SOL    HW127806   3.971   3.979   1.490 -0.9120 -1.0850  0.6445
 5390SOL    HW227807   4.046   3.968   1.617  1.5891  2.2708  0.3367
 5391SOL     OW27808   3.293   2.629   7.689 -0.2110  0.0691  0.4458
 5391SOL    HW127809   3.286   2.714   7.733  0.9251 -0.6821  2.0332
 5391SOL    HW227810   3.280   2.651   7.596  1.5764 -0.7934 -0.0028
 5392SOL     OW27811   3.955   4.501   2.626 -0.4442  0.0236 -0.0762
 5392SOL    HW127812   3.941   4.435   2.694  2.4975 -1.2318 -0.6817
 5392SOL    HW227813   4.043   4.478   2.594 -0.1480  1.0161  0.0179
 5393SOL     OW27814   0.370   2.702  13.525  0.3729 -0.4093  0.2586
 5393SOL    HW127815   0.420   2.710  13.606  2.1122  2.8079 -1.1473
 5393SOL    HW227816   0.438   2.713  13.458  0.0811  0.5326  0.1202
 5394SOL     OW27817   1.591   1.162  16.177 -0.3762  0.6237  0.1277
 5394SOL    HW127818   1.594   1.209  16.093 -0.3821  1.7744  0.7771
 5394SOL    HW227819   1.515   1.103  16.171 -0.1699  0.3515  0.2004
 5395SOL     OW27820   1.955   1.285   9.673  0.5495 -0.0218  0.6695
 5395SOL    HW127821   1.909   1.363   9.704 -1.9025 -0.7416 -1.1643
 5395SOL    HW227822   2.001   1.316   9.595 -1.4429  1.9062  0.2601
 5396SOL     OW27823   1.929   1.845   2.145  0.0742 -0.6902 -0.1375
 5396SOL    HW127824   1.974   1.795   2.078  1.1012 -0.2678  0.2298
 5396SOL    HW227825   1.970   1.815   2.226  0.3893  2.4994  0.9189
 5397SOL     OW27826   1.468   4.502   1.977  0.1730  0.1336  0.3319
 5397SOL    HW127827   1.473   4.591   1.941  1.6021  1.2548  3.3307
 5397SOL    HW227828   1.374   4.513   1.987  0.3044  0.7569  0.8856
 5398SOL     OW27829   1.122   0.023  14.322  0.3980 -0.4894 -0.1361
 5398SOL    HW127830   1.180   4.696  14.281  1.0103 -1.1331  1.7419
 5398SOL    HW227831   1.090   0.083  14.255 -0.2804  2.2079  2.6198
 5399SOL     OW27832   4.578   2.761   5.762 -0.0603 -0.5053 -0.5097
 5399SOL    HW127833   4.569   2.745   5.856  1.1469 -2.8905 -0.7940
 5399SOL    HW227834   4.639   2.690   5.741  0.5099 -0.1995  0.1264
 5400SOL     OW27835   0.718   3.812   6.550  0.6192 -0.2051  0.0201
 5400SOL    HW127836   0.814   3.812   6.544  0.6695  0.3209  0.7958
 5400SOL    HW227837   0.694   3.723   6.524 -0.0914  0.0839 -0.2913
 5401SOL     OW27838   0.852   3.477   1.357  0.1514  0.1183 -0.5231
 5401SOL    HW127839   0.772   3.520   1.387  0.0024 -1.2655  1.0662
 5401SOL    HW227840   0.820   3.389   1.337 -0.9548  0.7443 -1.5202
 5402SOL     OW27841   0.285   3.694   8.754  0.1551 -0.4261  0.2282
 5402SOL    HW127842   0.319   3.736   8.675 -0.0362  1.3813  1.1103
 5402SOL    HW227843   0.359   3.688   8.815 -0.4808 -0.2741  1.0252
 5403SOL     OW27844   2.142   1.767   2.682  0.2578 -0.0396 -0.7842
 5403SOL    HW127845   2.186   1.736   2.602  0.5135 -2.0844  0.1344
 5403SOL    HW227846   2.054   1.775   2.645  0.8849 -0.7428 -2.4242
 5404SOL     OW27847   4.349   2.373   7.667  0.1569 -0.0956  0.2258
 5404SOL    HW127848   4.300   2.314   7.610  0.7016  1.1582 -1.5425
 5404SOL    HW227849   4.353   2.307   7.736  1.4231  0.3335  0.5648
 5405SOL     OW27850   0.631   1.505  12.246 -0.0139 -0.7331 -0.2929
 5405SOL    HW127851   0.668   1.464  12.324 -0.9260 -0.3539  0.3340
 5405SOL    HW227852   0.590   1.431  12.201 -2.1619  1.2983 -1.6472
 5406SOL     OW27853   1.683   4.420   2.856  0.1860  0.2963  0.0469
 5406SOL    HW127854   1.623   4.372   2.799 -0.5750 -0.1984  1.2547
 5406SOL    HW227855   1.634   4.412   2.938 -0.2924 -2.4903 -0.4864
 5407SOL     OW27856   0.728   2.779   9.322 -0.1712  0.1341 -0.1531
 5407SOL    HW127857   0.683   2.790   9.238  1.3206  4.4269 -0.3971
 5407SOL    HW227858   0.818   2.782   9.289 -0.0884  2.9226  0.3544
 5408SOL     OW27859   1.657   2.459   4.261  0.1362 -0.3532 -0.2373
 5408SOL    HW127860   1.623   2.547   4.245  2.2631  0.6684  0.7642
 5408SOL    HW227861   1.703   2.487   4.341  0.8065 -0.8222 -0.4540
 5409SOL     OW27862   2.866   3.636  16.362 -0.2865 -0.0256 -0.0332
 5409SOL    HW127863   2.874   3.717  16.311  0.4679 -1.7438 -2.6115
 5409SOL    HW227864   2.797   3.590  16.314 -1.1204  0.0754  1.0466
 5410SOL     OW27865   3.152   1.601   3.726  0.5374 -0.4537 -0.0893
 5410SOL    HW127866   3.066   1.637   3.746  0.1243 -2.2923  1.3717
 5410SOL    HW227867   3.147   1.521   3.777 -1.0708  0.4533  1.1867
 5411SOL     OW27868   2.784   0.348   4.386 -0.0918  0.7170 -0.8713
 5411SOL    HW127869   2.793   0.299   4.304 -0.4179 -1.6373  0.5162
 5411SOL    HW227870   2.693   0.379   4.381 -0.5401 -0.4265  0.3396
 5412SOL     OW27871   2.477   3.511   0.219  0.4679  0.0593  0.1632
 5412SOL    HW127872   2.393   3.551   0.243  0.6501  0.8179 -0.4616
 5412SOL    HW227873   2.480   3.533   0.125  0.3104  0.5059  0.2615
 5413SOL     OW27874   2.898   2.064   7.221  0.0889  0.4789  0.3862
 5413SOL    HW127875   2.855   2.012   7.289  1.8074 -0.7935  0.4921
 5413SOL    HW227876   2.971   2.084   7.278 -0.5427  0.1927  1.3055
 5414SOL     OW27877   3.177   4.167   0.777  0.1032 -0.0237 -0.1173
 5414SOL    HW127878   3.085   4.194   0.777 -0.5558 -2.2949  0.0003
 5414SOL    HW227879   3.170   4.073   0.793  0.2972 -0.2591 -1.4376
 5415SOL     OW27880   2.732   4.482   3.555  0.5391 -0.2229 -0.3113
 5415SOL    HW127881   2.675   4.556   3.572 -0.9639 -1.3337 -0.4846
 5415SOL    HW227882   2.707   4.426   3.629  1.6557  0.8035  0.8418
 5416SOL     OW27883   4.089   4.433   7.130  0.5020 -0.0327  0.7574
 5416SOL    HW127884   4.081   4.449   7.224  1.1398 -0.1191  0.8252
 5416SOL    HW227885   4.171   4.385   7.132  1.4474  1.6386  1.5144
 5417SOL     OW27886   2.487   4.157   5.242  0.1664 -0.2545 -0.2489
 5417SOL    HW127887   2.391   4.158   5.243  0.2310  2.8930  0.9826
 5417SOL    HW227888   2.511   4.186   5.154  0.5196 -0.7486 -0.3145
 5418SOL     OW27889   0.732   3.110  11.639 -0.3795 -0.0383  0.1616
 5418SOL    HW127890   0.707   3.091  11.730  2.1267  1.7196  1.2106
 5418SOL    HW227891   0.646   3.133  11.604 -0.1277  0.9199  0.1874
 5419SOL     OW27892   4.191   4.699   8.834 -0.6774 -0.5170 -0.1420
 5419SOL    HW127893   4.274   4.693   8.883 -0.1691 -2.3729 -1.2218
 5419SOL    HW227894   4.227   4.713   8.747 -1.8392 -0.8026 -0.6585
 5420SOL     OW27895   2.025   0.512  16.447  0.4466 -0.4050  0.1592
 5420SOL    HW127896   1.963   0.584  16.433  1.1957 -0.0254 -1.1483
 5420SOL    HW227897   1.966   0.438  16.461 -0.9992  0.7012 -0.1176
 5421SOL     OW27898   1.865   3.839   0.490 -0.3008  0.0847  0.0768
 5421SOL    HW127899   1.857   3.879   0.577  0.3157  0.3866 -0.0043
 5421SOL    HW227900   1.781   3.793   0.487  0.5229 -1.4743  1.1011
 5422SOL     OW27901   0.284   2.386   7.534  0.1357  0.8417 -0.0959
 5422SOL    HW127902   0.199   2.389   7.578 -0.8115  0.5636 -1.9025
 5422SOL    HW227903   0.267   2.329   7.459  0.0787 -0.8528  1.2068
 5423SOL     OW27904   0.411   3.112   7.359  0.2441  0.3708  0.3036
 5423SOL    HW127905   0.324   3.079   7.384 -0.4363 -0.7560 -3.6120
 5423SOL    HW227906   0.406   3.094   7.265  0.2572  0.0147  0.3682
 5424SOL     OW27907   2.076   2.888  13.147  0.7867  0.2159  0.2614
 5424SOL    HW127908   2.023   2.967  13.159 -1.6916 -1.3966 -0.1626
 5424SOL    HW227909   2.121   2.893  13.232  2.4417  1.1716 -0.6593
 5425SOL     OW27910   0.832   2.709   1.605 -0.0896  0.0382 -0.4828
 5425SOL    HW127911   0.846   2.779   1.670  0.9638 -0.9619  0.3617
 5425SOL    HW227912   0.811   2.758   1.526 -0.0979  2.9212  1.2815
 5426SOL     OW27913   4.233   3.233   7.061  0.3126 -0.9743 -0.2748
 5426SOL    HW127914   4.250   3.150   7.105 -0.7388 -1.9746 -1.7657
 5426SOL    HW227915   4.140   3.227   7.080 -0.1372  0.2714 -2.1334
 5427SOL     OW27916   0.506   4.011   5.809  0.4250 -0.2990 -0.1976
 5427SOL    HW127917   0.434   3.973   5.857  2.2414 -2.5091  0.7789
 5427SOL    HW227918   0.558   4.048   5.880  0.0555 -0.4585  0.1509
 5428SOL     OW27919   3.132   0.412  13.215 -0.4560  0.0398  0.0094
 5428SOL    HW127920   3.128   0.506  13.233  0.1171 -0.2827  1.7593
 5428SOL    HW227921   3.219   0.375  13.230 -1.4615 -1.6041  1.7698
 5429SOL     OW27922   3.233   1.273   3.509  0.1319  0.2889 -0.0189
 5429SOL    HW127923   3.191   1.209   3.452 -1.5682  1.5957 -0.2471
 5429SOL    HW227924   3.258   1.343   3.449  1.7824 -0.6081 -0.3789
 5430SOL     OW27925   1.378   1.793   6.518  0.0996 -0.6712 -0.4043
 5430SOL    HW127926   1.447   1.741   6.559  0.0208  0.5893  1.3377
 5430SOL    HW227927   1.367   1.861   6.584 -1.5289 -0.7724 -0.5838
 5431SOL     OW27928   0.756   2.343  13.658 -0.3092  0.2654 -0.0640
 5431SOL    HW127929   0.787   2.260  13.624  1.9872  1.5204 -1.0038
 5431SOL    HW227930   0.785   2.350  13.749  0.5677  2.2371 -0.5024
 5432SOL     OW27931   0.466   3.899   2.700  0.2285  0.4460  0.0091
 5432SOL    HW127932   0.475   3.892   2.795  0.8974  0.9924 -0.0157
 5432SOL    HW227933   0.388   3.954   2.693 -0.2954 -0.2237  0.5708
 5433SOL     OW27934   2.051   2.641   7.839  0.1394  0.1298  0.7476
 5433SOL    HW127935   2.040   2.675   7.750  3.1912  1.2935  0.8215
 5433SOL    HW227936   1.960   2.613   7.852 -0.0087  0.4695  0.4313
 5434SOL     OW27937   0.262   2.555  14.678 -0.1005 -0.2952  0.3539
 5434SOL    HW127938   0.327   2.510  14.732  0.6008 -0.4070 -0.5751
 5434SOL    HW227939   0.177   2.559  14.720  0.9827  1.1657  2.4285
 5435SOL     OW27940   4.532   3.088   3.407  0.3546  0.7283 -1.1371
 5435SOL    HW127941   4.449   3.124   3.376  0.7570  1.5696 -1.2340
 5435SOL    HW227942   4.525   3.005   3.360 -0.6320  0.7873 -1.0992
 5436SOL     OW27943   0.364   3.110   4.319 -0.3394 -0.3434 -0.1643
 5436SOL    HW127944   0.435   3.166   4.351 -1.0900  0.7445 -0.3647
 5436SOL    HW227945   0.370   3.033   4.376 -0.4251 -0.4629 -0.3180
 5437SOL     OW27946   2.071   3.032   5.193  0.7787 -0.1079 -0.4629
 5437SOL    HW127947   2.098   3.036   5.285  0.2959 -1.9713 -0.2408
 5437SOL    HW227948   1.994   2.975   5.201  0.7631 -0.1499 -0.9433
 5438SOL     OW27949   4.247   3.634   5.891 -0.3345 -0.4992 -0.1228
 5438SOL    HW127950   4.274   3.546   5.866 -3.2498 -1.4759  0.2255
 5438SOL    HW227951   4.162   3.646   5.849 -0.3081  1.3189  0.3440
 5439SOL     OW27952   4.132   3.237   8.036 -0.6197 -0.3024 -0.4941
 5439SOL    HW127953   4.057   3.180   8.022 -1.3803  0.1984  1.4689
 5439SOL    HW227954   4.197   3.167   8.032  0.1339  0.4570 -1.3865
 5440SOL     OW27955   1.390   2.198  17.497  0.3218  0.7837 -0.1564
 5440SOL    HW127956   1.426   2.183  17.410 -1.0031 -1.2289 -0.3592
 5440SOL    HW227957   1.340   2.117  17.509  0.5325  0.4763 -1.3466
 5441SOL     OW27958   3.775   0.046  12.041  0.6111  0.0260 -0.4338
 5441SOL    HW127959   3.764   0.063  12.135 -0.6975  1.2023 -0.7916
 5441SOL    HW227960   3.723   0.122  12.016 -1.1158 -0.9090  0.2853
 5442SOL     OW27961   0.705   1.291  11.334  0.1760  0.6061 -0.0162
 5442SOL    HW127962   0.761   1.290  11.411  1.5473 -1.1838 -1.0337
 5442SOL    HW227963   0.745   1.362  11.283  0.3070 -0.5798 -1.5716
 5443SOL     OW27964   0.492   3.403   4.607  1.0946 -0.1815  0.0945
 5443SOL    HW127965   0.557   3.335   4.626 -2.1026 -3.1682  0.3456
 5443SOL    HW227966   0.476   3.438   4.695 -0.8332 -0.0355 -0.3351
 5444SOL     OW27967   2.719   0.264   2.984 -0.3397  0.6032  0.6231
 5444SOL    HW127968   2.747   0.235   3.071  0.5895 -0.1716  0.0747
 5444SOL    HW227969   2.800   0.298   2.946 -0.2365 -0.4850 -0.1281
 5445SOL     OW27970   4.207   1.354   6.120  0.2734  0.9293  0.2581
 5445SOL    HW127971   4.264   1.419   6.161 -1.9557  1.3995  2.6278
 5445SOL    HW227972   4.247   1.272   6.149  0.5410  0.9237 -0.1305
 5446SOL     OW27973   3.615   2.389   1.546  0.0647 -0.7374 -0.2030
 5446SOL    HW127974   3.525   2.411   1.520 -0.1943 -1.0765  0.4055
 5446SOL    HW227975   3.630   2.308   1.498  1.6454  0.9115 -2.4574
 5447SOL     OW27976   1.972   0.214   0.613 -0.7987 -0.6261  0.1374
 5447SOL    HW127977   2.014   0.156   0.550  1.1245 -1.4902  2.2059
 5447SOL    HW227978   1.892   0.163   0.621 -1.8607  1.0124  0.0283
 5448SOL     OW27979   4.282   3.215   0.430 -0.2752 -0.2802  0.1794
 5448SOL    HW127980   4.360   3.174   0.393 -0.6792 -0.3675 -0.5854
 5448SOL    HW227981   4.224   3.139   0.429 -1.1437  0.3656  0.9422
 5449SOL     OW27982   1.609   4.260   4.367  0.1256  0.2101 -0.5237
 5449SOL    HW127983   1.703   4.268   4.351  0.2682  0.6144  0.5171
 5449SOL    HW227984   1.573   4.231   4.283  0.7230 -0.4527 -0.5523
 5450SOL     OW27985   1.340   3.553   5.831 -0.2801  0.4856 -0.1564
 5450SOL    HW127986   1.247   3.577   5.823 -0.1507  1.3845  0.9822
 5450SOL    HW227987   1.348   3.502   5.751  3.3412  0.0217  0.4864
 5451SOL     OW27988   2.976   2.153  16.392  0.1430 -0.3059 -0.0202
 5451SOL    HW127989   2.884   2.161  16.416 -0.1395  0.1907 -1.2247
 5451SOL    HW227990   3.013   2.077  16.436  0.4213 -0.1200  0.0671
 5452SOL     OW27991   3.762   4.261   7.025  0.2577 -0.3895 -0.3924
 5452SOL    HW127992   3.667   4.269   7.034  0.3626  0.2080  0.1848
 5452SOL    HW227993   3.782   4.313   6.947  0.3103 -0.2917 -0.3137
 5453SOL     OW27994   0.175   3.396   9.673  0.4048  0.3856 -0.1718
 5453SOL    HW127995   0.136   3.310   9.690  0.7289  0.6494  1.9228
 5453SOL    HW227996   0.256   3.367   9.630  1.1840 -0.6420  1.9870
 5454SOL     OW27997   3.741   3.613   2.282  0.1133  0.1591 -0.2080
 5454SOL    HW127998   3.740   3.519   2.299 -0.0079  0.2520  0.3260
 5454SOL    HW227999   3.667   3.619   2.222 -0.5891  0.1069  0.6425
 5455SOL     OW28000   1.062   3.608  12.531 -0.1309 -0.4677  0.4435
 5455SOL    HW128001   1.128   3.572  12.591 -0.5280  0.3964  1.4066
 5455SOL    HW228002   1.066   3.703  12.541  1.2477 -0.3811 -0.8691
 5456SOL     OW28003   0.731   3.400   8.903  0.2794  0.7984 -0.1060
 5456SOL    HW128004   0.686   3.415   8.820  2.7106  0.9758 -1.4016
 5456SOL    HW228005   0.756   3.488   8.932 -1.6937  0.6975  1.8652
 5457SOL     OW28006   3.795   4.476   1.762 -0.4667 -0.2367  0.1799
 5457SOL    HW128007   3.745   4.525   1.697 -0.2636  1.5897  1.3972
 5457SOL    HW228008   3.732   4.411   1.793 -1.5995 -0.2405 -2.1293
 5458SOL     OW28009   2.699   3.039   7.386  0.6520  0.1074  0.0384
 5458SOL    HW128010   2.781   3.088   7.390  0.4190  0.5214 -0.1520
 5458SOL    HW228011   2.738   2.952   7.393 -0.5999 -0.8080 -3.8786
 5459SOL     OW28012   1.579   0.730   5.602  0.1407  0.0739  0.2324
 5459SOL    HW128013   1.498   0.705   5.647  2.2065  0.7467  4.3199
 5459SOL    HW228014   1.545   0.758   5.517  0.5492 -0.3917 -0.0893
 5460SOL     OW28015   1.210   2.473   1.720 -0.4193  0.2132 -0.1657
 5460SOL    HW128016   1.192   2.504   1.809 -2.9870  2.3380 -1.4319
 5460SOL    HW228017   1.122   2.476   1.682 -0.2486 -1.0812 -0.6569
 5461SOL     OW28018   4.365   1.291   7.984  0.0541  0.5361 -0.3895
 5461SOL    HW128019   4.375   1.382   7.955 -0.8766 -0.4508 -3.8126
 5461SOL    HW228020   4.339   1.311   8.073 -0.2216  1.1029 -0.5992
 5462SOL     OW28021   0.788   3.172   7.715  0.3236  0.4165  0.0899
 5462SOL    HW128022   0.716   3.233   7.701  0.1744 -0.0952 -1.2555
 5462SOL    HW228023   0.853   3.228   7.671 -1.1507  1.9663 -0.1023
 5463SOL     OW28024   3.181   4.659   6.061  0.0584 -0.5351 -0.0942
 5463SOL    HW128025   3.088   4.654   6.080 -0.0348 -2.1580 -1.0578
 5463SOL    HW228026   3.216   4.612   6.136  0.3107 -1.0669 -0.5406
 5464SOL     OW28027   1.114   4.553   2.489 -0.1135  0.3933  0.0839
 5464SOL    HW128028   1.036   4.594   2.526 -0.7226 -0.6352 -0.0454
 5464SOL    HW228029   1.116   4.462   2.519  0.7804  0.6645  0.8151
 5465SOL     OW28030   0.266   0.897   6.295  0.2552  0.0736 -0.1338
 5465SOL    HW128031   0.200   0.908   6.227  0.8091 -3.2408 -1.1951
 5465SOL    HW228032   0.227   0.835   6.356  0.8334  0.7788  0.9642
 5466SOL     OW28033   3.407   1.255  11.521  0.5083  0.3617 -0.0241
 5466SOL    HW128034   3.479   1.221  11.574 -1.0976  2.6747  3.6849
 5466SOL    HW228035   3.395   1.186  11.456 -0.0904  1.5007 -1.1250
 5467SOL     OW28036   3.461   4.561   4.514  0.3601 -0.2210  0.3148
 5467SOL    HW128037   3.494   4.472   4.526 -3.3555 -1.6810 -0.2397
 5467SOL    HW228038   3.547   4.600   4.497  0.7130 -1.5792 -1.0539
 5468SOL     OW28039   1.385   4.103   4.432  0.2096  0.0781 -0.2140
 5468SOL    HW128040   1.420   4.024   4.473  0.2273 -1.0996 -2.4703
 5468SOL    HW228041   1.460   4.117   4.375  0.8127  0.6756  0.7293
 5469SOL     OW28042   0.564   1.535   5.710 -0.2786 -0.0301 -0.5592
 5469SOL    HW128043   0.496   1.503   5.651  0.1318  1.1425 -1.6867
 5469SOL    HW228044   0.591   1.467   5.771 -1.0225  0.1083 -0.0702
 5470SOL     OW28045   0.052   3.490   5.054  0.4278 -0.0441  0.4403
 5470SOL    HW128046   0.001   3.539   5.119  1.2004  0.4364  0.6824
 5470SOL    HW228047   4.720   3.448   5.004  2.1009  0.9332 -2.6857
 5471SOL     OW28048   0.069   1.048   8.203  0.0460  0.3681  0.4888
 5471SOL    HW128049   0.125   1.121   8.227  0.6385 -0.1600  0.7245
 5471SOL    HW228050   4.728   1.088   8.168  1.1203  1.0187 -1.1471
 5472SOL     OW28051   3.671   1.179   3.451  0.3179 -0.0264  0.7573
 5472SOL    HW128052   3.706   1.096   3.485 -0.8792 -0.0988  1.7746
 5472SOL    HW228053   3.714   1.172   3.365  1.7319 -1.3325  1.5713
 5473SOL     OW28054   1.118   0.114   7.527 -0.3061  0.2299  0.3596
 5473SOL    HW128055   1.112   0.111   7.622 -0.7442 -2.4146  0.2536
 5473SOL    HW228056   1.120   0.019   7.516 -0.5471  0.1255  1.2140
 5474SOL     OW28057   0.069   3.693   5.352  0.0083  0.6409 -0.2081
 5474SOL    HW128058   4.732   3.720   5.404 -2.7007  0.2807 -3.9152
 5474SOL    HW228059   0.091   3.610   5.394 -3.4391  0.3465  0.9474
 5475SOL     OW28060   3.516   2.938  16.134  0.3041  0.0724 -0.2751
 5475SOL    HW128061   3.555   2.942  16.222  1.3273  0.3656 -0.7424
 5475SOL    HW228062   3.493   2.846  16.123 -2.1797  0.7833 -0.8586
 5476SOL     OW28063   1.065   2.922  12.701 -0.6292 -0.1404  0.0512
 5476SOL    HW128064   0.988   2.867  12.719 -0.6370 -0.3079 -0.4798
 5476SOL    HW228065   1.087   2.932  12.793  2.6325 -0.1366 -0.7216
 5477SOL     OW28066   3.044   4.432   1.547 -0.0514 -0.0869 -0.0622
 5477SOL    HW128067   2.994   4.374   1.604  0.9192 -0.7248  0.1407
 5477SOL    HW228068   2.968   4.463   1.498  0.1366  3.7462  2.0243
 5478SOL     OW28069   0.303   2.742   7.586  0.3510 -0.3877  0.2016
 5478SOL    HW128070   0.261   2.687   7.653 -1.5044  0.3459 -0.3598
 5478SOL    HW228071   0.255   2.823   7.601  1.3521  0.3353 -0.5277
 5479SOL     OW28072   4.632   2.492   2.840 -0.2768  0.0554  0.6926
 5479SOL    HW128073   4.548   2.448   2.823 -1.1929  2.9576 -2.5925
 5479SOL    HW228074   4.616   2.559   2.773 -0.9278 -1.1377 -0.3474
 5480SOL     OW28075   4.260   4.312   5.528  0.2883 -0.1941 -0.0246
 5480SOL    HW128076   4.290   4.235   5.480  1.6717  0.7468 -0.6914
 5480SOL    HW228077   4.202   4.357   5.467 -0.6024 -0.5750  0.5529
 5481SOL     OW28078   2.744   3.516   2.019  0.0278  0.2602  0.1289
 5481SOL    HW128079   2.720   3.585   2.080  2.0326  1.3904 -0.3434
 5481SOL    HW228080   2.694   3.444   2.058  3.8425 -2.6031 -0.2809
 5482SOL     OW28081   2.632   1.435   7.118 -0.0856  0.4793  0.0921
 5482SOL    HW128082   2.644   1.529   7.132  1.9714  0.2715 -0.2129
 5482SOL    HW228083   2.627   1.435   7.023  0.7130 -1.3786  0.0586
 5483SOL     OW28084   2.530   3.626   6.562  0.1506 -0.9087 -0.2845
 5483SOL    HW128085   2.547   3.562   6.492  0.1279 -1.3111  0.0723
 5483SOL    HW228086   2.439   3.606   6.584  0.4130 -0.6742  1.0101
 5484SOL     OW28087   1.179   4.492   5.577  0.0977 -0.7782 -0.0389
 5484SOL    HW128088   1.220   4.570   5.613 -0.1642 -0.8707  0.4688
 5484SOL    HW228089   1.257   4.436   5.573 -0.2282 -1.1503 -1.2083
 5485SOL     OW28090   4.307   2.045   4.032 -0.1988 -0.3494 -0.6919
 5485SOL    HW128091   4.254   2.124   4.021  0.5558  0.6285  2.7351
 5485SOL    HW228092   4.239   1.979   4.016 -0.0861 -0.1469 -2.0144
 5486SOL     OW28093   1.284   1.407  12.013 -0.0067 -0.0024  0.2324
 5486SOL    HW128094   1.368   1.375  12.048 -0.3665  1.0447  2.0589
 5486SOL    HW228095   1.314   1.491  11.980 -0.5585  0.0701 -0.0742
 5487SOL     OW28096   3.331   3.874   8.431 -0.4976  0.6001 -0.2094
 5487SOL    HW128097   3.272   3.945   8.456 -1.5358 -0.2206 -0.3528
 5487SOL    HW228098   3.410   3.875   8.486 -0.4222 -0.8148 -0.2813
 5488SOL     OW28099   2.049   3.357   8.177 -0.4416  0.1038  0.1679
 5488SOL    HW128100   1.969   3.406   8.160  1.0278  2.7818  1.0474
 5488SOL    HW228101   2.008   3.284   8.223 -1.7435  0.2307 -0.7887
 5489SOL     OW28102   4.571   3.530   3.529 -0.6033  0.6514  0.3256
 5489SOL    HW128103   4.663   3.505   3.533 -1.4324 -2.8634 -2.3277
 5489SOL    HW228104   4.550   3.506   3.439  1.6559  0.3889 -0.1249
 5490SOL     OW28105   0.502   1.828   1.848 -0.1797  0.3028  0.4555
 5490SOL    HW128106   0.494   1.921   1.825 -1.8105  0.2024  0.6359
 5490SOL    HW228107   0.497   1.793   1.759  0.3336  1.8435 -0.1698
 5491SOL     OW28108   0.716   4.512   2.108  0.5689 -0.2018 -0.7055
 5491SOL    HW128109   0.733   4.479   2.197 -1.0951  0.2224 -0.2309
 5491SOL    HW228110   0.667   4.443   2.063 -0.6834  0.0046  0.3564
 5492SOL     OW28111   2.806   3.221  14.884 -0.3892 -0.1215 -0.7046
 5492SOL    HW128112   2.729   3.237  14.938  0.9594  0.1737  1.1444
 5492SOL    HW228113   2.866   3.222  14.959  1.5800  0.2152 -2.2636
 5493SOL     OW28114   4.347   2.762   9.008 -0.5971  0.1260  0.5425
 5493SOL    HW128115   4.288   2.802   8.944  1.0115 -0.1476 -1.1056
 5493SOL    HW228116   4.324   2.812   9.087 -0.4321  0.1533  0.5735
 5494SOL     OW28117   3.818   1.204   7.352 -0.2107 -0.2714  0.4930
 5494SOL    HW128118   3.728   1.221   7.326 -0.1588 -0.2935  0.2946
 5494SOL    HW228119   3.834   1.273   7.416 -0.0712  0.9810 -0.8778
 5495SOL     OW28120   1.464   4.397   5.818 -0.8719 -0.6266  0.8137
 5495SOL    HW128121   1.458   4.408   5.723  1.5050 -1.5983  0.5581
 5495SOL    HW228122   1.516   4.317   5.824  1.2890  0.8183  1.7076
 5496SOL     OW28123   4.428   3.497  10.552 -0.1194  0.3766  0.6476
 5496SOL    HW128124   4.426   3.587  10.519 -2.3024  0.1488  0.1030
 5496SOL    HW228125   4.515   3.505  10.590 -0.3475  0.6040  1.1198
 5497SOL     OW28126   0.368   0.467   2.425 -0.0589 -0.0319  0.2373
 5497SOL    HW128127   0.331   0.480   2.512 -0.9024 -0.1426 -0.1085
 5497SOL    HW228128   0.285   0.471   2.377  1.1988 -0.9976 -2.0353
 5498SOL     OW28129   3.293   0.243  16.141  0.5432  0.1174  0.0118
 5498SOL    HW128130   3.306   0.189  16.220 -0.9244  0.4595  0.4926
 5498SOL    HW228131   3.330   0.320  16.184 -1.5097  1.5727 -0.8574
 5499SOL     OW28132   1.769   1.183  15.545 -0.3257 -0.0254  0.0969
 5499SOL    HW128133   1.782   1.135  15.627  0.1053 -0.6591 -0.3404
 5499SOL    HW228134   1.860   1.205  15.521 -0.5927  1.9231  0.8947
 5500SOL     OW28135   2.247   4.592   5.082  0.3742  0.4857 -0.7302
 5500SOL    HW128136   2.263   4.528   5.013  3.2168  0.5410 -0.1248
 5500SOL    HW228137   2.258   4.678   5.042 -2.4185  0.7886 -0.7943
 5501SOL     OW28138   1.216   1.114   9.130  0.0298 -1.3234  0.9255
 5501SOL    HW128139   1.214   1.181   9.199 -1.3141 -0.0340 -0.3733
 5501SOL    HW228140   1.301   1.072   9.145  1.4247  2.1403  2.6554
 5502SOL     OW28141   4.630   3.398  12.057  0.2177  0.3655  0.3062
 5502SOL    HW128142   4.577   3.335  12.007 -0.9324  0.0977  1.8796
 5502SOL    HW228143   4.587   3.373  12.139  0.2254  0.1095  0.2337
 5503SOL     OW28144   1.163   3.300   9.142 -0.1347  0.3780  0.1634
 5503SOL    HW128145   1.124   3.292   9.055 -1.4511  1.3537  0.6727
 5503SOL    HW228146   1.096   3.253   9.191  1.4553 -0.5226  1.4871
 5504SOL     OW28147   3.730   0.807   7.642  0.0886  1.3716 -0.1118
 5504SOL    HW128148   3.783   0.731   7.665 -1.5782  0.7491  1.5730
 5504SOL    HW228149   3.662   0.768   7.588  0.3125 -1.0506  1.3905
 5505SOL     OW28150   3.758   3.449  11.881  0.3759 -0.6023 -0.1645
 5505SOL    HW128151   3.805   3.488  11.955 -0.4369 -1.2258  0.6798
 5505SOL    HW228152   3.732   3.362  11.910 -0.2662  0.3283  2.0442
 5506SOL     OW28153   1.126   0.668   1.241 -0.1524  0.1908 -0.4099
 5506SOL    HW128154   1.095   0.696   1.327 -0.1114  0.4840 -0.4904
 5506SOL    HW228155   1.056   0.617   1.200 -2.5045  1.7498  1.6898
 5507SOL     OW28156   4.570   3.696  10.159 -0.6289  0.2558 -0.6106
 5507SOL    HW128157   4.535   3.703  10.248  0.2142 -0.5053 -0.2175
 5507SOL    HW228158   4.491   3.687  10.106 -1.0741  0.8294 -0.0535
 5508SOL     OW28159   4.373   0.283  16.440  0.0759  0.2859  0.7868
 5508SOL    HW128160   4.425   0.340  16.498 -0.1610  0.6763  0.6139
 5508SOL    HW228161   4.398   0.194  16.464 -0.9961 -0.5616 -1.2365
 5509SOL     OW28162   1.649   4.297   3.582  0.5244 -0.1731 -0.3982
 5509SOL    HW128163   1.679   4.225   3.638  1.1589  0.3647 -0.0489
 5509SOL    HW228164   1.584   4.246   3.534  0.6263  0.0470 -0.7678
 5510SOL     OW28165   1.751   2.342   1.686 -0.2763  0.2706 -0.2761
 5510SOL    HW128166   1.790   2.363   1.770  1.1246  0.6493 -1.0162
 5510SOL    HW228167   1.713   2.259   1.714 -1.4964  1.5909  1.9523
 5511SOL     OW28168   4.210   4.539   5.298 -0.0478 -0.3439  0.0606
 5511SOL    HW128169   4.268   4.545   5.223  0.0810 -1.7264  0.0543
 5511SOL    HW228170   4.271   4.538   5.372 -0.1389  0.9098  0.1664
 5512SOL     OW28171   2.225   1.639  15.420  0.4410 -0.2325  0.1456
 5512SOL    HW128172   2.177   1.641  15.504 -0.1158  1.1729 -0.2024
 5512SOL    HW228173   2.311   1.602  15.440 -0.4790 -1.9351  1.0316
 5513SOL     OW28174   0.116   1.950   6.451 -0.5316 -0.5044 -0.1751
 5513SOL    HW128175   0.136   1.920   6.540 -0.4873 -0.3296 -0.1274
 5513SOL    HW228176   0.149   1.869   6.411 -0.8988 -0.0975 -1.3114
 5514SOL     OW28177   2.687   3.019   6.693  0.3293 -0.0678  0.1957
 5514SOL    HW128178   2.653   3.017   6.783 -0.9047 -1.0217 -0.2905
 5514SOL    HW228179   2.668   3.109   6.667 -2.2493 -1.0466 -1.2906
 5515SOL     OW28180   4.527   0.730   9.495 -0.3535  0.5286  0.0150
 5515SOL    HW128181   4.544   0.670   9.422  1.0826 -0.0532  0.8147
 5515SOL    HW228182   4.585   0.699   9.565  1.3129  1.9629 -0.7473
 5516SOL     OW28183   3.535   2.115   4.736  0.4248 -0.0733 -0.3138
 5516SOL    HW128184   3.449   2.121   4.694 -0.0282 -1.5094  0.4024
 5516SOL    HW228185   3.513   2.033   4.780 -1.9705 -0.0528 -1.4324
 5517SOL     OW28186   4.355   0.300   4.948 -0.5801  0.5432  0.5347
 5517SOL    HW128187   4.434   0.332   4.992 -0.6385  1.0667  0.2634
 5517SOL    HW228188   4.366   0.345   4.864  1.7366  1.3386  1.2728
 5518SOL     OW28189   2.668   3.418   7.969  0.1400 -0.7513 -0.5899
 5518SOL    HW128190   2.733   3.488   7.974 -1.2895  0.6106 -1.3366
 5518SOL    HW228191   2.597   3.473   7.937  3.5077  3.3661 -1.0862
 5519SOL     OW28192   3.307   0.345   3.018  0.3740 -0.3010 -0.0357
 5519SOL    HW128193   3.390   0.341   2.970  1.6995  2.0724  2.0506
 5519SOL    HW228194   3.315   0.432   3.057 -2.0352 -0.0136 -0.2109
 5520SOL     OW28195   1.286   4.136   6.857 -0.0356  0.2686 -0.5639
 5520SOL    HW128196   1.348   4.096   6.918  0.7881 -0.7598 -2.0857
 5520SOL    HW228197   1.226   4.186   6.912 -0.1492  0.4471 -0.8535
 5521SOL     OW28198   3.684   1.351   8.767 -0.5087 -0.2395  0.1370
 5521SOL    HW128199   3.689   1.439   8.804 -0.1634  0.1950 -0.9358
 5521SOL    HW228200   3.594   1.356   8.736 -0.5357 -1.7743 -0.0596
 5522SOL     OW28201   1.256   0.074   1.988  0.1745  0.0907 -0.2671
 5522SOL    HW128202   1.168   0.053   1.959  0.7882 -2.5498 -0.2599
 5522SOL    HW228203   1.304   0.103   1.910  0.6429 -0.9000 -0.3520
 5523SOL     OW28204   3.819   4.555   3.458  0.5356  0.1287  0.4800
 5523SOL    HW128205   3.883   4.484   3.458 -0.2223 -0.5377 -3.1556
 5523SOL    HW228206   3.789   4.547   3.368  0.7842  0.6371  0.3574
 5524SOL     OW28207   2.682   4.519   7.200  0.9603  0.6088  0.0104
 5524SOL    HW128208   2.600   4.538   7.246  0.4274 -1.1486 -0.2245
 5524SOL    HW228209   2.644   4.525   7.112 -2.9525 -1.2532  1.5943
 5525SOL     OW28210   3.328   1.355   4.496 -0.6959 -0.2682 -0.7089
 5525SOL    HW128211   3.258   1.345   4.560  0.3285  0.8655  0.6025
 5525SOL    HW228212   3.290   1.323   4.414 -0.3334 -2.0172 -0.1979
 5526SOL     OW28213   1.124   0.146  13.483 -0.5404 -0.0924 -0.0138
 5526SOL    HW128214   1.125   0.065  13.534  1.0092 -0.2908 -0.3737
 5526SOL    HW228215   1.196   0.194  13.525  1.0757 -3.7216  1.3940
 5527SOL     OW28216   4.696   3.696  16.127 -0.1083 -0.0326 -0.1154
 5527SOL    HW128217   4.725   3.648  16.204 -0.9210 -1.1704 -0.5211
 5527SOL    HW228218   0.037   3.705  16.074  0.0767  0.7144  0.2900
 5528SOL     OW28219   0.903   4.261   5.976 -0.2079  0.2579  0.2446
 5528SOL    HW128220   0.990   4.256   6.015 -0.6765  0.3617  1.2810
 5528SOL    HW228221   0.923   4.317   5.900  1.6395 -0.4589  0.2062
 5529SOL     OW28222   3.757   3.307   2.264 -0.3562 -0.2613 -0.1861
 5529SOL    HW128223   3.761   3.236   2.329 -0.6922 -1.0327 -1.0124
 5529SOL    HW228224   3.780   3.259   2.185  0.6491  0.2695 -0.2132
 5530SOL     OW28225   0.344   0.834   1.489  0.2343 -0.0191  0.5934
 5530SOL    HW128226   0.312   0.842   1.399  1.4728 -0.1794  0.1446
 5530SOL    HW228227   0.324   0.919   1.527 -0.5300 -0.6421  1.5808
 5531SOL     OW28228   4.687   0.097  12.109 -0.5568 -0.7076 -0.1619
 5531SOL    HW128229   4.644   0.016  12.138  2.1974 -0.9397  3.2651
 5531SOL    HW228230   0.018   0.114  12.173 -0.5741  0.6044 -0.4761
 5532SOL     OW28231   3.959   2.890  11.038 -0.3618  0.0887 -0.1779
 5532SOL    HW128232   4.031   2.835  11.069  1.0542  1.9517 -0.1576
 5532SOL    HW228233   4.001   2.974  11.020 -1.3890  0.1155 -2.4575
 5533SOL     OW28234   0.139   2.047   8.217 -0.5626 -1.0538 -0.5440
 5533SOL    HW128235   0.141   1.951   8.220  1.7884 -0.9665  0.2991
 5533SOL    HW228236   0.045   2.058   8.199 -0.0601  2.0302 -1.2050
 5534SOL     OW28237   0.672   3.414  14.848 -1.0801 -0.1850  0.1262
 5534SOL    HW128238   0.726   3.378  14.777 -0.0135 -0.1624  0.9205
 5534SOL    HW228239   0.588   3.430  14.805 -1.0121  0.9157  0.4075
 5535SOL     OW28240   3.517   0.129   7.043  0.8002  0.6163  0.4911
 5535SOL    HW128241   3.599   0.151   7.088 -0.6528  1.8820  2.5343
 5535SOL    HW228242   3.535   0.158   6.954 -0.0650 -0.8094 -0.1322
 5536SOL     OW28243   2.957   1.141   4.852  0.0121 -0.7169  0.3614
 5536SOL    HW128244   2.987   1.128   4.942  4.0815  0.2870 -0.8173
 5536SOL    HW228245   2.994   1.066   4.804 -1.7550 -1.0038 -0.5554
 5537SOL     OW28246   3.397   1.260   5.669  0.0796 -0.8388 -1.0156
 5537SOL    HW128247   3.488   1.234   5.682  0.7035  1.9022  0.0991
 5537SOL    HW228248   3.349   1.188   5.709  1.8194 -1.4607 -0.0295
 5538SOL     OW28249   4.570   3.959   7.170  0.0718 -0.4543  0.2130
 5538SOL    HW128250   4.492   4.007   7.197  0.1769  1.1086 -2.3037
 5538SOL    HW228251   4.535   3.886   7.120 -0.4256 -1.3916  1.9158
 5539SOL     OW28252   0.101   0.458   9.207 -0.6361 -0.2916 -0.0228
 5539SOL    HW128253   0.035   0.458   9.277  1.9999 -0.0006  2.4718
 5539SOL    HW228254   0.058   0.490   9.127 -1.9297  0.4898  0.9834
 5540SOL     OW28255   3.046   0.367   3.165  1.0484 -0.5646 -0.2172
 5540SOL    HW128256   3.135   0.333   3.154 -0.2181 -3.9173 -0.1060
 5540SOL    HW228257   3.037   0.366   3.260  1.4955 -0.9350 -0.1801
 5541SOL     OW28258   2.575   3.591   6.132  0.6232 -0.0525  0.3002
 5541SOL    HW128259   2.602   3.519   6.189 -0.7107 -0.7028  0.0997
 5541SOL    HW228260   2.638   3.661   6.152 -1.2494  0.9543  2.6248
 5542SOL     OW28261   0.307   4.277   7.608 -0.9176  0.1798 -0.4682
 5542SOL    HW128262   0.354   4.316   7.682 -1.3287 -2.3712  1.1507
 5542SOL    HW228263   0.350   4.192   7.596 -1.7983 -0.5560  1.4224
 5543SOL     OW28264   4.577   0.725   1.201  0.5872  0.8844  0.9424
 5543SOL    HW128265   4.573   0.647   1.256 -0.4856  1.0602  1.1088
 5543SOL    HW228266   4.487   0.743   1.172  0.9771 -0.4758 -1.1356
 5544SOL     OW28267   0.836   2.988   3.766  0.2127  0.0130  0.3111
 5544SOL    HW128268   0.835   3.084   3.763 -1.0563 -0.1400 -3.0466
 5544SOL    HW228269   0.894   2.968   3.693 -1.1832  0.5925 -0.9581
 5545SOL     OW28270   3.062   4.501   4.556  0.6670  0.5989 -0.8276
 5545SOL    HW128271   3.137   4.537   4.603  0.7519  2.3135 -2.2864
 5545SOL    HW228272   3.021   4.438   4.615  0.9827 -2.2811 -3.6555
 5546SOL     OW28273   2.337   2.271   6.234  0.6718 -0.6899  0.6902
 5546SOL    HW128274   2.339   2.178   6.259 -2.5545 -0.1853  2.9306
 5546SOL    HW228275   2.398   2.275   6.161 -0.6230  3.7335 -0.1070
 5547SOL     OW28276   3.332   4.105   0.556 -0.0868 -0.8010  0.0977
 5547SOL    HW128277   3.292   4.124   0.641  0.1800 -0.9771  0.2626
 5547SOL    HW228278   3.363   4.194   0.538  1.2594 -1.4726 -0.9141
 5548SOL     OW28279   4.182   2.170  16.629 -0.3871 -0.0827 -0.5607
 5548SOL    HW128280   4.117   2.111  16.591 -0.3340 -0.7952  0.4738
 5548SOL    HW228281   4.263   2.129  16.597  0.5962 -0.7350  2.7963
 5549SOL     OW28282   3.973   4.039   2.632  0.4343  0.1274  0.2645
 5549SOL    HW128283   3.991   4.105   2.566 -1.8675 -0.1914 -0.6632
 5549SOL    HW228284   4.036   3.969   2.613 -1.8440 -1.6637 -0.7391
 5550SOL     OW28285   3.573   0.421  15.235  0.6437  0.0153 -0.1667
 5550SOL    HW128286   3.644   0.467  15.280  1.6777  0.7835 -2.6026
 5550SOL    HW228287   3.611   0.356  15.175  0.3122  0.3230 -0.6988
 5551SOL     OW28288   0.884   0.926   4.947 -0.6087 -0.3054 -0.0249
 5551SOL    HW128289   0.966   0.883   4.966 -0.1142  0.4563 -0.4241
 5551SOL    HW228290   0.864   0.881   4.865  0.2697  1.2585 -1.1042
 5552SOL     OW28291   4.075   3.718  16.681  0.1115 -0.5776 -0.1376
 5552SOL    HW128292   4.063   3.806  16.717 -0.4482  0.2113 -2.2337
 5552SOL    HW228293   4.080   3.664  16.760 -0.4970 -1.1804 -0.5135
 5553SOL     OW28294   4.285   1.526   7.682 -0.5689  0.7320  0.5378
 5553SOL    HW128295   4.262   1.435   7.702 -1.1058 -0.1685 -4.1038
 5553SOL    HW228296   4.378   1.513   7.667 -1.0051 -1.3020 -0.4540
 5554SOL     OW28297   4.566   1.975  14.082  0.2306  0.2436 -0.4725
 5554SOL    HW128298   4.574   1.892  14.128  2.2705  0.5829 -0.2048
 5554SOL    HW228299   4.534   1.929  14.004  1.8559 -0.9866 -0.4219
 5555SOL     OW28300   4.045   4.495   3.986  0.1427 -0.3352  0.4376
 5555SOL    HW128301   4.083   4.482   3.899  1.4297 -0.7757  1.0755
 5555SOL    HW228302   4.069   4.587   3.999  0.2919 -0.7414  3.0235
 5556SOL     OW28303   1.140   0.162  11.112  0.2824  0.0966 -0.2992
 5556SOL    HW128304   1.114   0.213  11.035 -2.6338 -1.3583 -0.2914
 5556SOL    HW228305   1.202   0.227  11.146 -0.8519  0.3829  1.2225
 5557SOL     OW28306   4.085   1.398   0.179  0.4638 -0.4660 -0.4498
 5557SOL    HW128307   4.042   1.424   0.097 -1.4041 -0.8613  0.4096
 5557SOL    HW228308   4.030   1.322   0.195  0.1098  0.2960  1.8960
 5558SOL     OW28309   2.620   0.827  12.564  0.0974  0.2761  0.1449
 5558SOL    HW128310   2.596   0.762  12.498 -2.2590  0.9536  0.3399
 5558SOL    HW228311   2.711   0.830  12.535  0.6892 -0.0938  1.9508
 5559SOL     OW28312   4.734   3.500   2.260  0.0769  0.2512  0.1412
 5559SOL    HW128313   0.083   3.540   2.263  0.2143 -0.2145  2.0587
 5559SOL    HW228314   0.015   3.420   2.212 -0.0357  1.5690 -2.1315
 5560SOL     OW28315   2.370   1.591   7.221  0.0486 -0.2297 -0.0029
 5560SOL    HW128316   2.352   1.618   7.131 -0.5054 -1.2506 -0.2022
 5560SOL    HW228317   2.282   1.617   7.247 -0.0464  1.3827 -1.8928
 5561SOL     OW28318   1.155   3.362  10.489  0.1165  0.9369  0.5516
 5561SOL    HW128319   1.113   3.277  10.476  1.3007  0.7458 -2.0413
 5561SOL    HW228320   1.147   3.364  10.584  1.9020 -2.7788  0.7749
 5562SOL     OW28321   4.074   0.925   4.561  0.0430 -0.0237 -0.6637
 5562SOL    HW128322   4.042   0.869   4.632 -0.8554  0.2072 -0.8944
 5562SOL    HW228323   4.152   0.957   4.606  0.2309  0.6876 -1.4902
 5563SOL     OW28324   2.420   0.590   4.616  0.0162  0.6156 -1.0649
 5563SOL    HW128325   2.441   0.565   4.707 -1.4760 -2.8588 -1.6641
 5563SOL    HW228326   2.401   0.682   4.631 -1.1824  0.3752 -1.1023
 5564SOL     OW28327   3.875   4.604   7.087  0.2441 -0.5128  0.0053
 5564SOL    HW128328   3.930   4.526   7.096 -0.2312 -0.5947  2.1977
 5564SOL    HW228329   3.810   4.580   7.153 -0.3128 -0.6760 -0.6145
 5565SOL     OW28330   3.216   4.412   7.242 -0.3838 -0.1334 -0.5878
 5565SOL    HW128331   3.122   4.429   7.238  0.1156  2.2079 -2.3106
 5565SOL    HW228332   3.249   4.501   7.227 -1.9190  1.0313  3.1294
 5566SOL     OW28333   4.164   2.488  17.180  0.5190  0.3139  0.4956
 5566SOL    HW128334   4.165   2.493  17.276 -0.1771  2.6319  0.3885
 5566SOL    HW228335   4.074   2.518  17.163 -0.1166 -2.2236 -0.5820
 5567SOL     OW28336   3.613   0.909  15.267 -0.3703  0.1299 -0.3573
 5567SOL    HW128337   3.617   0.869  15.354  0.2900 -0.3733 -0.6144
 5567SOL    HW228338   3.537   0.967  15.272 -1.1410 -0.8424 -0.9342
 5568SOL     OW28339   4.722   2.869   1.400 -0.2459  1.3498  0.4851
 5568SOL    HW128340   4.673   2.874   1.318  0.6712 -1.5635 -0.2373
 5568SOL    HW228341   4.708   2.960   1.428 -2.1242  0.8263  1.2566
 5569SOL     OW28342   1.339   3.121   9.701  0.3154  0.7021 -0.3328
 5569SOL    HW128343   1.306   3.139   9.789 -1.1381  0.5784 -0.8618
 5569SOL    HW228344   1.343   3.026   9.700  0.6126  0.6925  1.6907
 5570SOL     OW28345   2.390   3.534   3.567  0.1341  0.2390 -0.1298
 5570SOL    HW128346   2.307   3.574   3.542 -0.0677 -1.9804 -3.0998
 5570SOL    HW228347   2.377   3.519   3.660  1.3432 -1.0690 -0.1769
 5571SOL     OW28348   0.952   4.234   8.056 -0.1568 -0.1627 -0.3164
 5571SOL    HW128349   1.046   4.236   8.039  0.3864 -0.8488  2.5627
 5571SOL    HW228350   0.930   4.324   8.029  1.4816  0.4869  0.5527
 5572SOL     OW28351   0.216   2.524  12.275  0.0565 -0.5589 -0.6221
 5572SOL    HW128352   0.174   2.438  12.265 -1.4462  0.0174  0.7523
 5572SOL    HW228353   0.307   2.500  12.290  0.2996  1.8205  1.6869
 5573SOL     OW28354   1.004   1.295   7.153 -0.1501  0.1750  1.0760
 5573SOL    HW128355   1.031   1.204   7.143  1.7780  0.8248  0.3397
 5573SOL    HW228356   0.926   1.292   7.098 -0.0611 -0.7730  1.0027
 5574SOL     OW28357   0.772   2.747   8.035  0.1826  0.2973 -0.3394
 5574SOL    HW128358   0.824   2.684   7.984 -0.5456  1.0273 -1.9805
 5574SOL    HW228359   0.770   2.817   7.969 -0.5984 -0.8074 -1.4890
 5575SOL     OW28360   1.857   1.530   2.287 -0.2277 -0.6356 -0.4332
 5575SOL    HW128361   1.793   1.563   2.350  1.6066 -1.2116  1.7277
 5575SOL    HW228362   1.928   1.585   2.319 -1.2553  0.5941 -0.2923
 5576SOL     OW28363   0.741   4.496   8.440  0.5015  0.5018  0.4353
 5576SOL    HW128364   0.731   4.448   8.358  1.4201  0.7676  0.1704
 5576SOL    HW228365   0.814   4.556   8.427  2.1441 -0.9726  2.9617
 5577SOL     OW28366   1.988   1.758   3.675  0.3615 -0.0535 -0.1440
 5577SOL    HW128367   1.954   1.745   3.763  0.2058 -2.0962 -0.5202
 5577SOL    HW228368   2.071   1.802   3.692 -0.4853  0.7584  1.9315
 5578SOL     OW28369   3.227   0.252   6.059  0.4177  0.2686 -0.3175
 5578SOL    HW128370   3.157   0.266   5.995 -0.3705 -0.7588  0.3240
 5578SOL    HW228371   3.278   0.187   6.012  0.1612  0.7501 -1.2593
 5579SOL     OW28372   0.836   3.602  16.815 -0.4990  0.2071 -0.0724
 5579SOL    HW128373   0.903   3.568  16.874  0.6908  3.0506  0.1974
 5579SOL    HW228374   0.828   3.524  16.759 -0.2873  0.7138 -0.8031
 5580SOL     OW28375   0.248   1.307  17.493 -0.5657 -0.1223  0.3788
 5580SOL    HW128376   0.220   1.376  17.433 -2.2315  0.0518  1.3297
 5580SOL    HW228377   0.202   1.340  17.570 -0.2632  1.3246 -0.0541
 5581SOL     OW28378   1.795   1.706   7.901  0.5299  0.4300 -0.0254
 5581SOL    HW128379   1.746   1.732   7.980  0.2363 -2.7495  0.8724
 5581SOL    HW228380   1.792   1.790   7.856 -0.9726 -0.2284 -1.1519
 5582SOL     OW28381   2.221   4.418  11.855  0.6702  0.3288 -0.1703
 5582SOL    HW128382   2.216   4.388  11.764  0.2800 -0.7532  0.2125
 5582SOL    HW228383   2.244   4.510  11.844 -0.2811  0.4550 -1.0869
 5583SOL     OW28384   2.888   1.165   8.822  0.0605  0.1330  0.4240
 5583SOL    HW128385   2.925   1.148   8.909  1.4210  1.6032  0.1431
 5583SOL    HW228386   2.957   1.219   8.783 -2.5260  0.3907 -3.8072
 5584SOL     OW28387   4.404   0.365   4.661  0.1053 -0.1528 -0.0962
 5584SOL    HW128388   4.319   0.343   4.623  0.1321 -0.7058  0.1715
 5584SOL    HW228389   4.443   0.412   4.587 -2.4851  3.3186  0.7230
 5585SOL     OW28390   0.396   4.522   4.832  0.0182 -0.4496  0.7949
 5585SOL    HW128391   0.300   4.528   4.830 -0.0445 -2.0923 -0.6616
 5585SOL    HW228392   0.416   4.431   4.812  0.4647 -0.3658  0.8686
 5586SOL     OW28393   2.543   2.810   3.068  0.0136 -0.3885 -0.1591
 5586SOL    HW128394   2.502   2.876   3.124  0.3290  0.5521 -1.0385
 5586SOL    HW228395   2.462   2.789   3.022  1.0195  1.0877 -2.5949
 5587SOL     OW28396   3.185   2.557   5.627  0.0412 -0.5848 -0.2463
 5587SOL    HW128397   3.149   2.494   5.689 -1.4518  1.8176  1.3705
 5587SOL    HW228398   3.101   2.596   5.602  1.0534  2.6314  1.2773
 5588SOL     OW28399   3.165   2.776   7.018  0.7811 -0.2720  0.5010
 5588SOL    HW128400   3.189   2.685   7.036  2.1252  0.1654  0.9325
 5588SOL    HW228401   3.194   2.778   6.927 -1.4490  1.4638 -0.1695
 5589SOL     OW28402   2.972   0.004   6.330  0.7330  0.1814 -0.4679
 5589SOL    HW128403   2.895   4.706   6.286  2.0565  0.9745 -3.4210
 5589SOL    HW228404   2.939   4.710   6.414  2.3406  0.8572  0.4199
 5590SOL     OW28405   0.153   1.647   7.337 -0.4581 -0.1348  0.3064
 5590SOL    HW128406   0.245   1.630   7.356 -0.4213 -2.4501 -2.0043
 5590SOL    HW228407   0.135   1.612   7.250 -0.2235  3.0668 -1.0185
 5591SOL     OW28408   1.593   3.406   9.624 -0.2158 -0.4852 -0.5202
 5591SOL    HW128409   1.686   3.386   9.635  0.2527  1.8091 -0.2419
 5591SOL    HW228410   1.561   3.411   9.714 -4.0502 -0.9158 -1.8675
 5592SOL     OW28411   1.022   0.922   3.079 -0.1292 -0.1133 -0.2734
 5592SOL    HW128412   0.969   0.984   3.128  0.5995  0.3382 -0.0450
 5592SOL    HW228413   0.996   0.841   3.122 -1.9447  1.1417  1.0180
 5593SOL     OW28414   3.011   2.117   6.664  0.1509 -0.4733 -0.1904
 5593SOL    HW128415   3.005   2.133   6.758 -0.6319  0.2286 -0.3545
 5593SOL    HW228416   3.092   2.067   6.661 -0.7339 -1.9286  0.2923
 5594SOL     OW28417   1.854   3.749   6.215 -0.1513 -0.0819  0.2931
 5594SOL    HW128418   1.857   3.843   6.194  0.2997  0.1553  1.4176
 5594SOL    HW228419   1.923   3.741   6.281  1.2485  2.2949 -0.8656
 5595SOL     OW28420   3.211   1.720   4.117 -0.4585 -0.0848  0.1679
 5595SOL    HW128421   3.275   1.711   4.188  1.0225  2.2828 -0.8850
 5595SOL    HW228422   3.270   1.722   4.042  1.1172 -1.8369  1.3459
 5596SOL     OW28423   4.470   0.253   2.801  0.3236  0.0925 -0.2155
 5596SOL    HW128424   4.528   0.278   2.873  1.2292 -1.0742 -0.5402
 5596SOL    HW228425   4.409   0.327   2.803 -0.7408 -0.7728 -1.4102
 5597SOL     OW28426   4.570   1.245   3.316  0.8311 -0.1193 -0.0875
 5597SOL    HW128427   4.647   1.214   3.365  0.2687  0.5654  1.2274
 5597SOL    HW228428   4.570   1.183   3.243  2.6331  0.8701 -0.9431
 5598SOL     OW28429   0.113   1.779   8.227 -0.1041  0.2679  0.1365
 5598SOL    HW128430   0.194   1.729   8.240 -0.1079  0.0635 -0.6448
 5598SOL    HW228431   0.046   1.731   8.275 -1.8915  2.0237 -0.5971
 5599SOL     OW28432   4.576   0.543   6.612 -0.4166 -0.1593 -0.5410
 5599SOL    HW128433   4.660   0.584   6.634 -0.3925 -0.0481 -0.8526
 5599SOL    HW228434   4.538   0.546   6.700 -0.2954 -0.0034 -0.4934
 5600SOL     OW28435   0.464   2.223   0.647 -0.2028  0.3771  0.2191
 5600SOL    HW128436   0.522   2.151   0.670  0.8478 -0.0860 -3.8352
 5600SOL    HW228437   0.376   2.189   0.665 -0.7711  0.6612 -1.9879
 5601SOL     OW28438   2.134   3.260   7.430 -0.4219 -0.3407 -0.5618
 5601SOL    HW128439   2.058   3.278   7.486 -0.8437  0.6052 -1.4253
 5601SOL    HW228440   2.167   3.350   7.422 -0.0460 -0.5189 -1.0442
 5602SOL     OW28441   0.519   3.501   4.178  0.0347  0.3958 -0.2016
 5602SOL    HW128442   0.443   3.473   4.228  0.7075  1.4043  1.3767
 5602SOL    HW228443   0.564   3.565   4.234 -2.1285  1.0837  0.7420
 5603SOL     OW28444   2.790   1.668   4.036 -0.2004 -0.0725  0.4232
 5603SOL    HW128445   2.744   1.750   4.015  1.3504  1.1443  1.7391
 5603SOL    HW228446   2.825   1.706   4.117 -0.8655 -0.7192  1.0163
 5604SOL     OW28447   4.524   3.335   8.152  0.4639  0.1798 -0.0890
 5604SOL    HW128448   4.528   3.244   8.183 -1.4317  1.1183  2.9333
 5604SOL    HW228449   4.560   3.383   8.227 -1.2033  1.3382 -0.0238
 5605SOL     OW28450   0.813   3.003   9.606  0.3157  0.4044  0.2232
 5605SOL    HW128451   0.732   2.952   9.600 -0.2779  1.2402  1.2079
 5605SOL    HW228452   0.881   2.938   9.589  0.8457  1.2767 -0.9861
 5606SOL     OW28453   0.409   0.483   1.424  0.3762  0.4270  0.4937
 5606SOL    HW128454   0.334   0.543   1.425 -1.4845 -1.9049 -1.0980
 5606SOL    HW228455   0.408   0.474   1.329  1.2375  0.0506  0.5267
 5607SOL     OW28456   3.967   0.050  11.823 -0.0809 -0.0687  0.1557
 5607SOL    HW128457   3.890   0.033  11.877 -1.3617  1.0013 -1.3289
 5607SOL    HW228458   3.930   0.118  11.766  1.1876 -0.0763 -0.6810
 5608SOL     OW28459   2.208   4.021   7.111 -0.3373 -0.4040  0.1604
 5608SOL    HW128460   2.257   4.100   7.132  0.2687 -1.0097  1.0161
 5608SOL    HW228461   2.260   3.958   7.161 -0.3901 -0.0390  0.6715
 5609SOL     OW28462   0.416   2.467  13.939 -0.2927 -0.6827  0.1589
 5609SOL    HW128463   0.446   2.512  13.861 -0.6948 -0.4032  0.1681
 5609SOL    HW228464   0.371   2.534  13.990 -0.8343  0.1296 -1.4091
 5610SOL     OW28465   1.904   2.593   4.703  0.1246 -0.3512 -0.5881
 5610SOL    HW128466   1.904   2.514   4.756 -0.6033 -0.3016 -0.5095
 5610SOL    HW228467   1.980   2.629   4.747 -3.0840  3.5923  1.7502
 5611SOL     OW28468   0.634   0.795   8.266  0.1470 -0.8037 -0.5978
 5611SOL    HW128469   0.718   0.787   8.222  0.9540  0.3442  0.7260
 5611SOL    HW228470   0.610   0.883   8.237 -0.3586 -1.1605 -1.2583
 5612SOL     OW28471   4.713   4.105  12.707 -0.1122  0.1488  0.4810
 5612SOL    HW128472   0.043   4.159  12.746  1.7509  0.0179 -2.5982
 5612SOL    HW228473   0.023   4.022  12.705  0.0199  0.2680 -1.3914
 5613SOL     OW28474   2.072   4.593   4.008  0.1183 -0.2146  0.1339
 5613SOL    HW128475   2.152   4.598   3.955  2.7916  1.5336  4.3980
 5613SOL    HW228476   2.021   4.671   3.982  0.6235  0.0451 -0.0907
 5614SOL     OW28477   4.466   3.135  10.739  0.2380  0.0035 -0.2063
 5614SOL    HW128478   4.392   3.196  10.735  0.6140  0.4049 -1.0367
 5614SOL    HW228479   4.461   3.092  10.824 -0.4568  1.1692  0.3450
 5615SOL     OW28480   1.525   1.885   7.480  0.2426  0.2494  0.2499
 5615SOL    HW128481   1.568   1.896   7.395  0.9304 -0.4280  0.5100
 5615SOL    HW228482   1.570   1.810   7.519  0.4411  0.4685  0.4379
 5616SOL     OW28483   2.351   3.142   4.566 -0.0078  0.7962 -0.1985
 5616SOL    HW128484   2.354   3.054   4.530 -1.9057  0.1744  1.1525
 5616SOL    HW228485   2.282   3.130   4.631 -0.3780  1.2100 -0.5115
 5617SOL     OW28486   2.360   1.136  13.149  0.1863  0.0062  0.2579
 5617SOL    HW128487   2.320   1.221  13.172 -0.8958 -0.5350  0.3902
 5617SOL    HW228488   2.381   1.146  13.056 -0.1252 -0.1501  0.1712
 5618SOL     OW28489   4.572   0.270   9.281 -0.0769 -0.2783 -0.0896
 5618SOL    HW128490   4.524   0.189   9.293 -2.4781  1.1811  0.0081
 5618SOL    HW228491   4.576   0.265   9.185  2.1849  0.9621 -0.0701
 5619SOL     OW28492   0.580   4.377  11.263  0.1544 -0.1790  0.1194
 5619SOL    HW128493   0.589   4.395  11.169  0.3785 -1.1151 -0.0366
 5619SOL    HW228494   0.500   4.325  11.273 -0.3742  0.6511  0.2810
 5620SOL     OW28495   3.657   2.911   9.224  0.0865  0.3220  0.4659
 5620SOL    HW128496   3.678   2.887   9.133  3.6273  0.9171  1.0960
 5620SOL    HW228497   3.568   2.875   9.224  0.2088  0.0099 -0.1698
 5621SOL     OW28498   0.686   0.809  12.747 -0.7691  0.3312  0.1393
 5621SOL    HW128499   0.634   0.779  12.673 -0.1496 -2.4059  0.8340
 5621SOL    HW228500   0.766   0.766  12.720  0.6293  3.6196 -0.9942
 5622SOL     OW28501   1.229   0.917   5.785 -1.0830  0.2294  0.0770
 5622SOL    HW128502   1.249   0.837   5.833 -0.0113  0.1887 -0.4240
 5622SOL    HW228503   1.225   0.982   5.855  0.9952  0.8803 -0.3886
 5623SOL     OW28504   2.456   1.747   2.906  0.1126 -0.0407 -0.2533
 5623SOL    HW128505   2.426   1.761   2.816 -1.8536  0.4403  0.4984
 5623SOL    HW228506   2.378   1.723   2.956 -0.6963 -1.2281 -2.0845
 5624SOL     OW28507   3.247   0.422   4.948  0.4387 -0.3149  0.5124
 5624SOL    HW128508   3.319   0.389   5.002 -0.1739 -1.8729  0.3626
 5624SOL    HW228509   3.208   0.338   4.926  0.0414 -0.0642  0.2451
 5625SOL     OW28510   2.403   0.835   8.339  0.2485 -0.2772  0.2040
 5625SOL    HW128511   2.482   0.863   8.384 -0.5617  1.5875  0.4680
 5625SOL    HW228512   2.414   0.871   8.252  3.5071  4.1775  2.4622
 5626SOL     OW28513   2.546   2.426   4.060 -0.1541 -0.3578 -0.7266
 5626SOL    HW128514   2.452   2.418   4.041 -0.5399 -0.7435  1.3466
 5626SOL    HW228515   2.558   2.510   4.103  2.2563 -1.2540  0.3487
 5627SOL     OW28516   4.242   0.850   2.209 -0.3684  0.2844 -0.4551
 5627SOL    HW128517   4.261   0.929   2.259 -0.6450  1.2533 -1.8991
 5627SOL    HW228518   4.297   0.855   2.132  2.2602 -1.9592  1.2663
 5628SOL     OW28519   3.483   1.928   6.418  1.0135 -0.1463  0.0718
 5628SOL    HW128520   3.461   1.868   6.347  1.9765  0.0988 -0.4296
 5628SOL    HW228521   3.546   1.989   6.379 -0.1438 -0.2464 -1.9354
 5629SOL     OW28522   1.985   3.600   5.570  0.3580 -0.4423  0.1334
 5629SOL    HW128523   2.056   3.628   5.513  0.0399  0.2975  0.0998
 5629SOL    HW228524   1.961   3.682   5.612 -0.4878 -0.0584 -1.0939
 5630SOL     OW28525   1.987   0.752  14.360 -0.6146  0.5069 -0.0469
 5630SOL    HW128526   2.014   0.754  14.268 -0.2706  0.7543  0.0609
 5630SOL    HW228527   2.058   0.806  14.396 -1.2465  2.0313 -1.0806
 5631SOL     OW28528   1.960   2.617   5.143  0.3962  0.2954  0.1086
 5631SOL    HW128529   1.897   2.570   5.197  0.9737 -0.0061  0.5116
 5631SOL    HW228530   1.996   2.684   5.202 -0.3029  1.2307 -0.5214
 5632SOL     OW28531   0.911   0.722   5.921 -0.8462  0.5619 -0.2183
 5632SOL    HW128532   0.816   0.720   5.934 -0.8303  1.0947 -0.0280
 5632SOL    HW228533   0.935   0.685   6.006 -0.2771 -1.9198 -1.4633
 5633SOL     OW28534   3.667   3.298   4.116  0.2141  0.5723 -0.3641
 5633SOL    HW128535   3.726   3.230   4.148  0.2455  0.3889 -0.8230
 5633SOL    HW228536   3.583   3.251   4.110  0.4447  0.1323 -0.1385
 5634SOL     OW28537   1.653   3.997   8.358  0.1335  0.6146 -0.1907
 5634SOL    HW128538   1.661   4.055   8.433 -2.6233 -0.8804  1.2577
 5634SOL    HW228539   1.699   3.918   8.386 -0.9861  0.4773  1.2462
 5635SOL     OW28540   2.018   1.598   3.389  0.0314 -0.5002  0.3811
 5635SOL    HW128541   2.095   1.655   3.386  0.4041 -1.0300 -0.1454
 5635SOL    HW228542   1.971   1.655   3.450  0.4184  0.2242  0.0004
 5636SOL     OW28543   4.163   1.051   1.039  0.9201  0.2269  0.2926
 5636SOL    HW128544   4.070   1.030   1.052  0.5992  1.1406 -0.4768
 5636SOL    HW228545   4.152   1.146   1.045 -0.2804  0.2012 -1.5239
 5637SOL     OW28546   1.891   0.568   4.510  0.9596 -0.0356  0.4153
 5637SOL    HW128547   1.921   0.657   4.525  0.9853  0.3644 -2.1035
 5637SOL    HW228548   1.812   0.587   4.459  2.6730  1.3110 -1.7007
 5638SOL     OW28549   3.320   0.649   8.489 -0.1320  0.3335  0.1447
 5638SOL    HW128550   3.371   0.729   8.495 -0.5178  0.5900  0.0424
 5638SOL    HW228551   3.352   0.623   8.403 -2.4680 -0.1884 -0.5866
 5639SOL     OW28552   1.448   0.484  13.185  0.2275 -0.6095  0.3028
 5639SOL    HW128553   1.517   0.423  13.210 -1.3371 -2.4134  0.1871
 5639SOL    HW228554   1.447   0.468  13.091 -1.7146  2.3870 -0.1973
 5640SOL     OW28555   2.338   3.949   1.013 -0.0097  0.4816  0.1485
 5640SOL    HW128556   2.289   3.891   0.956 -0.3921  2.1684 -1.2413
 5640SOL    HW228557   2.366   3.896   1.088 -0.7923  0.0257  0.1155
 5641SOL     OW28558   3.586   1.060   1.781  0.1709  0.0364 -0.4609
 5641SOL    HW128559   3.641   1.012   1.719  0.5048  0.2216 -0.3094
 5641SOL    HW228560   3.619   1.149   1.772 -2.3360  1.2623  2.5026
 5642SOL     OW28561   0.341   2.540   4.738  0.6180  0.2967 -0.0316
 5642SOL    HW128562   0.370   2.562   4.649  0.9084  0.8812  0.2079
 5642SOL    HW228563   0.383   2.455   4.743 -1.2673 -0.6843 -0.9251
 5643SOL     OW28564   0.653   3.374   6.292  0.0442 -0.0257  0.1052
 5643SOL    HW128565   0.606   3.411   6.217 -1.2429 -3.2595 -0.7076
 5643SOL    HW228566   0.583   3.328   6.339  0.8886 -1.7352 -0.3155
 5644SOL     OW28567   3.821   0.197   2.435  0.2091  0.0389  0.1525
 5644SOL    HW128568   3.729   0.212   2.457  0.3559  1.6720 -0.2951
 5644SOL    HW228569   3.806   0.110   2.398  3.3054  0.1207 -1.2620
 5645SOL     OW28570   2.061   3.219   3.058  0.4587 -0.6570 -0.0732
 5645SOL    HW128571   2.079   3.256   3.145  0.6467  0.8141 -0.7382
 5645SOL    HW228572   2.143   3.226   3.009 -1.0684  1.1773 -2.3295
 5646SOL     OW28573   2.723   3.585   5.177 -0.0215 -0.3454 -0.5864
 5646SOL    HW128574   2.696   3.672   5.204 -2.9418 -0.9642 -1.4737
 5646SOL    HW228575   2.686   3.543   5.255  0.5711  0.0862 -0.0778
 5647SOL     OW28576   0.324   0.019   6.783 -0.1122  0.0400 -0.4272
 5647SOL    HW128577   0.343   0.105   6.820 -2.2469  2.0615 -4.0830
 5647SOL    HW228578   0.346   4.699   6.855  0.5104  0.8416  0.0272
 5648SOL     OW28579   2.145   4.598  14.953  0.1426 -0.1254  0.3626
 5648SOL    HW128580   2.149   4.644  14.869 -1.8615  2.6392  1.7990
 5648SOL    HW228581   2.198   4.520  14.937  0.6652 -0.0786  1.7916
 5649SOL     OW28582   2.603   0.023   3.889 -0.1751  0.2560  0.7464
 5649SOL    HW128583   2.591   0.105   3.841 -0.1936 -0.7981 -1.0057
 5649SOL    HW228584   2.695   4.736   3.879  0.1479  1.0744  1.6060
 5650SOL     OW28585   2.435   2.491  12.475  0.0395  0.3454  0.3050
 5650SOL    HW128586   2.453   2.400  12.496  0.0748 -0.1511 -1.9615
 5650SOL    HW228587   2.520   2.523  12.503  0.2285  0.3232 -0.2484
 5651SOL     OW28588   2.170   2.669   5.950  0.0516 -0.0511  0.5658
 5651SOL    HW128589   2.126   2.615   6.016 -0.2957 -3.1285 -2.2001
 5651SOL    HW228590   2.108   2.741   5.935  1.2083  0.7104 -0.5961
 5652SOL     OW28591   4.613   3.091   7.534  0.1784  0.5593  0.0309
 5652SOL    HW128592   4.549   3.150   7.572 -0.6823 -0.8986  0.8344
 5652SOL    HW228593   4.684   3.155   7.535 -0.9943  1.8645 -1.2284
 5653SOL     OW28594   2.444   2.734   8.306  0.3056  0.4637 -0.0933
 5653SOL    HW128595   2.536   2.748   8.284 -0.0514  1.2001 -1.1200
 5653SOL    HW228596   2.435   2.644   8.337  1.4758  0.2167 -0.4876
 5654SOL     OW28597   2.965   3.733   4.028 -0.5764 -0.4795 -0.0993
 5654SOL    HW128598   2.913   3.653   4.030  2.6337 -2.5730  0.5531
 5654SOL    HW228599   2.899   3.799   4.049  0.5973  0.5207  0.4768
 5655SOL     OW28600   2.601   1.326   5.343  0.5564 -0.0292  0.0984
 5655SOL    HW128601   2.554   1.245   5.362  1.5207 -0.7038 -0.3884
 5655SOL    HW228602   2.688   1.286   5.338  0.0967 -1.1664  1.5337
 5656SOL     OW28603   2.276   2.754   2.568  0.5350 -0.2720  0.1270
 5656SOL    HW128604   2.209   2.690   2.591 -0.3436  0.5703 -0.0683
 5656SOL    HW228605   2.215   2.825   2.550  2.1861  0.9682 -0.5853
 5657SOL     OW28606   1.244   4.014   5.007 -0.2591 -0.3097  0.3158
 5657SOL    HW128607   1.316   4.000   5.068  0.9288  0.5816 -0.8640
 5657SOL    HW228608   1.184   4.069   5.057  0.5545 -0.1456  1.1046
 5658SOL     OW28609   2.376   2.143  17.535  0.0306  0.2787  0.1392
 5658SOL    HW128610   2.464   2.107  17.527 -0.8539 -1.6879 -0.7481
 5658SOL    HW228611   2.377   2.172  17.627 -0.0323  0.4753  0.0778
 5659SOL     OW28612   4.656   0.185   4.155 -0.2027  0.7496  0.4412
 5659SOL    HW128613   4.662   0.195   4.060  0.1685 -1.4425  0.2355
 5659SOL    HW228614   4.582   0.241   4.180 -0.4474  0.5059  0.2591
 5660SOL     OW28615   1.026   1.640  13.503  0.3329 -0.3081  0.5993
 5660SOL    HW128616   1.093   1.698  13.538 -2.0214  1.5954  1.9973
 5660SOL    HW228617   1.064   1.629  13.416  1.6908  0.9000  1.0372
 5661SOL     OW28618   0.568   1.104   0.434  0.6989  0.5033 -0.4260
 5661SOL    HW128619   0.487   1.077   0.390 -0.5284  3.1231  0.1804
 5661SOL    HW228620   0.578   1.194   0.403 -0.1483  0.6408 -0.3143
 5662SOL     OW28621   3.918   2.992   2.775  0.5250 -0.0361  0.0320
 5662SOL    HW128622   3.836   3.037   2.796  0.8940  1.0626 -0.8758
 5662SOL    HW228623   3.889   2.904   2.800  0.6482 -0.7814 -2.4540
 5663SOL     OW28624   1.365   2.746   3.704 -0.1238 -0.2006  0.0816
 5663SOL    HW128625   1.286   2.711   3.662  1.2436 -1.3467 -1.5293
 5663SOL    HW228626   1.353   2.840   3.719  2.9032  0.0726  0.6620
 5664SOL     OW28627   2.102   3.598  11.804 -0.0884 -0.7866 -0.3037
 5664SOL    HW128628   2.161   3.626  11.873  1.4780 -0.6128 -1.7104
 5664SOL    HW228629   2.039   3.670  11.800  0.1935 -0.6006 -1.5445
 5665SOL     OW28630   0.256   3.152   3.711 -0.2150  0.5567 -0.5963
 5665SOL    HW128631   0.168   3.116   3.716  0.0248  0.0987  0.4254
 5665SOL    HW228632   0.308   3.077   3.739 -1.2059 -0.4212 -1.3733
 5666SOL     OW28633   1.892   3.106  13.617 -0.6602  0.1583  0.2602
 5666SOL    HW128634   1.885   3.012  13.600 -0.9679  0.0141  1.2009
 5666SOL    HW228635   1.827   3.140  13.556 -0.2687 -1.0304 -0.8291
 5667SOL     OW28636   3.465   0.402   1.647  0.1968  0.2273 -0.3963
 5667SOL    HW128637   3.448   0.461   1.574  0.1774 -1.2417 -1.5713
 5667SOL    HW228638   3.473   0.317   1.604 -0.4176  0.1054 -0.2663
 5668SOL     OW28639   4.695   4.337   0.077 -0.0938  0.0245  0.2515
 5668SOL    HW128640   0.051   4.324   0.065 -0.0568  0.1130  0.4370
 5668SOL    HW228641   4.668   4.246   0.062 -1.1921  0.2961  0.5766
 5669SOL     OW28642   2.031   4.197   4.819 -0.0183 -0.3969  0.0271
 5669SOL    HW128643   1.955   4.198   4.761 -0.3112  1.3208  0.4385
 5669SOL    HW228644   1.991   4.185   4.905 -1.4825 -2.3853 -0.9426
 5670SOL     OW28645   2.375   0.164  13.056 -0.6711 -0.0194  0.9235
 5670SOL    HW128646   2.305   0.097  13.056 -0.6034 -0.0939  0.1653
 5670SOL    HW228647   2.405   0.151  13.146  2.2284  0.6216  0.0448
 5671SOL     OW28648   0.335   3.356   1.953  0.2773  0.1427 -0.3020
 5671SOL    HW128649   0.386   3.307   2.018 -0.3196  0.4430  0.3897
 5671SOL    HW228650   0.391   3.368   1.876  0.3088 -0.0226 -0.3047
 5672SOL     OW28651   3.584   0.615   3.373 -0.2012 -0.9348 -0.2527
 5672SOL    HW128652   3.511   0.616   3.435 -0.6430  3.9701 -0.8782
 5672SOL    HW228653   3.601   0.708   3.358 -0.2853 -1.1215 -1.4933
 5673SOL     OW28654   1.526   4.624   2.630 -0.1609  0.4241 -0.2966
 5673SOL    HW128655   1.509   4.533   2.605 -2.0679  1.0361 -1.2600
 5673SOL    HW228656   1.449   4.661   2.586 -0.3258 -1.2923 -1.4285
 5674SOL     OW28657   2.914   4.474  12.502  0.0450  0.6796 -0.4535
 5674SOL    HW128658   3.007   4.493  12.509  0.3059  0.0076 -2.1638
 5674SOL    HW228659   2.925   4.393  12.552 -2.1048  0.0716 -0.9298
 5675SOL     OW28660   4.243   1.475  15.889  0.2823 -0.3375 -0.0092
 5675SOL    HW128661   4.236   1.541  15.820 -0.1443 -1.5461 -1.1128
 5675SOL    HW228662   4.337   1.482  15.905 -0.0477  3.2789  0.4832
 5676SOL     OW28663   0.188   0.857  12.175  0.1869 -0.2095  0.8828
 5676SOL    HW128664   0.140   0.777  12.150  0.9982 -1.5335  3.5697
 5676SOL    HW228665   0.113   0.915  12.192  0.6912  0.5867  0.3681
 5677SOL     OW28666   2.918   1.691  10.752  0.0494  0.2506 -0.3633
 5677SOL    HW128667   2.842   1.643  10.785  1.8540 -2.0136  0.4705
 5677SOL    HW228668   2.928   1.663  10.661 -2.3359  0.2523 -0.6402
 5678SOL     OW28669   1.957   3.448   0.478  0.3375  0.2053  0.3839
 5678SOL    HW128670   1.924   3.536   0.458  0.0551 -0.1576 -0.7510
 5678SOL    HW228671   2.047   3.450   0.447  0.7767 -0.1842  1.6283
 5679SOL     OW28672   3.555   4.249   8.742  0.8522  0.3442  0.3942
 5679SOL    HW128673   3.528   4.273   8.830 -0.8588 -0.1197 -0.0117
 5679SOL    HW228674   3.645   4.217   8.751  0.2830 -1.3045  0.0994
 5680SOL     OW28675   3.876   3.718   2.750 -0.1412  0.2392 -0.0011
 5680SOL    HW128676   3.788   3.742   2.721 -0.7154  0.4849  1.9280
 5680SOL    HW228677   3.868   3.624   2.764 -2.9523  0.4622 -0.2299
 5681SOL     OW28678   0.012   2.361   7.621  0.0624 -0.9980 -0.3724
 5681SOL    HW128679   0.003   2.352   7.716 -2.5426 -1.6571 -0.6677
 5681SOL    HW228680   4.703   2.443   7.604  2.6858  0.4823 -0.4277
 5682SOL     OW28681   1.910   0.724   7.119 -0.4904  0.1673 -0.2913
 5682SOL    HW128682   1.974   0.739   7.049 -0.5585 -0.3891 -0.4773
 5682SOL    HW228683   1.872   0.637   7.103  0.9287 -0.3253 -1.0408
 5683SOL     OW28684   4.299   0.909   8.146 -0.2047 -0.8230 -0.1351
 5683SOL    HW128685   4.334   0.966   8.216 -0.5768 -1.9401  0.9535
 5683SOL    HW228686   4.321   0.824   8.184 -0.0522 -1.0046 -0.6263
 5684SOL     OW28687   3.528   1.460   9.031 -0.3484 -0.3849 -0.0788
 5684SOL    HW128688   3.506   1.469   9.124 -4.5768 -0.3821 -1.0551
 5684SOL    HW228689   3.512   1.549   8.998  1.5460  0.1015  0.3278
 5685SOL     OW28690   2.244   0.800   7.911  0.0796 -0.1505  0.5342
 5685SOL    HW128691   2.333   0.835   7.911 -0.5575  1.4716 -0.6652
 5685SOL    HW228692   2.195   0.882   7.923 -1.0094 -0.8073  0.5288
 5686SOL     OW28693   4.622   0.541   2.854  0.2674 -0.5093  0.9947
 5686SOL    HW128694   4.558   0.581   2.913 -1.4265 -0.7403 -0.6626
 5686SOL    HW228695   4.636   0.462   2.906  0.3797 -1.5125 -0.5493
 5687SOL     OW28696   0.154   3.950   5.099  0.3169  0.4901 -0.2631
 5687SOL    HW128697   0.177   3.887   5.030 -1.0500 -0.9433  0.6055
 5687SOL    HW228698   0.063   3.925   5.108 -0.0840  1.7448 -0.7768
 5688SOL     OW28699   2.928   0.348   5.368  0.0057  0.4327 -0.4902
 5688SOL    HW128700   2.874   0.343   5.447  0.6112  0.6339 -0.0682
 5688SOL    HW228701   2.882   0.286   5.312 -1.0671 -2.0473  3.1357
 5689SOL     OW28702   1.318   2.012   2.930 -0.4192  0.4057 -0.0097
 5689SOL    HW128703   1.245   1.988   2.987 -0.4036  1.7893  0.5989
 5689SOL    HW228704   1.272   1.996   2.848 -1.8782 -2.8721  1.4492
 5690SOL     OW28705   4.110   3.700   7.715  0.2236 -0.0474 -0.2992
 5690SOL    HW128706   4.137   3.616   7.753  0.9244  0.4392  0.2941
 5690SOL    HW228707   4.191   3.724   7.670 -0.3374 -0.1198 -1.3398
 5691SOL     OW28708   2.376   0.706  11.068 -0.3266  0.6188 -0.7323
 5691SOL    HW128709   2.370   0.617  11.034 -2.2886 -0.0803  1.3602
 5691SOL    HW228710   2.372   0.763  10.991  1.2375  0.8001 -0.6697
 5692SOL     OW28711   0.224   1.337   1.045 -0.1518  0.0653  0.3911
 5692SOL    HW128712   0.263   1.320   1.131 -0.9624 -2.8385  0.1850
 5692SOL    HW228713   0.294   1.294   0.996  1.1665  0.8706  1.5662
 5693SOL     OW28714   1.416   4.087   1.728 -0.2635 -0.2413  0.5010
 5693SOL    HW128715   1.494   4.093   1.672  0.0505  0.4585  1.0000
 5693SOL    HW228716   1.357   4.150   1.687 -1.3836 -1.7482 -0.1750
 5694SOL     OW28717   3.977   4.056   8.673 -0.0965  0.4504 -0.6890
 5694SOL    HW128718   4.020   4.019   8.750 -0.6238 -0.6701 -0.9266
 5694SOL    HW228719   4.000   4.003   8.597  0.2733 -2.1882  1.2848
 5695SOL     OW28720   4.495   3.109   3.667 -0.0155 -0.3941  0.0179
 5695SOL    HW128721   4.425   3.169   3.690  1.3776  0.8828  0.9174
 5695SOL    HW228722   4.494   3.112   3.571  0.1582 -0.8510  0.0016
 5696SOL     OW28723   0.907   4.651  12.198 -0.2705  0.0214  0.1612
 5696SOL    HW128724   0.866   4.615  12.119  1.2243 -3.1903  0.8380
 5696SOL    HW228725   0.995   4.616  12.186 -0.5923 -0.5067 -0.7281
 5697SOL     OW28726   3.153   4.329   2.513  0.3459  0.1059 -0.1903
 5697SOL    HW128727   3.135   4.404   2.456  1.6577  0.4378 -0.1585
 5697SOL    HW228728   3.179   4.252   2.461  3.0763  0.0389  1.3055
 5698SOL     OW28729   3.525   3.359  16.190  0.0584  0.2694  0.1068
 5698SOL    HW128730   3.599   3.318  16.146  2.4080  4.8824 -0.2021
 5698SOL    HW228731   3.482   3.412  16.122 -0.1429  1.0012  0.8028
 5699SOL     OW28732   2.281   1.820  16.676  0.1093  0.6241  0.5492
 5699SOL    HW128733   2.264   1.812  16.770 -2.1353  2.4820  0.2974
 5699SOL    HW228734   2.375   1.799  16.672  0.0465  0.6046 -0.7351
 5700SOL     OW28735   3.964   2.823  17.713  0.4033 -0.1673  0.0273
 5700SOL    HW128736   4.004   2.777   0.036 -1.2672 -0.9437  0.4490
 5700SOL    HW228737   4.019   2.800  17.638 -1.3434  2.7900 -2.2043
 5701SOL     OW28738   2.546   0.360  16.737  0.0470  0.7082 -0.0118
 5701SOL    HW128739   2.458   0.326  16.751 -0.4271  1.6627 -0.6818
 5701SOL    HW228740   2.542   0.392  16.647  0.5155 -1.3962 -0.7960
 5702SOL     OW28741   4.247   1.102  10.349  0.2277  0.3371 -0.7640
 5702SOL    HW128742   4.265   1.190  10.316  0.8273  0.2671 -0.6162
 5702SOL    HW228743   4.309   1.102  10.421 -1.3496 -0.8759  0.5751
 5703SOL     OW28744   0.781   1.421   8.766 -0.2809 -0.0957  0.2811
 5703SOL    HW128745   0.777   1.512   8.736  0.8834 -0.1418 -0.0407
 5703SOL    HW228746   0.781   1.387   8.676  0.8296  1.6331 -0.3927
 5704SOL     OW28747   2.187   1.495   4.401  0.9727  0.0437 -0.2038
 5704SOL    HW128748   2.145   1.581   4.394 -1.2539 -1.0112  0.3077
 5704SOL    HW228749   2.159   1.465   4.487  2.4464 -2.3219 -0.5456
 5705SOL     OW28750   0.389   2.308   5.145  0.2033 -0.4768  0.1360
 5705SOL    HW128751   0.423   2.241   5.204  0.7144 -2.4087 -2.3307
 5705SOL    HW228752   0.385   2.248   5.070 -0.4483 -2.6105  1.8569
 5706SOL     OW28753   3.089   0.522   0.742 -0.2138 -1.1514 -0.3458
 5706SOL    HW128754   3.033   0.564   0.676  0.2004 -1.8834 -1.1468
 5706SOL    HW228755   3.100   0.435   0.705  0.7207 -0.3936 -1.8417
 5707SOL     OW28756   2.103   0.947  17.744  0.2300  0.0115 -0.2561
 5707SOL    HW128757   2.035   0.998   0.038  0.0035 -1.0232  0.5843
 5707SOL    HW228758   2.163   1.019  17.725 -0.4277  0.8238  0.7060
 5708SOL     OW28759   3.787   1.657   8.843  0.2438  0.2826  0.1711
 5708SOL    HW128760   3.867   1.693   8.806  0.0342 -0.4730 -1.0466
 5708SOL    HW228761   3.740   1.731   8.882  0.9914  0.9386 -0.1838
 5709SOL     OW28762   4.013   3.856  17.277 -0.1878 -0.2692  0.8010
 5709SOL    HW128763   3.939   3.914  17.260 -0.4630 -1.4717 -2.1066
 5709SOL    HW228764   3.999   3.792  17.207  0.1053  0.1597  0.3558
 5710SOL     OW28765   3.244   3.412   3.121 -0.1413  0.6435 -0.1769
 5710SOL    HW128766   3.302   3.475   3.163  0.9475  0.2642 -1.0954
 5710SOL    HW228767   3.231   3.341   3.184 -0.5967  0.8128 -0.0867
 5711SOL     OW28768   0.300   4.541   4.518 -0.1031 -0.2109 -0.1986
 5711SOL    HW128769   0.220   4.508   4.560 -1.0379 -0.9518 -2.5417
 5711SOL    HW228770   0.312   4.471   4.453 -3.1875  0.1551 -1.1683
 5712SOL     OW28771   4.261   1.340   5.283 -0.0213  0.1260  0.6414
 5712SOL    HW128772   4.283   1.254   5.249 -0.0905  0.1443  0.5506
 5712SOL    HW228773   4.267   1.383   5.197 -1.2297 -0.1469  0.4300
 5713SOL     OW28774   1.906   2.939  11.120  0.0089  0.0524  0.2338
 5713SOL    HW128775   1.824   2.940  11.168 -1.5582 -0.2802 -2.4014
 5713SOL    HW228776   1.965   2.928  11.194  0.9544 -1.1837 -0.6922
 5714SOL     OW28777   0.421   0.903   7.121 -0.0286  0.0480 -0.0738
 5714SOL    HW128778   0.393   0.992   7.141  2.2598  0.8315 -0.4140
 5714SOL    HW228779   0.338   0.881   7.078  0.8014 -0.5471 -1.3987
 5715SOL     OW28780   3.959   0.708   6.116  0.3932  0.0018 -1.2296
 5715SOL    HW128781   3.884   0.749   6.160 -0.2734  0.1607 -2.5380
 5715SOL    HW228782   3.935   0.617   6.133 -1.8941  0.1715 -3.6079
 5716SOL     OW28783   3.538   2.134   7.298 -0.2259  0.6155 -0.1313
 5716SOL    HW128784   3.616   2.079   7.291 -0.0342  0.7695  0.8524
 5716SOL    HW228785   3.522   2.150   7.205  0.2654  1.5924 -0.0521
 5717SOL     OW28786   1.295   0.821   2.055  0.0665  0.2554  0.2603
 5717SOL    HW128787   1.210   0.835   2.096  0.7375 -0.6307  1.9325
 5717SOL    HW228788   1.324   0.744   2.103 -0.7394 -0.3752 -0.2578
 5718SOL     OW28789   1.399   2.055   8.314  0.0021  0.4182 -0.5815
 5718SOL    HW128790   1.425   1.963   8.304 -2.4094 -0.3341 -0.0538
 5718SOL    HW228791   1.306   2.061   8.289  0.4291  0.6848 -2.0752
 5719SOL     OW28792   3.521   4.598  11.841  0.1390  0.2914  0.1418
 5719SOL    HW128793   3.538   4.586  11.935 -1.8051  1.2600  0.6171
 5719SOL    HW228794   3.426   4.611  11.838  0.0598  0.1221  1.7808
 5720SOL     OW28795   2.160   3.671  10.876  0.1081 -0.9946  0.3569
 5720SOL    HW128796   2.248   3.633  10.877  1.1346  1.3203 -1.2487
 5720SOL    HW228797   2.133   3.667  10.968  1.6278  0.2277  0.8630
 5721SOL     OW28798   2.970   1.062   2.468 -0.9292  0.9475  0.1032
 5721SOL    HW128799   2.895   1.042   2.524 -1.6051 -1.3297 -1.5752
 5721SOL    HW228800   2.939   1.145   2.432 -4.2003 -0.2865  0.0521
 5722SOL     OW28801   1.612   2.684   3.635  0.4475  0.1511  0.1395
 5722SOL    HW128802   1.525   2.683   3.674  1.4136 -4.5456  2.1906
 5722SOL    HW228803   1.672   2.724   3.697  0.0009  0.8790  0.0958
 5723SOL     OW28804   1.487   0.473  11.858 -0.1796  0.7575  0.0179
 5723SOL    HW128805   1.393   0.492  11.856  0.2471  2.9224  0.4027
 5723SOL    HW228806   1.493   0.423  11.940 -3.8097 -0.7255 -0.6363
 5724SOL     OW28807   2.337   1.917   1.921 -0.0992 -0.1237 -0.6086
 5724SOL    HW128808   2.309   2.006   1.900  0.8689 -0.3116 -2.7327
 5724SOL    HW228809   2.432   1.922   1.914 -0.0332 -0.1363  0.3524
 5725SOL     OW28810   4.357   3.104  16.618 -0.3052  0.0580  0.0650
 5725SOL    HW128811   4.294   3.034  16.637 -1.6010  0.8627 -1.2230
 5725SOL    HW228812   4.443   3.074  16.646 -0.7496 -0.9773  0.3029
 5726SOL     OW28813   2.763   1.469   3.025 -0.1355  0.0455  0.2148
 5726SOL    HW128814   2.809   1.528   3.085 -0.0193 -3.0734  3.2271
 5726SOL    HW228815   2.831   1.412   2.988 -0.1501 -0.1509  0.4883
 5727SOL     OW28816   2.333   3.894   0.291 -0.2775  0.0263  0.1682
 5727SOL    HW128817   2.276   3.823   0.262 -0.8129  0.3319  0.4741
 5727SOL    HW228818   2.414   3.868   0.247  0.0334 -1.5753  1.7038
 5728SOL     OW28819   0.074   2.765   3.934 -0.3260 -0.1924 -0.2078
 5728SOL    HW128820   0.167   2.770   3.914 -0.4911 -1.2584 -1.2996
 5728SOL    HW228821   0.052   2.763   3.840  2.8408 -2.5360 -0.9092
 5729SOL     OW28822   1.508   0.702  12.101 -0.4001 -0.2266  0.4948
 5729SOL    HW128823   1.580   0.655  12.060 -1.0855 -0.2945 -0.6274
 5729SOL    HW228824   1.556   0.783  12.119 -0.1024  0.3312 -2.7401
 5730SOL     OW28825   4.104   3.285  11.764 -0.1092 -0.3344 -0.3439
 5730SOL    HW128826   4.088   3.325  11.678  2.9659 -1.8440 -1.6514
 5730SOL    HW228827   4.099   3.195  11.729  1.8679 -1.4228  2.2306
 5731SOL     OW28828   2.123   2.786  11.585 -0.1230  0.0991  0.3871
 5731SOL    HW128829   2.143   2.742  11.669  0.5053 -1.2689 -0.4734
 5731SOL    HW228830   2.052   2.841  11.616  0.3151  1.5433 -1.2153
 5732SOL     OW28831   4.309   1.202  12.678 -0.2759 -0.0281 -0.0660
 5732SOL    HW128832   4.404   1.213  12.671 -0.1832 -1.7385 -1.5546
 5732SOL    HW228833   4.302   1.177  12.770 -3.2297 -0.4623 -0.4192
 5733SOL     OW28834   0.459   4.141   9.963 -0.2646  0.1378 -0.0536
 5733SOL    HW128835   0.466   4.072   9.897 -1.5214  0.3804 -0.4457
 5733SOL    HW228836   0.506   4.105  10.038  1.8778  1.7426 -0.6286
 5734SOL     OW28837   4.597   4.731   5.354  0.3716  0.1352  0.5117
 5734SOL    HW128838   4.580   4.648   5.399  1.5974 -0.8198 -0.7906
 5734SOL    HW228839   4.621   4.693   5.269 -1.5454  0.2981 -0.1125
 5735SOL     OW28840   1.139   2.793   4.960 -0.0453 -0.2111  0.4395
 5735SOL    HW128841   1.145   2.877   4.914 -1.9140 -1.3542 -1.9130
 5735SOL    HW228842   1.049   2.769   4.936  0.1525 -1.2088  0.7155
 5736SOL     OW28843   4.718   4.060   0.736  0.2154 -0.3144  0.2244
 5736SOL    HW128844   4.669   4.086   0.814  1.3687  0.0499  0.8327
 5736SOL    HW228845   0.051   4.123   0.749  0.5037 -0.5188 -0.3311
 5737SOL     OW28846   0.774   2.547   9.587 -0.1002 -0.4204 -0.5561
 5737SOL    HW128847   0.809   2.512   9.669  0.1395  0.0434 -0.4565
 5737SOL    HW228848   0.743   2.468   9.544  0.8374 -1.4651  0.7021
 5738SOL     OW28849   1.864   2.329  16.625  0.3261  0.1460  0.3523
 5738SOL    HW128850   1.886   2.288  16.709 -0.4347  1.3045  1.1303
 5738SOL    HW228851   1.864   2.419  16.659  0.8137 -0.0414  0.8442
 5739SOL     OW28852   4.059   1.217   8.679  0.5886  0.4353 -0.5501
 5739SOL    HW128853   4.144   1.223   8.723  0.2464 -1.7067  0.3718
 5739SOL    HW228854   4.028   1.137   8.721 -1.1880 -0.6818 -3.9583
 5740SOL     OW28855   4.706   0.226  15.582 -0.5231 -0.1452  0.1571
 5740SOL    HW128856   0.055   0.228  15.541 -0.1772 -0.4275  0.8811
 5740SOL    HW228857   4.727   0.261  15.668 -0.2480 -3.2348  1.3143
 5741SOL     OW28858   2.425   1.752  14.004 -0.4595  0.2469 -0.0675
 5741SOL    HW128859   2.388   1.706  14.080 -0.2434  1.2070  0.6120
 5741SOL    HW228860   2.397   1.690  13.936  0.2637  0.9449 -1.0079
 5742SOL     OW28861   2.824   0.095   6.073 -0.4240 -0.4606  0.2731
 5742SOL    HW128862   2.833   0.151   5.996 -1.4784 -0.8949 -0.1629
 5742SOL    HW228863   2.807   0.160   6.141  0.7725 -0.8435  0.9346
 5743SOL     OW28864   0.211   3.442   0.030 -0.0203 -0.1837  0.0923
 5743SOL    HW128865   0.213   3.472  17.690 -0.2759 -2.3758 -0.6416
 5743SOL    HW228866   0.191   3.349   0.015 -0.2240 -0.0581 -0.4052
 5744SOL     OW28867   4.334   1.578   6.219  0.4040  0.0074  0.0779
 5744SOL    HW128868   4.338   1.648   6.154  1.5160  0.5130  0.6959
 5744SOL    HW228869   4.426   1.573   6.246  0.2496  0.0067  0.6076
 5745SOL     OW28870   1.102   0.462   9.854 -0.4318 -0.0025 -0.1225
 5745SOL    HW128871   1.124   0.473   9.946 -2.0486 -0.6122  0.3388
 5745SOL    HW228872   1.081   0.369   9.851 -1.1298  0.1611 -0.2074
 5746SOL     OW28873   2.382   4.139   4.768 -0.1246  0.0856  0.5461
 5746SOL    HW128874   2.332   4.175   4.695  1.0599  2.4602  0.8808
 5746SOL    HW228875   2.362   4.046   4.763  1.8218 -0.3800  1.2269
 5747SOL     OW28876   3.626   0.342   6.208  0.5381  0.6760 -0.5207
 5747SOL    HW128877   3.619   0.405   6.136 -0.2747  1.3321  0.1348
 5747SOL    HW228878   3.655   0.264   6.161  1.4745 -0.1220  1.3738
 5748SOL     OW28879   0.767   3.664   8.175 -0.4762  0.9854 -0.5937
 5748SOL    HW128880   0.830   3.651   8.246 -0.7601  0.9247 -0.3546
 5748SOL    HW228881   0.809   3.732   8.122 -1.9831  3.1563  0.9948
 5749SOL     OW28882   3.199   0.427   7.143  0.6177  1.1021 -0.1147
 5749SOL    HW128883   3.229   0.342   7.108  0.9840  1.3500 -0.4072
 5749SOL    HW228884   3.277   0.448   7.195 -0.6677  2.3254  1.2966
 5750SOL     OW28885   1.324   2.741  14.433 -0.2484 -0.5010 -0.1101
 5750SOL    HW128886   1.293   2.658  14.470  2.8858 -1.0807  1.2190
 5750SOL    HW228887   1.241   2.788  14.444  0.1134  0.2318 -0.5228
 5751SOL     OW28888   0.552   1.395   9.398  0.0822  0.6832  0.0754
 5751SOL    HW128889   0.606   1.456   9.349 -0.9151  0.3453 -1.4538
 5751SOL    HW228890   0.622   1.358   9.451  0.4078 -0.0524 -0.8727
 5752SOL     OW28891   1.555   4.009   6.782  0.0579 -0.1384  0.0175
 5752SOL    HW128892   1.477   4.062   6.765  0.0975 -0.2010 -0.3695
 5752SOL    HW228893   1.590   4.054   6.858 -0.9756  0.8450 -0.0822
 5753SOL     OW28894   4.586   3.341   4.925  0.2974 -0.9151  0.0320
 5753SOL    HW128895   4.648   3.287   4.876  1.6382  0.7907 -0.1582
 5753SOL    HW228896   4.524   3.273   4.948  0.0824 -0.8930 -0.4953
 5754SOL     OW28897   0.736   2.932   3.160  0.2680  0.3107  0.3590
 5754SOL    HW128898   0.743   3.002   3.225 -0.2119  0.4343  0.2784
 5754SOL    HW228899   0.828   2.906   3.154 -0.0410 -0.5258 -0.8040
 5755SOL     OW28900   0.407   1.944   2.772  0.2695 -0.1176 -0.4126
 5755SOL    HW128901   0.460   2.023   2.762  1.1354 -0.4690  1.4124
 5755SOL    HW228902   0.405   1.912   2.682  0.9809 -1.5690  0.0832
 5756SOL     OW28903   2.905   2.035   4.443 -0.2030  0.1453 -0.2304
 5756SOL    HW128904   2.894   2.124   4.409  0.3414  0.4622  0.4153
 5756SOL    HW228905   2.930   1.983   4.367 -1.1603 -0.8478  0.1293
 5757SOL     OW28906   4.186   1.429  11.407  0.0847  0.3718  0.3951
 5757SOL    HW128907   4.111   1.377  11.377  0.9020  0.2793 -1.5296
 5757SOL    HW228908   4.142   1.498  11.456 -1.4178  1.1069 -2.0015
 5758SOL     OW28909   3.846   0.151   6.742  0.3652  0.6376 -0.4693
 5758SOL    HW128910   3.867   0.122   6.830  1.9243  0.4959 -0.8880
 5758SOL    HW228911   3.911   0.111   6.684 -0.1030  0.9490 -1.2155
 5759SOL     OW28912   0.589   4.228  17.724 -0.0155 -0.0880  1.0390
 5759SOL    HW128913   0.617   4.179  17.646 -1.3348  2.7029 -1.1768
 5759SOL    HW228914   0.664   4.288  17.718 -1.0981  1.2007  0.4645
 5760SOL     OW28915   0.010   3.509  16.322 -0.5632 -0.2793  0.0613
 5760SOL    HW128916   0.091   3.468  16.354 -0.6312 -0.9116 -0.5575
 5760SOL    HW228917   4.713   3.531  16.408 -1.4281 -1.0199 -0.1055
 5761SOL     OW28918   2.537   0.529   4.863  0.6538 -0.3857  0.1003
 5761SOL    HW128919   2.624   0.511   4.829 -0.6423 -0.5453 -3.1590
 5761SOL    HW228920   2.545   0.608   4.916 -2.5648 -0.0505  0.0945
 5762SOL     OW28921   0.963   0.716  13.872 -0.1976  0.0194 -0.3264
 5762SOL    HW128922   0.883   0.675  13.905 -0.4612 -1.5765 -2.9262
 5762SOL    HW228923   1.017   0.648  13.833 -1.5461 -1.1832 -0.1130
 5763SOL     OW28924   0.524   4.481  13.453 -0.1983  0.1752  0.2751
 5763SOL    HW128925   0.473   4.413  13.409  0.4897 -0.3187  0.2436
 5763SOL    HW228926   0.500   4.476  13.546  1.5435 -0.3547  0.6967
 5764SOL     OW28927   0.219   3.410   3.684  0.2590 -0.7566 -0.2579
 5764SOL    HW128928   0.157   3.395   3.612  0.7032 -1.5722 -0.4781
 5764SOL    HW228929   0.234   3.322   3.718 -0.8460 -0.7697  0.1966
 5765SOL     OW28930   3.162   2.152   8.014  0.2714  0.2798 -0.3866
 5765SOL    HW128931   3.157   2.205   7.935 -0.0271  1.0035  0.1085
 5765SOL    HW228932   3.244   2.105   8.002  0.6137  0.7653  0.0450
 5766SOL     OW28933   1.330   4.285   4.051  0.6418  0.4461  0.8534
 5766SOL    HW128934   1.391   4.220   4.088  0.7286 -1.3718 -2.4226
 5766SOL    HW228935   1.290   4.311   4.133  0.4260 -0.3208  0.9970
 5767SOL     OW28936   1.935   1.107  11.215  0.6443  0.4976 -0.3558
 5767SOL    HW128937   2.002   1.094  11.282 -1.6734 -0.7898  1.6901
 5767SOL    HW228938   1.924   1.202  11.220  2.4184  0.6765  0.0081
 5768SOL     OW28939   4.540   2.776   7.784  0.1065  0.6502 -0.2019
 5768SOL    HW128940   4.509   2.688   7.808  1.8872  0.1916  0.4258
 5768SOL    HW228941   4.544   2.764   7.689 -0.1268 -0.6844 -0.0463
 5769SOL     OW28942   2.149   4.257   6.660 -0.3539  0.2859 -0.1294
 5769SOL    HW128943   2.054   4.250   6.673 -0.5235  0.3088 -1.3159
 5769SOL    HW228944   2.154   4.341   6.615 -0.3654  0.4396  0.1579
 5770SOL     OW28945   0.574   4.649  15.817 -0.0025  0.0297  0.4892
 5770SOL    HW128946   0.483   4.631  15.794 -0.1791  0.6476  0.7051
 5770SOL    HW228947   0.618   4.564  15.818  0.5682  0.3226  0.2377
 5771SOL     OW28948   2.567   1.157   1.515  0.5978  0.7364  0.0943
 5771SOL    HW128949   2.650   1.125   1.549 -0.8710 -2.7906  0.4116
 5771SOL    HW228950   2.540   1.216   1.584 -1.0079 -1.6050  1.4652
 5772SOL     OW28951   2.383   2.745   4.153 -0.1484  0.7677  0.0267
 5772SOL    HW128952   2.451   2.721   4.090 -0.1130  1.8895 -0.3811
 5772SOL    HW228953   2.397   2.676   4.217 -2.5139 -0.6213 -0.9399
 5773SOL     OW28954   0.502   2.012   5.852 -0.3063 -0.0074  0.3005
 5773SOL    HW128955   0.542   2.091   5.817 -2.8019  0.9727 -0.3182
 5773SOL    HW228956   0.472   1.976   5.769 -0.5292  4.6701 -1.6448
 5774SOL     OW28957   2.753   1.499   9.264  0.0993  0.8246  0.0689
 5774SOL    HW128958   2.815   1.508   9.191 -0.3885 -1.4258 -0.6325
 5774SOL    HW228959   2.697   1.577   9.257 -0.9152  0.1319  0.3563
 5775SOL     OW28960   2.159   1.361   7.476  1.4490 -0.8727  0.5216
 5775SOL    HW128961   2.070   1.375   7.444  1.7823  2.9702  1.3106
 5775SOL    HW228962   2.212   1.387   7.401  0.6898 -2.6029 -0.6065
 5776SOL     OW28963   1.484   1.304   0.188  0.2673 -0.4047 -0.0237
 5776SOL    HW128964   1.519   1.346   0.267  3.0390 -0.6290 -1.1180
 5776SOL    HW228965   1.394   1.290   0.216  0.4519 -1.4745  0.0536
 5777SOL     OW28966   3.094   1.080  16.577 -0.4851 -0.2241 -0.6879
 5777SOL    HW128967   3.111   1.085  16.483 -0.5301  1.6101 -0.5992
 5777SOL    HW228968   3.124   0.992  16.600 -1.8481 -0.2275  1.1040
 5778SOL     OW28969   3.968   3.978   3.598 -0.5606 -0.2866  0.0272
 5778SOL    HW128970   4.025   4.029   3.540  0.7725 -1.8995 -0.0688
 5778SOL    HW228971   3.983   4.031   3.677 -1.2433 -0.4831  0.2915
 5779SOL     OW28972   1.654   0.240   1.959 -0.3820 -0.2865  0.0760
 5779SOL    HW128973   1.576   0.293   1.974 -0.4726 -0.3988 -0.0015
 5779SOL    HW228974   1.607   0.158   1.944  0.7684 -1.0400  0.5902
 5780SOL     OW28975   0.143   1.428  15.426  0.5367  0.0398 -0.4433
 5780SOL    HW128976   0.101   1.511  15.451 -2.2258 -1.1054 -1.2069
 5780SOL    HW228977   0.148   1.439  15.331 -0.1621  0.0120 -0.4845
 5781SOL     OW28978   2.947   2.041   0.810  0.5085 -0.1056  0.4427
 5781SOL    HW128979   2.920   2.051   0.719  0.0317 -1.3964  0.4340
 5781SOL    HW228980   2.869   2.065   0.861  0.5171  0.1551  0.3317
 5782SOL     OW28981   4.214   1.514   2.129 -0.5361 -0.0681  0.1537
 5782SOL    HW128982   4.226   1.460   2.051  1.9925 -0.6998  0.9893
 5782SOL    HW228983   4.123   1.543   2.125 -0.5110 -0.0695 -0.4870
 5783SOL     OW28984   3.708   4.689   6.219  0.7755  0.7576  0.0257
 5783SOL    HW128985   3.621   4.708   6.255 -0.6322 -1.7606 -2.0548
 5783SOL    HW228986   3.735   4.623   6.283 -1.4871 -0.3036 -0.1162
 5784SOL     OW28987   2.283   1.313  14.061  0.2860  0.1588 -0.5615
 5784SOL    HW128988   2.266   1.403  14.089  0.7978 -0.0433  0.4041
 5784SOL    HW228989   2.211   1.274  14.110 -0.4678  2.0416 -0.1468
 5785SOL     OW28990   3.507   0.309   8.557 -0.5324 -0.3501  0.7799
 5785SOL    HW128991   3.454   0.341   8.484  0.2901 -0.4025  0.1669
 5785SOL    HW228992   3.590   0.315   8.511 -1.1303  2.1296  0.0392
 5786SOL     OW28993   1.411   3.401   7.546 -0.7740  0.6381 -0.1155
 5786SOL    HW128994   1.352   3.412   7.620 -1.5464  2.5016 -1.0285
 5786SOL    HW228995   1.362   3.445   7.477 -2.1155  0.5124  0.7505
 5787SOL     OW28996   3.631   2.687   3.434 -0.1034  0.4178  0.5435
 5787SOL    HW128997   3.593   2.774   3.419 -0.1921 -0.2782 -3.3808
 5787SOL    HW228998   3.677   2.668   3.352  0.4910 -1.8081  1.3906
 5788SOL     OW28999   1.885   4.720   8.952  0.1199  0.3689  0.5124
 5788SOL    HW129000   1.909   4.637   8.994  0.3617  0.4934  0.6241
 5788SOL    HW229001   1.917   0.041   9.021  1.3249  0.3699 -0.0451
 5789SOL     OW29002   1.350   4.725   6.388  0.1803  0.0734  0.4146
 5789SOL    HW129003   1.357   4.644   6.439  0.2404 -0.6739 -0.7714
 5789SOL    HW229004   1.434   4.718   6.341  0.7714  0.6258  1.3922
 5790SOL     OW29005   3.707   3.173   2.816  0.0100  0.4492 -0.3496
 5790SOL    HW129006   3.640   3.141   2.755 -0.1708  0.9531 -0.4111
 5790SOL    HW229007   3.653   3.176   2.895  0.2992  0.2597 -0.1456
 5791SOL     OW29008   4.562   1.415   8.270 -0.0332  0.1149 -0.0273
 5791SOL    HW129009   4.598   1.341   8.223 -1.6547 -0.2828 -0.6425
 5791SOL    HW229010   4.472   1.427   8.240  0.0346  2.6319  0.7647
 5792SOL     OW29011   4.672   1.116   2.351  0.1199  0.1257  0.2031
 5792SOL    HW129012   0.011   1.063   2.375  1.4622  0.6640 -2.8810
 5792SOL    HW229013   4.604   1.075   2.404 -0.2828  2.0312  1.1923
 5793SOL     OW29014   1.667   0.244  16.864 -0.3192  0.2532  0.3889
 5793SOL    HW129015   1.659   0.267  16.772  0.6904 -1.0061 -0.0060
 5793SOL    HW229016   1.676   0.336  16.891 -0.1127  0.3825 -0.1306
 5794SOL     OW29017   3.001   3.185  10.302 -0.5517  0.0085 -0.2627
 5794SOL    HW129018   3.024   3.161  10.212  3.8959 -1.3833  1.2527
 5794SOL    HW229019   2.933   3.121  10.324  1.3577 -1.0471  2.5285
 5795SOL     OW29020   1.748   2.377  10.813  0.2858  0.2641 -0.3542
 5795SOL    HW129021   1.726   2.453  10.759 -1.5600  1.9047  2.6807
 5795SOL    HW229022   1.771   2.426  10.891 -3.8555  1.2884  0.2331
 5796SOL     OW29023   1.761   0.463   9.568  0.8957  0.2621  0.1388
 5796SOL    HW129024   1.809   0.405   9.510 -0.5557  0.0101 -0.8059
 5796SOL    HW229025   1.680   0.488   9.524  1.0026 -0.6769 -0.5812
 5797SOL     OW29026   0.393   3.365   3.129  0.0846 -0.1624  0.7217
 5797SOL    HW129027   0.358   3.276   3.132  0.8619 -0.4759  0.2390
 5797SOL    HW229028   0.319   3.406   3.084  0.8199 -0.5985 -0.8726
 5798SOL     OW29029   0.662   4.442   9.245 -0.3271 -0.4783 -0.2790
 5798SOL    HW129030   0.637   4.499   9.172  1.5658  1.1609  0.3379
 5798SOL    HW229031   0.583   4.392   9.263  0.4018 -1.0911  1.2445
 5799SOL     OW29032   4.077   0.414  13.034 -0.3073 -0.3459 -0.2258
 5799SOL    HW129033   4.133   0.351  13.079 -2.6974 -2.5534 -0.4015
 5799SOL    HW229034   4.067   0.474  13.108 -1.1277 -0.0423 -0.5755
 5800SOL     OW29035   3.132   3.095   6.367  0.1265 -0.2840  0.1596
 5800SOL    HW129036   3.091   3.013   6.340 -0.6203  0.5154 -1.1482
 5800SOL    HW229037   3.072   3.116   6.438 -0.1845  0.9283 -0.4438
 5801SOL     OW29038   0.545   3.589   2.908  0.1894  0.3537 -0.4676
 5801SOL    HW129039   0.600   3.572   2.832 -0.0420  1.2076 -0.8195
 5801SOL    HW229040   0.526   3.497   2.926 -0.0174  0.2173 -1.3794
 5802SOL     OW29041   1.778   1.269   4.118 -0.5266 -0.4198 -0.8167
 5802SOL    HW129042   1.750   1.258   4.209 -0.5431  0.4468 -0.7151
 5802SOL    HW229043   1.865   1.232   4.129 -0.4255  0.6795  2.1946
 5803SOL     OW29044   2.241   4.300   2.811 -0.0472 -0.0389  1.0531
 5803SOL    HW129045   2.208   4.378   2.765  1.5067  0.8456  1.4111
 5803SOL    HW229046   2.223   4.232   2.747 -0.5151  0.0913  1.0481
 5804SOL     OW29047   1.961   1.337   3.807  0.2055 -0.2943  0.0034
 5804SOL    HW129048   2.000   1.312   3.723 -0.5752  4.0970 -1.6598
 5804SOL    HW229049   1.990   1.428   3.816  1.7719 -1.0885  3.0735
 5805SOL     OW29050   4.570   3.295   0.340 -0.0219  0.0024 -0.1264
 5805SOL    HW129051   4.508   3.366   0.324 -0.9824 -0.7592  0.2828
 5805SOL    HW229052   4.647   3.345   0.367 -1.2411  0.7417  1.9667
 5806SOL     OW29053   4.551   3.834   1.816  0.1042 -0.9523  0.3281
 5806SOL    HW129054   4.609   3.883   1.874  1.6745 -1.6568 -0.6580
 5806SOL    HW229055   4.573   3.874   1.732 -3.5024 -0.7418 -0.5252
 5807SOL     OW29056   3.945   4.329   7.897 -0.3141 -0.0061  0.3456
 5807SOL    HW129057   4.008   4.300   7.963 -2.7393 -1.4314  2.0241
 5807SOL    HW229058   3.879   4.372   7.952  0.9326 -0.7617  2.4457
 5808SOL     OW29059   4.674   4.633   3.919  0.2020 -0.2040  0.0848
 5808SOL    HW129060   4.680   4.559   3.858 -2.3747 -0.7827  0.5325
 5808SOL    HW229061   4.723   4.609   3.997  0.2179  0.9409  0.4254
 5809SOL     OW29062   1.744   2.794   0.936 -0.3323 -0.8003 -0.6905
 5809SOL    HW129063   1.766   2.884   0.913  1.9101 -1.4376 -1.0481
 5809SOL    HW229064   1.663   2.808   0.984  0.0651 -2.9322  0.6057
 5810SOL     OW29065   0.680   0.832  11.729 -0.3347  0.0253  0.2659
 5810SOL    HW129066   0.739   0.757  11.721  0.8033  0.8078  1.3600
 5810SOL    HW229067   0.737   0.909  11.718 -1.2755  0.3065 -2.8464
 5811SOL     OW29068   0.318   3.018   8.707  0.2983  0.5151  0.3444
 5811SOL    HW129069   0.359   3.099   8.675 -0.0463  0.4206 -0.3272
 5811SOL    HW229070   0.355   2.957   8.643  0.0630  1.1844 -0.4321
 5812SOL     OW29071   0.831   2.668   8.325 -0.7462 -0.1628 -0.0465
 5812SOL    HW129072   0.740   2.643   8.342 -0.3493 -1.6070 -0.0546
 5812SOL    HW229073   0.854   2.637   8.238 -1.1357 -0.3530 -0.0780
 5813SOL     OW29074   0.887   3.492   5.242  0.4513 -0.1898 -0.2880
 5813SOL    HW129075   0.825   3.544   5.190 -0.5461  1.5587  2.6577
 5813SOL    HW229076   0.930   3.448   5.169 -1.8898 -1.9985 -0.5850
 5814SOL     OW29077   3.157   1.576   2.861 -0.1211 -0.4264  0.4060
 5814SOL    HW129078   3.160   1.666   2.893  0.5212 -0.2939 -0.0356
 5814SOL    HW229079   3.066   1.582   2.833  0.0953 -0.6261 -0.3391
 5815SOL     OW29080   1.495   2.347   5.391  0.0618 -0.0265 -0.0064
 5815SOL    HW129081   1.464   2.426   5.436  2.7044  2.2217 -2.1435
 5815SOL    HW229082   1.564   2.319   5.452  1.4319  1.9854 -0.6351
 5816SOL     OW29083   0.947   4.545  11.863 -0.2501 -0.1641 -0.3147
 5816SOL    HW129084   0.895   4.467  11.885 -1.1011  0.3268 -0.5726
 5816SOL    HW229085   0.930   4.550  11.769  1.5617  0.5004 -0.5899
 5817SOL     OW29086   0.130   3.321   4.151 -0.0243 -0.2066  0.5175
 5817SOL    HW129087   0.176   3.403   4.131  0.3581 -0.6576 -0.4557
 5817SOL    HW229088   0.190   3.283   4.216  0.0438  1.8462  1.6715
 5818SOL     OW29089   1.670   2.025   8.768  0.3350 -0.6311  0.7992
 5818SOL    HW129090   1.691   1.980   8.850 -1.3082 -0.5975  1.2344
 5818SOL    HW229091   1.585   1.987   8.747  0.1691  1.0307 -1.4946
 5819SOL     OW29092   4.355   0.532   0.200  0.0706  0.5541  0.1627
 5819SOL    HW129093   4.375   0.567   0.286  3.1225  2.0814 -1.1660
 5819SOL    HW229094   4.318   0.448   0.226  0.0484  0.9238  1.2947
 5820SOL     OW29095   3.212   3.186  17.025  0.2734  0.3068  0.3191
 5820SOL    HW129096   3.250   3.271  17.002  1.3335 -0.4900 -0.8736
 5820SOL    HW229097   3.177   3.147  16.945 -1.6183 -0.8996  1.7223
 5821SOL     OW29098   0.439   2.978  13.005  0.1906 -0.7038 -0.5859
 5821SOL    HW129099   0.534   2.975  12.992  0.2557 -1.5406  0.0965
 5821SOL    HW229100   0.400   2.949  12.923 -0.4929 -1.1307 -0.1089
 5822SOL     OW29101   3.137   2.772  15.278 -0.1248 -0.2867 -0.2810
 5822SOL    HW129102   3.047   2.791  15.302 -0.3958 -0.8750 -0.8311
 5822SOL    HW229103   3.189   2.795  15.355 -1.5140 -1.4039  0.9909
 5823SOL     OW29104   2.705   3.261   9.568 -0.3708 -0.2366  0.0823
 5823SOL    HW129105   2.667   3.312   9.639  0.1518  1.9695 -1.2348
 5823SOL    HW229106   2.691   3.174   9.605  0.2062 -0.0602  0.7110
 5824SOL     OW29107   1.843   3.570   8.436 -0.7462 -0.1914 -0.2180
 5824SOL    HW129108   1.823   3.619   8.357 -2.5084  0.4949  0.6565
 5824SOL    HW229109   1.936   3.586   8.452 -0.9881 -0.5870  1.6086
 5825SOL     OW29110   2.846   2.159   7.857  0.5866 -0.0886 -0.0301
 5825SOL    HW129111   2.881   2.087   7.804 -1.5302 -1.3270  0.2527
 5825SOL    HW229112   2.877   2.233   7.805  0.3473  1.6260  2.2743
 5826SOL     OW29113   0.968   3.187   5.642  0.2054  0.1695 -0.4321
 5826SOL    HW129114   0.931   3.263   5.598  0.2308  0.0600 -0.6425
 5826SOL    HW229115   0.976   3.215   5.733  2.4613  1.9649 -1.1866
 5827SOL     OW29116   4.630   0.605   2.327 -0.1286 -0.2487 -0.1173
 5827SOL    HW129117   4.548   0.577   2.286  0.2745 -0.0923 -1.0273
 5827SOL    HW229118   4.602   0.643   2.410 -1.9354 -0.2222 -0.7252
 5828SOL     OW29119   0.025   1.190   0.280  0.3851  0.1397  0.4248
 5828SOL    HW129120   4.721   1.275   0.267 -3.3291 -1.7151  0.2039
 5828SOL    HW229121   4.688   1.159   0.332  0.5603 -0.6926  0.1823
 5829SOL     OW29122   1.028   1.680   7.514 -0.3688 -0.6474  0.1362
 5829SOL    HW129123   1.037   1.627   7.435  0.0609  0.8316 -0.7922
 5829SOL    HW229124   1.116   1.713   7.529  0.5135 -1.9607 -2.2322
 5830SOL     OW29125   1.176   4.538  12.217 -0.2224  0.2544 -0.9478
 5830SOL    HW129126   1.256   4.544  12.270 -0.4397 -1.0126 -0.4778
 5830SOL    HW229127   1.217   4.565  12.135  0.7857 -2.7547 -1.4502
 5831SOL     OW29128   4.495   0.055  15.419 -0.0661 -0.9637  0.2042
 5831SOL    HW129129   4.549   0.006  15.357 -0.7481  1.2820 -2.1867
 5831SOL    HW229130   4.557   0.073  15.490  0.7502  0.0317 -0.7535
 5832SOL     OW29131   3.428   1.668   8.867 -0.5741  0.5094  0.8388
 5832SOL    HW129132   3.366   1.733   8.834 -1.7332 -0.8245  0.3637
 5832SOL    HW229133   3.462   1.623   8.789 -1.9026 -0.7203  0.9512
 5833SOL     OW29134   2.378   0.148   3.710 -0.1277  0.0340  0.2375
 5833SOL    HW129135   2.300   0.156   3.656 -0.4826  1.2188  0.9043
 5833SOL    HW229136   2.353   0.190   3.793  0.4559 -0.1023  0.4831
 5834SOL     OW29137   2.951   4.651  16.501  0.1271 -0.3126 -0.2828
 5834SOL    HW129138   2.911   4.625  16.418  0.2999  2.1080 -1.1275
 5834SOL    HW229139   3.041   4.672  16.475 -0.6567  1.4445 -1.5800
 5835SOL     OW29140   2.683   2.190   2.172 -0.3399 -0.3549 -0.3727
 5835SOL    HW129141   2.681   2.260   2.107  0.2258 -0.7116 -0.7798
 5835SOL    HW229142   2.610   2.225   2.223  0.0839  2.4560 -1.6742
 5836SOL     OW29143   4.219   2.036   5.596 -0.1832 -0.4194 -0.0106
 5836SOL    HW129144   4.185   2.118   5.560  0.1322 -0.5708 -0.6451
 5836SOL    HW229145   4.300   2.029   5.547 -0.6552 -0.3017 -0.8105
 5837SOL     OW29146   0.233   2.811   5.099  0.7231  0.3605 -0.9921
 5837SOL    HW129147   0.297   2.796   5.030 -0.1102 -0.3776 -1.6088
 5837SOL    HW229148   0.271   2.769   5.176  0.7958  0.0041 -1.2250
 5838SOL     OW29149   2.965   1.116  17.426 -0.3017  0.2428 -0.1181
 5838SOL    HW129150   2.972   1.022  17.407 -0.4255  0.4092 -0.9969
 5838SOL    HW229151   2.920   1.147  17.347 -1.5375 -2.3799 -0.4484
 5839SOL     OW29152   3.485   3.976  16.018 -0.0047 -0.5146 -0.2274
 5839SOL    HW129153   3.472   3.999  16.111 -0.3275 -0.6457 -0.2402
 5839SOL    HW229154   3.524   3.890  16.033 -0.7318 -0.8725 -0.3627
 5840SOL     OW29155   4.388   1.421   3.637  0.7952 -0.5363 -0.4602
 5840SOL    HW129156   4.330   1.494   3.663 -1.0021 -1.4141 -1.9700
 5840SOL    HW229157   4.353   1.392   3.553 -1.7954 -1.9940  1.0879
 5841SOL     OW29158   1.007   2.519  13.610  0.2374  0.3704  0.3440
 5841SOL    HW129159   0.968   2.585  13.667  0.6485 -0.2296  1.3222
 5841SOL    HW229160   0.973   2.437  13.645  0.4885 -0.0632 -0.4068
 5842SOL     OW29161   0.291   0.716   9.586 -0.3616  0.6890 -0.5034
 5842SOL    HW129162   0.296   0.646   9.651 -0.7225 -1.0110 -2.3059
 5842SOL    HW229163   0.255   0.790   9.634  0.7674 -1.3090  3.4185
 5843SOL     OW29164   3.999   0.391   5.312 -0.3355  0.0068  0.0033
 5843SOL    HW129165   4.040   0.406   5.226 -1.3240  0.2438 -0.4308
 5843SOL    HW229166   3.999   0.295   5.312  1.2053  0.0105  0.6676
 5844SOL     OW29167   1.393   1.436   5.186  0.0525 -0.3319  0.5273
 5844SOL    HW129168   1.420   1.423   5.095  0.5168 -1.1194  0.7755
 5844SOL    HW229169   1.461   1.384   5.230  0.1124 -0.5794  0.1406
 5845SOL     OW29170   3.459   3.082   5.585 -0.1485 -0.7345  0.3868
 5845SOL    HW129171   3.534   3.133   5.617  0.4685 -0.9747 -0.6648
 5845SOL    HW229172   3.428   3.133   5.510 -0.9569  0.0662  1.2773
 5846SOL     OW29173   2.426   0.066  11.322 -0.2074  0.3262 -0.3953
 5846SOL    HW129174   2.455   0.010  11.250  1.8719  2.0651 -0.9456
 5846SOL    HW229175   2.405   0.144  11.270 -0.2780  0.4664 -0.1591
 5847SOL     OW29176   0.936   3.984   9.453 -0.4062 -0.7397  0.3731
 5847SOL    HW129177   0.843   4.009   9.453 -0.6349 -1.6010  0.5684
 5847SOL    HW229178   0.965   4.016   9.367  0.3161 -3.8299 -0.5293
 5848SOL     OW29179   4.255   1.162  12.940 -0.6282  0.1658  0.1723
 5848SOL    HW129180   4.307   1.168  13.019  1.1444 -1.9602 -0.8262
 5848SOL    HW229181   4.172   1.165  12.987 -0.8659 -2.8570 -0.0572
 5849SOL     OW29182   4.290   1.075   2.337  0.0490  0.0834 -0.3869
 5849SOL    HW129183   4.328   1.163   2.327 -0.2479 -0.1290 -3.3692
 5849SOL    HW229184   4.200   1.095   2.365 -0.2080 -0.1227 -1.0543
 5850SOL     OW29185   1.744   1.899   8.977  0.5954  0.5742  0.3673
 5850SOL    HW129186   1.777   1.930   9.062  0.6366 -2.2973  1.3913
 5850SOL    HW229187   1.762   1.805   8.984  0.0645  0.5430  1.3001
 5851SOL     OW29188   2.818   2.599   9.355 -0.1149  0.1330 -0.1109
 5851SOL    HW129189   2.909   2.621   9.337  0.5486 -2.5610  0.0557
 5851SOL    HW229190   2.801   2.528   9.293  0.6385 -2.8484  3.1212
 5852SOL     OW29191   4.356   1.331   6.957 -0.3241  0.5243  0.1823
 5852SOL    HW129192   4.328   1.421   6.973  2.2100  0.9090  2.5629
 5852SOL    HW229193   4.275   1.286   6.933 -0.1094  1.1251 -1.6288
 5853SOL     OW29194   4.413   3.667   8.709  0.2094  0.0605  0.2432
 5853SOL    HW129195   4.343   3.716   8.666 -0.0910 -1.1719 -0.6921
 5853SOL    HW229196   4.441   3.731   8.774 -1.1102  0.4391  0.4164
 5854SOL     OW29197   2.210   1.601  16.506  0.2216  0.0326  0.3944
 5854SOL    HW129198   2.133   1.624  16.454  0.1753  0.4034  0.6318
 5854SOL    HW229199   2.234   1.681  16.551  2.5153 -0.1987 -0.4117
 5855SOL     OW29200   1.470   4.260   8.609  0.3475 -0.2755  0.1652
 5855SOL    HW129201   1.425   4.184   8.647  1.0997 -1.7524 -1.9222
 5855SOL    HW229202   1.508   4.295   8.690 -1.6282 -0.7584  1.3076
 5856SOL     OW29203   4.531   3.386  16.150  0.1334  0.5305  0.0713
 5856SOL    HW129204   4.580   3.366  16.070  0.4672  0.6930  0.2371
 5856SOL    HW229205   4.603   3.413  16.207 -1.4576  0.4148  2.1468
 5857SOL     OW29206   2.857   3.867  12.888  0.1181 -0.5641  0.1612
 5857SOL    HW129207   2.851   3.830  12.800 -2.9253  0.2442  0.0321
 5857SOL    HW229208   2.866   3.787  12.940  1.4844  0.1529  1.0006
 5858SOL     OW29209   3.171   3.824   2.848  0.0334  0.4046 -0.3485
 5858SOL    HW129210   3.114   3.895   2.876  0.2414 -0.7202  2.8721
 5858SOL    HW229211   3.173   3.843   2.754 -2.4180 -0.2358 -0.5216
 5859SOL     OW29212   0.837   3.412   4.842  0.1120 -0.6544  0.4473
 5859SOL    HW129213   0.901   3.389   4.909  0.0273  3.3216  1.8721
 5859SOL    HW229214   0.794   3.489   4.878 -1.5784 -1.8068  0.8995
 5860SOL     OW29215   0.497   2.316   7.947 -0.0016  0.3847  0.1730
 5860SOL    HW129216   0.416   2.289   7.991  0.2687 -1.0157 -0.1727
 5860SOL    HW229217   0.517   2.240   7.892  1.1455  1.9469 -1.5458
 5861SOL     OW29218   0.023   3.132   5.227 -0.1210  0.1681 -0.0304
 5861SOL    HW129219   4.692   3.066   5.223 -1.9621  1.9889  1.6374
 5861SOL    HW229220   0.085   3.101   5.161  0.0612  0.3421  0.0583
 5862SOL     OW29221   3.140   4.662   2.822  0.1044 -0.2246 -0.0929
 5862SOL    HW129222   3.172   4.573   2.831  1.8390  0.5014  0.8046
 5862SOL    HW229223   3.138   4.665   2.726  0.0331 -0.5466 -0.1021
 5863SOL     OW29224   1.052   1.131   0.435 -0.4205  0.2926  0.0738
 5863SOL    HW129225   0.959   1.107   0.438 -0.4120  0.3406  1.0224
 5863SOL    HW229226   1.083   1.140   0.526 -1.3951  0.4276  0.3918
 5864SOL     OW29227   2.278   2.010   1.156  0.4600  0.9622  0.6471
 5864SOL    HW129228   2.235   2.093   1.133 -1.8453 -0.0407  1.4515
 5864SOL    HW229229   2.214   1.950   1.119 -0.1840  1.6901  0.5734
 5865SOL     OW29230   0.646   1.206  14.910 -0.2593  0.6070  0.2975
 5865SOL    HW129231   0.621   1.249  14.992  1.9589  1.1309  0.6967
 5865SOL    HW229232   0.568   1.203  14.856  0.1103 -0.8339 -0.1406
 5866SOL     OW29233   3.899   1.373   2.216 -0.4368 -0.4653 -0.2779
 5866SOL    HW129234   3.907   1.323   2.135  1.1795  0.2049 -0.5359
 5866SOL    HW229235   3.893   1.463   2.183  0.4752  0.4690  2.0849
 5867SOL     OW29236   4.189   3.009   2.779 -0.4464 -0.7158 -0.0693
 5867SOL    HW129237   4.101   2.977   2.794 -0.6296  0.9405  2.4902
 5867SOL    HW229238   4.175   3.104   2.784  1.4692 -0.3471 -1.3818
 5868SOL     OW29239   4.501   3.122   5.445  0.4710 -0.4190  0.4431
 5868SOL    HW129240   4.502   3.062   5.371  0.1962  0.4294 -0.2538
 5868SOL    HW229241   4.465   3.074   5.520 -0.9619  1.3185  0.8947
 5869SOL     OW29242   2.745   0.887   6.586 -0.8920 -0.3750 -0.4181
 5869SOL    HW129243   2.840   0.888   6.583 -0.8897  0.9446 -0.2417
 5869SOL    HW229244   2.720   0.913   6.497 -0.5173  2.1574  0.1893
 5870SOL     OW29245   1.296   2.773   8.778 -0.8046  0.7988  0.1302
 5870SOL    HW129246   1.284   2.808   8.690  3.1662 -0.0613 -0.7877
 5870SOL    HW229247   1.208   2.759   8.811 -0.6730  0.4974  0.3582
 5871SOL     OW29248   0.823   2.749   8.945  0.1639  0.0629 -0.1282
 5871SOL    HW129249   0.823   2.675   8.884 -1.2574 -0.6870  0.7859
 5871SOL    HW229250   0.905   2.789   8.916 -0.0587 -0.2619 -1.2027
 5872SOL     OW29251   0.492   1.396   2.146 -0.3945  0.0081  0.0710
 5872SOL    HW129252   0.532   1.330   2.202 -2.5008 -0.3482  1.1762
 5872SOL    HW229253   0.569   1.423   2.096  0.7108 -1.5907  0.9005
 5873SOL     OW29254   2.515   2.138  15.156 -0.2438 -0.2038 -0.2759
 5873SOL    HW129255   2.458   2.084  15.211  2.2691 -0.1841  2.3558
 5873SOL    HW229256   2.602   2.100  15.167 -0.1782 -0.4974 -1.7903
 5874SOL     OW29257   2.948   2.571   8.223 -0.1287 -0.3120  0.4052
 5874SOL    HW129258   3.003   2.542   8.151 -2.2041  0.3204 -1.4350
 5874SOL    HW229259   2.888   2.636   8.187  1.0329  1.4371  1.6275
 5875SOL     OW29260   0.419   2.690   2.467 -0.6234 -0.3736  0.0731
 5875SOL    HW129261   0.347   2.629   2.484  1.6303 -2.8428  0.6394
 5875SOL    HW229262   0.421   2.751   2.541  3.3428 -2.7754  1.8824
 5876SOL     OW29263   2.164   4.356   6.286 -0.3714 -0.0235 -0.6685
 5876SOL    HW129264   2.254   4.386   6.297  0.2207 -1.3943 -1.8963
 5876SOL    HW229265   2.159   4.264   6.312  1.0869 -0.3837 -1.6582
 5877SOL     OW29266   0.720   4.028   3.433  0.0629 -0.4247  0.3587
 5877SOL    HW129267   0.646   4.087   3.444  0.2850 -0.0190 -0.3495
 5877SOL    HW229268   0.787   4.093   3.412  0.3609 -1.2582 -1.2197
 5878SOL     OW29269   0.347   1.414   6.340 -0.1644  0.1736 -0.2616
 5878SOL    HW129270   0.401   1.479   6.295  0.3380 -0.1973 -0.1957
 5878SOL    HW229271   0.400   1.341   6.308 -0.0248  0.9064 -1.7109
 5879SOL     OW29272   2.715   3.636   8.671 -0.1151  0.0303 -0.3879
 5879SOL    HW129273   2.698   3.546   8.645 -0.1861 -0.4691  1.3649
 5879SOL    HW229274   2.745   3.621   8.761  1.3131 -0.0659 -0.8862
 5880SOL     OW29275   4.493   0.493   6.346  0.3222  0.6450  0.0495
 5880SOL    HW129276   4.533   0.525   6.427 -1.4588 -0.5710  1.4375
 5880SOL    HW229277   4.464   0.406   6.373 -0.7072  0.6213 -1.1414
 5881SOL     OW29278   1.661   0.647   6.753  0.1598 -0.2167  0.2397
 5881SOL    HW129279   1.623   0.578   6.698  1.6860 -1.1112  0.3154
 5881SOL    HW229280   1.752   0.632   6.726 -0.2933 -0.2209 -1.3078
 5882SOL     OW29281   4.558   3.901   8.882  0.0276  0.2164 -0.5712
 5882SOL    HW129282   4.577   3.979   8.933  0.8686  0.4125 -1.1861
 5882SOL    HW229283   4.465   3.884   8.896  0.4621 -1.7444  0.0140
 5883SOL     OW29284   3.266   0.299  12.678 -0.3209 -0.2043  0.5347
 5883SOL    HW129285   3.173   0.311  12.698 -0.8940 -1.2075 -1.4328
 5883SOL    HW229286   3.296   0.372  12.732 -0.1616 -0.3979  0.7045
 5884SOL     OW29287   2.497   0.432   3.504  0.2409 -0.1890 -0.1494
 5884SOL    HW129288   2.487   0.438   3.599 -0.4776  0.6037 -0.2800
 5884SOL    HW229289   2.538   0.516   3.479 -0.6989 -0.1429 -1.4938
 5885SOL     OW29290   1.318   4.042   8.755  0.4388 -0.0389  0.6731
 5885SOL    HW129291   1.275   3.964   8.721  0.7474 -0.2297  0.7204
 5885SOL    HW229292   1.276   4.043   8.841 -1.3004  0.1975 -0.1727
 5886SOL     OW29293   4.522   1.230   0.422  0.0355  0.1701 -0.2338
 5886SOL    HW129294   4.480   1.316   0.429  0.0776  0.1787 -0.0780
 5886SOL    HW229295   4.581   1.243   0.496  0.6151  1.8067 -0.9730
 5887SOL     OW29296   1.570   4.204   4.998 -0.2962  0.2885 -0.4070
 5887SOL    HW129297   1.524   4.229   4.918  0.4866  0.5121 -0.7982
 5887SOL    HW229298   1.513   4.140   5.039 -0.6594  0.4405 -0.6704
 5888SOL     OW29299   3.348   3.590   8.314  0.1000  0.1794 -0.4521
 5888SOL    HW129300   3.358   3.681   8.343  0.4845  0.3469 -1.1009
 5888SOL    HW229301   3.258   3.589   8.282  1.0247  0.2323 -3.0689
 5889SOL     OW29302   4.513   3.358   1.743  0.1752  0.2369  0.2577
 5889SOL    HW129303   4.454   3.295   1.702 -0.5931  0.5025  0.9595
 5889SOL    HW229304   4.559   3.389   1.665  0.6617 -1.6761 -0.1966
 5890SOL     OW29305   2.943   2.252   7.482 -0.0591  0.1553 -0.8565
 5890SOL    HW129306   2.895   2.334   7.473  2.0091  1.3229 -1.1310
 5890SOL    HW229307   2.868   2.194   7.498  0.9471 -0.8432  0.2476
 5891SOL     OW29308   1.436   3.914   8.218  0.1752 -0.4207 -0.2828
 5891SOL    HW129309   1.392   3.895   8.301  1.3911  0.6655  0.6104
 5891SOL    HW229310   1.523   3.940   8.249  0.2807 -2.0436  0.7624
 5892SOL     OW29311   1.672   2.525   2.972  0.5399 -0.0840 -0.5520
 5892SOL    HW129312   1.647   2.550   3.061  0.1695  1.8021 -1.1848
 5892SOL    HW229313   1.607   2.458   2.951  0.1585  0.5840 -1.5040
 5893SOL     OW29314   3.804   2.770  13.713 -0.2555 -0.1299 -0.2097
 5893SOL    HW129315   3.808   2.680  13.681 -0.0138  0.1535 -0.9622
 5893SOL    HW229316   3.882   2.794  13.663  0.5673  1.5324  1.8590
 5894SOL     OW29317   1.913   2.109   1.595 -0.0624  0.4465 -0.2238
 5894SOL    HW129318   1.944   2.198   1.583 -0.8081  0.8040  0.5142
 5894SOL    HW229319   1.963   2.067   1.525  1.1820 -0.5302  1.2677
 5895SOL     OW29320   2.278   3.842   6.289 -0.5008 -0.0656  0.3308
 5895SOL    HW129321   2.330   3.911   6.330 -0.0042  0.0165 -0.4409
 5895SOL    HW229322   2.260   3.878   6.202 -1.4785  1.1788  1.0524
 5896SOL     OW29323   4.507   3.171   1.169  0.1306  0.2172  0.2987
 5896SOL    HW129324   4.475   3.248   1.121  4.5428  0.8077 -1.6426
 5896SOL    HW229325   4.527   3.206   1.256 -0.4633  0.5734  0.2941
 5897SOL     OW29326   1.805   0.686  16.466  0.0970  0.2997 -0.4540
 5897SOL    HW129327   1.720   0.672  16.425 -0.7259  0.1194  1.2960
 5897SOL    HW229328   1.796   0.761  16.524 -0.0979  1.1233 -1.5557
 5898SOL     OW29329   0.025   4.378   8.255 -0.0870 -0.0228 -0.0206
 5898SOL    HW129330   0.049   4.295   8.213  1.1965  0.0471  0.5812
 5898SOL    HW229331   4.728   4.420   8.177  0.3939 -0.5573 -0.5337
 5899SOL     OW29332   3.574   3.437   1.210  0.5131  0.3058  0.1304
 5899SOL    HW129333   3.490   3.401   1.182  0.6066  1.1689 -1.2727
 5899SOL    HW229334   3.553   3.469   1.297  0.3594 -0.9011  0.5318
 5900SOL     OW29335   3.023   1.384   1.952 -0.3098  0.4284 -0.0950
 5900SOL    HW129336   2.970   1.313   1.915  3.1775 -2.0678 -0.2557
 5900SOL    HW229337   3.109   1.344   1.940 -0.7645 -0.3109 -0.9257
 5901SOL     OW29338   4.407   3.461   1.991  0.3765  0.7023  0.5751
 5901SOL    HW129339   4.456   3.426   1.916 -0.4986 -2.2684  1.4039
 5901SOL    HW229340   4.390   3.553   1.969 -0.3966  0.9277  2.1620
 5902SOL     OW29341   1.063   3.201  15.548  0.5599 -0.8535 -0.1382
 5902SOL    HW129342   0.982   3.169  15.510 -1.5003  1.4474  2.3269
 5902SOL    HW229343   1.086   3.255  15.471  0.0829  0.3683  0.5763
 5903SOL     OW29344   3.295   4.295   4.335  0.0434 -0.4503 -0.1765
 5903SOL    HW129345   3.313   4.294   4.241 -1.7358 -0.2465 -0.5261
 5903SOL    HW229346   3.312   4.203   4.353  3.0744 -0.1796 -1.6940
 5904SOL     OW29347   1.424   2.173   3.863  0.3019 -0.5202 -0.3309
 5904SOL    HW129348   1.359   2.229   3.821  0.2541  0.4857  1.0945
 5904SOL    HW229349   1.371   2.094   3.871  0.9416 -1.0830 -1.7072
 5905SOL     OW29350   0.509   1.714  15.925 -0.5147  0.5864 -0.1657
 5905SOL    HW129351   0.563   1.786  15.893 -1.3109  1.0876 -0.3666
 5905SOL    HW229352   0.574   1.667  15.978 -1.9274 -2.0890 -0.8183
 5906SOL     OW29353   2.459   1.352   4.636  0.6220  0.2543  0.3340
 5906SOL    HW129354   2.485   1.293   4.566  1.6430  0.5200  0.4897
 5906SOL    HW229355   2.417   1.292   4.698  1.9474 -1.0554 -0.0490
 5907SOL     OW29356   2.924   1.307   5.549 -0.3287 -0.0614 -0.0932
 5907SOL    HW129357   2.892   1.217   5.547 -1.4350  0.3368  0.0805
 5907SOL    HW229358   3.005   1.297   5.497 -1.4634 -1.9810 -1.4957
 5908SOL     OW29359   3.399   2.111   1.652  0.0632 -0.1699 -0.0604
 5908SOL    HW129360   3.338   2.143   1.585 -1.0057 -0.8089  0.5924
 5908SOL    HW229361   3.411   2.023   1.616 -0.8912 -0.2519 -0.1794
 5909SOL     OW29362   3.741   3.891   9.330 -1.0556  0.1276  0.6477
 5909SOL    HW129363   3.704   3.859   9.248 -1.1860 -1.0932  1.1777
 5909SOL    HW229364   3.662   3.884   9.383  0.5507 -2.9891  2.6095
 5910SOL     OW29365   1.719   3.385  15.601 -0.6059  0.0847  0.2191
 5910SOL    HW129366   1.776   3.311  15.619  0.7085  1.5968  2.3161
 5910SOL    HW229367   1.668   3.384  15.683 -0.4997  0.3249  0.2885
 5911SOL     OW29368   3.202   3.448  10.670 -0.0241  0.5942  0.9924
 5911SOL    HW129369   3.215   3.358  10.699  1.7888  0.7178  0.5987
 5911SOL    HW229370   3.153   3.490  10.740 -0.5452 -0.0990  1.0359
 5912SOL     OW29371   0.157   1.546  15.998 -1.0427  0.2943 -0.0046
 5912SOL    HW129372   0.073   1.574  15.961 -0.2802  1.2959 -0.9955
 5912SOL    HW229373   0.143   1.573  16.089  0.9380  0.9772  0.0962
 5913SOL     OW29374   1.788   2.621   0.401  0.3578  0.3555  0.6922
 5913SOL    HW129375   1.789   2.588   0.311 -0.3141  0.4497  0.6509
 5913SOL    HW229376   1.703   2.584   0.427 -1.1315  1.7740 -2.1332
 5914SOL     OW29377   1.484   2.482   1.852 -0.3114  0.1667 -0.8603
 5914SOL    HW129378   1.411   2.450   1.905 -0.3823  1.5032 -0.1468
 5914SOL    HW229379   1.479   2.577   1.865  0.8862  0.0701  0.3381
 5915SOL     OW29380   3.953   1.262   8.237 -0.2712 -0.0585  0.0907
 5915SOL    HW129381   4.020   1.256   8.305 -2.7155 -0.6619  2.4605
 5915SOL    HW229382   3.885   1.318   8.276  0.3945  0.2087  0.8613
 5916SOL     OW29383   2.880   3.715   2.957  0.5398 -0.0761 -0.0121
 5916SOL    HW129384   2.877   3.765   3.039  0.2434 -0.1899  0.0439
 5916SOL    HW229385   2.913   3.632   2.990 -0.4458 -0.6434 -0.4397
 5917SOL     OW29386   4.223   3.728   2.200 -0.1739  0.4196 -0.4828
 5917SOL    HW129387   4.275   3.728   2.120 -0.7445  1.1678 -0.8598
 5917SOL    HW229388   4.234   3.636   2.226  0.4645  1.2906  2.3525
 5918SOL     OW29389   4.139   0.347  14.412  0.5673  0.5879  0.5080
 5918SOL    HW129390   4.148   0.432  14.457  2.1988  1.5595 -1.6479
 5918SOL    HW229391   4.229   0.336  14.382 -0.1610  0.0003 -1.4331
 5919SOL     OW29392   3.765   3.455   2.823 -0.0798  0.5085  0.0217
 5919SOL    HW129393   3.802   3.372   2.791 -0.9640  0.3084 -0.4983
 5919SOL    HW229394   3.741   3.430   2.912 -0.6162  1.0589  0.0324
 5920SOL     OW29395   0.969   3.220   0.347 -0.0115  0.2014  0.2883
 5920SOL    HW129396   0.929   3.274   0.278 -3.7301 -0.8128  1.6225
 5920SOL    HW229397   1.056   3.212   0.308  0.7207  0.3203  1.9290
 5921SOL     OW29398   4.032   1.922  14.356  0.6648  0.3672  0.1280
 5921SOL    HW129399   4.060   1.896  14.444  1.4826  1.6122  0.2312
 5921SOL    HW229400   4.114   1.930  14.307  1.0611 -1.8035  0.4500
 5922SOL     OW29401   3.076   0.640   6.939  1.0109  1.0576 -0.6743
 5922SOL    HW129402   3.071   0.629   7.034  2.5627 -0.1658 -0.7493
 5922SOL    HW229403   3.151   0.588   6.910  0.9750  1.2438 -1.1005
 5923SOL     OW29404   2.491   3.952  14.189 -0.2320  0.0115  0.4798
 5923SOL    HW129405   2.468   4.045  14.181  0.3891 -0.0855 -2.2174
 5923SOL    HW229406   2.584   3.955  14.166 -0.6905 -0.3931 -1.4124
 5924SOL     OW29407   0.897   1.121   8.199 -0.6004 -0.3955  0.1173
 5924SOL    HW129408   0.933   1.104   8.286  0.6364  1.1425 -0.0917
 5924SOL    HW229409   0.940   1.059   8.140  1.5992  0.9754  0.2811
 5925SOL     OW29410   4.392   1.928   8.390 -0.3616 -0.3062  0.2141
 5925SOL    HW129411   4.326   1.869   8.353  1.2603 -2.5609  0.9167
 5925SOL    HW229412   4.338   2.004   8.369  0.9191  1.1432  2.1645
 5926SOL     OW29413   3.391   4.552   2.509  0.0538  0.2653 -0.7589
 5926SOL    HW129414   3.305   4.555   2.550  0.1096 -0.9320 -0.5551
 5926SOL    HW229415   3.438   4.516   2.584 -0.5819  0.3574 -0.3173
 5927SOL     OW29416   1.993   0.544  11.019 -0.3697  0.1242 -0.0693
 5927SOL    HW129417   1.949   0.607  10.962 -0.6569 -0.2741 -0.2861
 5927SOL    HW229418   2.082   0.560  10.989 -0.1769  1.0302  0.9885
 5928SOL     OW29419   1.600   2.270  16.188 -0.0284  0.0523  0.1065
 5928SOL    HW129420   1.620   2.272  16.282 -0.4805 -0.8829  0.2286
 5928SOL    HW229421   1.618   2.176  16.179  1.3322  0.2855  0.4623
 5929SOL     OW29422   3.474   3.496   4.876  0.4197  0.4677  0.1618
 5929SOL    HW129423   3.518   3.446   4.807 -0.3443 -2.3906  1.7272
 5929SOL    HW229424   3.503   3.448   4.953 -1.8972 -2.1020 -0.5749
 5930SOL     OW29425   0.634   0.161   6.454 -0.2256  0.9432 -0.4242
 5930SOL    HW129426   0.681   0.158   6.538  0.2251 -1.7056 -0.7592
 5930SOL    HW229427   0.694   0.198   6.390  0.2773 -0.6537 -0.8885
 5931SOL     OW29428   0.948   0.126  14.652  0.2108 -0.3115 -0.7528
 5931SOL    HW129429   0.918   0.079  14.730 -0.3415  2.7903  0.9027
 5931SOL    HW229430   0.920   0.213  14.681 -0.0967 -0.1402 -1.5852
 5932SOL     OW29431   1.753   0.641  15.018  0.4464 -0.1983  0.4943
 5932SOL    HW129432   1.665   0.607  15.000  0.5255 -0.2478  0.2007
 5932SOL    HW229433   1.793   0.561  15.053 -0.9622 -1.1415 -0.0763
 5933SOL     OW29434   4.262   0.344  16.804 -0.5284  0.4632 -0.5970
 5933SOL    HW129435   4.353   0.332  16.776  0.2704 -0.7528  2.6446
 5933SOL    HW229436   4.257   0.429  16.848  1.9904 -1.1552  2.7831
 5934SOL     OW29437   3.734   4.150   3.509 -0.4677  0.1076 -0.4312
 5934SOL    HW129438   3.682   4.157   3.429  1.2375  0.8380 -1.4957
 5934SOL    HW229439   3.746   4.055   3.509 -0.6637  0.0831 -0.4214
 5935SOL     OW29440   3.406   2.440  15.938  0.3073  0.0574 -0.2325
 5935SOL    HW129441   3.399   2.344  15.941 -1.7683  0.2375  0.5421
 5935SOL    HW229442   3.318   2.457  15.903 -0.1710 -2.7073 -0.3869
 5936SOL     OW29443   0.159   0.184   7.953 -0.2028 -0.6047 -0.4976
 5936SOL    HW129444   0.250   0.156   7.939  0.5585  0.7420  1.8632
 5936SOL    HW229445   0.172   0.271   7.991 -0.5921  0.3207 -2.4498
 5937SOL     OW29446   3.790   0.978   7.039  0.0273 -0.0079  0.4089
 5937SOL    HW129447   3.865   1.036   7.053  0.9560 -1.0353 -0.2984
 5937SOL    HW229448   3.791   0.930   7.122 -1.4930 -0.9668 -0.1347
 5938SOL     OW29449   2.498   1.786  12.544  0.1916  0.2449 -0.0961
 5938SOL    HW129450   2.466   1.715  12.599  1.0810  0.4707  0.7211
 5938SOL    HW229451   2.592   1.768  12.552  0.8284  3.5225  0.0384
 5939SOL     OW29452   2.642   2.821   6.334 -0.4809  0.5970  0.5033
 5939SOL    HW129453   2.715   2.875   6.307  0.1995 -0.3773  0.3857
 5939SOL    HW229454   2.601   2.781   6.258 -0.5410 -1.2277  1.4798
 5940SOL     OW29455   3.573   0.909   8.182 -0.5737  0.1136  0.1950
 5940SOL    HW129456   3.548   0.894   8.273  0.2816 -1.0073  0.2454
 5940SOL    HW229457   3.591   0.818   8.158 -2.2466 -0.2074  0.1278
 5941SOL     OW29458   0.376   0.858   4.472 -0.2788  0.0965  0.1629
 5941SOL    HW129459   0.450   0.803   4.448  0.1116 -0.2588  2.1850
 5941SOL    HW229460   0.420   0.910   4.540  1.1476 -2.1576  0.9542
 5942SOL     OW29461   3.296   0.633   1.030  0.7682 -0.4489  0.7863
 5942SOL    HW129462   3.355   0.673   1.093  0.2213  1.2940  0.2011
 5942SOL    HW229463   3.353   0.608   0.957  1.3954 -1.0013  1.4697
 5943SOL     OW29464   4.652   1.233   7.308 -0.3000 -0.0508 -0.1777
 5943SOL    HW129465   4.600   1.191   7.377  1.0116 -3.1377 -1.0507
 5943SOL    HW229466   4.600   1.306   7.275  0.4713  1.0246  1.0184
 5944SOL     OW29467   0.476   2.205  11.874  0.6934  0.1696  0.4973
 5944SOL    HW129468   0.555   2.249  11.844 -1.1879  1.4329 -2.5971
 5944SOL    HW229469   0.438   2.190  11.787 -0.1417 -0.4591  0.9676
 5945SOL     OW29470   2.486   1.245   7.219  0.3498 -0.2440 -0.1052
 5945SOL    HW129471   2.535   1.326   7.204  0.1835 -0.2627 -0.7367
 5945SOL    HW229472   2.395   1.273   7.218 -0.4054 -2.8166 -1.6576
 5946SOL     OW29473   1.838   1.228   7.656 -0.4060 -0.3343  0.1939
 5946SOL    HW129474   1.803   1.316   7.648 -2.0072 -0.7352  2.9758
 5946SOL    HW229475   1.771   1.171   7.619 -0.8407  0.3186 -0.0231
 5947SOL     OW29476   1.788   3.846  17.285 -0.2290  0.6467  0.4770
 5947SOL    HW129477   1.840   3.920  17.254 -1.7181  1.6296  0.3551
 5947SOL    HW229478   1.700   3.868  17.255 -0.2756 -1.6040 -1.0769
 5948SOL     OW29479   4.504   0.648   2.585 -0.4603 -0.2334 -0.4299
 5948SOL    HW129480   4.436   0.583   2.568 -1.0848  0.2237  0.3047
 5948SOL    HW229481   4.546   0.604   2.659 -2.4059 -0.4820  0.5101
 5949SOL     OW29482   3.163   1.631   2.400  0.5638  0.0248  0.3119
 5949SOL    HW129483   3.252   1.655   2.374  0.4692  0.7513  0.6539
 5949SOL    HW229484   3.112   1.702   2.361  2.4539  0.1122 -1.9659
 5950SOL     OW29485   0.775   0.541   1.560  0.6255  0.4721  0.2241
 5950SOL    HW129486   0.788   0.585   1.643  1.6261  0.5024  0.0428
 5950SOL    HW229487   0.688   0.500   1.561  1.9498 -2.1978  3.6554
 5951SOL     OW29488   4.485   4.559  14.013 -0.4177 -0.4517 -1.0344
 5951SOL    HW129489   4.545   4.617  13.965  0.2256 -1.2807 -1.2397
 5951SOL    HW229490   4.406   4.562  13.960  0.7492  0.3712 -2.7289
 5952SOL     OW29491   1.982   4.660  12.808  0.0540 -0.2066 -0.1082
 5952SOL    HW129492   1.971   4.611  12.889 -1.9460  0.7948  0.2315
 5952SOL    HW229493   2.076   4.670  12.826 -0.1603  0.5737  0.5870
 5953SOL     OW29494   0.495   1.564   7.138  0.2916 -0.1783 -0.1598
 5953SOL    HW129495   0.507   1.590   7.229 -1.3548 -2.5067  0.7247
 5953SOL    HW229496   0.525   1.473   7.127  3.8568  0.9283  0.4388
 5954SOL     OW29497   3.487   3.767   5.918  0.2700  0.4164 -0.0530
 5954SOL    HW129498   3.414   3.828   5.924 -0.7989 -1.0724  1.9832
 5954SOL    HW229499   3.433   3.697   5.881  0.6943  0.5954 -0.9871
 5955SOL     OW29500   3.868   1.412   1.838  0.0663 -0.0642 -0.4855
 5955SOL    HW129501   3.918   1.339   1.874  0.5123  0.5404  0.1153
 5955SOL    HW229502   3.788   1.371   1.806  0.4672 -0.9079 -0.4064
 5956SOL     OW29503   1.701   2.596   7.531 -0.2555  0.4403 -0.3719
 5956SOL    HW129504   1.781   2.638   7.564  0.6120 -1.6611  0.2074
 5956SOL    HW229505   1.678   2.540   7.605  1.1418  1.1516  0.6084
 5957SOL     OW29506   3.573   0.498   2.504  0.0302  0.1747 -0.0073
 5957SOL    HW129507   3.620   0.563   2.452  2.2133  0.7195  2.6051
 5957SOL    HW229508   3.522   0.459   2.433  0.8451 -0.2774 -0.3462
 5958SOL     OW29509   2.904   4.101   8.624 -0.0830  0.1465 -0.3007
 5958SOL    HW129510   2.845   4.035   8.662  0.0557  0.7093  0.9001
 5958SOL    HW229511   2.905   4.167   8.694  0.0776 -0.6572  0.4495
 5959SOL     OW29512   3.136   3.904   0.825  0.7846 -0.3828  0.0932
 5959SOL    HW129513   3.135   3.908   0.920  1.5750 -1.1294  0.1381
 5959SOL    HW229514   3.045   3.873   0.829  0.6794 -0.1484 -0.4981
 5960SOL     OW29515   1.498   2.784   5.994  0.7290  0.0729  0.1031
 5960SOL    HW129516   1.457   2.737   6.067 -0.7540  1.9604  0.4930
 5960SOL    HW229517   1.453   2.869   5.999  0.9144  0.2066 -0.4449
 5961SOL     OW29518   4.539   3.402   8.775  0.3471  0.0215 -0.5876
 5961SOL    HW129519   4.499   3.334   8.721  0.1320 -1.7259  1.7540
 5961SOL    HW229520   4.479   3.474   8.755  2.4477  1.8001 -0.5250
 5962SOL     OW29521   1.545   3.897  16.260 -0.0452  0.2335 -0.3786
 5962SOL    HW129522   1.570   3.809  16.233 -1.2409  0.0861 -0.9936
 5962SOL    HW229523   1.465   3.913  16.210 -0.0492 -1.7154 -0.9683
 5963SOL     OW29524   1.384   4.511   6.615  0.7228 -0.3190  0.3094
 5963SOL    HW129525   1.420   4.547   6.697  0.2871  1.1541 -0.1573
 5963SOL    HW229526   1.436   4.435   6.590 -4.2503 -2.7946 -2.4074
 5964SOL     OW29527   0.062   4.727   6.310  1.0241 -0.5386 -0.6048
 5964SOL    HW129528   0.066   0.076   6.269 -0.3649 -1.4129 -2.6218
 5964SOL    HW229529   4.706   4.713   6.303  0.7947  0.1207  1.2662
 5965SOL     OW29530   3.092   0.508  14.064  0.2629  0.4739  0.0469
 5965SOL    HW129531   3.080   0.470  14.151  1.7473  1.7379  0.8139
 5965SOL    HW229532   3.014   0.560  14.045  0.5950  0.8580 -0.2573
 5966SOL     OW29533   0.253   2.845   5.679 -0.1691 -0.5455 -0.2219
 5966SOL    HW129534   0.192   2.834   5.752  2.2532  2.4480  2.2480
 5966SOL    HW229535   0.180   2.845   5.618 -0.1047 -0.8886 -0.3013
 5967SOL     OW29536   2.847   0.383   2.726 -0.1458  0.2006 -0.2737
 5967SOL    HW129537   2.921   0.373   2.786  0.4519 -1.0948 -1.2131
 5967SOL    HW229538   2.875   0.443   2.656  0.0922 -1.3240 -1.4912
 5968SOL     OW29539   0.388   0.565  15.161  0.0231 -0.3526 -0.4524
 5968SOL    HW129540   0.352   0.477  15.165 -1.4955  0.3475  1.2157
 5968SOL    HW229541   0.466   0.541  15.110  0.5762  0.2062  0.1225
 5969SOL     OW29542   2.111   0.159   4.174 -0.4610  0.5102 -0.0379
 5969SOL    HW129543   2.076   0.138   4.087 -1.1456  1.1095  0.0983
 5969SOL    HW229544   2.058   0.234   4.200  0.0301  1.6381 -2.2783
 5970SOL     OW29545   2.165   4.517   7.408  0.6044 -0.4566  0.5863
 5970SOL    HW129546   2.192   4.443   7.354  2.5536  0.0472  0.8892
 5970SOL    HW229547   2.243   4.568   7.429  0.3732  0.5789 -1.0486
 5971SOL     OW29548   2.725   3.448  13.721  0.1477 -0.1928 -0.6977
 5971SOL    HW129549   2.819   3.438  13.710  0.3355  0.3085  0.4210
 5971SOL    HW229550   2.710   3.492  13.637 -1.3548 -1.1669 -0.9412
 5972SOL     OW29551   1.034   2.420   5.809 -0.6584 -0.3037 -0.1723
 5972SOL    HW129552   1.035   2.417   5.905  2.6701 -0.1614 -0.2047
 5972SOL    HW229553   0.970   2.490   5.797  1.9529  2.7447  3.4602
 5973SOL     OW29554   2.926   0.621   8.128 -0.2427  0.1076 -0.1928
 5973SOL    HW129555   2.972   0.596   8.208 -1.1479  1.8239  0.8772
 5973SOL    HW229556   2.835   0.614   8.158 -0.0684 -0.9197  0.0967
 5974SOL     OW29557   0.134   4.331   3.513 -0.0683  0.4139  0.0354
 5974SOL    HW129558   0.059   4.358   3.459 -0.7745 -1.5850 -0.0197
 5974SOL    HW229559   0.190   4.305   3.440  0.4695 -1.0392  0.9600
 5975SOL     OW29560   1.067   4.733   6.535 -0.0499 -0.2373  0.1736
 5975SOL    HW129561   1.095   4.675   6.464  3.2930  2.2600 -0.5584
 5975SOL    HW229562   1.013   4.677   6.591  1.8124 -0.9115  1.2873
 5976SOL     OW29563   3.859   3.277   3.858 -0.7002  0.5360 -0.1428
 5976SOL    HW129564   3.887   3.359   3.900 -0.4175 -0.9455  2.5753
 5976SOL    HW229565   3.763   3.280   3.860 -0.6738  0.1699  2.0642
 5977SOL     OW29566   3.463   1.850   7.912 -0.7265  0.1871  0.1295
 5977SOL    HW129567   3.509   1.768   7.892 -2.1468 -0.2210 -1.4327
 5977SOL    HW229568   3.528   1.919   7.918  0.1498 -0.5264 -1.2266
 5978SOL     OW29569   2.645   1.717   8.432  0.0857  0.0557 -0.3931
 5978SOL    HW129570   2.718   1.687   8.485  0.2971  0.8410 -0.2424
 5978SOL    HW229571   2.576   1.708   8.498  2.0993 -1.1782  1.5406
 5979SOL     OW29572   2.428   3.180   8.128  0.1856 -0.1650  0.2950
 5979SOL    HW129573   2.419   3.101   8.181  0.8287 -0.5410 -0.1605
 5979SOL    HW229574   2.352   3.232   8.153  0.5933 -0.2786  1.7742
 5980SOL     OW29575   2.135   0.977   6.045 -0.0477 -0.5402  0.7588
 5980SOL    HW129576   2.228   0.997   6.044  0.1282 -1.4417 -1.4295
 5980SOL    HW229577   2.123   0.941   5.957  0.7104  2.6749 -0.6602
 5981SOL     OW29578   4.246   0.159   5.164  0.3599 -0.6759  0.2426
 5981SOL    HW129579   4.322   0.162   5.223  0.0556  0.0199  0.5992
 5981SOL    HW229580   4.273   0.206   5.086 -0.0771  0.3694  0.7286
 5982SOL     OW29581   3.858   3.428   8.987  0.3628  0.0066  0.3354
 5982SOL    HW129582   3.785   3.454   8.930 -0.4083 -0.4070  1.1289
 5982SOL    HW229583   3.849   3.505   9.043  0.2206 -1.0591  1.7660
 5983SOL     OW29584   3.895   0.378   1.540 -0.2805 -0.4068  0.4267
 5983SOL    HW129585   3.915   0.439   1.610  1.2943 -1.8971  1.2643
 5983SOL    HW229586   3.811   0.418   1.516  0.5262  0.4616 -0.9435
 5984SOL     OW29587   2.573   2.448   5.117 -0.8408  0.6300  0.8283
 5984SOL    HW129588   2.518   2.511   5.164  0.7445  2.8291 -0.2391
 5984SOL    HW229589   2.533   2.442   5.031 -0.0248 -0.4007  0.5276
 5985SOL     OW29590   4.277   0.983  15.824  0.3441 -0.1802  0.3171
 5985SOL    HW129591   4.292   0.942  15.910 -2.6875  1.3532  1.5802
 5985SOL    HW229592   4.351   0.951  15.772  2.7734  1.3484  2.8587
 5986SOL     OW29593   4.138   0.777   8.912 -0.0548 -0.4704 -0.3629
 5986SOL    HW129594   4.099   0.796   8.826  0.5265 -1.8890 -0.9427
 5986SOL    HW229595   4.096   0.849   8.958 -2.6569 -1.8640 -0.5496
 5987SOL     OW29596   2.193   3.703   3.485 -0.3408 -0.2389  0.4409
 5987SOL    HW129597   2.150   3.694   3.400 -1.6165 -0.0045  1.0568
 5987SOL    HW229598   2.116   3.737   3.532 -1.2852 -1.4426 -0.2357
 5988SOL     OW29599   4.136   2.674  16.579  0.3781 -1.0461  0.3408
 5988SOL    HW129600   4.076   2.599  16.575  1.1329 -1.6975  1.4666
 5988SOL    HW229601   4.132   2.705  16.488  1.0916  1.6695  1.2631
 5989SOL     OW29602   2.044   3.293   4.646  0.0226 -0.7222 -0.4435
 5989SOL    HW129603   1.977   3.260   4.586 -0.9676  0.0993  0.2165
 5989SOL    HW229604   2.097   3.218   4.673  0.9077 -0.3546 -1.1546
 5990SOL     OW29605   1.352   4.523   1.490 -0.0596 -0.3739 -0.6406
 5990SOL    HW129606   1.293   4.448   1.496 -1.1506  0.4797 -0.7802
 5990SOL    HW229607   1.293   4.597   1.504  0.7955  0.1391  0.2045
 5991SOL     OW29608   3.715   3.175   5.647 -0.7713  0.4290 -0.5955
 5991SOL    HW129609   3.811   3.175   5.649 -0.8573  2.5150  2.8604
 5991SOL    HW229610   3.704   3.270   5.642 -0.7272  0.3142 -3.1387
 5992SOL     OW29611   3.261   1.958   4.416 -0.1439 -0.0281  0.6998
 5992SOL    HW129612   3.186   1.974   4.358 -0.9211  0.9735  1.9876
 5992SOL    HW229613   3.209   1.897   4.468  0.5311 -0.0912  1.2840
 5993SOL     OW29614   1.614   0.305   6.806 -0.7984  0.6775 -0.1914
 5993SOL    HW129615   1.697   0.297   6.852 -0.2028  0.7706 -1.2455
 5993SOL    HW229616   1.553   0.266   6.868 -1.0867 -1.4779 -1.8372
 5994SOL     OW29617   1.264   4.723   5.687  0.0359  0.1951 -0.0085
 5994SOL    HW129618   1.219   0.053   5.737 -2.0242 -1.4227  0.3288
 5994SOL    HW229619   1.355   0.014   5.691 -0.5635  2.1757 -0.7364
 5995SOL     OW29620   1.635   1.921   3.392  0.1363 -1.2258 -0.0141
 5995SOL    HW129621   1.616   1.837   3.348  1.0118 -1.0251 -0.7622
 5995SOL    HW229622   1.730   1.916   3.384  0.1673  0.0260 -0.3489
 5996SOL     OW29623   1.653   4.447   4.824  0.1080  0.3718  0.4680
 5996SOL    HW129624   1.596   4.426   4.750  0.9996 -3.1129  0.7775
 5996SOL    HW229625   1.592   4.492   4.882  1.3436  2.6732 -0.0168
 5997SOL     OW29626   0.277   3.760   3.164 -0.2552 -0.2892  0.4498
 5997SOL    HW129627   0.277   3.677   3.213  0.2782 -0.1406  0.7047
 5997SOL    HW229628   0.266   3.833   3.224  1.0204 -0.1660  0.5347
 5998SOL     OW29629   1.433   0.663  14.370 -0.1066 -0.2196  0.0109
 5998SOL    HW129630   1.378   0.714  14.429  1.0030  0.0289  0.8395
 5998SOL    HW229631   1.415   0.575  14.403 -1.1609 -0.0912 -0.2034
 5999SOL     OW29632   2.000   3.491   6.654  0.2082  0.6453 -1.0726
 5999SOL    HW129633   2.093   3.472   6.644 -0.1334 -1.5558 -0.0746
 5999SOL    HW229634   1.972   3.407   6.691  0.4242  1.3963  0.8366
 6000SOL     OW29635   0.049   3.605   2.591 -0.8126 -0.5209 -0.1556
 6000SOL    HW129636   0.084   3.516   2.596 -0.8748 -0.5638 -0.5306
 6000SOL    HW229637   4.723   3.610   2.662  2.4148  3.6981  2.4377
 6001SOL     OW29638   1.509   1.489   6.658  0.0202  0.0490  0.0565
 6001SOL    HW129639   1.482   1.517   6.745 -0.4283 -1.1373  0.2963
 6001SOL    HW229640   1.432   1.439   6.632  0.1760  0.7194 -1.7440
 6002SOL     OW29641   0.801   1.337   6.824  0.1939  0.4077 -0.2390
 6002SOL    HW129642   0.774   1.299   6.907 -0.8485  0.8606 -0.3713
 6002SOL    HW229643   0.751   1.288   6.758  1.1560  0.7107 -1.1981
 6003SOL     OW29644   3.280   4.079   2.687 -0.1192 -0.0320 -0.3620
 6003SOL    HW129645   3.363   4.048   2.650  0.0611  0.0045  0.0080
 6003SOL    HW229646   3.248   4.132   2.614 -1.3430 -2.0457 -1.2788
 6004SOL     OW29647   0.065   2.774  14.392 -0.0554  0.0220  0.0725
 6004SOL    HW129648   4.732   2.804  14.335 -1.2221  2.0460  2.6169
 6004SOL    HW229649   0.117   2.850  14.366 -0.4378  1.0623  2.3213
 6005SOL     OW29650   0.809   3.424   3.443 -0.0044 -0.3336  0.0492
 6005SOL    HW129651   0.731   3.451   3.396 -0.6124 -0.4965  0.9614
 6005SOL    HW229652   0.785   3.440   3.535  2.9613  0.2230  0.7426
 6006SOL     OW29653   4.189   3.133   6.577 -0.3720  0.4163  0.6299
 6006SOL    HW129654   4.169   3.190   6.652 -1.6642  1.9529 -0.8795
 6006SOL    HW229655   4.283   3.125   6.595 -0.1532  1.3771 -0.0635
 6007SOL     OW29656   2.714   3.320   3.248 -0.2583 -0.1217  0.1695
 6007SOL    HW129657   2.770   3.301   3.173 -0.1361 -1.1666  0.5352
 6007SOL    HW229658   2.783   3.334   3.313  0.6319 -1.7695 -0.4424
 6008SOL     OW29659   4.077   2.093   7.411 -0.0591 -0.0281 -0.6136
 6008SOL    HW129660   4.002   2.086   7.470  0.0699 -0.2062 -0.4691
 6008SOL    HW229661   4.134   2.024   7.446  2.1528  2.1686  0.0360
 6009SOL     OW29662   4.201   0.316   6.114  0.7092 -0.2933  0.2195
 6009SOL    HW129663   4.108   0.331   6.093  0.1692  0.4974  3.2650
 6009SOL    HW229664   4.217   0.224   6.094 -1.6204 -0.6098 -0.2348
 6010SOL     OW29665   2.951   3.458   4.544 -0.7252  0.2550  0.0500
 6010SOL    HW129666   2.920   3.415   4.625  1.3182  2.3808  1.9423
 6010SOL    HW229667   3.045   3.453   4.557 -0.9882 -0.3968  1.7773
 6011SOL     OW29668   3.285   0.667   6.375 -0.5964 -0.3269  0.3316
 6011SOL    HW129669   3.268   0.624   6.291 -1.2106 -2.7762  1.7199
 6011SOL    HW229670   3.272   0.590   6.431  0.3222 -1.3696 -0.9107
 6012SOL     OW29671   3.644   1.982   4.380  0.4419  0.4762  0.2132
 6012SOL    HW129672   3.572   2.044   4.389 -1.1462 -1.4842  1.1650
 6012SOL    HW229673   3.720   2.034   4.354 -0.2240  1.6284  0.5881
 6013SOL     OW29674   0.902   3.141  10.337  0.1256  0.0540  0.4700
 6013SOL    HW129675   0.970   3.133  10.404  0.8529  0.1946 -0.2549
 6013SOL    HW229676   0.852   3.063  10.361 -1.3654  1.1637  0.9266
 6014SOL     OW29677   0.214   0.465   7.994 -0.0616  0.0136  0.6097
 6014SOL    HW129678   0.193   0.550   7.955 -0.7110 -0.6052 -0.3956
 6014SOL    HW229679   0.306   0.477   7.971 -0.6521 -0.3293 -1.9399
 6015SOL     OW29680   4.320   4.525   9.608  0.5193 -0.5019 -0.4728
 6015SOL    HW129681   4.396   4.473   9.635  1.2982  0.0988 -1.5088
 6015SOL    HW229682   4.293   4.461   9.542 -0.4171 -0.2060 -0.3789
 6016SOL     OW29683   1.395   0.428   5.053  0.0372  0.6575  0.0913
 6016SOL    HW129684   1.315   0.415   5.105 -0.4390  1.8143 -0.3402
 6016SOL    HW229685   1.449   0.466   5.122 -0.9621 -1.3020  1.9530
 6017SOL     OW29686   3.456   4.444  13.387  0.2199 -0.2903 -0.1148
 6017SOL    HW129687   3.452   4.410  13.297 -0.0148  1.8708 -0.9416
 6017SOL    HW229688   3.478   4.368  13.440  0.5096 -0.1322 -0.0117
 6018SOL     OW29689   4.547   2.306   8.137  0.2245 -0.0703  0.2682
 6018SOL    HW129690   4.557   2.392   8.094  1.5586 -0.5142 -0.2877
 6018SOL    HW229691   4.455   2.284   8.119  0.3809 -1.1905  0.8834
 6019SOL     OW29692   3.588   2.384   4.747 -0.5203 -0.2193  0.8094
 6019SOL    HW129693   3.550   2.375   4.834 -0.2244  0.7381  1.0369
 6019SOL    HW229694   3.590   2.290   4.726  3.0663  0.1351 -0.3886
 6020SOL     OW29695   3.522   1.738   4.265 -0.5121  0.7367  0.7496
 6020SOL    HW129696   3.546   1.802   4.333 -0.2723 -0.0995  1.4447
 6020SOL    HW229697   3.458   1.682   4.309 -0.8205  1.3021  1.0206
 6021SOL     OW29698   1.266   0.460   3.564 -0.6578  0.1176 -0.1165
 6021SOL    HW129699   1.216   0.503   3.632  1.1580 -0.3646  1.5247
 6021SOL    HW229700   1.353   0.467   3.603 -0.4565  0.2309 -0.5800
 6022SOL     OW29701   0.995   4.370  16.572 -0.6394 -0.1826 -0.2248
 6022SOL    HW129702   0.937   4.446  16.579  0.4824  0.7467 -1.0773
 6022SOL    HW229703   0.983   4.338  16.483 -2.5858  2.1988 -0.8213
 6023SOL     OW29704   1.719   1.401   6.028 -0.1103 -0.2367  0.2081
 6023SOL    HW129705   1.780   1.437   6.093 -0.6193  0.2303  0.4290
 6023SOL    HW229706   1.675   1.341   6.087 -1.3473  0.0983 -0.3710
 6024SOL     OW29707   3.768   0.965   5.538 -0.5691  0.2898 -0.5821
 6024SOL    HW129708   3.862   0.971   5.554 -0.3449 -2.2439 -1.0064
 6024SOL    HW229709   3.723   1.013   5.608  1.4838  1.3555 -0.0013
 6025SOL     OW29710   3.800   3.118   4.305 -0.5257 -0.1135 -0.3479
 6025SOL    HW129711   3.838   3.100   4.391 -0.7272  3.0439  0.4010
 6025SOL    HW229712   3.853   3.054   4.257 -0.2412 -0.5235  0.5065
 6026SOL     OW29713   1.235   1.825   0.219  0.0386 -0.1798  0.0007
 6026SOL    HW129714   1.167   1.784   0.273 -1.4100  0.2617 -1.5030
 6026SOL    HW229715   1.308   1.764   0.221  1.5527  1.6046 -0.8727
 6027SOL     OW29716   4.414   2.854  10.575 -0.0379 -0.0887 -0.5116
 6027SOL    HW129717   4.466   2.811  10.643  0.5003  1.4402  0.0420
 6027SOL    HW229718   4.325   2.837  10.606  0.0070 -0.2350 -0.4633
 6028SOL     OW29719   1.336   3.807  12.279  0.3440 -0.6544  0.1328
 6028SOL    HW129720   1.307   3.742  12.215 -0.6086  0.7154 -0.8225
 6028SOL    HW229721   1.423   3.831  12.246  0.7269  0.8435  2.2165
 6029SOL     OW29722   3.972   1.056   4.087  0.9240 -0.0801 -0.0227
 6029SOL    HW129723   4.050   1.111   4.101  2.2755 -1.2838 -2.8299
 6029SOL    HW229724   3.943   1.081   3.999  1.1613  1.5919  0.3772
 6030SOL     OW29725   1.249   0.530  13.378  0.3743 -0.3886  0.3185
 6030SOL    HW129726   1.329   0.531  13.325  0.0676 -1.1552 -0.1405
 6030SOL    HW229727   1.260   0.459  13.441 -0.8991 -0.6729  0.2162
 6031SOL     OW29728   2.897   0.710   5.473 -0.0180 -0.0599  0.6559
 6031SOL    HW129729   2.986   0.693   5.444 -0.7422  0.5574 -1.8723
 6031SOL    HW229730   2.900   0.797   5.512  1.3962  0.8927 -1.5897
 6032SOL     OW29731   1.942   3.468   5.872 -0.1531  0.0275  0.0492
 6032SOL    HW129732   1.990   3.500   5.796 -2.1964 -0.2554 -1.3684
 6032SOL    HW229733   1.864   3.442   5.824 -1.2807  1.0328  1.3147
 6033SOL     OW29734   4.618   4.319   9.302 -0.1386  0.0056  0.0141
 6033SOL    HW129735   4.680   4.347   9.369  0.1363 -0.5395 -0.0085
 6033SOL    HW229736   4.664   4.243   9.265  0.3953  0.5436 -0.4192
 6034SOL     OW29737   2.619   4.533   8.198 -0.5392 -0.0073  0.8911
 6034SOL    HW129738   2.551   4.597   8.218  0.2943  1.3377 -0.5752
 6034SOL    HW229739   2.564   4.458   8.175 -0.3056  0.2249 -0.4172
 6035SOL     OW29740   3.128   2.564   7.993 -0.5874 -0.2681  0.5108
 6035SOL    HW129741   3.141   2.478   8.034 -0.9832 -0.6526 -0.1648
 6035SOL    HW229742   3.213   2.606   8.006 -0.3700 -1.0770  1.6374
 6036SOL     OW29743   4.719   1.762   1.949 -0.1560  0.0052  0.1328
 6036SOL    HW129744   4.708   1.823   1.876 -0.7723 -1.9585 -1.4197
 6036SOL    HW229745   0.056   1.798   1.997  0.0448  0.4648 -0.5308
 6037SOL     OW29746   1.893   1.368   5.043 -0.8955 -0.2941  0.2576
 6037SOL    HW129747   1.912   1.274   5.048 -0.3264 -0.1050  1.4871
 6037SOL    HW229748   1.976   1.404   5.074 -0.5437  0.0004 -1.0207
 6038SOL     OW29749   2.439   1.399   5.611  0.2930  0.8497  0.6553
 6038SOL    HW129750   2.446   1.463   5.681  1.7217 -0.7163  1.9535
 6038SOL    HW229751   2.483   1.451   5.543  2.2120 -1.7995 -0.1520
 6039SOL     OW29752   0.443   2.739   7.363  0.8558  0.3858 -0.2931
 6039SOL    HW129753   0.433   2.647   7.340  0.9817 -0.4136  2.9266
 6039SOL    HW229754   0.403   2.732   7.449  1.0375 -0.3356 -0.2687
 6040SOL     OW29755   0.503   1.605  15.485  0.3393 -0.7408 -0.0142
 6040SOL    HW129756   0.492   1.650  15.569 -0.7574  0.4004 -0.7737
 6040SOL    HW229757   0.534   1.519  15.514  0.3438 -1.1549 -1.2607
 6041SOL     OW29758   3.341   1.606   6.341  0.5546  0.3664 -0.1060
 6041SOL    HW129759   3.357   1.513   6.321 -1.6623  0.1337 -0.7742
 6041SOL    HW229760   3.261   1.595   6.392  1.1466  2.8841  1.3860
 6042SOL     OW29761   2.849   1.797  17.503  0.0614 -0.6341 -0.4178
 6042SOL    HW129762   2.795   1.787  17.582 -1.6187 -0.3594 -1.5472
 6042SOL    HW229763   2.839   1.715  17.455 -2.2968 -0.1568 -0.7028
 6043SOL     OW29764   4.569   1.077  11.971 -0.5025 -0.2073  0.0013
 6043SOL    HW129765   4.577   1.013  11.899 -0.1219  1.7867 -1.7324
 6043SOL    HW229766   4.545   1.152  11.917  0.6693  0.6751  0.7329
 6044SOL     OW29767   2.054   1.759   6.990 -0.5427  0.1247 -0.4081
 6044SOL    HW129768   2.064   1.732   7.081  0.7817 -0.4044 -0.7235
 6044SOL    HW229769   2.089   1.847   7.000 -1.3779  0.1670  2.2551
 6045SOL     OW29770   1.068   2.641   6.882  0.0856 -0.2339 -0.4730
 6045SOL    HW129771   1.048   2.547   6.881  2.2459 -0.6838  0.6942
 6045SOL    HW229772   1.032   2.669   6.797 -0.9901  0.2206  0.1287
 6046SOL     OW29773   0.835   3.727   9.594 -0.4905 -0.0138  0.2820
 6046SOL    HW129774   0.903   3.777   9.548 -0.3997  1.2786  1.8406
 6046SOL    HW229775   0.896   3.664   9.632  0.6419  1.0453  0.2035
 6047SOL     OW29776   2.756   2.526   3.878  0.5307 -0.2282  0.0059
 6047SOL    HW129777   2.840   2.519   3.924  1.7573 -0.9916 -2.3461
 6047SOL    HW229778   2.705   2.462   3.927 -0.0725 -1.5428 -2.3652
 6048SOL     OW29779   2.004   4.341   8.546 -0.2948  0.2260 -0.5703
 6048SOL    HW129780   2.083   4.366   8.497 -0.3434  0.9996 -0.2592
 6048SOL    HW229781   2.033   4.364   8.635 -1.4374  1.6185 -0.5504
 6049SOL     OW29782   1.007   3.280   8.909 -0.4996 -0.4669 -0.3810
 6049SOL    HW129783   1.057   3.208   8.871 -0.3574 -0.5282 -0.0829
 6049SOL    HW229784   0.941   3.302   8.844 -1.3861 -2.8736 -0.2723
 6050SOL     OW29785   0.890   1.229  12.094  0.2766  0.1032 -0.5487
 6050SOL    HW129786   0.838   1.182  12.160  0.1955  2.2626  0.9346
 6050SOL    HW229787   0.916   1.155  12.040 -0.6375  0.6739 -1.7811
 6051SOL     OW29788   0.015   0.211  15.181  0.4940  0.4643  0.1731
 6051SOL    HW129789   4.689   0.280  15.197  0.0635  0.1976 -0.4252
 6051SOL    HW229790   0.087   0.269  15.157  2.3513 -2.2085 -0.7187
 6052SOL     OW29791   0.130   2.885   2.746 -0.3494 -0.2741  0.3946
 6052SOL    HW129792   0.195   2.931   2.693 -0.5348  1.6664  1.8653
 6052SOL    HW229793   0.190   2.850   2.813 -0.1405  3.0404  1.9312
 6053SOL     OW29794   2.961   4.248   8.847 -0.0735 -0.2717  0.0554
 6053SOL    HW129795   3.004   4.274   8.928  2.0109 -1.7348 -0.5809
 6053SOL    HW229796   3.026   4.290   8.790  0.2549  3.0314  2.8928
 6054SOL     OW29797   0.952   2.836   9.214 -0.4815 -0.0602  0.3833
 6054SOL    HW129798   0.902   2.850   9.133 -2.6788 -1.7686  1.4530
 6054SOL    HW229799   1.019   2.773   9.191  0.1133  1.2946 -1.6005
 6055SOL     OW29800   0.491   1.501  11.895  0.0775  0.0811 -0.2271
 6055SOL    HW129801   0.568   1.444  11.885 -0.3945 -0.1668 -2.4086
 6055SOL    HW229802   0.447   1.470  11.974 -1.8468 -0.1513 -1.4042
 6056SOL     OW29803   1.610   1.574   8.540 -0.2847 -0.1431  0.4659
 6056SOL    HW129804   1.563   1.493   8.559 -1.4727  0.6027  0.7125
 6056SOL    HW229805   1.549   1.627   8.592 -0.4001 -0.2888  0.4788
 6057SOL     OW29806   1.679   3.165   6.709  0.1220  0.2253 -0.2956
 6057SOL    HW129807   1.697   3.155   6.616  2.7854 -0.7040  0.3271
 6057SOL    HW229808   1.627   3.244   6.694 -1.0855 -0.7680 -1.3063
 6058SOL     OW29809   1.465   3.147   1.555  0.5021  0.6525 -0.1724
 6058SOL    HW129810   1.467   3.113   1.644  0.0148  0.4571 -0.2375
 6058SOL    HW229811   1.396   3.212   1.563 -0.0532  0.3190 -2.3244
 6059SOL     OW29812   1.703   0.570   6.347  0.8138  0.1662  0.2981
 6059SOL    HW129813   1.703   0.664   6.365 -1.4878  0.3599 -0.7203
 6059SOL    HW229814   1.674   0.533   6.431 -0.5739 -1.0898 -0.7344
 6060SOL     OW29815   2.861   2.751   3.685 -0.2286  0.0086  0.6032
 6060SOL    HW129816   2.786   2.810   3.692 -1.2617 -1.2320  0.0081
 6060SOL    HW229817   2.817   2.670   3.708  1.4463 -0.7758  1.0603
 6061SOL     OW29818   1.421   2.320   1.643 -0.4736  0.1924 -0.2050
 6061SOL    HW129819   1.472   2.370   1.708 -1.5313  0.5092  0.3832
 6061SOL    HW229820   1.335   2.342   1.679 -0.3421 -1.5928  1.1998
 6062SOL     OW29821   1.671   3.351   2.794 -0.1564  1.0863  0.6614
 6062SOL    HW129822   1.688   3.290   2.866  0.7495  1.5621  0.8534
 6062SOL    HW229823   1.595   3.398   2.828 -0.1940  1.8558 -0.4599
 6063SOL     OW29824   3.134   0.836   8.028 -0.4496  0.0994 -0.2412
 6063SOL    HW129825   3.201   0.768   8.039  0.6119  1.1452 -0.2315
 6063SOL    HW229826   3.108   0.809   7.940 -1.8160  0.5482  0.0261
 6064SOL     OW29827   3.932   1.775   6.967  0.1983  0.1043  0.2603
 6064SOL    HW129828   3.937   1.805   6.876  1.6979 -0.1075  0.2686
 6064SOL    HW229829   3.838   1.758   6.972 -0.0964  2.0751  1.6321
 6065SOL     OW29830   3.251   2.362   0.961  0.4567  0.4109 -0.2692
 6065SOL    HW129831   3.332   2.326   0.998  0.4710  1.8151  1.0558
 6065SOL    HW229832   3.264   2.307   0.884 -1.4767 -1.3889  0.6795
 6066SOL     OW29833   3.184   4.599   5.784  0.4426  0.3597 -0.1754
 6066SOL    HW129834   3.091   4.576   5.795  0.6202 -1.1182 -1.6702
 6066SOL    HW229835   3.196   4.650   5.864  0.7171 -0.5817  0.3844
 6067SOL     OW29836   4.111   2.841  16.327 -0.4030 -0.2009 -0.0038
 6067SOL    HW129837   4.203   2.845  16.302 -1.0332 -0.5277 -2.4306
 6067SOL    HW229838   4.094   2.933  16.346 -3.1090 -0.4303 -1.2593
 6068SOL     OW29839   1.124   0.760   3.392 -0.3837  0.4859 -0.1230
 6068SOL    HW129840   1.165   0.675   3.373 -0.9362  0.7579 -2.4695
 6068SOL    HW229841   1.188   0.819   3.353 -1.3681  0.6122 -1.5644
 6069SOL     OW29842   1.155   4.219  16.799  0.2768  0.7780 -0.4294
 6069SOL    HW129843   1.076   4.247  16.752  1.0470  0.7691 -1.7168
 6069SOL    HW229844   1.152   4.124  16.792  0.8489  0.6511  1.0455
 6070SOL     OW29845   3.513   1.227   5.416 -0.0468 -0.6458 -0.0107
 6070SOL    HW129846   3.523   1.318   5.444 -0.5193 -0.7521  0.5077
 6070SOL    HW229847   3.436   1.206   5.469  1.7970 -3.8164  1.4233
 6071SOL     OW29848   2.752   0.571   5.806  0.3255  0.4409  0.1911
 6071SOL    HW129849   2.810   0.606   5.873 -0.3905  2.0493 -0.0240
 6071SOL    HW229850   2.759   0.646   5.748 -0.6425  0.4811  0.1181
 6072SOL     OW29851   4.499   2.254   4.669 -0.3978 -0.0317 -0.9368
 6072SOL    HW129852   4.445   2.292   4.738  0.7083  0.6235 -0.4186
 6072SOL    HW229853   4.482   2.161   4.686  1.3402 -0.2904 -0.6110
 6073SOL     OW29854   2.469   4.510  16.565 -0.2089 -0.2059  0.1480
 6073SOL    HW129855   2.437   4.505  16.655 -0.8330  1.1435  0.0023
 6073SOL    HW229856   2.548   4.563  16.573  0.9482 -1.4769 -2.4545
 6074SOL     OW29857   1.531   0.978   5.899 -0.9793 -0.7007  0.0268
 6074SOL    HW129858   1.464   0.914   5.922  0.7509 -0.8966  4.5685
 6074SOL    HW229859   1.474   1.051   5.922 -1.2416 -1.4102  1.6062
 6075SOL     OW29860   0.741   4.665  12.418  0.7034  0.1632 -0.4597
 6075SOL    HW129861   0.797   4.659  12.341  0.7631 -0.2000 -0.3853
 6075SOL    HW229862   0.808   4.672  12.486  0.2896  0.1357 -0.0477
 6076SOL     OW29863   3.818   3.713   5.212  0.3076  0.3726 -0.2385
 6076SOL    HW129864   3.731   3.688   5.243 -0.0905 -0.8441 -2.3499
 6076SOL    HW229865   3.786   3.765   5.138 -0.3216 -0.4352 -0.5458
 6077SOL     OW29866   3.797   1.378   4.266 -0.2310 -0.1236  0.4142
 6077SOL    HW129867   3.727   1.428   4.224 -1.2643 -1.6830  0.3032
 6077SOL    HW229868   3.770   1.289   4.244 -2.6620  1.1756 -1.8043
 6078SOL     OW29869   3.079   4.287   1.064  0.5612  0.0854 -0.0257
 6078SOL    HW129870   3.023   4.210   1.052  0.5538  0.0125  0.4740
 6078SOL    HW229871   3.027   4.352   1.111 -0.4288 -1.8251  1.5375
 6079SOL     OW29872   0.832   4.711  10.971 -0.3326 -0.1844  0.5470
 6079SOL    HW129873   0.739   4.690  10.977 -0.6537  0.7268 -1.1772
 6079SOL    HW229874   0.861   4.701  11.061  0.3823 -0.3309  0.3037
 6080SOL     OW29875   2.581   3.847   4.661  0.2401 -0.3519 -0.0044
 6080SOL    HW129876   2.495   3.824   4.697  0.1557  0.9248  0.5967
 6080SOL    HW229877   2.556   3.922   4.608 -2.1522 -1.5871 -0.6248
 6081SOL     OW29878   1.542   0.085   9.455 -0.5166 -0.1351 -0.6080
 6081SOL    HW129879   1.506   0.158   9.404 -0.7041  1.1022  1.2580
 6081SOL    HW229880   1.528   0.107   9.548 -0.6619 -0.4772 -0.5503
 6082SOL     OW29881   3.725   0.712   1.812 -0.0723  0.3619  0.6390
 6082SOL    HW129882   3.636   0.677   1.810 -0.7319  2.1375 -2.0203
 6082SOL    HW229883   3.732   0.769   1.889 -1.8270  0.5832  0.6356
 6083SOL     OW29884   0.148   2.714   9.078  0.2577 -0.0838 -0.2295
 6083SOL    HW129885   0.115   2.791   9.124 -0.0905  1.4019 -2.9259
 6083SOL    HW229886   0.082   2.647   9.097 -0.4661  0.4707 -0.7811
 6084SOL     OW29887   1.589   0.842   9.245 -0.1219 -0.1866 -0.2455
 6084SOL    HW129888   1.540   0.760   9.241 -1.6332  0.7303 -0.9996
 6084SOL    HW229889   1.681   0.818   9.238 -0.3814 -0.7129 -1.8155
 6085SOL     OW29890   4.034   4.387  13.599 -0.4634  0.4160 -0.3590
 6085SOL    HW129891   4.053   4.295  13.616  1.0863  0.7421 -0.3586
 6085SOL    HW229892   4.117   4.421  13.631 -0.6507 -0.7717  1.3526
 6086SOL     OW29893   4.470   1.536   7.929 -0.4528 -0.2932 -0.3741
 6086SOL    HW129894   4.514   1.502   7.852  0.5107 -1.3276  0.6330
 6086SOL    HW229895   4.475   1.632   7.924 -0.7758 -0.2650 -0.1514
 6087SOL     OW29896   0.056   2.488   6.774  0.4016 -0.2038  0.3746
 6087SOL    HW129897   0.016   2.513   6.691 -1.7888  1.5799  1.9585
 6087SOL    HW229898   0.012   2.404   6.787 -1.9057  0.5981 -2.2257
 6088SOL     OW29899   1.514   2.224   2.631  0.4974  0.1222 -0.2165
 6088SOL    HW129900   1.520   2.132   2.658  0.2879 -0.2493 -1.4450
 6088SOL    HW229901   1.604   2.257   2.635  0.8199 -0.6365 -1.3265
 6089SOL     OW29902   0.805   2.642   1.905 -0.3001 -0.6228 -0.4729
 6089SOL    HW129903   0.752   2.563   1.917 -0.1031 -0.8617 -1.1579
 6089SOL    HW229904   0.820   2.633   1.811 -1.4394 -0.8164 -0.6323
 6090SOL     OW29905   0.858   0.836   7.834 -0.3892  0.2662  0.6388
 6090SOL    HW129906   0.931   0.897   7.835  1.2599 -1.6808 -1.1098
 6090SOL    HW229907   0.788   0.894   7.866 -1.8983 -2.3755  2.1107
 6091SOL     OW29908   2.106   3.565   4.624  0.1505  0.2000 -0.1302
 6091SOL    HW129909   2.082   3.473   4.636  3.2896 -0.5945  0.1789
 6091SOL    HW229910   2.063   3.584   4.541  2.2305 -1.5292 -1.6057
 6092SOL     OW29911   0.182   2.227   4.643  0.0322  0.8473 -0.2122
 6092SOL    HW129912   0.137   2.148   4.613 -0.3141  0.6805  0.7361
 6092SOL    HW229913   0.276   2.207   4.641  0.2095  1.7209 -0.5794
 6093SOL     OW29914   1.456   4.253   4.705 -0.5329  0.1283 -0.5682
 6093SOL    HW129915   1.446   4.185   4.639  0.9025 -0.7143  0.0600
 6093SOL    HW229916   1.442   4.333   4.654  0.1982 -1.2538 -2.9564
 6094SOL     OW29917   1.550   0.617   4.685  0.3653 -0.1151  0.2389
 6094SOL    HW129918   1.549   0.700   4.733  1.2894 -0.0937  0.2127
 6094SOL    HW229919   1.455   0.609   4.674  0.1983  3.1274 -0.7639
 6095SOL     OW29920   4.100   2.071  17.677  0.1269 -0.0137 -0.7326
 6095SOL    HW129921   4.173   2.012  17.698  1.2548  0.3320 -3.7145
 6095SOL    HW229922   4.074   2.049  17.588 -0.2199 -1.0231 -0.3831
 6096SOL     OW29923   0.088   0.852   7.577  0.2713 -0.3660 -0.3297
 6096SOL    HW129924   4.737   0.841   7.544  0.1641  0.4782 -0.3370
 6096SOL    HW229925   0.083   0.806   7.660  1.4036  1.8710  0.9827
 6097SOL     OW29926   1.402   4.015   7.318  0.0544 -0.3350  0.3620
 6097SOL    HW129927   1.317   3.979   7.293 -0.2624  0.0609  0.8514
 6097SOL    HW229928   1.382   4.071   7.394  0.7580 -0.1486  0.4085
 6098SOL     OW29929   0.789   4.594   3.174  0.6103 -0.1672  0.1197
 6098SOL    HW129930   0.797   4.560   3.263 -0.5440  1.8670  1.0058
 6098SOL    HW229931   0.882   4.609   3.157  0.9623 -0.5426  1.7020
 6099SOL     OW29932   1.462   2.194  10.641  0.5442  0.2711 -0.3793
 6099SOL    HW129933   1.442   2.206  10.734 -1.9092 -0.5221 -0.8019
 6099SOL    HW229934   1.474   2.099  10.642 -1.2978  0.0475  2.0373
 6100SOL     OW29935   0.271   1.684   3.806 -0.1841 -0.1485  0.3470
 6100SOL    HW129936   0.269   1.723   3.719  1.5515  0.1473  0.4234
 6100SOL    HW229937   0.185   1.643   3.804 -0.2979  0.1158 -0.0250
 6101SOL     OW29938   0.587   4.334   3.254  0.2585 -0.2965 -0.5614
 6101SOL    HW129939   0.507   4.382   3.232 -0.9149 -2.0702 -0.1762
 6101SOL    HW229940   0.653   4.377   3.201 -1.0772  0.3830 -1.6816
 6102SOL     OW29941   2.099   2.146   2.252  0.1097  0.3898 -0.2697
 6102SOL    HW129942   2.047   2.148   2.333 -0.6517 -1.1537 -0.7180
 6102SOL    HW229943   2.033   2.119   2.188 -0.1268  1.0671 -0.3086
 6103SOL     OW29944   0.035   3.061   2.386 -0.5781 -1.1406 -0.9458
 6103SOL    HW129945   4.680   3.072   2.368 -0.8683 -0.9142  0.6792
 6103SOL    HW229946   0.049   3.013   2.305 -1.5745 -1.2203 -1.0680
 6104SOL     OW29947   4.059   0.518   8.998 -0.2334  0.0115  0.3086
 6104SOL    HW129948   4.074   0.612   8.987  3.3011 -0.8065 -1.6743
 6104SOL    HW229949   3.979   0.511   8.947  1.0201  2.9163 -2.0616
 6105SOL     OW29950   3.541   3.296   8.929 -0.4781  0.0256 -0.0516
 6105SOL    HW129951   3.579   3.253   9.006 -2.5462 -2.2580 -0.3221
 6105SOL    HW229952   3.535   3.388   8.956  0.8555 -0.2644  1.3073
 6106SOL     OW29953   3.493   2.870   2.783 -0.0339  0.2391  0.4893
 6106SOL    HW129954   3.401   2.863   2.758  0.8203  0.5365 -2.8402
 6106SOL    HW229955   3.513   2.950   2.733  1.2968 -0.5707 -0.2742
 6107SOL     OW29956   2.613   4.119   9.051  0.7470 -0.0901  0.3378
 6107SOL    HW129957   2.618   4.143   9.144  0.4438  2.5528 -0.3174
 6107SOL    HW229958   2.701   4.088   9.030  0.4449 -1.1463  0.6586
 6108SOL     OW29959   0.047   0.345  15.822 -0.4021 -0.1985  0.3136
 6108SOL    HW129960   0.018   0.341  15.913  2.0001 -1.7277  1.0267
 6108SOL    HW229961   0.131   0.299  15.827 -0.0461  0.3397 -0.7626
 6109SOL     OW29962   4.611   4.254   1.943 -0.0205  0.3345 -0.0878
 6109SOL    HW129963   4.636   4.163   1.958  2.3668  0.5629 -2.6058
 6109SOL    HW229964   4.684   4.316   1.954  1.0869 -1.2267  1.3321
 6110SOL     OW29965   2.703   2.315   6.560 -0.1665 -0.1322  0.3982
 6110SOL    HW129966   2.694   2.359   6.644 -0.0754 -0.0602  0.3695
 6110SOL    HW229967   2.795   2.296   6.540  0.0499  0.0582  1.2122
 6111SOL     OW29968   4.715   1.323   0.906  0.4282 -0.1595  0.0682
 6111SOL    HW129969   4.648   1.365   0.959 -0.0505 -2.4912  1.2888
 6111SOL    HW229970   0.056   1.317   0.960 -0.5488 -1.1641  1.3959
 6112SOL     OW29971   4.387   3.806   7.046 -0.5126 -0.0803 -0.3163
 6112SOL    HW129972   4.313   3.756   7.081  0.1075 -0.6065  0.2692
 6112SOL    HW229973   4.361   3.812   6.955 -1.2013  0.1714 -0.1053
 6113SOL     OW29974   1.690   4.524   9.090 -0.4217 -0.1594 -0.1844
 6113SOL    HW129975   1.729   4.460   9.149  0.7873  0.4955 -0.2614
 6113SOL    HW229976   1.719   4.604   9.136 -1.5194  0.5085 -0.6553
 6114SOL     OW29977   0.363   0.270   5.719 -0.0549 -0.1447 -0.5450
 6114SOL    HW129978   0.386   0.208   5.788 -2.7175 -2.4033 -1.6500
 6114SOL    HW229979   0.323   0.338   5.772  0.4290 -1.4937  1.5479
 6115SOL     OW29980   4.424   0.217   5.356 -0.1340 -0.5748 -0.1060
 6115SOL    HW129981   4.396   0.207   5.447  1.3856 -0.8991  0.3297
 6115SOL    HW229982   4.499   0.158   5.350 -0.3778 -1.1449  2.8930
 6116SOL     OW29983   3.100   1.579   8.235 -0.6214 -0.0374  0.2262
 6116SOL    HW129984   3.161   1.635   8.186  1.4117 -0.1846  2.5725
 6116SOL    HW229985   3.022   1.562   8.182 -1.1787  1.6855  0.5048
 6117SOL     OW29986   2.966   1.758  11.854  0.3210 -0.3996 -0.2168
 6117SOL    HW129987   3.017   1.816  11.798  1.4975 -0.2647  1.0055
 6117SOL    HW229988   2.959   1.806  11.936  0.8961  1.0675 -1.0225
 6118SOL     OW29989   4.002   4.164   3.818 -0.4646  0.0141  0.1848
 6118SOL    HW129990   4.013   4.162   3.913  1.5076  0.2882 -0.0317
 6118SOL    HW229991   3.918   4.210   3.820  0.8708  2.4485  0.7586
 6119SOL     OW29992   2.866   0.986   8.038  0.6110 -0.1077 -0.1859
 6119SOL    HW129993   2.880   1.072   7.997 -0.2423 -0.7111 -1.7165
 6119SOL    HW229994   2.926   0.926   7.993 -0.0967 -1.0298  0.0967
 6120SOL     OW29995   0.981   2.490   1.585 -0.0523  0.7412 -0.5204
 6120SOL    HW129996   0.941   2.572   1.615  1.8275  0.9646  1.3226
 6120SOL    HW229997   0.925   2.482   1.507 -1.8233  0.2778  0.7785
 6121SOL     OW29998   3.151   0.001  14.630  0.2916 -0.0881 -0.0887
 6121SOL    HW129999   3.144   4.699  14.544 -1.5152 -0.1440  0.0890
 6121SOL    HW230000   3.058   0.017  14.647  0.4013  0.3663  0.0875
 6122SOL     OW30001   3.845   3.328   4.840  0.0672 -0.0357 -0.4154
 6122SOL    HW130002   3.868   3.415   4.808 -2.0998  0.5146 -0.4622
 6122SOL    HW230003   3.760   3.320   4.796  0.2683 -0.4731 -0.7305
 6123SOL     OW30004   1.567   1.019   8.448 -0.1835 -0.2532  0.3500
 6123SOL    HW130005   1.546   0.987   8.536 -5.0627 -0.0796 -0.7479
 6123SOL    HW230006   1.634   1.083   8.470  0.0727 -1.6013  3.5598
 6124SOL     OW30007   4.719   3.942   6.914 -0.0114 -0.3088 -0.4206
 6124SOL    HW130008   4.652   3.978   6.973  1.5737  0.9691  0.5727
 6124SOL    HW230009   4.661   3.920   6.840 -0.1341 -1.8223  0.1198
 6125SOL     OW30010   1.054   2.631   3.978  0.0189  0.1309  0.0525
 6125SOL    HW130011   1.012   2.623   4.064 -0.7501  1.1295 -0.2225
 6125SOL    HW230012   1.062   2.727   3.974  3.2857 -0.1312  0.2847
 6126SOL     OW30013   3.399   3.870   3.905 -0.1451  0.7284  0.0962
 6126SOL    HW130014   3.471   3.928   3.928  1.1680  0.4077 -3.2571
 6126SOL    HW230015   3.325   3.929   3.916 -1.7616 -1.0933 -1.0503
 6127SOL     OW30016   3.429   3.476  15.973 -0.3138 -0.2187  0.0842
 6127SOL    HW130017   3.455   3.460  15.883 -2.3307 -1.4545 -0.2834
 6127SOL    HW230018   3.396   3.565  15.962 -1.9739 -1.2834 -3.4858
 6128SOL     OW30019   4.539   3.607   9.357  0.1546  1.1716  0.1172
 6128SOL    HW130020   4.634   3.600   9.364  0.0537  1.9743  2.6164
 6128SOL    HW230021   4.513   3.630   9.447 -2.5180  2.2641 -0.9299
 6129SOL     OW30022   3.722   2.326  12.514  0.1000  0.5215  0.4683
 6129SOL    HW130023   3.645   2.293  12.467  1.6179  1.9346 -2.9790
 6129SOL    HW230024   3.689   2.318  12.604  0.0515 -1.6985  0.2451
 6130SOL     OW30025   4.531   4.691   6.358  0.0196 -0.1209 -0.1841
 6130SOL    HW130026   4.484   4.640   6.292 -1.2133 -1.6438  1.8385
 6130SOL    HW230027   4.558   4.619   6.416  2.4192  2.5175  1.9713
 6131SOL     OW30028   3.192   2.183  16.746 -0.4123  0.4478 -0.6400
 6131SOL    HW130029   3.099   2.184  16.768  0.1398 -0.4392  1.6945
 6131SOL    HW230030   3.183   2.262  16.693 -1.3749  1.4782  1.0804
 6132SOL     OW30031   4.607   2.608  11.493  0.3155 -0.4592 -0.1358
 6132SOL    HW130032   4.667   2.557  11.438  0.6855  0.0210 -0.1830
 6132SOL    HW230033   4.625   2.700  11.472 -1.2897 -0.1371 -0.0510
 6133SOL     OW30034   0.267   0.795  15.892 -0.3438 -0.0822 -1.2271
 6133SOL    HW130035   0.259   0.872  15.836  2.2517  1.0540 -0.0384
 6133SOL    HW230036   0.224   0.724  15.843 -0.0432  1.8430 -4.2827
 6134SOL     OW30037   1.160   1.026  11.600  0.5584  0.1117  0.5507
 6134SOL    HW130038   1.162   1.119  11.624 -0.0972  0.0334  0.9166
 6134SOL    HW230039   1.214   1.027  11.521 -1.6212  2.9280 -0.8997
 6135SOL     OW30040   1.998   4.681   8.691 -0.0377  0.0625  0.1566
 6135SOL    HW130041   2.068   4.616   8.681  0.3020  0.5530 -0.7076
 6135SOL    HW230042   1.990   4.696   8.785  2.5396 -0.2403  0.4174
 6136SOL     OW30043   1.704   3.769   5.462 -0.0080 -0.2087 -0.0196
 6136SOL    HW130044   1.721   3.787   5.370 -0.6880 -2.3183 -0.5657
 6136SOL    HW230045   1.613   3.793   5.479 -0.2062 -1.5077  0.7983
 6137SOL     OW30046   3.222   2.933  15.074  0.2315 -0.5525 -0.1508
 6137SOL    HW130047   3.217   2.842  15.105 -2.9759 -0.4677 -0.4745
 6137SOL    HW230048   3.245   2.920  14.982 -2.8266 -1.1782 -0.8301
 6138SOL     OW30049   3.741   2.567  16.681  0.3230  0.1980  0.4425
 6138SOL    HW130050   3.754   2.491  16.624 -0.1543 -0.6819  1.4975
 6138SOL    HW230051   3.646   2.570  16.695  0.6173 -1.2965  2.7566
 6139SOL     OW30052   4.036   3.614   8.125  0.1899  0.1532 -0.1448
 6139SOL    HW130053   3.955   3.646   8.085 -0.7111  1.6931  2.8910
 6139SOL    HW230054   4.036   3.683   8.192  1.7428  0.3752 -0.3671
 6140SOL     OW30055   1.562   2.647   2.239 -0.4743 -0.2010  0.0678
 6140SOL    HW130056   1.605   2.611   2.317 -1.1732 -0.0356  0.5372
 6140SOL    HW230057   1.538   2.560   2.206 -0.2739 -0.9339  1.8514
 6141SOL     OW30058   4.676   3.077   6.854  0.5315 -0.2586 -0.2073
 6141SOL    HW130059   4.618   3.113   6.921  1.0269  1.3897 -0.6611
 6141SOL    HW230060   4.674   3.159   6.804 -0.8756 -0.7235 -0.9351
 6142SOL     OW30061   2.248   1.255  12.491  0.1821  0.4207  0.9435
 6142SOL    HW130062   2.333   1.292  12.466  0.7685 -3.7770 -3.0887
 6142SOL    HW230063   2.231   1.201  12.414 -0.4191  1.1097  0.5954
 6143SOL     OW30064   0.999   3.723   4.698 -0.0453 -0.4520 -0.3486
 6143SOL    HW130065   1.015   3.743   4.790  0.4212 -1.6748 -0.1664
 6143SOL    HW230066   1.014   3.629   4.696 -0.1633 -0.4081 -2.9238
 6144SOL     OW30067   4.417   0.041   8.943  0.6092  0.4784 -0.0996
 6144SOL    HW130068   4.509   0.015   8.933  0.2734 -0.0857 -1.6704
 6144SOL    HW230069   4.414   0.126   8.898 -0.1214 -0.0618 -1.0649
 6145SOL     OW30070   4.113   1.072   9.044 -0.1677  0.0220 -0.2716
 6145SOL    HW130071   4.161   1.111   8.971  0.2116  0.3052  0.1317
 6145SOL    HW230072   4.156   1.106   9.122 -0.5566 -2.7590  1.1600
 6146SOL     OW30073   2.183   0.989   3.975  0.5429  0.2719 -0.3508
 6146SOL    HW130074   2.267   1.024   3.945  1.4266 -2.3470 -0.9245
 6146SOL    HW230075   2.168   0.920   3.910  1.4971  0.7177 -1.0421
 6147SOL     OW30076   4.300   4.170  13.474  0.1145  0.0330 -0.4623
 6147SOL    HW130077   4.318   4.195  13.383  2.0519  4.0680  1.0085
 6147SOL    HW230078   4.205   4.168  13.483  0.2563 -1.0946  0.7487
 6148SOL     OW30079   1.388   2.815   4.452  0.4991  0.1625  0.1737
 6148SOL    HW130080   1.366   2.782   4.539 -4.1126 -0.2312 -1.1705
 6148SOL    HW230081   1.442   2.745   4.414 -1.9260 -1.0995 -0.8940
 6149SOL     OW30082   3.202   1.734  11.612  0.4861 -0.4630 -0.2672
 6149SOL    HW130083   3.210   1.828  11.627 -2.9964  0.1854 -2.6259
 6149SOL    HW230084   3.285   1.704  11.649  1.1637 -1.0997 -2.3147
 6150SOL     OW30085   1.351   0.234   7.922  0.5239  0.2751  0.4818
 6150SOL    HW130086   1.422   0.211   7.982 -0.9368 -1.8018  1.3752
 6150SOL    HW230087   1.404   0.255   7.845 -1.0110 -0.2644 -0.7189
 6151SOL     OW30088   4.460   4.397   3.531  0.2371 -0.9051  0.0092
 6151SOL    HW130089   4.486   4.482   3.565 -2.3058 -0.2921  0.4387
 6151SOL    HW230090   4.365   4.386   3.540  0.1524 -2.2916 -2.5188
 6152SOL     OW30091   3.109   1.343   7.184 -0.2190  0.6845  0.3013
 6152SOL    HW130092   3.193   1.388   7.172  1.5193 -3.6789 -3.8608
 6152SOL    HW230093   3.110   1.327   7.278  0.7968  0.6713  0.2923
 6153SOL     OW30094   0.511   2.525   7.604 -1.1610  0.2019  0.4444
 6153SOL    HW130095   0.501   2.567   7.690  0.6620 -0.1424  0.8293
 6153SOL    HW230096   0.424   2.497   7.577 -1.0430 -0.7693  1.0265
 6154SOL     OW30097   2.234   2.386   5.037 -0.1788  0.1871 -0.0745
 6154SOL    HW130098   2.225   2.464   4.982  0.1821  0.4258  0.2039
 6154SOL    HW230099   2.223   2.426   5.123 -1.1847  0.3347 -0.2639
 6155SOL     OW30100   2.788   0.767   3.506  0.1583 -0.1585 -0.2855
 6155SOL    HW130101   2.817   0.767   3.415 -0.4641  0.8430 -0.4843
 6155SOL    HW230102   2.698   0.738   3.489  0.7746 -1.6370 -1.0481
 6156SOL     OW30103   3.372   1.588   2.681 -0.3452  0.5349  0.1338
 6156SOL    HW130104   3.388   1.519   2.617 -0.9268  0.9747 -0.4926
 6156SOL    HW230105   3.277   1.599   2.685 -0.6584 -2.2086 -0.2974
 6157SOL     OW30106   0.211   0.723   6.512 -0.0241  0.2211 -0.1906
 6157SOL    HW130107   0.279   0.696   6.573 -0.4063  0.8558  0.5376
 6157SOL    HW230108   0.157   0.752   6.586 -1.1460 -2.0104 -0.1302
 6158SOL     OW30109   2.915   2.912  13.808 -0.2671  0.5965 -0.3641
 6158SOL    HW130110   2.938   2.897  13.900 -1.0311 -0.6595 -0.3760
 6158SOL    HW230111   2.955   2.998  13.793 -0.9869  0.5982 -2.2834
 6159SOL     OW30112   1.349   4.299  15.532  0.4166  0.0200 -0.6444
 6159SOL    HW130113   1.338   4.387  15.497 -0.9769 -0.1224 -0.5696
 6159SOL    HW230114   1.411   4.319  15.602 -0.1252 -2.3047  0.4966
 6160SOL     OW30115   0.294   1.285   7.383  0.2384  0.2190 -0.4296
 6160SOL    HW130116   0.356   1.258   7.315  1.2687 -2.1149  1.4623
 6160SOL    HW230117   0.338   1.354   7.432 -2.5277  1.8621 -0.2453
 6161SOL     OW30118   2.622   4.475  16.335 -0.3286 -0.1411  0.0995
 6161SOL    HW130119   2.589   4.550  16.285 -3.3367 -0.8457  1.0024
 6161SOL    HW230120   2.565   4.472  16.412  0.1114 -0.1935  0.4195
 6162SOL     OW30121   3.840   0.452  16.753 -0.0427 -0.1929 -0.5680
 6162SOL    HW130122   3.746   0.451  16.739  0.2068 -3.9846 -1.8221
 6162SOL    HW230123   3.845   0.507  16.832 -1.8487  0.1088 -0.6775
 6163SOL     OW30124   3.032   0.852  17.655  0.2791  0.0915  0.3922
 6163SOL    HW130125   3.009   0.866  17.563 -0.6968  1.7673  0.8831
 6163SOL    HW230126   3.114   0.803  17.648  0.1161 -0.2983  1.2307
 6164SOL     OW30127   1.143   0.544  13.783  0.6797 -0.0206  0.6849
 6164SOL    HW130128   1.203   0.580  13.717 -0.1897  1.9728  0.9747
 6164SOL    HW230129   1.213   0.526  13.845  1.7460  0.8413 -0.2428
 6165SOL     OW30130   1.532   0.535   6.116  0.3494  0.3631  0.6629
 6165SOL    HW130131   1.596   0.514   6.048 -0.8839  0.3798 -0.5065
 6165SOL    HW230132   1.597   0.545   6.186  0.1332 -0.5435  0.9928
 6166SOL     OW30133   0.132   1.903  11.324 -0.1398  0.2068 -0.0222
 6166SOL    HW130134   0.129   1.844  11.399 -0.4176 -0.4122 -0.5199
 6166SOL    HW230135   0.119   1.842  11.252  0.3585 -1.3713  1.2306
 6167SOL     OW30136   0.132   4.185   2.121 -0.1557  0.1896 -0.6065
 6167SOL    HW130137   0.095   4.116   2.067 -4.2189  1.1626  0.9310
 6167SOL    HW230138   0.062   4.197   2.185  0.0628  0.1277 -0.3562
 6168SOL     OW30139   3.096   1.102  17.657 -0.5174  0.4599  1.0488
 6168SOL    HW130140   3.053   1.128  17.575  0.4143 -0.0818  0.3874
 6168SOL    HW230141   3.070   1.013  17.679  1.4657 -0.1499  0.9516
 6169SOL     OW30142   3.685   3.693   3.827  0.2846 -0.6095 -0.1989
 6169SOL    HW130143   3.600   3.734   3.846 -0.6136 -1.5622 -2.1748
 6169SOL    HW230144   3.693   3.631   3.899 -0.7238  1.0174  1.3164
 6170SOL     OW30145   0.275   1.701   5.744 -0.0220 -0.1521 -0.5882
 6170SOL    HW130146   0.296   1.649   5.667  0.0418 -1.9530  0.6652
 6170SOL    HW230147   0.341   1.770   5.729  1.2543 -0.6597  2.7932
 6171SOL     OW30148   2.909   2.413   6.092  0.2113  0.4121 -0.4170
 6171SOL    HW130149   2.990   2.434   6.047  1.3740 -2.6375  0.2392
 6171SOL    HW230150   2.891   2.320   6.078  0.2634  0.4181 -0.5241
 6172SOL     OW30151   0.037   1.802   3.036 -0.0446  0.6859  0.1915
 6172SOL    HW130152   0.057   1.733   2.973  0.3338  0.6858  0.3142
 6172SOL    HW230153   0.009   1.875   2.980 -0.4008  0.2169 -0.2511
 6173SOL     OW30154   2.866   2.342   4.260 -0.4907  0.5487  0.6772
 6173SOL    HW130155   2.907   2.424   4.288  0.5090 -0.0860  1.0862
 6173SOL    HW230156   2.805   2.320   4.330 -0.9857 -0.4184 -0.0615
 6174SOL     OW30157   3.269   2.081   6.502 -0.5534  0.5516 -0.4265
 6174SOL    HW130158   3.333   2.015   6.476  0.3107  0.5014  1.8082
 6174SOL    HW230159   3.192   2.055   6.452  0.3064 -0.1180 -1.4107
 6175SOL     OW30160   4.139   1.729   3.274  0.0589 -0.0084 -0.2791
 6175SOL    HW130161   4.217   1.728   3.329 -0.4744  0.6204  0.4844
 6175SOL    HW230162   4.078   1.687   3.335 -0.8614 -1.7038 -2.3430
 6176SOL     OW30163   0.954   0.991  16.048  0.1660  0.0867 -0.2252
 6176SOL    HW130164   0.882   1.034  16.094 -1.0256 -1.6003 -0.5137
 6176SOL    HW230165   0.956   1.041  15.966 -0.0640  0.9148  0.2655
 6177SOL     OW30166   1.283   1.811   8.510 -0.0675 -0.5722  0.0615
 6177SOL    HW130167   1.334   1.788   8.433  2.3045 -1.0659  1.7672
 6177SOL    HW230168   1.281   1.729   8.559  0.3129  0.0665  1.1518
 6178SOL     OW30169   3.384   4.411   8.985 -0.7690 -0.1259  0.0339
 6178SOL    HW130170   3.370   4.396   9.078 -0.0427  3.0056  0.6351
 6178SOL    HW230171   3.340   4.494   8.969  2.2149  0.8457 -3.0959
 6179SOL     OW30172   2.991   0.843  17.379  0.6133  0.0882  0.2312
 6179SOL    HW130173   3.071   0.834  17.327  0.6564 -0.4366  0.3868
 6179SOL    HW230174   2.955   0.755  17.366  1.4870 -0.2565  0.1098
 6180SOL     OW30175   1.259   0.638   4.662 -0.0119 -0.2010  0.3222
 6180SOL    HW130176   1.194   0.569   4.675  0.8857 -1.6679 -3.0833
 6180SOL    HW230177   1.272   0.656   4.755 -1.8747 -1.2307  0.7800
 6181SOL     OW30178   0.390   0.438   3.235  0.0323 -0.2265 -0.4773
 6181SOL    HW130179   0.450   0.502   3.195 -0.5236  0.1033 -0.7759
 6181SOL    HW230180   0.331   0.485   3.293  0.8691  0.9954 -0.6085
 6182SOL     OW30181   2.164   4.653  13.589 -0.3183  0.1995 -0.1604
 6182SOL    HW130182   2.213   4.639  13.509 -1.1760 -0.0616 -0.6417
 6182SOL    HW230183   2.077   4.681  13.562 -1.4935 -2.8264  0.3923
 6183SOL     OW30184   2.481   3.873   9.234  0.2582  0.1448 -0.1854
 6183SOL    HW130185   2.509   3.950   9.284 -0.7719  0.0178  0.5849
 6183SOL    HW230186   2.401   3.854   9.282  0.6713  0.1181  0.4949
 6184SOL     OW30187   3.123   3.033   9.025  0.7349 -0.1234 -1.3974
 6184SOL    HW130188   3.104   3.064   9.113  0.8323 -0.3186 -1.3079
 6184SOL    HW230189   3.115   3.112   8.972 -0.3255 -0.2503 -1.4201
 6185SOL     OW30190   2.471   1.115   5.628  0.2563  0.2460 -0.1097
 6185SOL    HW130191   2.554   1.088   5.666 -0.2053 -0.0506  0.7019
 6185SOL    HW230192   2.469   1.210   5.641 -1.7582 -0.1594  2.5311
 6186SOL     OW30193   3.601   4.393   6.655  0.1411 -0.4210  0.1886
 6186SOL    HW130194   3.609   4.455   6.728  0.0240 -0.0388 -0.1234
 6186SOL    HW230195   3.626   4.310   6.695  2.2571 -0.1971 -0.6690
 6187SOL     OW30196   1.154   2.157   6.686  0.1449  0.2714 -0.4607
 6187SOL    HW130197   1.070   2.189   6.653 -0.0178 -0.3773 -0.6806
 6187SOL    HW230198   1.128   2.143   6.777  1.1771  1.7856  0.0607
 6188SOL     OW30199   3.993   1.480  17.677 -0.0744  0.2327  0.4622
 6188SOL    HW130200   4.019   1.426  17.602  0.9515  0.4487  0.6568
 6188SOL    HW230201   4.035   1.563  17.654 -0.4474 -0.0097 -1.1089
 6189SOL     OW30202   0.845   0.185  16.848 -0.3300  0.0098  0.4415
 6189SOL    HW130203   0.783   0.182  16.775 -1.8606 -2.6404  1.8623
 6189SOL    HW230204   0.866   0.092  16.856  1.0402  0.2398 -0.2994
 6190SOL     OW30205   2.758   4.010  14.143  0.5096 -0.1036  0.3125
 6190SOL    HW130206   2.770   4.085  14.084  0.2667  0.2199  0.6761
 6190SOL    HW230207   2.766   4.059  14.225  0.7913  0.6863 -0.1837
 6191SOL     OW30208   2.860   2.885  14.858 -0.5098 -0.1564  0.0796
 6191SOL    HW130209   2.865   2.802  14.811 -1.4535  0.4145 -1.0382
 6191SOL    HW230210   2.857   2.946  14.784  0.5945 -1.3504 -0.9472
 6192SOL     OW30211   2.909   0.256   1.943 -0.3207  0.2868 -0.1412
 6192SOL    HW130212   2.827   0.206   1.938 -1.9085  3.0910 -2.5081
 6192SOL    HW230213   2.883   0.306   2.020 -2.0138 -1.0533  0.1505
 6193SOL     OW30214   4.140   1.216   6.843 -0.5225  0.0197  0.3543
 6193SOL    HW130215   4.119   1.146   6.905  0.1370 -1.0447 -0.6216
 6193SOL    HW230216   4.138   1.163   6.763  0.4160 -2.2498  1.8431
 6194SOL     OW30217   1.577   2.547   7.287  0.1001  0.6912  0.1630
 6194SOL    HW130218   1.581   2.622   7.227  3.4064 -0.6330 -1.2264
 6194SOL    HW230219   1.633   2.576   7.359 -1.5921  4.3033  0.0502
 6195SOL     OW30220   1.081   1.351   7.557  0.3902  0.0363  0.8096
 6195SOL    HW130221   1.026   1.326   7.483  0.8135  0.2598  0.4113
 6195SOL    HW230222   1.160   1.296   7.560  1.2645  1.2775  0.7513
 6196SOL     OW30223   1.801   3.038   6.495  0.2054 -0.3175  0.1748
 6196SOL    HW130224   1.778   2.952   6.461  0.7760 -0.4523  0.1324
 6196SOL    HW230225   1.856   3.082   6.430  0.6840  1.1566  1.5689
 6197SOL     OW30226   4.457   4.213  14.589 -0.1074  0.0193 -0.4160
 6197SOL    HW130227   4.514   4.222  14.512 -0.8904  0.9612 -0.8753
 6197SOL    HW230228   4.428   4.303  14.603 -0.7780 -0.4240  0.9735
 6198SOL     OW30229   3.430   0.624  16.013  0.0518 -0.1239  0.6675
 6198SOL    HW130230   3.399   0.680  15.941 -0.5552 -1.1415  0.1434
 6198SOL    HW230231   3.390   0.540  15.989 -0.3418 -0.2171  1.6612
 6199SOL     OW30232   3.642   4.315   7.733 -0.1171  0.3948 -0.4141
 6199SOL    HW130233   3.694   4.264   7.795 -1.9159 -0.3422  0.4804
 6199SOL    HW230234   3.590   4.241   7.702  0.0920  0.6035 -1.2617
 6200SOL     OW30235   0.043   3.090  15.514  0.3205  0.0999 -0.4263
 6200SOL    HW130236   0.053   3.072  15.608  3.4939 -0.1854 -0.8104
 6200SOL    HW230237   0.116   3.151  15.504 -0.2298  0.9036  0.4059
 6201SOL     OW30238   2.720   3.832   6.547 -0.5074  0.2794  0.2639
 6201SOL    HW130239   2.778   3.829   6.623 -1.5633  0.2065  1.0777
 6201SOL    HW230240   2.675   3.747   6.548  0.7282 -0.3957 -1.5056
 6202SOL     OW30241   0.857   2.455   9.832  0.9102 -0.5387  0.9215
 6202SOL    HW130242   0.805   2.517   9.882 -1.0124 -2.3669  1.1642
 6202SOL    HW230243   0.887   2.386   9.891  1.7843 -2.2556 -1.4720
 6203SOL     OW30244   2.566   2.096  14.152 -0.2511 -0.2700 -0.5431
 6203SOL    HW130245   2.522   2.123  14.232  0.6416 -1.6378  0.4091
 6203SOL    HW230246   2.571   2.183  14.113  1.9551  0.4020  1.2535
 6204SOL     OW30247   4.232   2.060  10.537 -0.1770  0.4100  0.6598
 6204SOL    HW130248   4.182   1.979  10.549  1.7798 -0.3897  3.3557
 6204SOL    HW230249   4.198   2.123  10.601 -0.7818  0.5892  0.1551
 6205SOL     OW30250   3.801   2.066  15.092 -0.1372 -0.1905  0.2654
 6205SOL    HW130251   3.858   2.016  15.150 -1.3284 -0.7778  0.9450
 6205SOL    HW230252   3.733   2.087  15.157 -1.0272  0.0888 -0.7449
 6206SOL     OW30253   1.180   4.496   6.803  0.6940 -0.2650  0.2208
 6206SOL    HW130254   1.091   4.524   6.783  0.5286 -0.3990  0.7676
 6206SOL    HW230255   1.235   4.499   6.724 -0.8903  1.6513 -0.8056
 6207SOL     OW30256   2.358   1.552   0.887  0.7123 -0.9932 -0.6718
 6207SOL    HW130257   2.378   1.537   0.794  0.2570 -1.3575 -0.7089
 6207SOL    HW230258   2.359   1.464   0.924  0.7531 -0.5062  0.4676
 6208SOL     OW30259   1.067   1.185   8.750  0.7801  0.1583  0.1694
 6208SOL    HW130260   1.069   1.092   8.729 -0.8307 -0.4773  2.8337
 6208SOL    HW230261   0.995   1.188   8.813  2.5196 -1.5438  2.2636
 6209SOL     OW30262   0.924   3.033  11.079 -0.5939  0.5129 -0.8054
 6209SOL    HW130263   0.967   2.947  11.076 -0.4735  0.6383 -2.6672
 6209SOL    HW230264   1.001   3.084  11.105  0.7017 -1.7031 -0.2677
 6210SOL     OW30265   0.914   0.359  13.542  0.1187  0.0380 -0.5119
 6210SOL    HW130266   0.954   0.291  13.488  0.0294  0.3963 -1.0234
 6210SOL    HW230267   0.872   0.419  13.481 -2.9412 -0.0629  1.4853
 6211SOL     OW30268   2.352   3.925  13.932  0.7305  0.6914  0.3382
 6211SOL    HW130269   2.392   3.941  14.018 -1.0696 -1.6130  1.6147
 6211SOL    HW230270   2.303   3.843  13.938 -0.8064  1.5816 -0.2201
 6212SOL     OW30271   0.002   2.891   5.553  0.0294  0.1884 -0.4452
 6212SOL    HW130272   4.718   2.834   5.480 -0.0176 -1.9162  1.2182
 6212SOL    HW230273   4.660   2.872   5.602  0.2166  2.2297  0.6503
 6213SOL     OW30274   0.983   1.334   8.068  0.1739 -0.1075  1.0714
 6213SOL    HW130275   0.968   1.251   8.113 -0.7693 -0.5438 -0.0452
 6213SOL    HW230276   0.908   1.381   8.105  0.1837  1.2076 -0.5808
 6214SOL     OW30277   1.524   3.869   4.027  0.4946 -0.0563  0.6520
 6214SOL    HW130278   1.550   3.886   3.936  2.2747 -2.1504  0.7630
 6214SOL    HW230279   1.429   3.864   4.025  0.4751  0.5234  0.2650
 6215SOL     OW30280   4.729   4.055   9.264 -0.5022 -0.5412  0.0325
 6215SOL    HW130281   0.023   3.965   9.251  1.5259  0.3192 -0.9340
 6215SOL    HW230282   0.053   4.079   9.332 -1.0179  1.9913 -0.4029
 6216SOL     OW30283   0.241   4.093   6.188 -0.1436 -0.3709  0.0314
 6216SOL    HW130284   0.277   4.029   6.126 -1.6595 -2.8475  1.7047
 6216SOL    HW230285   0.172   4.128   6.132  2.3384  4.2152 -0.1499
 6217SOL     OW30286   4.631   4.031  16.429 -0.0897 -0.3704 -0.0711
 6217SOL    HW130287   4.723   4.027  16.401  0.6477 -0.7491  2.4273
 6217SOL    HW230288   4.637   4.105  16.489 -3.2696  0.3873 -0.6672
 6218SOL     OW30289   2.368   1.587  11.576  0.0128  0.0211  0.0000
 6218SOL    HW130290   2.430   1.519  11.604 -1.2254 -0.8742  0.5658
 6218SOL    HW230291   2.327   1.604  11.660  1.8898  0.3878  0.8387
 6219SOL     OW30292   2.358   4.622  13.409 -0.1983  0.3787  0.4857
 6219SOL    HW130293   2.394   4.709  13.393  0.7318  0.2184  1.7409
 6219SOL    HW230294   2.398   4.569  13.341 -2.5141 -0.2164 -0.4302
 6220SOL     OW30295   3.544   1.130   8.492 -0.0963  0.0424  0.6903
 6220SOL    HW130296   3.558   1.141   8.398  2.3334 -1.6351  0.8674
 6220SOL    HW230297   3.630   1.127   8.533  0.9223  2.3046 -1.3091
 6221SOL     OW30298   1.560   0.998   4.518 -0.3188  0.0465 -0.8414
 6221SOL    HW130299   1.572   1.000   4.613 -0.2923 -2.3522 -0.7936
 6221SOL    HW230300   1.465   0.997   4.514 -0.3200 -0.2422 -0.7219
 6222SOL     OW30301   1.169   3.436  16.638 -0.5623 -0.4173 -0.8236
 6222SOL    HW130302   1.179   3.342  16.649 -0.4826  0.0444  2.8047
 6222SOL    HW230303   1.210   3.442  16.551  0.8688  1.3646 -0.0122
 6223SOL     OW30304   0.979   2.256   7.888  0.0515 -0.3023  0.2295
 6223SOL    HW130305   1.049   2.190   7.888  1.7642  1.5235 -1.1463
 6223SOL    HW230306   0.926   2.230   7.964 -0.8860  2.6203  0.5951
 6224SOL     OW30307   3.207   3.388   4.103  0.5792 -0.0831  0.3764
 6224SOL    HW130308   3.195   3.355   4.014  1.5611 -0.8745  0.5426
 6224SOL    HW230309   3.202   3.482   4.087  0.8849  0.2482  2.1683
 6225SOL     OW30310   3.069   2.526   2.844  0.5055 -0.1541  0.1382
 6225SOL    HW130311   3.054   2.603   2.898  1.1163  1.1793 -1.5816
 6225SOL    HW230312   3.139   2.490   2.898  0.8792  1.2715  0.5956
 6226SOL     OW30313   0.351   0.276   6.883  0.5650 -0.7720 -0.4001
 6226SOL    HW130314   0.435   0.321   6.878  0.5499 -0.6712  0.2271
 6226SOL    HW230315   0.315   0.321   6.960  0.7908 -3.5735  1.3385
 6227SOL     OW30316   1.063   3.592   9.551  0.4690  0.3999 -0.6734
 6227SOL    HW130317   1.150   3.601   9.511  0.4731 -0.9013 -0.9543
 6227SOL    HW230318   1.056   3.497   9.556 -1.5679  0.5192 -1.3436
 6228SOL     OW30319   3.719   2.034   2.080 -0.7482  0.2228  0.8146
 6228SOL    HW130320   3.745   2.041   1.988 -0.0048 -3.9932  0.7091
 6228SOL    HW230321   3.631   2.069   2.069 -0.6257 -0.0678 -1.2063
 6229SOL     OW30322   1.490   2.110  16.973  0.5932 -0.6174  0.3221
 6229SOL    HW130323   1.537   2.117  17.056 -0.2743 -0.3366  0.7961
 6229SOL    HW230324   1.400   2.106  17.007  0.2245 -0.0064 -0.5578
 6230SOL     OW30325   1.206   2.987   1.996  0.5262 -0.3454 -0.0162
 6230SOL    HW130326   1.188   2.922   2.064 -0.2514  1.3174  1.3797
 6230SOL    HW230327   1.259   2.937   1.933  1.5606 -0.3804  0.8713
 6231SOL     OW30328   1.453   0.111  10.456  0.1231  0.0979  0.1088
 6231SOL    HW130329   1.470   0.164  10.378  1.4795  1.0207  1.0402
 6231SOL    HW230330   1.499   0.031  10.435  0.9334  0.6144 -0.0791
 6232SOL     OW30331   2.172   3.001   3.371 -0.4350  0.0572 -1.0309
 6232SOL    HW130332   2.154   2.911   3.399  0.0104 -0.0028 -0.9397
 6232SOL    HW230333   2.128   2.997   3.286  0.5415  1.8568 -1.6156
 6233SOL     OW30334   4.345   0.146   7.754 -0.3916 -0.0583 -0.1905
 6233SOL    HW130335   4.427   0.100   7.772  0.2876  1.9446  1.9628
 6233SOL    HW230336   4.287   0.123   7.826  0.1440  1.0307  0.6083
 6234SOL     OW30337   3.695   3.551  17.234  0.3981 -0.3941  0.7498
 6234SOL    HW130338   3.687   3.646  17.242  1.4762 -0.0999 -1.7829
 6234SOL    HW230339   3.608   3.511  17.233  0.4239 -0.3866 -1.1839
 6235SOL     OW30340   4.728   3.563   7.739 -0.4209 -0.3227 -0.9106
 6235SOL    HW130341   0.070   3.572   7.688 -0.4720  0.0784 -0.9166
 6235SOL    HW230342   4.696   3.478   7.710  0.3524 -0.5238 -1.1753
 6236SOL     OW30343   2.699   2.829   0.751  0.2090 -0.2128  0.1383
 6236SOL    HW130344   2.760   2.778   0.698  1.3236  0.7119  0.5484
 6236SOL    HW230345   2.679   2.770   0.824  0.4500  1.2140  1.3516
 6237SOL     OW30346   3.163   4.063   2.400 -0.4511 -0.3057 -0.2203
 6237SOL    HW130347   3.177   3.969   2.411 -4.0083 -0.4951  2.6393
 6237SOL    HW230348   3.236   4.084   2.342 -2.0456  1.3586 -1.5969
 6238SOL     OW30349   3.500   1.796   0.214  0.0315  0.2349 -0.4544
 6238SOL    HW130350   3.469   1.887   0.208 -1.0772  0.0184  1.9955
 6238SOL    HW230351   3.595   1.802   0.202  0.4788 -2.0111  2.1110
 6239SOL     OW30352   2.536   2.771   4.986 -0.6772 -0.3822 -0.8085
 6239SOL    HW130353   2.538   2.863   4.962  0.6029 -0.0654  0.4926
 6239SOL    HW230354   2.504   2.768   5.076  2.2220  2.6630  0.3386
 6240SOL     OW30355   3.651   4.210   2.137  0.0843 -0.4945 -0.2838
 6240SOL    HW130356   3.712   4.207   2.211 -0.7279  1.8385  0.4671
 6240SOL    HW230357   3.680   4.134   2.085  0.2509 -0.2221 -0.5888
 6241SOL     OW30358   3.896   2.904   6.450  0.6415  0.0144  0.4830
 6241SOL    HW130359   3.892   2.834   6.386  2.6082 -0.3932  0.7994
 6241SOL    HW230360   3.955   2.966   6.407 -0.8089  0.0583 -1.4357
 6242SOL     OW30361   3.437   1.709   0.623  0.9529 -0.0776  0.1467
 6242SOL    HW130362   3.429   1.652   0.546  0.4733  0.6661 -0.3565
 6242SOL    HW230363   3.351   1.693   0.662  0.9498 -1.8415 -0.5950
 6243SOL     OW30364   3.996   2.259   3.375 -0.4339  0.5718  0.7677
 6243SOL    HW130365   3.939   2.184   3.396  0.5727 -0.9517 -2.0307
 6243SOL    HW230366   4.040   2.252   3.460  1.5620 -0.8495 -0.4037
 6244SOL     OW30367   2.714   4.487   9.506  0.4527 -0.0871 -0.0721
 6244SOL    HW130368   2.747   4.495   9.596 -0.4071  0.7217  0.1657
 6244SOL    HW230369   2.650   4.418   9.521  0.3981  0.1580  0.8329
 6245SOL     OW30370   4.170   4.441   6.864 -0.0916 -0.1664 -0.1186
 6245SOL    HW130371   4.125   4.428   6.947 -1.4830 -1.0191 -0.9976
 6245SOL    HW230372   4.200   4.530   6.878 -1.0621 -0.1365  1.7962
 6246SOL     OW30373   1.292   1.872   7.136  0.0400 -0.3037  0.0085
 6246SOL    HW130374   1.335   1.854   7.220 -1.0082 -0.7583  0.4471
 6246SOL    HW230375   1.360   1.837   7.079 -0.4451 -0.8947 -0.1984
 6247SOL     OW30376   3.328   1.874   2.682  0.4722 -0.7350 -0.6472
 6247SOL    HW130377   3.405   1.929   2.666  1.0726 -1.3048  0.3134
 6247SOL    HW230378   3.369   1.789   2.669  1.5414 -0.4088  0.6096
 6248SOL     OW30379   2.686   0.053   6.471 -0.6490 -0.1694  0.0316
 6248SOL    HW130380   2.708   0.132   6.520 -2.2037  0.4874 -0.3267
 6248SOL    HW230381   2.734   4.723   6.518 -3.4742 -0.6474  2.2446
 6249SOL     OW30382   1.692   2.510   2.423 -0.0603  0.1396 -0.1169
 6249SOL    HW130383   1.747   2.573   2.469  0.3126 -1.0467  1.0768
 6249SOL    HW230384   1.640   2.471   2.494 -0.9814  1.4410 -0.0705
 6250SOL     OW30385   0.399   1.154   2.506 -0.3268  0.3707  0.0444
 6250SOL    HW130386   0.446   1.182   2.585  1.1732 -0.6234 -0.4946
 6250SOL    HW230387   0.465   1.093   2.473 -2.2221 -1.0923 -1.0589
 6251SOL     OW30388   4.058   2.498   2.106 -0.3191 -0.0745  0.2516
 6251SOL    HW130389   4.066   2.445   2.028 -1.3547 -0.1688  0.2077
 6251SOL    HW230390   4.024   2.576   2.061  0.8420  0.4889  0.3372
 6252SOL     OW30391   0.565   0.039   2.086  0.3448  0.3023 -0.2736
 6252SOL    HW130392   0.497   4.709   2.076  2.5553 -1.5550 -2.6341
 6252SOL    HW230393   0.648   4.730   2.079  1.4045  2.1148  0.2678
 6253SOL     OW30394   2.097   0.735   6.928 -0.4838  0.0021 -0.9079
 6253SOL    HW130395   2.130   0.648   6.908  1.8640  0.2262  2.0259
 6253SOL    HW230396   2.155   0.760   6.999 -1.4448  1.2894 -0.5751
 6254SOL     OW30397   4.663   0.429   1.940  0.2621 -0.2041 -0.3606
 6254SOL    HW130398   4.668   0.414   1.846 -2.5510  1.5352 -0.7893
 6254SOL    HW230399   4.582   0.479   1.954 -0.7369 -1.6517 -1.0254
 6255SOL     OW30400   0.001   1.481  17.140 -0.2853 -0.3604 -0.0469
 6255SOL    HW130401   4.694   1.435  17.069  0.4480 -1.2837  0.0725
 6255SOL    HW230402   0.050   1.403  17.167 -0.9335 -0.5069  0.6942
 6256SOL     OW30403   2.179   3.994  11.984 -0.1551  0.7301  0.0959
 6256SOL    HW130404   2.147   4.065  11.929 -0.8896  0.7334  0.5272
 6256SOL    HW230405   2.268   3.996  11.948 -0.0221  1.9538  0.4696
 6257SOL     OW30406   4.065   4.440   7.405 -0.1428 -0.2144 -0.0153
 6257SOL    HW130407   3.976   4.418   7.433  0.0790 -0.5433  0.4337
 6257SOL    HW230408   4.107   4.383   7.470  0.8652 -1.6163 -1.9055
 6258SOL     OW30409   4.368   2.860   3.819  0.7115  1.2602  0.8258
 6258SOL    HW130410   4.440   2.799   3.805  0.2517  0.8720  0.1486
 6258SOL    HW230411   4.422   2.938   3.831  2.0661  0.2498  1.3233
 6259SOL     OW30412   0.606   0.411   4.379  0.4679 -0.3988  0.3777
 6259SOL    HW130413   0.681   0.390   4.435  1.2888  0.0952 -0.5409
 6259SOL    HW230414   0.538   0.377   4.437  0.3343 -1.7786 -0.5815
 6260SOL     OW30415   1.149   0.887   7.682 -0.2286 -0.0827  0.0858
 6260SOL    HW130416   1.074   0.837   7.650 -1.1455 -0.0967  2.1951
 6260SOL    HW230417   1.223   0.847   7.637  1.8115  2.2537  1.3691
 6261SOL     OW30418   2.942   1.126   3.556  0.3643 -0.0047 -0.0974
 6261SOL    HW130419   2.959   1.032   3.561 -0.0052 -0.1817 -2.1293
 6261SOL    HW230420   3.026   1.161   3.524  0.5826  1.9586  2.6876
 6262SOL     OW30421   0.730   0.754   9.069 -0.4920 -0.2275  0.9720
 6262SOL    HW130422   0.676   0.685   9.031 -1.2904  1.1356 -0.3307
 6262SOL    HW230423   0.685   0.758   9.154 -4.0865 -0.2564 -0.9470
 6263SOL     OW30424   1.986   2.017   5.863 -0.0231  0.3797  0.8981
 6263SOL    HW130425   1.945   2.087   5.913  0.0874  2.1012 -1.4363
 6263SOL    HW230426   1.940   2.020   5.780  1.8567  0.1987 -0.1538
 6264SOL     OW30427   1.997   1.489   2.632  0.5206 -0.4056  0.0095
 6264SOL    HW130428   2.079   1.468   2.587 -0.1508  0.0087 -1.3961
 6264SOL    HW230429   1.929   1.437   2.588  1.2365 -1.6102  0.3125
 6265SOL     OW30430   0.569   0.627  10.083  0.0856 -0.1348  0.0437
 6265SOL    HW130431   0.663   0.610  10.082  0.2172  0.5760  0.0989
 6265SOL    HW230432   0.539   0.540  10.111 -0.7136 -0.2422 -1.1681
 6266SOL     OW30433   2.250   2.081   4.748  0.6101 -0.9156  0.4506
 6266SOL    HW130434   2.208   2.160   4.716 -0.0873 -1.1893  0.6778
 6266SOL    HW230435   2.201   2.016   4.698 -2.2153  0.0379  1.9832
 6267SOL     OW30436   3.889   4.207  12.137  0.4241 -0.1912  0.2995
 6267SOL    HW130437   3.926   4.266  12.202 -1.1220  0.5542  0.5042
 6267SOL    HW230438   3.924   4.253  12.060 -1.3328 -0.4470 -0.6593
 6268SOL     OW30439   1.169   0.530   2.012 -0.2252  0.2973  0.2386
 6268SOL    HW130440   1.095   0.470   2.021 -0.1880  0.3462  0.8532
 6268SOL    HW230441   1.121   0.597   1.964 -1.6243  0.7560  2.2909
 6269SOL     OW30442   2.173   3.073   5.796  0.0640 -0.3049  0.0515
 6269SOL    HW130443   2.239   3.018   5.755  1.2312  0.3755  1.0265
 6269SOL    HW230444   2.217   3.158   5.793 -1.0506  0.3163  0.7373
 6270SOL     OW30445   0.828   2.716  14.753  0.0041  0.6305 -0.7448
 6270SOL    HW130446   0.772   2.751  14.683 -0.3690  0.6421 -0.4389
 6270SOL    HW230447   0.847   2.638  14.700  0.2901  0.4301 -0.3456
 6271SOL     OW30448   3.223   3.292   4.996  0.4222  0.1345 -0.2294
 6271SOL    HW130449   3.174   3.246   5.064 -1.2311 -1.3734 -2.4844
 6271SOL    HW230450   3.297   3.322   5.049  2.4889 -2.2788 -1.7364
 6272SOL     OW30451   4.383   4.568   6.135  0.3254  0.1638 -0.1685
 6272SOL    HW130452   4.368   4.647   6.083  1.3546  0.3864 -0.1259
 6272SOL    HW230453   4.336   4.502   6.085 -0.0289 -0.4955  1.0489
 6273SOL     OW30454   4.598   4.203   4.693 -0.3287 -0.9830 -0.6723
 6273SOL    HW130455   4.678   4.203   4.641  0.3430 -1.4007  0.3702
 6273SOL    HW230456   4.538   4.158   4.633 -3.1178  0.7367  0.8623
 6274SOL     OW30457   3.291   3.077  10.338 -0.6898  0.4854  0.1123
 6274SOL    HW130458   3.327   3.112  10.257  0.6137 -0.2449  0.3714
 6274SOL    HW230459   3.210   3.128  10.348 -0.2528  0.9085  1.5357
 6275SOL     OW30460   1.368   1.187   8.135  0.3592 -0.1515 -0.0644
 6275SOL    HW130461   1.424   1.137   8.076  0.9770  0.8117 -0.2941
 6275SOL    HW230462   1.350   1.257   8.072  0.8227 -0.8058 -0.9270
 6276SOL     OW30463   2.038   1.011  16.114 -0.2233 -0.4582  0.2130
 6276SOL    HW130464   1.957   0.984  16.158 -0.4266 -2.4464 -1.3546
 6276SOL    HW230465   2.054   0.924  16.079  0.7424  0.4837 -1.6395
 6277SOL     OW30466   4.235   2.353   4.632  0.5992 -0.1828 -0.1659
 6277SOL    HW130467   4.273   2.343   4.719  1.6192 -0.2549 -0.6223
 6277SOL    HW230468   4.166   2.412   4.662  0.2760  0.7046 -2.6674
 6278SOL     OW30469   1.458   2.399   5.089  0.2023 -0.6292 -0.3454
 6278SOL    HW130470   1.420   2.314   5.066  0.4216  0.1249 -3.5151
 6278SOL    HW230471   1.472   2.392   5.183 -1.0979 -0.6104 -0.1374
 6279SOL     OW30472   1.318   0.656   4.927  0.1837 -0.3523  0.1526
 6279SOL    HW130473   1.400   0.700   4.947 -0.8711  1.3159  0.8120
 6279SOL    HW230474   1.339   0.566   4.952 -2.2116 -1.1224 -0.6070
 6280SOL     OW30475   4.440   1.623   1.746  0.3135 -0.1361  0.3739
 6280SOL    HW130476   4.432   1.545   1.692  0.2942 -0.2421  0.5293
 6280SOL    HW230477   4.406   1.682   1.679  0.9672  0.5096  0.6148
 6281SOL     OW30478   3.978   3.432  15.639  0.0514 -0.2982  0.2042
 6281SOL    HW130479   3.913   3.486  15.594  0.1568 -1.8730 -1.7950
 6281SOL    HW230480   3.915   3.372  15.678 -1.9038  1.4782 -0.1980
 6282SOL     OW30481   3.893   0.753   1.263  0.2130 -0.5917  0.0515
 6282SOL    HW130482   3.942   0.747   1.345 -0.9392  2.7112  0.9641
 6282SOL    HW230483   3.801   0.757   1.289  0.6098  0.7938  1.2289
 6283SOL     OW30484   3.565   3.959   2.677 -0.0844 -0.2443  0.0703
 6283SOL    HW130485   3.591   3.932   2.589  1.2473  0.7100  0.1824
 6283SOL    HW230486   3.526   3.873   2.696  0.7180 -0.3027  1.4688
 6284SOL     OW30487   3.135   0.053   2.317  0.4786 -0.2459  0.2432
 6284SOL    HW130488   3.106   0.103   2.241 -0.4750 -2.1838 -0.6676
 6284SOL    HW230489   3.209   0.004   2.280  0.2993 -0.2787 -0.0756
 6285SOL     OW30490   1.134   2.076   5.223  0.4878 -0.6777 -0.9219
 6285SOL    HW130491   1.119   1.982   5.210 -2.1959 -0.1930 -1.1990
 6285SOL    HW230492   1.206   2.072   5.287 -0.6579  0.9214  0.4737
 6286SOL     OW30493   2.913   2.567   2.323  0.2040  0.0952 -0.3688
 6286SOL    HW130494   2.965   2.500   2.280 -0.0368 -1.0377  1.1248
 6286SOL    HW230495   2.825   2.529   2.328  0.0973  0.1737 -1.6466
 6287SOL     OW30496   1.623   2.942   9.814  0.9271 -0.0568 -0.2723
 6287SOL    HW130497   1.624   3.030   9.851  0.1850 -0.3892  0.5635
 6287SOL    HW230498   1.619   2.958   9.720 -0.8718 -1.7834 -0.5077
 6288SOL     OW30499   2.774   2.900   4.715  0.6702 -0.3585  0.4110
 6288SOL    HW130500   2.861   2.862   4.724  1.4613  1.5408  0.9067
 6288SOL    HW230501   2.746   2.850   4.639 -1.0003 -1.0634  1.5085
 6289SOL     OW30502   1.333   2.559   7.449 -0.3595  0.1220 -0.0042
 6289SOL    HW130503   1.384   2.600   7.519  1.3098 -0.5465 -0.8188
 6289SOL    HW230504   1.403   2.569   7.384 -0.5942 -1.9649 -0.5635
 6290SOL     OW30505   4.578   1.998   4.499 -0.5614 -0.7332 -0.5760
 6290SOL    HW130506   4.592   2.052   4.421 -1.9756 -2.2690 -1.8936
 6290SOL    HW230507   4.666   1.962   4.503  0.1509  1.1539  0.6745
 6291SOL     OW30508   2.598   0.126   0.047  0.2700  0.4846 -0.2716
 6291SOL    HW130509   2.539   0.096   0.116 -0.2801  0.1753 -0.8709
 6291SOL    HW230510   2.550   0.130  17.715  0.5256  0.0296 -0.4463
 6292SOL     OW30511   2.138   2.004   7.015 -0.2632  0.4450 -0.4885
 6292SOL    HW130512   2.209   2.023   7.076  0.1223  3.0584 -1.7393
 6292SOL    HW230513   2.165   2.066   6.947  1.4164 -0.7655 -0.9174
 6293SOL     OW30514   1.165   3.608  15.321  0.7003 -0.3041 -0.1519
 6293SOL    HW130515   1.158   3.651  15.407  1.5126 -1.8230  0.6666
 6293SOL    HW230516   1.145   3.685  15.267  0.1030 -0.4079 -0.0701
 6294SOL     OW30517   2.666   2.042   6.876 -0.1646 -0.1924  0.0108
 6294SOL    HW130518   2.714   1.990   6.812  1.0590  1.2156 -0.2016
 6294SOL    HW230519   2.578   2.004   6.873 -0.7202  1.0972  0.0780
 6295SOL     OW30520   0.704   3.201   2.233 -0.1129  0.3902 -0.2511
 6295SOL    HW130521   0.710   3.289   2.272 -0.7721  0.3544 -0.0581
 6295SOL    HW230522   0.761   3.205   2.157 -1.7165 -0.7679 -1.5196
 6296SOL     OW30523   4.431   1.709   4.550  0.2068 -0.0471  0.2848
 6296SOL    HW130524   4.410   1.801   4.569 -1.1117 -0.3389  0.2118
 6296SOL    HW230525   4.364   1.676   4.609  0.9663 -0.2869  1.0087
 6297SOL     OW30526   0.035   1.096   2.902 -0.6213  0.6814 -0.2123
 6297SOL    HW130527   0.081   1.145   2.970  1.0326  1.4311 -1.8809
 6297SOL    HW230528   0.070   1.136   2.823 -1.2141  1.9312  0.1490
 6298SOL     OW30529   3.160   1.879   8.811  0.5955  0.0568  0.1934
 6298SOL    HW130530   3.226   1.941   8.781 -0.4028  0.7429 -0.5730
 6298SOL    HW230531   3.145   1.917   8.898  0.0420 -0.1165  0.1765
 6299SOL     OW30532   4.426   1.551  17.548 -0.1726  0.3304 -0.2995
 6299SOL    HW130533   4.350   1.518  17.500  0.7658 -0.8426 -0.9823
 6299SOL    HW230534   4.432   1.643  17.523 -0.3004  0.3175 -0.3794
 6300SOL     OW30535   0.139   4.372   5.587  0.1130  0.1662  0.2977
 6300SOL    HW130536   0.150   4.277   5.575 -0.8684 -0.2320  2.4091
 6300SOL    HW230537   0.204   4.382   5.657  0.4570  1.8080 -0.2697
 6301SOL     OW30538   0.579   4.228   4.210 -0.2337 -0.3727  0.5703
 6301SOL    HW130539   0.662   4.266   4.238 -1.5431  1.8212  1.4477
 6301SOL    HW230540   0.530   4.224   4.293 -0.8253  2.1203  0.3260
 6302SOL     OW30541   1.185   2.541   2.369  0.1848  0.2225 -0.1377
 6302SOL    HW130542   1.153   2.451   2.372 -2.4373  1.1483 -0.0491
 6302SOL    HW230543   1.229   2.547   2.454  3.1222  0.4020 -1.6791
 6303SOL     OW30544   1.701   0.091   7.177 -0.0698 -0.2822  0.3204
 6303SOL    HW130545   1.698   4.735   7.194 -2.9504 -0.2387  0.1530
 6303SOL    HW230546   1.767   0.119   7.240  0.7536  1.4160 -1.2842
 6304SOL     OW30547   3.562   0.599   9.719 -0.4035 -0.0049 -0.0330
 6304SOL    HW130548   3.544   0.632   9.631 -0.6903 -1.5363 -0.5336
 6304SOL    HW230549   3.654   0.621   9.734 -0.4609 -0.4285  0.9513
 6305SOL     OW30550   2.917   3.057   4.888 -0.5235  0.3378 -0.8381
 6305SOL    HW130551   2.859   3.012   4.826  0.0540 -1.8018  0.1568
 6305SOL    HW230552   2.897   2.999   4.962 -0.5335  0.0809 -1.0422
 6306SOL     OW30553   2.699   0.014   8.425 -0.2152  0.1435 -0.2111
 6306SOL    HW130554   2.609   4.721   8.412  0.2669 -0.6053 -1.7853
 6306SOL    HW230555   2.742   4.668   8.439  0.0645  0.2489 -0.4493
 6307SOL     OW30556   4.711   1.942   7.286 -0.0864  0.5627 -0.0476
 6307SOL    HW130557   0.003   1.945   7.377 -1.5548 -0.7820  0.4783
 6307SOL    HW230558   0.054   1.959   7.239  0.4801 -0.8908  0.4058
 6308SOL     OW30559   3.445   0.589   1.871  0.2941 -0.8206 -0.3921
 6308SOL    HW130560   3.417   0.563   1.782 -1.2035 -2.0183  0.4192
 6308SOL    HW230561   3.482   0.508   1.906 -1.1165 -1.3862 -0.1822
 6309SOL     OW30562   2.312   0.821  12.465  0.3630  0.4790  0.2793
 6309SOL    HW130563   2.380   0.781  12.412  0.3125 -0.3768  0.8667
 6309SOL    HW230564   2.282   0.743  12.511 -0.2516  1.1153  0.9641
 6310SOL     OW30565   3.632   4.703   0.770 -0.0542 -0.0347 -0.5099
 6310SOL    HW130566   3.591   4.653   0.841  0.7176 -1.7410 -1.2711
 6310SOL    HW230567   3.710   4.731   0.818  0.1076 -2.5203  0.7332
 6311SOL     OW30568   4.055   4.090   9.758  0.0123 -0.4567  0.1589
 6311SOL    HW130569   3.997   4.048   9.695  0.2410  1.1697 -1.1534
 6311SOL    HW230570   4.136   4.057   9.718  0.2794 -0.1930  0.4802
 6312SOL     OW30571   1.460   2.963   8.892 -0.0945  0.2974 -0.0367
 6312SOL    HW130572   1.479   3.021   8.819  0.0694 -0.7502 -0.8321
 6312SOL    HW230573   1.407   2.898   8.846 -1.0243 -0.4208  2.0522
 6313SOL     OW30574   0.441   3.471   7.712 -0.4723 -0.3909  0.2490
 6313SOL    HW130575   0.516   3.498   7.766 -0.0205 -2.0017  0.4336
 6313SOL    HW230576   0.479   3.403   7.656 -3.4627 -0.0899 -2.1007
 6314SOL     OW30577   0.847   3.261   2.555  0.3753 -0.3796 -1.7453
 6314SOL    HW130578   0.800   3.333   2.598  1.0591 -0.7296 -0.4317
 6314SOL    HW230579   0.789   3.185   2.554  2.1011 -1.7224 -0.0912
 6315SOL     OW30580   0.578   0.926  14.204 -0.1813  0.0694  0.4209
 6315SOL    HW130581   0.628   0.938  14.284 -0.2480 -4.4214  1.1532
 6315SOL    HW230582   0.629   0.975  14.140 -0.1055 -0.3060  0.1926
 6316SOL     OW30583   1.410   3.587   4.102 -0.0539 -0.7518  0.3891
 6316SOL    HW130584   1.501   3.581   4.073 -1.6096 -1.4197 -4.3225
 6316SOL    HW230585   1.366   3.653   4.049 -1.1558 -0.8962  1.1148
 6317SOL     OW30586   0.251   1.819  17.281 -0.0892  0.3109  0.3098
 6317SOL    HW130587   0.333   1.772  17.297 -0.4364 -0.0681  0.9706
 6317SOL    HW230588   0.198   1.797  17.357  0.8354  2.1971  1.4922
 6318SOL     OW30589   4.028   2.958  10.387  0.3755  0.0077 -0.2520
 6318SOL    HW130590   3.988   2.895  10.326  0.5845 -1.3626  1.0198
 6318SOL    HW230591   4.073   3.017  10.328 -1.1055 -0.3323 -1.7252
 6319SOL     OW30592   0.063   1.684  15.484 -0.2900 -0.2064 -0.3651
 6319SOL    HW130593   0.070   1.753  15.418 -1.9004  0.6412  0.3619
 6319SOL    HW230594   0.027   1.732  15.558  1.7174 -1.1411  1.2249
 6320SOL     OW30595   1.501   1.469   2.038  0.8479 -0.2857  0.5800
 6320SOL    HW130596   1.433   1.434   2.096  0.4294  1.4811  1.1593
 6320SOL    HW230597   1.539   1.548   2.076  3.4212 -0.1631 -2.2496
 6321SOL     OW30598   0.013   4.315   7.643  0.0038  0.0154 -0.0412
 6321SOL    HW130599   0.086   4.289   7.586 -0.1587 -0.2831 -0.1189
 6321SOL    HW230600   0.022   4.245   7.708  0.0739 -0.5900 -0.6955
 6322SOL     OW30601   3.334   0.806   4.456 -0.2056  0.1426 -0.2283
 6322SOL    HW130602   3.370   0.724   4.490  2.6725  0.9777 -1.3432
 6322SOL    HW230603   3.246   0.776   4.480 -0.9692  1.0254 -1.8972
 6323SOL     OW30604   3.492   1.367   2.545  0.3617 -0.0774  0.3385
 6323SOL    HW130605   3.516   1.398   2.458 -2.7535  2.5104  0.3951
 6323SOL    HW230606   3.581   1.338   2.563  0.6299 -0.0251 -0.9472
 6324SOL     OW30607   0.271   4.568   4.005 -0.2870  0.1667 -0.1744
 6324SOL    HW130608   0.278   4.473   4.012  0.0492  0.1729 -0.4336
 6324SOL    HW230609   0.190   4.587   4.052  0.3609 -1.4122  1.5800
 6325SOL     OW30610   4.112   2.134   3.838 -0.4389 -0.1851  0.6216
 6325SOL    HW130611   4.020   2.148   3.816  0.1951  1.2446 -1.1309
 6325SOL    HW230612   4.095   2.054   3.887 -0.4835 -0.4591  0.1682
 6326SOL     OW30613   1.449   4.719   7.383  0.4125 -0.0552  0.1730
 6326SOL    HW130614   1.407   4.718   7.469 -0.6579  0.5381 -0.3347
 6326SOL    HW230615   1.537   0.013   7.401 -0.5987  2.5104  0.4513
 6327SOL     OW30616   2.868   3.702   6.948 -0.5182  0.4470  0.1560
 6327SOL    HW130617   2.777   3.715   6.920 -1.1548  1.0519  2.5253
 6327SOL    HW230618   2.887   3.757   7.024  0.2995  2.5406 -1.5863
 6328SOL     OW30619   1.839   4.356   5.376 -0.0034 -0.1323  0.1521
 6328SOL    HW130620   1.761   4.352   5.322 -0.0217 -2.8897  0.3893
 6328SOL    HW230621   1.863   4.448   5.366  1.1055 -0.3339  0.8878
 6329SOL     OW30622   3.516   1.417   2.914 -0.2509 -0.1571 -0.0761
 6329SOL    HW130623   3.518   1.339   2.858 -0.4443  0.7164 -1.2913
 6329SOL    HW230624   3.471   1.488   2.869 -0.8712 -0.3641  0.2307
 6330SOL     OW30625   4.068   1.449   7.265  0.0862  0.4403  0.1708
 6330SOL    HW130626   4.131   1.382   7.236 -1.2823 -1.0221  0.5777
 6330SOL    HW230627   4.126   1.524   7.278 -0.2947  0.8693 -0.6348
 6331SOL     OW30628   4.368   0.546   2.251  0.3346 -0.3182 -0.0595
 6331SOL    HW130629   4.308   0.603   2.300  2.0103  0.2104  1.3763
 6331SOL    HW230630   4.364   0.468   2.306 -0.8022 -0.9670 -1.0598
 6332SOL     OW30631   2.113   4.403   2.500 -0.1538 -0.1726 -0.1058
 6332SOL    HW130632   2.206   4.419   2.515  0.1767  0.3703 -2.7887
 6332SOL    HW230633   2.079   4.491   2.488 -0.6901 -0.3377  0.1900
 6333SOL     OW30634   4.640   3.843   5.721 -0.5356  1.1257  0.3668
 6333SOL    HW130635   4.549   3.815   5.729  0.3342 -1.2666  1.8664
 6333SOL    HW230636   4.639   3.844   5.625  1.8611  0.8000  0.3401
 6334SOL     OW30637   3.841   0.021   7.497  0.4508  0.0075 -0.0864
 6334SOL    HW130638   3.907   4.692   7.517  2.1354  1.3325 -1.2191
 6334SOL    HW230639   3.758   4.723   7.530  0.9551  1.8531  3.1940
 6335SOL     OW30640   3.588   3.546  15.003 -0.4718 -0.2232 -0.2511
 6335SOL    HW130641   3.658   3.527  14.942 -1.2316  0.8118 -1.4506
 6335SOL    HW230642   3.511   3.531  14.948  0.1222  0.4714 -1.2674
 6336SOL     OW30643   1.037   1.643   4.134  0.1790 -0.2695  0.3572
 6336SOL    HW130644   1.126   1.629   4.167 -0.1241  0.5341  1.5145
 6336SOL    HW230645   0.982   1.573   4.169 -0.0434 -0.0073  0.5354
 6337SOL     OW30646   1.089   0.628   9.626 -0.5165  0.1315  0.4318
 6337SOL    HW130647   1.043   0.701   9.667 -1.5094 -1.0749  1.4644
 6337SOL    HW230648   1.093   0.569   9.702  0.1007 -0.5279 -0.1070
 6338SOL     OW30649   1.580   2.501   1.181  0.9304 -0.3121 -0.3591
 6338SOL    HW130650   1.533   2.491   1.263 -1.3777  1.4993 -1.4642
 6338SOL    HW230651   1.623   2.586   1.194 -0.5011  0.1028  1.6276
 6339SOL     OW30652   1.664   4.384  16.295  0.6776  0.0229 -0.1910
 6339SOL    HW130653   1.710   4.403  16.377  0.7206  1.7282 -0.6096
 6339SOL    HW230654   1.737   4.338  16.253  1.2301 -1.7642  2.7151
 6340SOL     OW30655   1.776   0.317   7.715 -0.7210  0.1031  0.2157
 6340SOL    HW130656   1.784   0.399   7.666  0.4381  0.0084  0.2515
 6340SOL    HW230657   1.870   0.311   7.731 -0.3636 -1.4046 -2.3293
 6341SOL     OW30658   1.054   0.254  13.774 -0.4997 -0.3907 -0.2251
 6341SOL    HW130659   1.059   0.330  13.831  0.2132 -1.6088  1.3601
 6341SOL    HW230660   1.016   0.301  13.700  1.9493  2.9094  0.6367
 6342SOL     OW30661   1.710   2.802   2.831 -0.0735  0.3212  0.1730
 6342SOL    HW130662   1.628   2.851   2.828 -0.7321 -0.7353  0.7136
 6342SOL    HW230663   1.679   2.720   2.870  0.1999  1.5675  3.0704
 6343SOL     OW30664   4.402   1.456   1.529  0.3351 -0.3149  0.1428
 6343SOL    HW130665   4.469   1.434   1.464  0.0546 -0.2307 -0.1729
 6343SOL    HW230666   4.328   1.400   1.505  0.1526  0.1964 -0.4873
 6344SOL     OW30667   4.133   2.313   1.250 -0.3899  0.1292  0.2956
 6344SOL    HW130668   4.053   2.347   1.208  0.5170  2.0453  0.1055
 6344SOL    HW230669   4.100   2.266   1.326 -0.4393  0.0994  0.2560
 6345SOL     OW30670   3.829   4.374   5.511 -0.0442  0.2169  0.3508
 6345SOL    HW130671   3.744   4.343   5.478  0.0776  1.6667 -1.3647
 6345SOL    HW230672   3.883   4.300   5.486  0.4747  1.4151 -2.1616
 6346SOL     OW30673   2.987   3.654   6.706 -0.0072  0.9867  0.4351
 6346SOL    HW130674   2.950   3.656   6.795  1.7583  0.4678  1.1806
 6346SOL    HW230675   3.079   3.658   6.730  0.3152 -0.8475 -0.4700
 6347SOL     OW30676   0.954   0.415   4.180 -0.1693  0.4368  0.0999
 6347SOL    HW130677   0.987   0.447   4.265  2.3917  1.0650 -1.1339
 6347SOL    HW230678   1.024   0.434   4.117  1.1855  0.3244  1.5584
 6348SOL     OW30679   3.704   2.850   8.940 -0.3960 -0.0444  0.0534
 6348SOL    HW130680   3.719   2.931   8.890 -1.7682  0.8293  1.0707
 6348SOL    HW230681   3.791   2.810   8.944  0.5261  1.9668 -0.0713
 6349SOL     OW30682   2.434   1.435   5.981 -0.0256  0.2592 -0.2535
 6349SOL    HW130683   2.392   1.499   6.039 -0.3443 -1.2161  1.1623
 6349SOL    HW230684   2.426   1.484   5.900  1.9853 -3.9266 -2.9809
 6350SOL     OW30685   2.688   2.211   4.094  0.8165 -0.0160 -0.1833
 6350SOL    HW130686   2.759   2.243   4.151  1.9252  1.7964 -2.5856
 6350SOL    HW230687   2.640   2.294   4.092  0.5237 -0.2170 -1.1476
 6351SOL     OW30688   1.453   1.845   6.004 -0.3751  0.0942  0.5296
 6351SOL    HW130689   1.440   1.845   6.099  0.3967 -1.0073  0.6326
 6351SOL    HW230690   1.447   1.940   5.995  0.3485  0.2588  1.8173
 6352SOL     OW30691   2.365   1.113   4.829 -0.4790  0.8160 -0.3301
 6352SOL    HW130692   2.439   1.074   4.876  1.0944  0.8928 -2.7692
 6352SOL    HW230693   2.335   1.042   4.772 -1.3499 -0.1362  1.2812
 6353SOL     OW30694   4.522   4.039   9.477  0.4648 -0.3887  0.1879
 6353SOL    HW130695   4.595   4.093   9.444  0.3512  0.3623  1.1758
 6353SOL    HW230696   4.508   3.980   9.403 -0.0889 -0.4604  0.3508
 6354SOL     OW30697   3.816   0.095   3.522 -0.6148  0.5037  0.5825
 6354SOL    HW130698   3.893   0.128   3.475 -0.1471  1.0802  1.7534
 6354SOL    HW230699   3.819   0.002   3.497  1.4385  0.6170  0.3641
 6355SOL     OW30700   2.929   2.511   7.269  0.0328 -1.1752 -0.5929
 6355SOL    HW130701   2.857   2.510   7.332 -0.2206  0.2493 -0.8684
 6355SOL    HW230702   2.928   2.594   7.223 -1.5807  0.7138  2.8612
 6356SOL     OW30703   4.497   2.685   6.016 -0.5615  0.6148 -0.0183
 6356SOL    HW130704   4.406   2.716   6.018 -0.7434  0.2661 -2.5391
 6356SOL    HW230705   4.488   2.604   6.067 -0.0494  1.8835  2.0884
 6357SOL     OW30706   2.237   2.954   5.006  0.1450 -0.2310 -0.0085
 6357SOL    HW130707   2.303   3.018   5.030 -0.3668 -0.0541  0.9113
 6357SOL    HW230708   2.187   2.971   5.085 -0.3581 -0.1394 -0.3451
 6358SOL     OW30709   2.679   1.258   6.555  0.0225  0.5154  0.3701
 6358SOL    HW130710   2.672   1.164   6.576  3.0611  0.6001  1.6934
 6358SOL    HW230711   2.726   1.287   6.633 -3.5798  0.4081  2.5715
 6359SOL     OW30712   0.469   2.494   0.810 -0.3538 -0.5872  0.6464
 6359SOL    HW130713   0.390   2.509   0.759 -0.5515  1.3917  1.5288
 6359SOL    HW230714   0.491   2.406   0.780  2.8591 -0.4982  2.7509
 6360SOL     OW30715   4.523   0.108  11.622  0.8131  0.5981  0.1609
 6360SOL    HW130716   4.593   0.154  11.668 -1.7436  1.1659  3.5581
 6360SOL    HW230717   4.562   0.104  11.535 -1.3720  0.6971 -0.8124
 6361SOL     OW30718   0.226   4.500   5.321 -0.1702 -0.4594 -0.4877
 6361SOL    HW130719   0.162   4.436   5.291 -0.2174 -0.6655  0.0578
 6361SOL    HW230720   0.208   4.516   5.413  0.8530 -1.0594 -0.1889
 6362SOL     OW30721   2.303   0.686   1.090 -0.1210  0.0226  0.4188
 6362SOL    HW130722   2.288   0.592   1.082 -1.7873  0.3405  0.0270
 6362SOL    HW230723   2.223   0.730   1.064 -0.4850 -0.1788  1.1748
 6363SOL     OW30724   4.057   4.598  13.390  0.0516 -0.0315 -0.2891
 6363SOL    HW130725   4.015   4.671  13.436  2.5149 -0.3341  2.4798
 6363SOL    HW230726   4.045   4.533  13.460  1.1909  1.7956  1.6076
 6364SOL     OW30727   0.179   1.877   2.078 -0.2308  0.0841  0.2118
 6364SOL    HW130728   0.239   1.951   2.078  0.6904 -0.6646  0.0438
 6364SOL    HW230729   0.131   1.892   2.160 -0.4639 -1.8724  0.4394
 6365SOL     OW30730   3.958   3.848   1.339  0.1594 -0.1559 -0.1379
 6365SOL    HW130731   3.928   3.904   1.268  1.2254 -0.1376 -0.5797
 6365SOL    HW230732   3.939   3.763   1.299 -1.7491 -0.4231  1.3426
 6366SOL     OW30733   3.898   1.841  17.036 -0.3455  0.1496 -0.1061
 6366SOL    HW130734   3.948   1.796  16.967 -0.3094 -0.3480  0.2477
 6366SOL    HW230735   3.928   1.826  17.126  0.6512  1.3828 -0.2255
 6367SOL     OW30736   4.573   4.482   8.061  0.1295  0.0274 -0.3091
 6367SOL    HW130737   4.591   4.576   8.063  0.5296 -0.0664  0.5367
 6367SOL    HW230738   4.554   4.466   7.968 -0.9001  0.0140 -0.0955
 6368SOL     OW30739   0.724   3.751   5.251  0.0700 -0.0944  0.1156
 6368SOL    HW130740   0.631   3.773   5.246 -0.0207 -0.2164  1.2983
 6368SOL    HW230741   0.724   3.679   5.314 -1.6208  0.1457  0.3884
 6369SOL     OW30742   1.935   1.369   7.303  0.3264  0.2353 -0.3402
 6369SOL    HW130743   1.847   1.348   7.271 -0.6126  0.1682  2.2841
 6369SOL    HW230744   1.929   1.464   7.318  0.6199  0.5040 -1.9176
 6370SOL     OW30745   0.421   1.221   0.107  0.4954 -0.4363 -0.3614
 6370SOL    HW130746   0.372   1.301   0.128  1.8786  0.1057  0.7786
 6370SOL    HW230747   0.382   1.155   0.164  1.2119 -0.4768  0.0716
 6371SOL     OW30748   1.898   1.562   6.924 -0.2242  0.4496 -0.0352
 6371SOL    HW130749   1.963   1.631   6.936  0.1801 -0.5225  3.3326
 6371SOL    HW230750   1.873   1.583   6.834  0.1428  1.5589  0.1284
 6372SOL     OW30751   0.708   0.127   9.205 -0.0651  0.3162 -0.4261
 6372SOL    HW130752   0.720   0.115   9.299 -2.8550 -0.9698 -0.2602
 6372SOL    HW230753   0.790   0.089   9.173  0.4737  0.2069  1.0808
 6373SOL     OW30754   0.264   3.239  15.851  0.1207  0.1526  0.6076
 6373SOL    HW130755   0.248   3.326  15.889  0.3289  0.6100 -0.3434
 6373SOL    HW230756   0.238   3.249  15.759  0.2144  1.4199  0.7148
 6374SOL     OW30757   3.383   0.654  13.824 -0.3810 -0.1961  0.2954
 6374SOL    HW130758   3.374   0.747  13.844  1.0322  0.2347 -1.0910
 6374SOL    HW230759   3.433   0.609  13.892  0.6548 -1.7908 -1.5451
 6375SOL     OW30760   0.883   4.475  15.090 -0.1145 -0.0658 -0.2800
 6375SOL    HW130761   0.861   4.421  15.166  0.0827  0.1669 -0.0608
 6375SOL    HW230762   0.946   4.536  15.128 -0.1187 -0.2656  0.0553
 6376SOL     OW30763   0.257   2.736   6.078  0.4324  0.3706  0.5038
 6376SOL    HW130764   0.246   2.660   6.020  0.4996  0.6302  0.1470
 6376SOL    HW230765   0.167   2.767   6.083  0.0118 -0.8233  0.4193
 6377SOL     OW30766   0.286   1.592   8.417  1.2277 -0.3227 -0.2470
 6377SOL    HW130767   0.309   1.526   8.483 -2.1919 -2.1724 -0.9376
 6377SOL    HW230768   0.198   1.559   8.398  0.2435  1.4558  1.2621
 6378SOL     OW30769   2.223   0.300   8.308 -0.1207 -0.4849  0.0684
 6378SOL    HW130770   2.194   0.270   8.222 -1.7169 -1.3631  0.9143
 6378SOL    HW230771   2.255   0.390   8.300  1.9939 -1.1331  1.3961
 6379SOL     OW30772   0.878   3.369  16.684  0.3874 -0.5822 -0.0287
 6379SOL    HW130773   0.810   3.364  16.617 -0.1629  2.8965  0.2628
 6379SOL    HW230774   0.957   3.395  16.635 -1.3683  0.4975 -2.2934
 6380SOL     OW30775   1.634   0.511  16.945  0.6308  0.1452 -0.5654
 6380SOL    HW130776   1.608   0.603  16.939 -0.7451 -0.4468 -3.7498
 6380SOL    HW230777   1.700   0.516  17.013  0.5447 -1.3926 -0.3722
 6381SOL     OW30778   2.800   0.911   7.281 -0.1303  0.4402  0.7068
 6381SOL    HW130779   2.871   0.905   7.217  0.1153 -1.7751  1.1889
 6381SOL    HW230780   2.785   0.819   7.304 -1.5803  0.7382  0.9337
 6382SOL     OW30781   2.891   1.746   6.235 -0.1420  0.6132 -0.8762
 6382SOL    HW130782   2.841   1.679   6.280 -2.0604  1.8295 -1.2098
 6382SOL    HW230783   2.915   1.696   6.157  0.3875  0.8743 -0.8813
 6383SOL     OW30784   1.243   0.016   5.219 -0.6744  0.7441 -0.5620
 6383SOL    HW130785   1.276   4.664   5.217 -1.8550  0.3019  0.1357
 6383SOL    HW230786   1.312   0.057   5.166 -0.3573 -0.4663 -1.0754
 6384SOL     OW30787   0.302   1.462   0.166  0.3220 -0.2497 -0.1466
 6384SOL    HW130788   0.392   1.482   0.140 -0.3249  0.1313 -2.0658
 6384SOL    HW230789   0.298   1.488   0.258  0.7324  1.1162 -0.5054
 6385SOL     OW30790   0.184   4.525   8.396 -0.3206 -0.3133 -0.0421
 6385SOL    HW130791   0.131   4.463   8.345  0.2998 -0.1996 -0.8255
 6385SOL    HW230792   0.255   4.553   8.338  1.2266 -0.3319  1.8298
 6386SOL     OW30793   1.051   0.731   5.019  0.5380 -0.4889 -0.0745
 6386SOL    HW130794   1.141   0.710   4.993  0.5584 -1.0653  0.4670
 6386SOL    HW230795   0.997   0.658   4.990 -0.6427  0.3898 -0.0699
 6387SOL     OW30796   3.686   4.340   4.843  0.1636 -0.2345 -0.3056
 6387SOL    HW130797   3.623   4.407   4.818  2.3748  1.6718 -0.7446
 6387SOL    HW230798   3.628   4.264   4.834  1.1981 -1.1140  0.4518
 6388SOL     OW30799   1.390   3.846   2.423 -0.1689  0.0309 -0.6019
 6388SOL    HW130800   1.407   3.753   2.435 -1.7736  0.0407  1.6153
 6388SOL    HW230801   1.427   3.851   2.334 -3.3254  0.1792 -1.9007
 6389SOL     OW30802   2.516   0.562   8.697  0.5132 -0.0888 -0.4681
 6389SOL    HW130803   2.589   0.612   8.734 -1.1255  2.4384 -0.6695
 6389SOL    HW230804   2.540   0.554   8.605  0.4030 -2.2499 -0.3074
 6390SOL     OW30805   4.238   1.846   0.045 -0.5203  0.4348  0.1709
 6390SOL    HW130806   4.302   1.776   0.034 -1.1141  0.0942 -1.1430
 6390SOL    HW230807   4.209   1.818   0.132  1.2137 -0.1880  0.5508
 6391SOL     OW30808   3.800   2.711  16.910  0.0302  0.4406  0.4383
 6391SOL    HW130809   3.799   2.660  16.828 -0.0213 -0.6490  1.1165
 6391SOL    HW230810   3.711   2.745  16.910  0.5653  1.8195  1.2741
 6392SOL     OW30811   4.468   1.972   3.787  0.1993  0.0671 -0.3010
 6392SOL    HW130812   4.375   1.992   3.782  0.0336 -0.5220  0.2950
 6392SOL    HW230813   4.507   2.044   3.837  0.8272 -1.0267  0.7920
 6393SOL     OW30814   0.707   1.866  15.842  0.0605  0.1621 -0.2118
 6393SOL    HW130815   0.775   1.808  15.805 -1.0972 -0.1600 -1.8571
 6393SOL    HW230816   0.764   1.909  15.905 -1.8386  1.7556  0.3997
 6394SOL     OW30817   2.078   0.304   4.857  0.5242  0.3476  0.1782
 6394SOL    HW130818   2.116   0.381   4.900 -1.3680  1.3497  0.0574
 6394SOL    HW230819   2.099   0.327   4.767 -2.0100  1.6541 -0.0722
 6395SOL     OW30820   1.362   2.057   2.243 -0.0686 -0.1125  0.0338
 6395SOL    HW130821   1.411   2.064   2.162  0.1767 -1.6132  0.0589
 6395SOL    HW230822   1.275   2.043   2.206  0.6432 -2.2492 -0.8274
 6396SOL     OW30823   1.493   3.445  11.277 -0.0457 -0.3844 -0.8056
 6396SOL    HW130824   1.402   3.450  11.247  0.0659  1.4546 -0.8277
 6396SOL    HW230825   1.518   3.354  11.260 -0.5339 -0.8057  0.6781
 6397SOL     OW30826   4.335   3.995  12.009  0.5807  0.3233 -0.5419
 6397SOL    HW130827   4.374   4.023  11.926  3.1041 -2.9501 -0.4373
 6397SOL    HW230828   4.382   3.917  12.038 -0.3604  0.5711  1.6942
 6398SOL     OW30829   2.426   4.002   7.538 -0.3904 -0.3693  0.2810
 6398SOL    HW130830   2.491   3.953   7.588  0.8776 -0.0225 -1.0399
 6398SOL    HW230831   2.427   4.089   7.578 -2.2084 -1.1973  2.1777
 6399SOL     OW30832   1.705   3.609   8.990  0.2373 -0.5718 -0.0877
 6399SOL    HW130833   1.707   3.585   9.083 -0.6298  0.3613  0.1614
 6399SOL    HW230834   1.765   3.682   9.000 -1.8615  1.0129  0.8671
 6400SOL     OW30835   3.917   3.484   5.549  0.0111 -0.2550 -0.2238
 6400SOL    HW130836   3.821   3.482   5.547  0.0621 -2.0495 -0.1958
 6400SOL    HW230837   3.931   3.550   5.617 -0.7301 -1.0619  0.7028
 6401SOL     OW30838   2.047   2.556   7.420  0.0041 -0.0087  0.2309
 6401SOL    HW130839   2.054   2.528   7.329 -0.2328  0.7193 -0.0145
 6401SOL    HW230840   2.035   2.651   7.419 -0.2337 -0.0392  0.1653
 6402SOL     OW30841   2.625   2.473   2.291  0.4692 -0.9315 -0.3193
 6402SOL    HW130842   2.603   2.396   2.343  2.2434 -0.3065  1.3432
 6402SOL    HW230843   2.567   2.539   2.329 -2.8931 -1.1137 -5.0682
 6403SOL     OW30844   0.996   4.288   7.468  0.0151 -0.1573 -0.0488
 6403SOL    HW130845   0.997   4.299   7.373  0.5801 -0.2416 -0.0519
 6403SOL    HW230846   0.904   4.261   7.477 -0.5344  2.1012  1.0527
 6404SOL     OW30847   4.400   0.766  14.684  0.0659  0.7377 -0.7152
 6404SOL    HW130848   4.454   0.734  14.612  1.3097 -1.1622  1.0279
 6404SOL    HW230849   4.318   0.793  14.645  0.8617  1.0316 -2.1797
 6405SOL     OW30850   1.592   0.315   1.647 -0.0703  0.0110 -0.2499
 6405SOL    HW130851   1.560   0.225   1.662  1.7650 -0.4170  1.1457
 6405SOL    HW230852   1.686   0.302   1.642  0.0647  0.8372  0.2111
 6406SOL     OW30853   3.960   1.053   6.314  0.3037 -0.5372 -0.1661
 6406SOL    HW130854   4.006   0.971   6.298  3.3377  1.3758 -1.2812
 6406SOL    HW230855   4.032   1.100   6.356 -1.2403 -0.2949  2.2144
 6407SOL     OW30856   3.385   0.045   3.825 -0.1362 -0.2617 -0.5171
 6407SOL    HW130857   3.445   0.092   3.768  2.3025 -0.8609  1.5497
 6407SOL    HW230858   3.354   4.730   3.752  2.6780 -1.6784 -0.7019
 6408SOL     OW30859   3.081   4.429  10.133  0.4800 -0.5983  0.3332
 6408SOL    HW130860   3.091   4.363  10.201  2.4937 -1.2891 -0.6436
 6408SOL    HW230861   3.067   4.506  10.189  2.6256  0.0498 -0.0072
 6409SOL     OW30862   1.797   2.742   2.562 -0.5549 -0.5070 -0.3489
 6409SOL    HW130863   1.739   2.790   2.622 -1.6348 -1.0692 -0.9552
 6409SOL    HW230864   1.855   2.818   2.551  0.7576 -1.5672 -0.7258
 6410SOL     OW30865   4.319   2.862   6.390  0.1622  0.0228  0.1772
 6410SOL    HW130866   4.389   2.801   6.408  1.6500  1.3058 -1.2130
 6410SOL    HW230867   4.247   2.825   6.440 -0.4227 -0.3338 -0.9220
 6411SOL     OW30868   1.278   1.729   3.964 -0.1933 -0.9518 -0.3072
 6411SOL    HW130869   1.362   1.754   4.003 -0.7871 -1.1053  1.0997
 6411SOL    HW230870   1.296   1.748   3.872 -0.5183  2.4657  0.3450
 6412SOL     OW30871   1.353   3.355   4.886 -0.5330  0.0835  0.0226
 6412SOL    HW130872   1.341   3.364   4.792  1.3600 -1.2129 -0.3445
 6412SOL    HW230873   1.445   3.378   4.889 -0.7358  1.0577 -1.9048
 6413SOL     OW30874   3.676   1.221  15.432  0.2710 -0.0946  0.3162
 6413SOL    HW130875   3.768   1.193  15.425  0.2453 -0.5528  1.7762
 6413SOL    HW230876   3.635   1.135  15.420 -2.2106  1.0619  0.5914
 6414SOL     OW30877   2.120   2.685   1.096 -0.1303 -0.1927  0.3174
 6414SOL    HW130878   2.136   2.767   1.049 -1.1866  0.6057  1.3665
 6414SOL    HW230879   2.053   2.649   1.038 -0.5707 -0.3429  0.9308
 6415SOL     OW30880   2.147   2.694  12.938 -0.1545 -0.1910 -0.0108
 6415SOL    HW130881   2.107   2.769  12.982 -0.3582  0.0530 -0.6144
 6415SOL    HW230882   2.171   2.636  13.010 -0.8444 -2.5560 -1.7088
 6416SOL     OW30883   3.217   3.664   4.029 -1.1556 -0.2703  0.0711
 6416SOL    HW130884   3.139   3.717   4.044 -1.4066 -0.8527  0.8517
 6416SOL    HW230885   3.290   3.726   4.025  0.3485 -1.8755  2.1664
 6417SOL     OW30886   3.685   3.839   2.456  0.1064  0.4444 -0.5829
 6417SOL    HW130887   3.766   3.885   2.432 -0.3934  1.1585 -0.9132
 6417SOL    HW230888   3.702   3.766   2.397 -0.1655 -0.8798  0.9819
 6418SOL     OW30889   4.131   3.834   2.518  0.2316  0.0889 -0.7520
 6418SOL    HW130890   4.049   3.829   2.468  0.1545  0.4430 -0.6606
 6418SOL    HW230891   4.122   3.759   2.576 -3.3380  0.1657 -1.2019
 6419SOL     OW30892   4.729   3.341   7.127  0.0810  0.2092 -0.0586
 6419SOL    HW130893   0.085   3.339   7.116 -0.2215  0.6870 -2.6333
 6419SOL    HW230894   4.710   3.248   7.126  1.3540 -0.0290 -1.0016
 6420SOL     OW30895   2.746   1.789   9.721  0.2427  0.5324 -0.2952
 6420SOL    HW130896   2.766   1.870   9.768 -1.6813  0.1338  1.2205
 6420SOL    HW230897   2.658   1.798   9.684  0.1220 -0.4130 -0.2377
 6421SOL     OW30898   0.002   0.543  15.000  0.5715  0.0915  0.2735
 6421SOL    HW130899   4.649   0.515  15.015  1.0458 -1.9209 -0.6399
 6421SOL    HW230900   4.726   0.583  14.914  0.1442 -0.9779 -0.1603
 6422SOL     OW30901   4.541   2.738   5.403 -0.4799  0.3471  0.0068
 6422SOL    HW130902   4.464   2.694   5.442 -0.8421  1.2663  0.3249
 6422SOL    HW230903   4.604   2.667   5.395 -1.7881 -1.0802  2.1430
 6423SOL     OW30904   2.837   3.395   9.888  0.2327  0.5548  0.5444
 6423SOL    HW130905   2.746   3.383   9.862  0.2765  1.7492 -0.1418
 6423SOL    HW230906   2.842   3.490   9.891 -6.8275  0.9637 -1.6815
 6424SOL     OW30907   3.691   3.552   8.807 -0.3907 -0.2219  0.3350
 6424SOL    HW130908   3.650   3.579   8.725 -1.8785 -0.0207  1.1355
 6424SOL    HW230909   3.762   3.615   8.815 -0.6048 -0.1443  1.7404
 6425SOL     OW30910   0.999   1.798  17.666 -0.4629 -0.7423  0.2340
 6425SOL    HW130911   1.033   1.877  17.707  1.0273 -0.7911 -0.9230
 6425SOL    HW230912   0.997   1.823  17.573 -2.3432  1.5878  0.8778
 6426SOL     OW30913   0.299   2.736   8.346 -0.1581 -0.2293 -0.3805
 6426SOL    HW130914   0.278   2.818   8.301 -0.2461 -0.8205 -1.4217
 6426SOL    HW230915   0.358   2.769   8.413  0.6325 -0.5467 -0.9191
 6427SOL     OW30916   4.564   0.439   1.295 -0.6763  0.1417  0.7006
 6427SOL    HW130917   4.483   0.445   1.243 -1.3490 -1.6685  1.5287
 6427SOL    HW230918   4.533   0.476   1.377 -1.7838  0.3673  0.1871
 6428SOL     OW30919   0.802   4.555  16.644 -0.2837  0.2184 -0.4516
 6428SOL    HW130920   0.838   4.604  16.717  0.0832  1.8811 -1.7366
 6428SOL    HW230921   0.776   4.632  16.593  0.4192  1.1330  0.5991
 6429SOL     OW30922   4.407   3.706   5.618  0.1147 -0.6102 -0.0997
 6429SOL    HW130923   4.362   3.790   5.617  0.0090 -0.6627  0.2307
 6429SOL    HW230924   4.392   3.674   5.528 -0.2744 -0.3611 -0.1245
 6430SOL     OW30925   2.874   4.120  12.846 -0.2178  0.2432 -0.0725
 6430SOL    HW130926   2.889   4.027  12.862 -0.0844  0.5306  1.5119
 6430SOL    HW230927   2.782   4.114  12.822  0.1596  1.7210 -1.8585
 6431SOL     OW30928   0.626   2.275   1.348 -0.4089  0.5504  0.2748
 6431SOL    HW130929   0.658   2.192   1.313 -1.7327  0.7875 -1.5028
 6431SOL    HW230930   0.615   2.334   1.274  0.9294  1.1770  0.5761
 6432SOL     OW30931   1.151   1.055   4.818  0.1679  0.3638 -0.1992
 6432SOL    HW130932   1.055   1.059   4.820  0.1319 -1.2333  1.3645
 6432SOL    HW230933   1.178   1.093   4.902 -0.2254  1.3919 -0.5350
 6433SOL     OW30934   4.685   0.960   1.284  0.3399 -0.1698  0.2339
 6433SOL    HW130935   4.642   0.875   1.280 -2.1669  1.1241 -0.8919
 6433SOL    HW230936   0.037   0.941   1.259  0.0157 -2.0306  0.4974
 6434SOL     OW30937   1.727   0.077   3.800 -0.6560  0.3701  0.1285
 6434SOL    HW130938   1.743   4.737   3.853  0.5443  1.4059  1.3080
 6434SOL    HW230939   1.727   0.039   3.712  2.1442  0.6395  0.0177
 6435SOL     OW30940   2.684   0.562   5.456 -0.5006 -0.4919  0.5764
 6435SOL    HW130941   2.729   0.479   5.471 -1.1420 -0.9976 -0.2716
 6435SOL    HW230942   2.754   0.627   5.465  1.5154 -2.2351 -2.3998
 6436SOL     OW30943   0.129   1.897  14.877  0.2743  0.1620  0.2631
 6436SOL    HW130944   0.147   1.990  14.890  1.5539 -0.1759  0.9694
 6436SOL    HW230945   0.213   1.868  14.842 -0.4495 -0.5246 -0.8848
 6437SOL     OW30946   0.211   0.615   1.701  0.3578  0.0606 -0.3182
 6437SOL    HW130947   0.202   0.704   1.734  0.4993 -0.0637  0.0574
 6437SOL    HW230948   0.153   0.624   1.625  1.1943  0.7115 -0.8755
 6438SOL     OW30949   0.023   4.180   4.975  0.9600  0.3993 -0.3125
 6438SOL    HW130950   0.096   4.121   4.992  0.7310  0.6999  1.7338
 6438SOL    HW230951   0.029   4.177   4.880 -0.6153 -0.4458 -0.3914
 6439SOL     OW30952   0.612   3.626   1.410  0.3406 -0.2305 -0.0902
 6439SOL    HW130953   0.617   3.716   1.375  0.1789 -0.7823 -1.5404
 6439SOL    HW230954   0.549   3.647   1.479 -0.2900 -1.6716 -0.2292
 6440SOL     OW30955   2.919   4.557   5.708  0.0236  0.1950  0.0781
 6440SOL    HW130956   2.893   4.468   5.686  0.0202  0.0821  0.5407
 6440SOL    HW230957   2.950   4.589   5.624  1.4578  0.9033  0.8710
 6441SOL     OW30958   4.077   2.983   3.358 -0.0388 -0.1081 -0.1334
 6441SOL    HW130959   3.984   3.004   3.352 -0.2579 -1.5382 -1.7843
 6441SOL    HW230960   4.081   2.889   3.337 -1.0790 -0.6053  1.9447
 6442SOL     OW30961   0.408   3.812   4.514 -0.0165 -0.5235  0.1083
 6442SOL    HW130962   0.434   3.898   4.480  1.9754 -0.9952  0.4351
 6442SOL    HW230963   0.470   3.752   4.473  2.9250  2.3207  0.3544
 6443SOL     OW30964   0.871   2.696   4.973 -0.3007 -0.2096  0.1315
 6443SOL    HW130965   0.793   2.751   4.976 -1.6707 -2.1600 -0.3002
 6443SOL    HW230966   0.839   2.637   4.905 -0.4061 -0.9802  0.8520
 6444SOL     OW30967   3.404   2.366   5.900  0.2504 -0.4737 -0.0920
 6444SOL    HW130968   3.405   2.386   5.993  0.5382  1.6072 -0.5455
 6444SOL    HW230969   3.466   2.295   5.884 -0.9557 -1.2481 -1.3712
 6445SOL     OW30970   1.779   4.175  11.960 -0.0078 -0.3024  0.8439
 6445SOL    HW130971   1.689   4.202  11.941  0.1779  0.5254  1.1483
 6445SOL    HW230972   1.815   4.261  11.982 -0.3850 -0.6031  2.6023
 6446SOL     OW30973   4.566   3.705   6.682 -0.3324 -0.9403 -0.2232
 6446SOL    HW130974   4.510   3.761   6.736  1.3871  0.4595  0.1118
 6446SOL    HW230975   4.615   3.776   6.640  0.7585 -1.0063  0.9272
 6447SOL     OW30976   0.831   0.761   4.155 -0.3978 -0.1601  0.1728
 6447SOL    HW130977   0.926   0.763   4.147 -0.4895 -0.8191 -0.9460
 6447SOL    HW230978   0.814   0.700   4.227 -0.8695 -2.3492 -1.8204
 6448SOL     OW30979   1.710   3.895   6.574 -0.5691 -0.3723  0.4831
 6448SOL    HW130980   1.737   3.812   6.612  1.3149  0.0562  0.0993
 6448SOL    HW230981   1.689   3.948   6.651 -0.3456 -0.6151  0.7091
 6449SOL     OW30982   3.684   0.359   8.024  0.0275 -0.4201  0.6182
 6449SOL    HW130983   3.597   0.322   8.008  0.2502 -0.5765 -0.1960
 6449SOL    HW230984   3.739   0.288   8.055 -0.3071 -0.7523  0.4514
 6450SOL     OW30985   2.810   4.369  16.512  0.4000  0.2432  0.5764
 6450SOL    HW130986   2.769   4.355  16.427  0.6590  1.9856  0.1644
 6450SOL    HW230987   2.769   4.455  16.530  2.0228  1.3879 -1.2549
 6451SOL     OW30988   1.411   3.034   3.742  0.0111 -0.1710  0.3185
 6451SOL    HW130989   1.483   3.077   3.696  0.5614  0.0480  1.3852
 6451SOL    HW230990   1.455   2.996   3.818  0.4816 -1.2920 -0.5321
 6452SOL     OW30991   4.609   3.212   9.059 -0.0736 -0.2519 -0.0654
 6452SOL    HW130992   4.575   3.289   9.105  1.6385 -0.5095  1.5707
 6452SOL    HW230993   4.581   3.229   8.969 -1.7337 -2.3134  0.0568
 6453SOL     OW30994   1.077   4.118  15.322 -0.0475 -0.1635  0.2440
 6453SOL    HW130995   1.162   4.111  15.280  0.2217  0.3495  0.7006
 6453SOL    HW230996   1.044   4.198  15.282 -2.7067  0.2434  3.2494
 6454SOL     OW30997   4.317   3.099   0.029 -0.3308  0.1844 -0.8716
 6454SOL    HW130998   4.266   3.180   0.027 -0.4108  0.2396  2.5428
 6454SOL    HW230999   4.328   3.083  17.686  2.0187 -0.6582 -0.4660
 6455SOL     OW31000   2.218   1.464   2.822  0.4268 -0.2619 -0.6473
 6455SOL    HW131001   2.126   1.446   2.804 -0.1908  0.5457  1.6625
 6455SOL    HW231002   2.219   1.548   2.869  0.8142 -1.1116  0.8524
 6456SOL     OW31003   1.613   1.137   2.480  0.3316 -0.1675 -0.5347
 6456SOL    HW131004   1.527   1.099   2.459 -0.0823  0.4119  0.0837
 6456SOL    HW231005   1.650   1.068   2.534 -0.5367  0.9367  1.4843
 6457SOL     OW31006   2.932   0.556   2.981 -0.5124  0.2171 -0.7405
 6457SOL    HW131007   2.918   0.551   3.075 -0.3712  5.3048 -0.4384
 6457SOL    HW231008   3.005   0.618   2.980  0.3396 -0.7967 -0.9479
 6458SOL     OW31009   3.960   1.403   8.887 -1.0523  0.7487  0.0741
 6458SOL    HW131010   3.934   1.330   8.831  0.6858  0.6156 -0.5470
 6458SOL    HW231011   3.899   1.465   8.848 -1.5791  0.3947  0.3271
 6459SOL     OW31012   0.408   0.730   5.329  0.1135 -0.6484  0.2364
 6459SOL    HW131013   0.409   0.688   5.416 -1.1124 -1.6100 -0.2059
 6459SOL    HW231014   0.496   0.765   5.319  0.9255 -2.3460  1.3839
 6460SOL     OW31015   0.272   3.706   7.358 -0.0783 -0.0312  0.0636
 6460SOL    HW131016   0.244   3.639   7.422  1.6803  1.1774  2.0935
 6460SOL    HW231017   0.211   3.777   7.377  0.1798 -0.0686  1.0426
 6461SOL     OW31018   2.530   4.430   2.500 -0.0169 -0.2191 -0.4127
 6461SOL    HW131019   2.527   4.355   2.441 -2.3292  0.6896 -1.4510
 6461SOL    HW231020   2.573   4.403   2.581  0.5601  2.1020  0.0756
 6462SOL     OW31021   4.206   3.774  15.876 -0.4858  0.2123 -0.2972
 6462SOL    HW131022   4.239   3.845  15.820  1.0828 -0.5042 -0.2807
 6462SOL    HW231023   4.149   3.717  15.825 -1.2726  0.1855  0.6197
 6463SOL     OW31024   3.129   3.217   8.288 -0.5499 -0.5758 -0.0981
 6463SOL    HW131025   3.147   3.216   8.382  0.9926 -0.7498 -0.3834
 6463SOL    HW231026   3.159   3.128   8.268  1.8997  0.2205 -0.0062
 6464SOL     OW31027   3.527   0.954   2.921 -0.0963 -0.2915 -0.6665
 6464SOL    HW131028   3.483   1.031   2.885 -1.8518 -0.3653  1.2831
 6464SOL    HW231029   3.462   0.884   2.930 -1.8430  1.4388  0.2253
 6465SOL     OW31030   0.131   4.069  11.342  0.1035  0.0603 -0.2857
 6465SOL    HW131031   0.087   3.990  11.372  0.2777  0.7717  1.8347
 6465SOL    HW231032   0.054   4.115  11.307 -0.7409 -1.4470 -0.4020
 6466SOL     OW31033   3.321   1.041   3.770  0.1717 -0.0021 -0.1806
 6466SOL    HW131034   3.389   0.977   3.747 -0.7215 -1.3289  0.8731
 6466SOL    HW231035   3.372   1.120   3.754 -0.0263 -0.1241 -1.4062
 6467SOL     OW31036   3.528   3.860   2.169 -0.2588  0.6977  0.6882
 6467SOL    HW131037   3.530   3.877   2.263  2.1415  0.3577  0.6970
 6467SOL    HW231038   3.616   3.892   2.147  0.4414 -0.9360  1.1416
 6468SOL     OW31039   3.698   4.134   7.444  0.1177 -0.0031  0.2565
 6468SOL    HW131040   3.731   4.222   7.427  0.1105  0.4226  2.5046
 6468SOL    HW231041   3.777   4.080   7.444 -1.2999 -2.0702 -2.6281
 6469SOL     OW31042   3.028   1.140   7.881  0.1820  0.1400 -0.0434
 6469SOL    HW131043   3.099   1.130   7.817 -1.2744 -2.3831 -1.2661
 6469SOL    HW231044   3.087   1.120   7.953  0.9363  2.5976  0.0358
 6470SOL     OW31045   0.243   4.369   9.242 -0.2462  0.4894 -0.7144
 6470SOL    HW131046   0.257   4.446   9.187 -1.1914  2.9740  2.5494
 6470SOL    HW231047   0.169   4.393   9.298 -0.2893 -0.5332 -0.3263
 6471SOL     OW31048   3.823   4.416   1.252  0.3497 -0.1360  0.1999
 6471SOL    HW131049   3.846   4.374   1.334 -2.3208 -0.7188  0.6415
 6471SOL    HW231050   3.892   4.482   1.247 -0.1626  0.2067 -2.3134
 6472SOL     OW31051   0.668   2.529   6.160  0.6621  0.0658  0.9252
 6472SOL    HW131052   0.579   2.526   6.194 -0.3088  3.2326 -1.3623
 6472SOL    HW231053   0.683   2.456   6.101  0.6451  0.5042  0.3842
 6473SOL     OW31054   1.719   2.610  10.625 -0.4358 -0.5740 -0.2887
 6473SOL    HW131055   1.659   2.593  10.552 -0.3869 -2.5959  0.1573
 6473SOL    HW231056   1.805   2.596  10.587  0.0048  1.7985 -0.2201
 6474SOL     OW31057   3.451   2.917   6.997 -0.1985 -0.0393 -0.1352
 6474SOL    HW131058   3.388   2.888   6.931 -1.6206 -3.4094  2.7046
 6474SOL    HW231059   3.505   2.838   7.003 -2.4609 -1.4971  0.9727
 6475SOL     OW31060   2.133   4.091   8.668  0.0581  0.2492  0.2311
 6475SOL    HW131061   2.111   4.050   8.585  0.0301  0.6826  0.0218
 6475SOL    HW231062   2.174   4.015   8.709  1.7508 -0.3481 -2.5605
 6476SOL     OW31063   0.523   4.287   6.292  0.0105 -0.0309  0.2512
 6476SOL    HW131064   0.614   4.266   6.311  0.2064  0.0665 -0.5968
 6476SOL    HW231065   0.529   4.381   6.279 -0.8265 -0.0512 -0.2627
 6477SOL     OW31066   1.339   1.523   0.029  0.2980  0.4908  0.1229
 6477SOL    HW131067   1.370   1.605   0.065  0.6880  0.2559  0.3197
 6477SOL    HW231068   1.419   1.471   0.031 -0.9740 -1.5539 -1.3397
 6478SOL     OW31069   3.355   0.577  13.357 -0.0973  0.2449  0.0445
 6478SOL    HW131070   3.303   0.597  13.435 -2.5012  0.0762 -1.5367
 6478SOL    HW231071   3.292   0.604  13.291  0.3052  1.0521 -0.0127
 6479SOL     OW31072   1.033   1.182  17.195 -1.1127 -0.2202  0.1102
 6479SOL    HW131073   1.111   1.176  17.250 -0.4490  0.7831 -0.7241
 6479SOL    HW231074   1.034   1.278  17.196 -0.4526 -0.2378  0.5964
 6480SOL     OW31075   1.115   3.577   8.261  0.1368 -0.6440 -0.9160
 6480SOL    HW131076   1.164   3.657   8.244  2.1983 -2.0553 -1.6958
 6480SOL    HW231077   1.089   3.588   8.353  0.7562 -0.7076 -0.7337
 6481SOL     OW31078   4.539   2.018   8.724  0.2614 -0.5185 -0.2616
 6481SOL    HW131079   4.623   2.044   8.763  0.7428  1.3478 -2.5697
 6481SOL    HW231080   4.544   1.923   8.740 -0.5147 -0.4197  0.5358
 6482SOL     OW31081   2.947   2.342   0.621 -0.3426 -0.2297 -0.4665
 6482SOL    HW131082   2.931   2.303   0.536 -1.3467 -3.0504  1.0239
 6482SOL    HW231083   3.000   2.412   0.582 -0.7600  0.2150 -0.2365
 6483SOL     OW31084   2.238   0.238   8.713 -0.4047 -0.0586 -0.1180
 6483SOL    HW131085   2.209   0.254   8.802 -2.2896 -1.4364 -0.4712
 6483SOL    HW231086   2.195   0.312   8.671  0.9753  1.3578  0.9905
 6484SOL     OW31087   1.065   3.979   9.694 -0.3796 -0.0823 -0.0484
 6484SOL    HW131088   1.065   3.951   9.603 -0.7579  0.5940 -0.2578
 6484SOL    HW231089   1.020   4.062   9.678 -0.9463 -0.4074 -0.1584
 6485SOL     OW31090   1.391   3.371   5.332  0.4151 -0.1223  0.5484
 6485SOL    HW131091   1.325   3.439   5.344  0.2537 -0.0430 -0.7656
 6485SOL    HW231092   1.458   3.430   5.297  1.2780 -0.1402  2.1588
 6486SOL     OW31093   0.067   3.106   9.394 -0.1312 -0.1028 -0.2091
 6486SOL    HW131094   0.084   3.114   9.488  0.5438 -0.4164 -0.3071
 6486SOL    HW231095   0.084   3.191   9.353 -2.1593  0.2756 -0.2793
 6487SOL     OW31096   0.278   3.428   8.926  0.6685  0.1179  0.5203
 6487SOL    HW131097   0.289   3.334   8.945 -0.9869  0.3297  2.4460
 6487SOL    HW231098   0.185   3.433   8.945  0.3571  1.2538 -1.3586
 6488SOL     OW31099   3.021   2.790   4.779  0.2604 -0.1530 -0.0260
 6488SOL    HW131100   3.099   2.814   4.729  1.7238 -3.1251  0.8526
 6488SOL    HW231101   3.064   2.754   4.857 -1.8078  1.6659  1.9664
 6489SOL     OW31102   1.111   1.603   8.922  0.3603 -0.8056 -0.3509
 6489SOL    HW131103   1.088   1.694   8.942 -2.1852 -0.9685 -2.4104
 6489SOL    HW231104   1.046   1.552   8.970  3.1234 -0.3748  3.8149
 6490SOL     OW31105   3.164   3.022   7.965 -0.4074  0.5416 -0.0832
 6490SOL    HW131106   3.237   3.077   7.993  0.1520 -1.6400  2.7070
 6490SOL    HW231107   3.138   2.986   8.049 -0.6425  0.7165 -0.0792
 6491SOL     OW31108   0.571   4.676   1.714  0.4117 -0.4466  0.7029
 6491SOL    HW131109   0.486   4.719   1.717 -0.1255 -1.7665  3.3679
 6491SOL    HW231110   0.534   4.588   1.706  2.5381 -1.3632  0.9777
 6492SOL     OW31111   3.422   4.384   4.797 -0.4062 -0.4708 -0.0615
 6492SOL    HW131112   3.393   4.297   4.771 -2.8124  0.4172 -0.3936
 6492SOL    HW231113   3.336   4.427   4.794  0.6208  1.5601 -0.8964
 6493SOL     OW31114   4.609   3.102   0.892 -0.1075  0.4348  0.1715
 6493SOL    HW131115   4.654   3.146   0.964 -0.1325 -0.9048  1.0271
 6493SOL    HW231116   4.529   3.087   0.944 -0.3454  0.5133 -0.1697
 6494SOL     OW31117   3.977   1.944   6.386  0.5379  0.6989 -0.0329
 6494SOL    HW131118   3.946   1.873   6.331  0.1065 -1.5549  3.1326
 6494SOL    HW231119   4.022   1.998   6.321  0.4304  0.3135 -0.4221
 6495SOL     OW31120   4.028   4.596   1.259 -0.5210  0.1555 -0.0532
 6495SOL    HW131121   4.099   4.654   1.231 -0.3302 -0.8964 -1.7160
 6495SOL    HW231122   3.999   4.642   1.338  0.9294  1.5395 -0.3138
 6496SOL     OW31123   4.325   2.001   4.574  0.0865 -0.2891 -0.1259
 6496SOL    HW131124   4.418   2.011   4.554 -0.0723 -0.6684 -1.0466
 6496SOL    HW231125   4.284   2.045   4.500  1.2193 -0.5021 -0.8930
 6497SOL     OW31126   4.720   1.872   9.795 -0.2937  0.3634  0.2651
 6497SOL    HW131127   0.006   1.921   9.874  3.8411 -1.1885 -0.0380
 6497SOL    HW231128   4.627   1.856   9.809 -0.6023  0.1110 -2.1039
 6498SOL     OW31129   2.390   1.912   3.243  0.0019 -0.8422 -0.0678
 6498SOL    HW131130   2.468   1.906   3.188 -0.1041  0.8150 -0.3942
 6498SOL    HW231131   2.351   1.994   3.211 -1.2438 -0.8946  1.3264
 6499SOL     OW31132   0.885   4.423  11.012  0.6308  0.3333 -0.4536
 6499SOL    HW131133   0.886   4.381  11.098 -0.1402  1.5360  0.1443
 6499SOL    HW231134   0.977   4.448  11.015  0.2577  2.0907 -3.9082
 6500SOL     OW31135   4.546   1.554  16.169  0.2298 -0.1430 -0.3110
 6500SOL    HW131136   4.483   1.578  16.237 -1.4190  0.1124 -1.9454
 6500SOL    HW231137   4.558   1.462  16.192 -1.6778 -0.2645  0.1599
 6501SOL     OW31138   0.459   1.389  10.318 -0.1206  0.6048 -0.0415
 6501SOL    HW131139   0.508   1.319  10.276  0.4807  0.5113  0.8114
 6501SOL    HW231140   0.475   1.370  10.411 -1.4594  0.0512  0.0729
 6502SOL     OW31141   4.342   3.420   7.684  0.5051 -0.3302  0.2494
 6502SOL    HW131142   4.346   3.511   7.654 -0.0107 -1.0308 -1.9195
 6502SOL    HW231143   4.310   3.432   7.773  0.6405 -2.9734  0.6474
 6503SOL     OW31144   3.412   2.752   3.796 -0.2714  0.5741  0.3563
 6503SOL    HW131145   3.395   2.715   3.709  2.2114 -0.4215  0.2828
 6503SOL    HW231146   3.474   2.823   3.780  0.7776 -0.2744  0.5982
 6504SOL     OW31147   0.941   4.722  11.241  0.1396 -0.1711  0.0832
 6504SOL    HW131148   0.918   0.074  11.215  1.0055 -0.1584 -0.6466
 6504SOL    HW231149   1.035   4.725  11.227  0.4312 -0.3701  2.0302
 6505SOL     OW31150   3.021   3.571   4.800  0.0877  0.4004 -0.0759
 6505SOL    HW131151   2.999   3.578   4.893  0.5393  0.5515  0.0197
 6505SOL    HW231152   3.068   3.488   4.790 -1.2811 -0.3175 -0.6423
 6506SOL     OW31153   3.580   2.928   4.563 -0.0369 -0.5521  0.2413
 6506SOL    HW131154   3.553   2.974   4.484 -0.3175  1.7772  1.6746
 6506SOL    HW231155   3.580   2.998   4.628  0.6782  0.4025 -0.7850
 6507SOL     OW31156   2.543   2.300  10.991 -0.2145 -0.3253 -0.2148
 6507SOL    HW131157   2.603   2.302  11.066  0.1882  0.7061 -0.5708
 6507SOL    HW231158   2.598   2.252  10.928 -0.9114  0.4212 -1.3933
 6508SOL     OW31159   1.171   4.313   1.875 -0.7093  0.0812  0.5167
 6508SOL    HW131160   1.111   4.251   1.917 -0.9177  0.1619  0.3363
 6508SOL    HW231161   1.201   4.358   1.954  1.5335  0.0424 -0.2964
 6509SOL     OW31162   0.381   0.210  17.588  0.4302  0.6620 -0.1640
 6509SOL    HW131163   0.292   0.215  17.555  0.8580 -1.6093 -1.7324
 6509SOL    HW231164   0.432   0.233  17.510 -0.4967  2.0953 -0.3486
 6510SOL     OW31165   3.647   2.041   3.174 -0.2205 -0.8993 -0.3028
 6510SOL    HW131166   3.658   1.973   3.240  2.9763 -1.0077 -0.9246
 6510SOL    HW231167   3.556   2.031   3.147 -1.2482 -1.0505  3.2688
 6511SOL     OW31168   1.854   3.008   2.713  0.8193  0.1165 -0.6942
 6511SOL    HW131169   1.803   3.077   2.670  1.6442  1.4103  0.3996
 6511SOL    HW231170   1.795   2.961   2.771  2.8099  0.5731  1.6933
 6512SOL     OW31171   2.530   4.058   6.256  0.0758  0.0139 -0.4651
 6512SOL    HW131172   2.495   4.067   6.345 -0.4450  0.5759 -0.7240
 6512SOL    HW231173   2.605   4.117   6.266 -0.2335  0.3789 -0.2952
 6513SOL     OW31174   4.336   1.537   5.773 -0.6252 -0.6956 -0.1240
 6513SOL    HW131175   4.371   1.484   5.844 -0.5917 -1.3303 -0.6115
 6513SOL    HW231176   4.367   1.479   5.703  0.5563  0.6522 -0.7206
 6514SOL     OW31177   2.231   0.912   2.839 -0.0579 -0.4599  0.2680
 6514SOL    HW131178   2.207   1.004   2.822 -0.3029 -0.4052  0.8811
 6514SOL    HW231179   2.224   0.869   2.754 -0.6711 -0.4780  0.3279
 6515SOL     OW31180   0.909   0.979   3.808  0.0838 -0.4344  0.3398
 6515SOL    HW131181   0.871   0.906   3.858  1.6117 -0.3233  1.6954
 6515SOL    HW231182   0.994   0.943   3.782 -0.8859 -0.8560 -2.1378
 6516SOL     OW31183   3.037   2.666  12.352 -0.4934  0.6316 -0.8098
 6516SOL    HW131184   2.941   2.659  12.350 -0.3913 -1.2362  0.6778
 6516SOL    HW231185   3.063   2.702  12.268  1.3388  1.3741  0.0640
 6517SOL     OW31186   3.733   1.275   2.637  0.2097 -0.7483  0.0166
 6517SOL    HW131187   3.745   1.279   2.732 -0.5298  3.9687 -0.0595
 6517SOL    HW231188   3.819   1.307   2.609  0.1298  0.4882  1.1650
 6518SOL     OW31189   2.821   4.712   7.506  0.9232  0.0289  0.1507
 6518SOL    HW131190   2.819   0.053   7.562  3.3300 -0.4310  0.8839
 6518SOL    HW231191   2.861   4.649   7.565 -0.9464 -0.5644  0.7908
 6519SOL     OW31192   4.327   1.286   1.016  0.5328  0.6093  0.1297
 6519SOL    HW131193   4.283   1.343   1.079 -2.4901  0.1347 -1.5302
 6519SOL    HW231194   4.362   1.223   1.079 -2.1572  0.4754  1.4804
 6520SOL     OW31195   0.402   2.469   5.485  0.0424 -0.7482  0.7230
 6520SOL    HW131196   0.424   2.555   5.521  0.3885 -1.2125  1.6402
 6520SOL    HW231197   0.494   2.440   5.484 -0.3624 -1.8979 -2.9030
 6521SOL     OW31198   2.235   1.591   9.174 -0.3119  0.2749 -0.2371
 6521SOL    HW131199   2.280   1.517   9.214  2.8481  1.9024 -0.7776
 6521SOL    HW231200   2.290   1.611   9.099 -0.2449 -1.1883 -0.5835
 6522SOL     OW31201   0.246   2.377   1.914  0.1832 -0.4875  0.2490
 6522SOL    HW131202   0.213   2.467   1.918  1.2702 -0.0991  0.5032
 6522SOL    HW231203   0.289   2.380   2.000 -1.2618  1.8289  0.8928
 6523SOL     OW31204   1.383   3.987   5.750 -0.2678  0.4363 -0.0012
 6523SOL    HW131205   1.345   3.983   5.662 -0.4191  0.0159  0.0828
 6523SOL    HW231206   1.455   3.923   5.742 -0.6594 -0.0237  0.1240
 6524SOL     OW31207   1.583   4.331   8.358  0.3841  0.1624  0.3717
 6524SOL    HW131208   1.595   4.420   8.391  2.0027  0.6824 -1.6057
 6524SOL    HW231209   1.540   4.295   8.435  2.1222  0.9852  1.7389
 6525SOL     OW31210   4.539   1.758   6.688  0.0476 -0.4870  0.2741
 6525SOL    HW131211   4.450   1.791   6.676 -0.2036 -1.6752 -1.0408
 6525SOL    HW231212   4.519   1.731   6.778 -1.6294 -1.9780 -0.5428
 6526SOL     OW31213   1.414   3.468   3.317  0.1846  0.3154  0.4178
 6526SOL    HW131214   1.362   3.400   3.274 -1.4866  2.5787 -1.1379
 6526SOL    HW231215   1.392   3.544   3.264 -1.7940 -0.3093  0.3404
 6527SOL     OW31216   4.138   1.935   5.937  0.4115 -0.0604 -0.3411
 6527SOL    HW131217   4.125   2.021   5.976  0.5593 -0.6222  0.9567
 6527SOL    HW231218   4.092   1.952   5.854  0.0161 -0.4732 -0.2118
 6528SOL     OW31219   1.983   2.180   2.495 -0.2264  0.1906 -0.2167
 6528SOL    HW131220   1.988   2.273   2.517 -0.8682 -0.1654  1.4409
 6528SOL    HW231221   1.961   2.142   2.580  0.8609 -0.7449 -0.3643
 6529SOL     OW31222   3.454   1.855  14.273 -0.7730  0.5500  0.4214
 6529SOL    HW131223   3.460   1.931  14.330 -0.3473 -0.8813  2.2967
 6529SOL    HW231224   3.544   1.845  14.241 -0.7550 -0.5706  0.8072
 6530SOL     OW31225   2.570   4.077   0.836 -0.1375 -0.5225  0.0585
 6530SOL    HW131226   2.540   4.103   0.923 -0.1613  0.5855 -0.2764
 6530SOL    HW231227   2.632   4.147   0.819 -1.7320  0.9061  0.1077
 6531SOL     OW31228   0.038   4.105   4.383 -0.7736  0.5904 -0.2249
 6531SOL    HW131229   0.025   4.058   4.301 -2.2502  0.9956 -0.2061
 6531SOL    HW231230   0.050   4.031   4.443  1.5573  0.6694 -0.5933
 6532SOL     OW31231   2.739   1.865   8.690 -0.3761 -0.2612  0.3404
 6532SOL    HW131232   2.674   1.922   8.649 -0.5263 -0.2190  0.6348
 6532SOL    HW231233   2.805   1.926   8.723 -0.3243 -0.9440  1.5027
 6533SOL     OW31234   1.011   0.974   6.275 -0.4003  0.0383 -0.3903
 6533SOL    HW131235   1.091   0.922   6.278  0.0568  0.9206  2.4210
 6533SOL    HW231236   0.992   0.990   6.367  1.7937 -0.5681  0.1705
 6534SOL     OW31237   2.093   4.692   9.456 -0.1722 -0.2186 -0.5535
 6534SOL    HW131238   2.006   4.692   9.416  0.7032 -2.0773 -2.4884
 6534SOL    HW231239   2.155   4.687   9.384 -0.4889 -0.3556 -0.8151
 6535SOL     OW31240   1.171   1.258  11.780 -0.0376  0.1747 -0.2533
 6535SOL    HW131241   1.146   1.335  11.729  0.8123  2.1907  2.4015
 6535SOL    HW231242   1.197   1.300  11.862  0.2109  0.5854 -0.5459
 6536SOL     OW31243   2.476   1.488   3.308 -0.5490 -0.5030  0.1424
 6536SOL    HW131244   2.564   1.525   3.309 -1.5025  1.8097 -2.9491
 6536SOL    HW231245   2.460   1.472   3.215  2.4099  2.3288 -0.8481
 6537SOL     OW31246   3.318   3.382   1.127  0.1912  0.3248 -0.2451
 6537SOL    HW131247   3.229   3.415   1.113 -0.3500 -1.5885 -1.3798
 6537SOL    HW231248   3.300   3.297   1.167 -1.9182  0.5365 -0.7018
 6538SOL     OW31249   2.193   3.967   5.068 -0.3845 -0.0884  0.2725
 6538SOL    HW131250   2.193   3.875   5.092 -0.2198  0.1349  1.1293
 6538SOL    HW231251   2.227   3.980   4.979  0.7504  0.7961  0.8296
 6539SOL     OW31252   0.582   2.082   6.956  0.1314  0.1317 -0.7011
 6539SOL    HW131253   0.531   2.143   6.902 -1.4190  1.0076  1.7511
 6539SOL    HW231254   0.519   2.020   6.992  0.5035  0.5354  0.6393
 6540SOL     OW31255   3.436   3.372   5.144 -0.1065  0.4671  0.5255
 6540SOL    HW131256   3.482   3.303   5.097 -0.2389  1.1650 -0.6144
 6540SOL    HW231257   3.443   3.332   5.231 -2.5253  0.6630  0.8066
 6541SOL     OW31258   1.853   0.217   6.963 -0.0918  0.1804 -0.0456
 6541SOL    HW131259   1.812   0.178   7.041  0.0050 -1.3606 -0.7571
 6541SOL    HW231260   1.871   0.308   6.987  1.4934 -0.8438  2.6882
 6542SOL     OW31261   1.383   4.456   7.521  0.4127  0.0149  0.2747
 6542SOL    HW131262   1.456   4.451   7.459 -0.2346 -0.2751 -0.4647
 6542SOL    HW231263   1.414   4.517   7.588 -1.2440  2.2235 -0.9861
 6543SOL     OW31264   4.462   4.042   7.853  0.3284 -0.2672 -0.1651
 6543SOL    HW131265   4.372   4.065   7.878  0.1417  0.9047 -1.9124
 6543SOL    HW231266   4.480   3.980   7.924 -1.8260 -1.7313 -0.9068
 6544SOL     OW31267   3.358   4.639   2.225 -0.2380  0.1598  0.2915
 6544SOL    HW131268   3.399   4.597   2.300  3.8704 -0.0754 -2.1391
 6544SOL    HW231269   3.402   4.600   2.151  0.0212  0.9743  0.0145
 6545SOL     OW31270   1.284   3.233   7.988 -0.6181  0.0382 -0.3216
 6545SOL    HW131271   1.290   3.278   7.905 -1.3065  1.1831  0.2466
 6545SOL    HW231272   1.374   3.251   8.015  0.3198 -0.2833 -3.2692
 6546SOL     OW31273   0.540   2.710   3.836  0.4136 -0.0997 -0.3602
 6546SOL    HW131274   0.518   2.629   3.882 -3.3608  1.0779 -0.1002
 6546SOL    HW231275   0.585   2.762   3.901 -0.0169  0.7203 -0.7175
 6547SOL     OW31276   1.059   2.029   4.619  0.0897  0.2109  0.0166
 6547SOL    HW131277   1.124   1.990   4.677 -0.0503  0.4645  0.3377
 6547SOL    HW231278   1.122   2.071   4.559  0.7640 -3.2564 -1.7076
 6548SOL     OW31279   0.649   3.166   2.923 -0.9425  0.0722 -0.3629
 6548SOL    HW131280   0.652   3.093   2.984  0.2881  0.0427 -0.4612
 6548SOL    HW231281   0.733   3.206   2.945 -0.9070 -0.5927  0.6815
 6549SOL     OW31282   0.411   1.067   1.948 -0.1628 -0.8416 -0.3508
 6549SOL    HW131283   0.500   1.032   1.944 -0.2586 -1.2842  1.3281
 6549SOL    HW231284   0.426   1.160   1.931  1.3762 -1.3472 -1.7491
 6550SOL     OW31285   1.587   2.787   0.678  0.0530  0.2003  0.0372
 6550SOL    HW131286   1.605   2.709   0.730  2.4533  0.7809  0.0848
 6550SOL    HW231287   1.664   2.782   0.622  0.1307  1.3198  0.0417
 6551SOL     OW31288   3.137   3.922   1.107  0.2516  0.2011  0.0577
 6551SOL    HW131289   3.183   3.967   1.178  2.9806 -1.7196 -0.4859
 6551SOL    HW231290   3.101   3.847   1.154 -0.9841  1.2897  0.8570
 6552SOL     OW31291   0.299   3.464   5.146 -0.5871  0.0394  0.9803
 6552SOL    HW131292   0.340   3.468   5.060 -3.8421  1.3133 -0.5135
 6552SOL    HW231293   0.212   3.440   5.114 -0.3821 -0.6999  0.9713
 6553SOL     OW31294   1.840   2.842   4.385 -0.0878  0.1274  0.5957
 6553SOL    HW131295   1.796   2.768   4.425  0.7194  0.2039  1.6290
 6553SOL    HW231296   1.929   2.807   4.373 -1.6350 -3.6963  0.4667
 6554SOL     OW31297   3.748   0.185   5.376 -0.1161  0.1917  0.2956
 6554SOL    HW131298   3.843   0.186   5.391 -0.4491  1.2359  2.3409
 6554SOL    HW231299   3.723   0.104   5.421  1.5613 -0.2962  0.3463
 6555SOL     OW31300   0.129   2.702   1.535  0.2629  0.1775 -0.3149
 6555SOL    HW131301   0.090   2.769   1.479 -0.6125  0.7728  1.0004
 6555SOL    HW231302   0.044   2.663   1.555  0.8886 -0.1441  1.6958
 6556SOL     OW31303   2.322   3.508  17.417  0.5735  0.0489 -0.1638
 6556SOL    HW131304   2.284   3.423  17.440  0.5297  1.1825  3.9939
 6556SOL    HW231305   2.417   3.496  17.419  0.5306  0.2156  2.5107
 6557SOL     OW31306   1.615   1.961  11.825  0.4670 -0.0261 -0.1811
 6557SOL    HW131307   1.573   1.925  11.903  1.3864  0.2247  0.4321
 6557SOL    HW231308   1.563   1.942  11.747  1.5322 -1.1556 -0.6172
 6558SOL     OW31309   4.567   4.361   9.645 -0.4125 -0.6168  0.2070
 6558SOL    HW131310   4.660   4.378   9.631 -0.1763  0.2014  2.8258
 6558SOL    HW231311   4.566   4.274   9.685  1.9217 -1.0310 -0.5794
 6559SOL     OW31312   2.386   3.123   1.386 -0.2313 -0.6723 -0.1691
 6559SOL    HW131313   2.360   3.114   1.295 -4.3760 -2.8402  1.1968
 6559SOL    HW231314   2.467   3.072   1.379  1.0637  1.1376  1.5603
 6560SOL     OW31315   0.128   4.525   1.740  0.0552 -0.2317  0.0095
 6560SOL    HW131316   0.199   4.587   1.754 -0.5633  0.1263  1.5107
 6560SOL    HW231317   0.184   4.450   1.720 -1.4810 -1.3051 -0.2504
 6561SOL     OW31318   1.035   0.722   2.226 -0.0954  0.4563 -0.5404
 6561SOL    HW131319   1.095   0.655   2.193  0.3947  1.4603 -1.6756
 6561SOL    HW231320   0.964   0.671   2.264  0.0163 -0.0177 -0.9744
 6562SOL     OW31321   3.624   4.052   5.633 -0.1928 -0.8869  0.0054
 6562SOL    HW131322   3.657   4.047   5.543  0.5642 -0.6960  0.2700
 6562SOL    HW231323   3.541   4.097   5.614  0.1441  0.0942  0.8704
 6563SOL     OW31324   1.438   0.661   2.210 -0.3810 -0.0426  0.2288
 6563SOL    HW131325   1.408   0.604   2.280  1.8950 -0.4465  0.8761
 6563SOL    HW231326   1.524   0.624   2.191 -0.9481 -0.6456 -1.1662
 6564SOL     OW31327   1.269   1.776   6.830  0.4058  0.0701 -0.9853
 6564SOL    HW131328   1.347   1.824   6.802  0.8550 -0.1131 -0.0610
 6564SOL    HW231329   1.198   1.840   6.836  1.3800  0.7369  3.1382
 6565SOL     OW31330   1.488   4.051   7.055  0.2098 -1.0143 -0.0444
 6565SOL    HW131331   1.560   3.988   7.056  0.4435 -0.7545 -0.3641
 6565SOL    HW231332   1.443   4.019   7.133 -0.3784  0.9452  0.4248
 6566SOL     OW31333   3.200   2.506   0.696 -0.0401 -0.0404  0.4595
 6566SOL    HW131334   3.197   2.412   0.713 -0.5461 -0.0822  0.1414
 6566SOL    HW231335   3.106   2.521   0.691 -0.2730 -1.1720  1.6208
 6567SOL     OW31336   1.452   1.064  10.624  0.1420  0.0977  0.0221
 6567SOL    HW131337   1.547   1.077  10.615  0.4714 -0.5048  2.9051
 6567SOL    HW231338   1.441   1.040  10.532 -0.4528 -1.4187  0.4930
 6568SOL     OW31339   0.984   2.563   4.236 -0.5039  0.1509 -0.1308
 6568SOL    HW131340   1.001   2.645   4.283  0.5435  0.6267 -1.3248
 6568SOL    HW231341   0.925   2.520   4.297 -0.7910 -0.2150 -0.6689
 6569SOL     OW31342   3.759   4.593   3.008 -0.0245  0.0481 -0.0206
 6569SOL    HW131343   3.785   4.524   3.069  1.0931 -1.1956 -1.9179
 6569SOL    HW231344   3.670   4.563   2.995 -0.7840  2.5276 -0.6082
 6570SOL     OW31345   4.491   2.184   5.823 -0.2485  0.3817  0.2397
 6570SOL    HW131346   4.555   2.149   5.886  1.2098  1.0684 -0.8705
 6570SOL    HW231347   4.499   2.110   5.763 -0.3995  0.9757 -0.5120
 6571SOL     OW31348   0.945   0.728   7.577 -0.2317 -0.0865 -0.0211
 6571SOL    HW131349   0.885   0.765   7.512  0.3282 -0.6431 -0.8520
 6571SOL    HW231350   0.902   0.743   7.661  1.0859  1.1613  0.4434
 6572SOL     OW31351   3.616   0.461   3.959 -0.1265  0.2723 -0.4781
 6572SOL    HW131352   3.540   0.433   4.011 -1.1528  1.8748 -1.1246
 6572SOL    HW231353   3.654   0.374   3.942 -0.7723 -0.7282  3.2129
 6573SOL     OW31354   3.411   2.004  12.258  0.3687 -0.4389  0.0647
 6573SOL    HW131355   3.394   2.049  12.175 -0.5263  0.4825  0.7486
 6573SOL    HW231356   3.491   1.958  12.233  0.3445  0.5578 -1.8889
 6574SOL     OW31357   2.252   0.414   1.884 -0.4027 -0.4564  0.1541
 6574SOL    HW131358   2.313   0.453   1.947 -0.0176 -0.7368 -0.0450
 6574SOL    HW231359   2.188   0.485   1.875  1.2255  0.9925  0.0130
 6575SOL     OW31360   2.260   1.565   6.167  0.3932  0.3468  0.4561
 6575SOL    HW131361   2.262   1.527   6.255 -1.5994  1.9506  1.2010
 6575SOL    HW231362   2.168   1.565   6.143  0.2146 -0.4605  1.1430
 6576SOL     OW31363   0.100   2.134   2.501 -0.0375  0.0218 -0.2078
 6576SOL    HW131364   0.103   2.093   2.588 -1.5243  1.7956  0.6762
 6576SOL    HW231365   0.032   2.201   2.513  1.6246  1.4377  1.2514
 6577SOL     OW31366   0.372   0.391  14.818 -0.1045 -0.3990 -0.4442
 6577SOL    HW131367   0.350   0.317  14.762  0.8143 -1.4730  0.6278
 6577SOL    HW231368   0.459   0.411  14.784 -0.6141  0.0114 -1.5011
 6578SOL     OW31369   4.164   2.447   5.102  0.2265 -0.2064  0.2332
 6578SOL    HW131370   4.089   2.409   5.055  1.2272  0.3989 -1.8175
 6578SOL    HW231371   4.118   2.478   5.180  0.9439  1.3999  0.0150
 6579SOL     OW31372   4.077   2.572   8.021  0.1263  0.6171  0.5227
 6579SOL    HW131373   4.147   2.612   8.073  1.4135 -0.5091 -0.3456
 6579SOL    HW231374   4.034   2.644   7.974  1.1358 -0.2581 -1.7367
 6580SOL     OW31375   3.055   3.645   5.424  0.2221  0.5387 -0.6509
 6580SOL    HW131376   3.024   3.718   5.479 -1.0505 -0.2562 -0.3221
 6580SOL    HW231377   3.129   3.610   5.473 -1.8674 -0.1435  2.0098
 6581SOL     OW31378   1.844   0.926   6.059 -0.2973  0.0154 -0.0181
 6581SOL    HW131379   1.936   0.945   6.072  0.2607 -1.1435 -2.3120
 6581SOL    HW231380   1.833   0.912   5.965  1.1237 -0.2244 -0.1341
 6582SOL     OW31381   0.292   0.262   2.098  0.3865 -0.1793 -0.5360
 6582SOL    HW131382   0.310   0.190   2.160  1.3074  0.2407 -0.3151
 6582SOL    HW231383   0.205   0.234   2.070 -0.2818  0.1542  1.1537
 6583SOL     OW31384   1.073   4.167   5.206 -0.3232 -0.5731  0.1194
 6583SOL    HW131385   1.040   4.128   5.287 -0.7573 -0.3057  0.0673
 6583SOL    HW231386   1.033   4.251   5.229 -1.0607 -0.5993 -1.0840
 6584SOL     OW31387   1.699   2.821   4.767  0.2119 -0.0800 -0.0531
 6584SOL    HW131388   1.700   2.726   4.775 -2.0172 -0.2905 -1.9898
 6584SOL    HW231389   1.632   2.844   4.832  1.2446 -2.3638  1.7957
 6585SOL     OW31390   1.316   4.402   6.306 -0.3990 -0.0701 -0.5755
 6585SOL    HW131391   1.405   4.387   6.338  0.4331 -0.5920 -3.0928
 6585SOL    HW231392   1.285   4.312   6.307  0.7421 -0.4547 -0.4308
 6586SOL     OW31393   4.440   3.166   4.081 -0.1703  0.2159  0.4070
 6586SOL    HW131394   4.394   3.184   3.999 -0.8311  1.2275  1.0097
 6586SOL    HW231395   4.524   3.140   4.043 -1.2644 -1.4094 -0.9143
 6587SOL     OW31396   4.283   0.590   9.186 -0.2467 -0.0500  0.4176
 6587SOL    HW131397   4.285   0.508   9.236  0.5674  0.3644  1.0608
 6587SOL    HW231398   4.205   0.574   9.133  0.3464 -1.6773  0.0329
 6588SOL     OW31399   2.148   4.496  15.777 -0.1652  0.9272  0.0001
 6588SOL    HW131400   2.175   4.576  15.821  0.8327  1.2174 -1.1354
 6588SOL    HW231401   2.150   4.530  15.687 -2.8790  0.8388 -0.0785
 6589SOL     OW31402   2.043   2.870   2.857  0.5736 -0.9977 -0.8892
 6589SOL    HW131403   1.968   2.884   2.798  0.8290 -0.8661 -1.1806
 6589SOL    HW231404   2.008   2.889   2.944 -1.8697 -1.4149 -1.7588
 6590SOL     OW31405   3.636   0.256  15.020  0.2930  0.2145  0.0107
 6590SOL    HW131406   3.619   0.185  15.082  1.1573  0.5718  0.6630
 6590SOL    HW231407   3.630   0.231  14.928  2.7893  1.6286 -0.5398
 6591SOL     OW31408   3.781   2.239  14.113 -0.1284 -0.0639  0.1982
 6591SOL    HW131409   3.735   2.155  14.110 -2.2295  1.0246  1.2513
 6591SOL    HW231410   3.868   2.208  14.090 -0.6297 -1.2544 -0.1051
 6592SOL     OW31411   2.211   0.523   4.966 -0.2480 -0.3415  0.5623
 6592SOL    HW131412   2.236   0.577   5.041 -1.4716 -0.0623  0.7766
 6592SOL    HW231413   2.169   0.589   4.912  0.2152  0.1623  0.8226
 6593SOL     OW31414   1.928   2.153   3.157 -0.5313  0.2151 -0.0273
 6593SOL    HW131415   1.971   2.228   3.116 -0.5326  0.6450  0.7621
 6593SOL    HW231416   1.955   2.168   3.248 -0.5657  0.6494 -0.0890
 6594SOL     OW31417   3.995   4.571   4.244 -0.2667 -0.0247  0.0878
 6594SOL    HW131418   3.938   4.647   4.230 -0.4163  0.0113  0.9358
 6594SOL    HW231419   4.000   4.538   4.154  1.6175  1.2976 -0.3091
 6595SOL     OW31420   3.397   1.167   2.811  0.3051  0.7378 -0.3754
 6595SOL    HW131421   3.348   1.247   2.794  1.9353  1.9448  0.5289
 6595SOL    HW231422   3.337   1.102   2.775  0.6649  0.8284 -1.1412
 6596SOL     OW31423   1.207   4.429   0.362 -0.1359  0.1439 -0.1431
 6596SOL    HW131424   1.261   4.350   0.359  0.2345  0.4521 -1.7206
 6596SOL    HW231425   1.258   4.497   0.317  0.4579  1.0688  1.9267
 6597SOL     OW31426   2.157   0.169   2.291 -0.5149 -0.0371  0.8673
 6597SOL    HW131427   2.127   0.195   2.378 -0.6154 -1.0300  1.1303
 6597SOL    HW231428   2.100   0.221   2.234 -1.4769 -1.6708  0.3372
 6598SOL     OW31429   2.820   4.246   3.993 -0.1730 -0.2075 -0.3321
 6598SOL    HW131430   2.806   4.324   4.046 -1.2556  0.6002 -1.8042
 6598SOL    HW231431   2.777   4.282   3.915  3.9046  0.4848 -2.2652
 6599SOL     OW31432   4.625   3.873   5.452  0.4709 -0.0670 -0.1136
 6599SOL    HW131433   4.708   3.907   5.421  1.5549 -1.3605  1.3810
 6599SOL    HW231434   4.573   3.885   5.372 -2.4422 -1.4825  1.5452
 6600SOL     OW31435   3.306   2.275   3.727 -0.0915  0.1729  0.6086
 6600SOL    HW131436   3.284   2.197   3.779 -1.7080  0.6510  0.6675
 6600SOL    HW231437   3.370   2.322   3.780  0.5467  0.8194 -0.7393
 6601SOL     OW31438   2.889   3.143   5.607 -0.1547  0.4685  0.3199
 6601SOL    HW131439   2.800   3.164   5.636 -0.9766 -0.2155 -1.7538
 6601SOL    HW231440   2.917   3.063   5.652 -4.4016 -0.7165  0.8162
 6602SOL     OW31441   0.421   0.307  16.458  0.0765 -0.4102  0.2418
 6602SOL    HW131442   0.416   0.347  16.545 -1.1143 -2.4377  1.1093
 6602SOL    HW231443   0.510   0.330  16.435  0.0411 -1.0011 -0.4588
 6603SOL     OW31444   4.354   1.008  14.496  0.3939  0.2904  0.2339
 6603SOL    HW131445   4.324   1.097  14.515 -2.2293 -0.3041 -1.0855
 6603SOL    HW231446   4.442   1.029  14.463  1.0438 -1.3274  0.9848
 6604SOL     OW31447   3.138   3.154   2.568 -0.3614 -0.7856 -0.2367
 6604SOL    HW131448   3.189   3.153   2.487 -0.1255  0.4222 -0.1064
 6604SOL    HW231449   3.135   3.059   2.582  0.2960 -1.0444 -1.8745
 6605SOL     OW31450   4.672   0.832   8.839 -0.0388 -0.0053 -0.0312
 6605SOL    HW131451   4.592   0.844   8.890  1.0778 -0.4344  1.8150
 6605SOL    HW231452   4.698   0.924   8.842  0.6814 -0.0695 -4.3555
 6606SOL     OW31453   3.582   2.215   8.356  0.3721  0.9184  0.1807
 6606SOL    HW131454   3.588   2.236   8.263  4.6064 -1.4255 -0.1071
 6606SOL    HW231455   3.587   2.301   8.398  0.8651 -0.4150  2.8972
 6607SOL     OW31456   1.158   0.067   7.817  0.2340  0.1732  0.5363
 6607SOL    HW131457   1.157   4.729   7.874  0.9191 -0.1297  0.1530
 6607SOL    HW231458   1.218   0.123   7.866  1.0405 -0.8130  0.6770
 6608SOL     OW31459   3.768   2.536   7.652 -0.1301  0.4653 -0.3869
 6608SOL    HW131460   3.693   2.481   7.672  2.2732 -2.9463 -0.7166
 6608SOL    HW231461   3.725   2.582   7.580  0.2785  1.4512  0.0056
 6609SOL     OW31462   0.219   3.305   5.813  0.3907 -0.0817 -0.2327
 6609SOL    HW131463   0.206   3.377   5.874  0.1758 -2.9065  3.0530
 6609SOL    HW231464   0.147   3.334   5.758  1.1239 -0.1648 -1.2376
 6610SOL     OW31465   2.108   0.629   1.541 -0.5460 -0.3675  0.0365
 6610SOL    HW131466   2.194   0.590   1.559  0.3472  0.6705 -1.8793
 6610SOL    HW231467   2.058   0.607   1.619 -0.6895 -0.2016 -0.0079
 6611SOL     OW31468   4.473   0.645   1.491 -0.4428 -0.6554  0.0132
 6611SOL    HW131469   4.418   0.710   1.533  0.3352  1.2460 -1.8968
 6611SOL    HW231470   4.456   0.573   1.553 -0.5924 -2.5900 -2.2638
 6612SOL     OW31471   2.616   3.465   2.781  0.0954  0.2789  0.1177
 6612SOL    HW131472   2.593   3.436   2.869 -1.1987 -1.9507 -0.9540
 6612SOL    HW231473   2.674   3.393   2.757  0.5257  0.2256  1.3380
 6613SOL     OW31474   4.337   2.230  14.336  0.3701 -0.6943  0.3863
 6613SOL    HW131475   4.427   2.224  14.303  0.1949 -0.4023 -0.1581
 6613SOL    HW231476   4.294   2.194  14.258 -0.3470 -1.1591  0.9961
 6614SOL     OW31477   3.106   1.828   5.279 -0.1877 -0.7352  0.0441
 6614SOL    HW131478   3.174   1.774   5.239 -0.2345  0.9094 -2.2233
 6614SOL    HW231479   3.137   1.918   5.278  0.3987 -0.9346  0.6317
 6615SOL     OW31480   3.473   2.889   2.285  0.2001 -0.5696  0.0157
 6615SOL    HW131481   3.564   2.902   2.258  0.6637  0.7727  2.1209
 6615SOL    HW231482   3.480   2.794   2.295 -1.3021 -0.4388  2.4631
 6616SOL     OW31483   4.241   4.331   6.439  0.3506  0.3295  0.1978
 6616SOL    HW131484   4.261   4.310   6.348 -1.0131  2.8718 -0.6787
 6616SOL    HW231485   4.332   4.335   6.468  0.4681  1.3187 -0.2998
 6617SOL     OW31486   3.280   1.186   8.775  0.3327 -0.3339  0.1091
 6617SOL    HW131487   3.342   1.226   8.836 -0.6613  0.6073  0.5089
 6617SOL    HW231488   3.205   1.246   8.773 -1.3533 -2.5108 -0.9660
 6618SOL     OW31489   3.732   4.264   3.773 -0.1767  0.0609  0.9951
 6618SOL    HW131490   3.698   4.352   3.754 -1.2754 -0.7840 -0.9462
 6618SOL    HW231491   3.749   4.233   3.684 -1.4927 -0.2419  0.8500
 6619SOL     OW31492   4.057   1.878   8.565  0.4495  0.8637  0.4958
 6619SOL    HW131493   4.041   1.908   8.476  2.2921  0.7625  0.1217
 6619SOL    HW231494   4.030   1.786   8.562  0.6055  0.8215  0.3970
 6620SOL     OW31495   2.612   4.189   2.097 -0.2730  0.2057 -0.0426
 6620SOL    HW131496   2.650   4.115   2.145 -0.1805 -0.1741 -0.7104
 6620SOL    HW231497   2.575   4.146   2.020 -0.2969 -0.6056  0.4289
 6621SOL     OW31498   0.297   2.469  10.582 -0.2041  0.1584  0.0494
 6621SOL    HW131499   0.261   2.542  10.531  0.8651 -0.0726 -1.0330
 6621SOL    HW231500   0.273   2.507  10.666  1.9744 -2.0357  1.6487
 6622SOL     OW31501   1.469   3.943   5.410  0.4238 -0.8169 -0.4025
 6622SOL    HW131502   1.382   3.920   5.442  0.4838 -1.7595 -0.8983
 6622SOL    HW231503   1.513   3.990   5.480 -0.3208 -1.6781  0.6383
 6623SOL     OW31504   0.647   2.975   5.525 -0.2046 -0.5209  0.2562
 6623SOL    HW131505   0.705   2.995   5.452 -1.5230  0.3567 -0.5624
 6623SOL    HW231506   0.581   3.043   5.509 -0.3077 -0.4789  0.8757
 6624SOL     OW31507   1.476   3.282   2.196 -0.7506  0.5774  0.6031
 6624SOL    HW131508   1.558   3.280   2.146 -1.9789  2.3111 -1.4394
 6624SOL    HW231509   1.491   3.221   2.269  0.7688  2.3794  1.8060
 6625SOL     OW31510   4.635   2.427   3.279 -0.2473  0.0832 -0.5027
 6625SOL    HW131511   4.624   2.516   3.314  3.6996  0.1701  0.4650
 6625SOL    HW231512   4.580   2.434   3.200 -0.0164  1.3276 -0.5515
 6626SOL     OW31513   2.094   0.670   4.756 -0.0729  0.7523 -0.2784
 6626SOL    HW131514   2.090   0.698   4.665  2.4812 -2.1573 -1.2913
 6626SOL    HW231515   2.001   0.672   4.776  0.1278 -1.7489  0.9703
 6627SOL     OW31516   0.010   2.313  10.299 -0.3888  0.2009 -0.1661
 6627SOL    HW131517   0.010   2.399  10.256 -3.7357  1.6635  2.8556
 6627SOL    HW231518   4.684   2.278  10.238 -1.6630  3.3073 -0.6155
 6628SOL     OW31519   1.402   0.869   7.512  0.5290 -0.6017 -0.2557
 6628SOL    HW131520   1.345   0.876   7.436  0.7035 -0.2215 -0.3479
 6628SOL    HW231521   1.453   0.799   7.471  2.3359  0.0238  0.9159
 6629SOL     OW31522   2.229   3.646   0.209  0.1030  0.5281 -0.1703
 6629SOL    HW131523   2.137   3.640   0.234 -0.2960  1.7726 -1.2727
 6629SOL    HW231524   2.219   3.612   0.120 -1.1935  1.1298 -0.2442
 6630SOL     OW31525   4.027   4.479   8.887 -0.3228  0.7555 -0.4883
 6630SOL    HW131526   4.067   4.565   8.869 -1.5550  1.3452 -0.3823
 6630SOL    HW231527   4.005   4.480   8.981  0.2795  0.5851 -0.3417
 6631SOL     OW31528   3.286   0.351   3.935  0.3204 -0.1317  0.0807
 6631SOL    HW131529   3.274   0.257   3.922  2.4009 -0.2865 -0.7149
 6631SOL    HW231530   3.329   0.354   4.020 -0.3545  1.3425  0.3851
 6632SOL     OW31531   1.234   2.100  14.547 -0.2504  0.2166  0.2829
 6632SOL    HW131532   1.280   2.119  14.628 -0.9740  1.3891  0.4249
 6632SOL    HW231533   1.157   2.157  14.543 -1.2053 -1.1157 -0.5446
 6633SOL     OW31534   0.272   1.729   3.536  0.4067  0.3136  0.1360
 6633SOL    HW131535   0.317   1.661   3.486 -2.0173 -0.0068 -1.6208
 6633SOL    HW231536   0.200   1.755   3.479  0.9093 -1.0411 -1.0904
 6634SOL     OW31537   0.914   2.666   6.210 -0.1285  0.6993 -0.2039
 6634SOL    HW131538   0.869   2.751   6.204  1.9725  1.7466 -1.0339
 6634SOL    HW231539   0.834   2.617   6.191  0.3306 -0.9094  2.0746
 6635SOL     OW31540   2.178   3.963   7.828 -0.3916 -0.2658 -0.1393
 6635SOL    HW131541   2.101   3.960   7.772  0.5032 -0.6505 -1.3457
 6635SOL    HW231542   2.220   3.887   7.788 -0.2779 -0.0092 -0.5115
 6636SOL     OW31543   1.876   1.793   0.797 -0.4143  0.0625  0.0238
 6636SOL    HW131544   1.889   1.706   0.834 -2.0794 -0.4145 -0.5015
 6636SOL    HW231545   1.806   1.822   0.856  0.6697  1.3779  0.6688
 6637SOL     OW31546   3.376   3.928  16.854  0.1324  0.0872  0.5022
 6637SOL    HW131547   3.374   4.006  16.799  0.0695  0.8890  1.6403
 6637SOL    HW231548   3.463   3.902  16.823  0.1422 -0.6689  1.1557
 6638SOL     OW31549   4.228   4.033   9.275  0.3200  0.0916  0.3295
 6638SOL    HW131550   4.267   4.093   9.212  2.3551 -0.9021  0.6735
 6638SOL    HW231551   4.295   3.966   9.288 -0.4110 -0.5072  1.0444
 6639SOL     OW31552   0.558   2.985  17.712  0.1235  0.0387 -0.2983
 6639SOL    HW131553   0.515   3.051   0.017 -0.8567  0.4870 -1.5961
 6639SOL    HW231554   0.514   3.006  17.630  0.8596  1.7003 -0.2715
 6640SOL     OW31555   1.390   1.539   8.352 -0.3381  0.2815  0.1651
 6640SOL    HW131556   1.432   1.459   8.321  0.1160  2.4175 -4.7059
 6640SOL    HW231557   1.313   1.509   8.400  0.1406 -0.2241  0.6152
 6641SOL     OW31558   0.083   4.683   0.160  0.2220  0.4235 -0.1241
 6641SOL    HW131559   0.017   4.676   0.090  0.2412  0.0846 -0.1080
 6641SOL    HW231560   0.027   4.646   0.228 -1.2196  2.7282 -0.0511
 6642SOL     OW31561   0.347   1.808  14.740  0.2346 -0.2895 -0.4634
 6642SOL    HW131562   0.437   1.800  14.772 -0.0987  0.5336  0.6815
 6642SOL    HW231563   0.346   1.750  14.663 -0.9691 -1.0251  0.1037
 6643SOL     OW31564   3.455   3.517  10.704 -0.4602  0.5594 -0.1541
 6643SOL    HW131565   3.366   3.491  10.725 -0.4707  0.4904 -0.2808
 6643SOL    HW231566   3.484   3.441  10.653 -0.8849  2.2254 -2.9264
 6644SOL     OW31567   0.738   1.447  11.617 -0.7017  0.0272 -0.1503
 6644SOL    HW131568   0.737   1.429  11.711 -0.2409 -2.7540 -0.6821
 6644SOL    HW231569   0.649   1.481  11.603 -0.5576 -0.1085 -1.3571
 6645SOL     OW31570   2.610   0.166  16.472  0.1751  0.2943  0.2870
 6645SOL    HW131571   2.586   0.258  16.465  1.1924  0.4648 -1.0143
 6645SOL    HW231572   2.676   0.174  16.403  0.3293 -0.4580  0.3436
 6646SOL     OW31573   2.177   3.553   4.923 -0.0946 -0.1259  0.8422
 6646SOL    HW131574   2.193   3.574   4.830 -1.7110 -2.4184  0.0524
 6646SOL    HW231575   2.084   3.573   4.913 -0.1345  0.2188  1.9728
 6647SOL     OW31576   0.845   1.745   2.484  0.6822  0.3527 -0.7101
 6647SOL    HW131577   0.808   1.802   2.416 -1.8306 -0.9227 -0.4126
 6647SOL    HW231578   0.806   1.664   2.452  0.0473  0.8239 -1.1495
 6648SOL     OW31579   3.327   2.687   3.564  0.2672 -0.2830 -0.8338
 6648SOL    HW131580   3.303   2.594   3.557  0.2251 -0.3234 -0.0877
 6648SOL    HW231581   3.372   2.691   3.479  0.4740  2.7481 -0.5590
 6649SOL     OW31582   2.446   3.324   1.875 -0.0229  0.1978 -0.2662
 6649SOL    HW131583   2.452   3.391   1.807 -2.3802  1.6945  1.0224
 6649SOL    HW231584   2.501   3.259   1.830  0.7533 -2.7794  4.8972
 6650SOL     OW31585   2.314   2.391   7.175  0.7682 -0.0481  0.2341
 6650SOL    HW131586   2.370   2.370   7.100  0.2285 -1.4150  0.2142
 6650SOL    HW231587   2.365   2.448   7.232 -1.0299  0.2765  1.5078
 6651SOL     OW31588   3.985   3.124  17.688  0.6928 -0.5081  0.4871
 6651SOL    HW131589   3.987   3.033  17.717 -1.7506 -0.1632  1.7213
 6651SOL    HW231590   4.052   3.114  17.621  1.6190  0.3889  1.2911
 6652SOL     OW31591   3.179   2.336   6.636  0.3402  0.0974 -0.2352
 6652SOL    HW131592   3.117   2.263   6.635  0.3404  0.0865  0.9947
 6652SOL    HW231593   3.256   2.286   6.609  0.4304 -0.4276  0.9887
 6653SOL     OW31594   4.306   3.963   3.283 -0.2304  0.0361  0.1534
 6653SOL    HW131595   4.264   3.917   3.355  1.7527  1.2250  2.0699
 6653SOL    HW231596   4.262   3.922   3.209 -1.1897  2.3981 -0.5984
 6654SOL     OW31597   0.325   4.252   3.682 -0.5129 -0.5000 -0.2263
 6654SOL    HW131598   0.370   4.332   3.709  1.0646 -1.5202  0.1964
 6654SOL    HW231599   0.251   4.287   3.632  0.4133  0.2559 -1.0723
 6655SOL     OW31600   0.515   1.267   3.199  0.0174 -0.1863 -0.2188
 6655SOL    HW131601   0.449   1.320   3.244 -0.7443 -0.3720 -1.1211
 6655SOL    HW231602   0.489   1.186   3.244  1.2058 -0.6218 -0.3229
 6656SOL     OW31603   4.603   3.000  10.162  0.2831 -0.0216  0.3214
 6656SOL    HW131604   4.512   2.997  10.192  0.7150 -0.5282  1.6079
 6656SOL    HW231605   4.626   3.069  10.225  1.7225  2.1912 -2.6571
 6657SOL     OW31606   3.091   1.369   8.805 -0.7706  0.3508 -0.4938
 6657SOL    HW131607   3.061   1.447   8.758  1.5109  0.2854 -2.0404
 6657SOL    HW231608   3.115   1.406   8.890 -1.3566 -0.9541  0.2468
 6658SOL     OW31609   3.149   1.233  12.518  0.2297 -0.3123 -0.0574
 6658SOL    HW131610   3.221   1.174  12.538  0.3681  0.3270  1.3530
 6658SOL    HW231611   3.173   1.283  12.440 -0.4779 -0.9090 -0.6544
 6659SOL     OW31612   1.795   0.521  12.359  0.1350  0.0652  0.4298
 6659SOL    HW131613   1.881   0.542  12.397  0.7754  1.0021 -1.5702
 6659SOL    HW231614   1.753   0.605  12.377  1.2291  1.1260 -1.9182
 6660SOL     OW31615   2.927   0.950   5.244  0.2218 -0.4220  0.6365
 6660SOL    HW131616   2.983   0.947   5.166 -0.6928 -0.8754  0.0045
 6660SOL    HW231617   2.981   1.000   5.306 -1.2102  2.0377 -0.0842
 6661SOL     OW31618   4.372   1.562   2.835  0.7419  0.3497 -0.2945
 6661SOL    HW131619   4.430   1.585   2.763  2.3089  0.1906  0.9146
 6661SOL    HW231620   4.436   1.522   2.893  1.4159 -1.4572 -2.3026
 6662SOL     OW31621   2.989   3.032  15.492  0.1311 -0.2194  0.1077
 6662SOL    HW131622   2.947   2.946  15.484 -1.0717  0.5923 -2.3364
 6662SOL    HW231623   2.912   3.087  15.507 -0.5148 -1.4809  1.3893
 6663SOL     OW31624   2.415   4.578   4.849 -0.4068  0.2446 -0.6765
 6663SOL    HW131625   2.465   4.659   4.835  0.0195  0.4621  2.0361
 6663SOL    HW231626   2.379   4.550   4.765 -1.9148  2.5924 -0.7935
 6664SOL     OW31627   1.105   0.214   8.198  0.0311 -0.5171  0.3468
 6664SOL    HW131628   1.028   0.206   8.143  0.6742 -3.7873 -0.0659
 6664SOL    HW231629   1.134   0.305   8.193  0.0858 -0.6629 -2.2253
 6665SOL     OW31630   2.882   3.317   0.893  0.4076 -0.0036 -0.6610
 6665SOL    HW131631   2.882   3.229   0.930 -0.3885  0.9234  1.5196
 6665SOL    HW231632   2.789   3.330   0.909  0.2699 -0.8484 -0.7789
 6666SOL     OW31633   2.803   4.655  14.780  0.4801  0.0665 -0.3291
 6666SOL    HW131634   2.818   0.006  14.747  1.5213  0.0360  0.0536
 6666SOL    HW231635   2.708   4.650  14.780  0.5375 -0.7215 -2.0183
 6667SOL     OW31636   3.554   4.730  11.269 -0.7498  0.0525  0.9551
 6667SOL    HW131637   3.633   0.045  11.276 -1.6681  1.4534  0.5945
 6667SOL    HW231638   3.553   4.696  11.180  0.8732  2.4600  0.0511
 6668SOL     OW31639   3.642   2.161   5.136 -0.2415  0.7414  0.8277
 6668SOL    HW131640   3.612   2.173   5.226 -2.1657  1.4006  0.1066
 6668SOL    HW231641   3.735   2.147   5.151  0.1752  1.3087 -1.3540
 6669SOL     OW31642   2.398   0.852   4.407  0.0537 -0.1858  0.0849
 6669SOL    HW131643   2.378   0.829   4.316  0.8823 -0.4109 -0.0469
 6669SOL    HW231644   2.329   0.915   4.426  1.8719  1.7600  0.2756
 6670SOL     OW31645   0.582   0.914  12.258 -0.4785 -0.6851 -0.7504
 6670SOL    HW131646   0.675   0.936  12.264 -0.6622  0.5209 -2.3459
 6670SOL    HW231647   0.563   0.941  12.348  2.2145 -1.5044  0.0646
 6671SOL     OW31648   1.061   1.042   7.154  0.0768 -0.2575  0.0711
 6671SOL    HW131649   0.988   1.032   7.216  1.7079  2.5412  2.4418
 6671SOL    HW231650   1.079   0.954   7.120  1.5243  0.2100 -0.3819
 6672SOL     OW31651   4.664   3.142   1.440 -0.0437 -0.4698 -0.1337
 6672SOL    HW131652   4.684   3.216   1.498 -0.7519 -0.9201  0.6860
 6672SOL    HW231653   4.699   3.168   1.355 -0.3265 -1.0432 -0.4185
 6673SOL     OW31654   1.149   3.724  17.528 -0.0824 -0.2895 -0.2452
 6673SOL    HW131655   1.088   3.798  17.528  1.3055  0.8854 -5.1915
 6673SOL    HW231656   1.099   3.660  17.579  0.3583 -1.2570 -1.0229
 6674SOL     OW31657   2.137   2.068   3.322  0.0286  0.2100  0.1360
 6674SOL    HW131658   2.205   2.124   3.284  0.6565 -0.5676  0.0962
 6674SOL    HW231659   2.124   2.001   3.255 -1.0517 -0.6862  1.2559
 6675SOL     OW31660   2.719   2.526   5.722 -0.5556  0.7138  0.2169
 6675SOL    HW131661   2.747   2.575   5.800 -0.1974 -3.1819  2.5325
 6675SOL    HW231662   2.681   2.448   5.763 -1.9713  1.9609  1.2542
 6676SOL     OW31663   0.447   1.063  10.707  0.2308  0.3749 -0.5298
 6676SOL    HW131664   0.363   1.087  10.746 -0.3164 -1.2748 -0.6778
 6676SOL    HW231665   0.438   0.972  10.678  1.9565  0.7879 -2.3813
 6677SOL     OW31666   3.438   4.042  16.264  0.0062  0.0430 -0.8454
 6677SOL    HW131667   3.368   4.075  16.320  0.1499  1.0264 -1.2493
 6677SOL    HW231668   3.487   3.994  16.330 -1.5468  0.6904  0.7873
 6678SOL     OW31669   1.184   4.690   2.950 -0.5926  0.0088  0.6996
 6678SOL    HW131670   1.115   0.005   2.990 -0.4692 -0.2961  1.3121
 6678SOL    HW231671   1.260   0.010   2.958 -1.5383  1.3909 -0.3326
 6679SOL     OW31672   3.320   4.401  10.456  0.2263 -0.0796 -0.2636
 6679SOL    HW131673   3.284   4.488  10.470 -0.0200 -0.4847  1.6778
 6679SOL    HW231674   3.403   4.400  10.506 -0.0380  0.2749  0.1832
 6680SOL     OW31675   1.162   1.440   5.382 -0.1260  0.5211 -0.3876
 6680SOL    HW131676   1.241   1.479   5.346  1.6604 -0.4365  2.5538
 6680SOL    HW231677   1.190   1.413   5.469 -2.5877 -1.5680 -0.2504
 6681SOL     OW31678   2.993   2.559   4.374  0.4200  0.2191 -0.5951
 6681SOL    HW131679   2.966   2.610   4.450  0.4865  0.2258 -0.5764
 6681SOL    HW231680   3.018   2.637   4.323  0.1749  0.0633 -0.9568
 6682SOL     OW31681   3.905   2.852   8.458 -0.2770  0.6241  0.1035
 6682SOL    HW131682   3.899   2.928   8.517  1.4888  0.8671 -0.0030
 6682SOL    HW231683   3.991   2.813   8.478 -1.5456 -0.8061  2.8033
 6683SOL     OW31684   1.271   4.317   4.968 -0.2480 -0.7058  0.7738
 6683SOL    HW131685   1.263   4.256   4.895 -0.0883 -0.1679  0.3031
 6683SOL    HW231686   1.180   4.338   4.988 -0.7764 -1.8051 -0.5271
 6684SOL     OW31687   4.267   2.314  14.989  0.0225  0.4569 -0.3178
 6684SOL    HW131688   4.175   2.308  15.014 -0.2150  1.8482 -0.8462
 6684SOL    HW231689   4.269   2.236  14.934 -1.4946  1.9888 -2.5344
 6685SOL     OW31690   3.706   2.961   5.857 -0.3109  0.1085  0.3644
 6685SOL    HW131691   3.767   2.911   5.803  0.0282 -0.1275  0.9655
 6685SOL    HW231692   3.696   3.043   5.809 -2.6240  1.0500  2.4434
 6686SOL     OW31693   0.632   1.213   2.283  0.2987 -0.0022 -0.4586
 6686SOL    HW131694   0.577   1.156   2.337  1.3807 -1.1649 -0.5841
 6686SOL    HW231695   0.714   1.163   2.284 -0.4835 -1.3103 -0.8766
 6687SOL     OW31696   4.595   3.382   5.380 -0.0926 -0.2454 -0.2893
 6687SOL    HW131697   4.650   3.307   5.360  0.2977 -0.0973  0.2314
 6687SOL    HW231698   4.520   3.338   5.419 -0.7594  0.2394 -1.0346
 6688SOL     OW31699   2.314   3.011   1.140  0.1086 -0.0416  0.0393
 6688SOL    HW131700   2.240   2.996   1.082  0.3067 -0.6597 -0.0593
 6688SOL    HW231701   2.377   3.036   1.072 -0.7475  1.8132 -0.0412
 6689SOL     OW31702   2.929   0.868   2.796 -0.3147 -0.5920 -0.3562
 6689SOL    HW131703   2.929   0.784   2.750  0.2171 -0.0869 -1.2720
 6689SOL    HW231704   2.882   0.921   2.731  0.0373 -3.0029 -2.5791
 6690SOL     OW31705   0.739   2.412   4.835  0.3737  0.0099  0.8488
 6690SOL    HW131706   0.738   2.379   4.925 -0.5817 -0.5158  0.6436
 6690SOL    HW231707   0.822   2.384   4.795 -0.7582 -1.6950 -0.3553
 6691SOL     OW31708   0.852   0.333   4.505  0.2810  0.0564 -0.3492
 6691SOL    HW131709   0.838   0.327   4.599  0.1171 -1.2452 -0.4565
 6691SOL    HW231710   0.947   0.325   4.501  0.2679 -0.5968  1.0183
 6692SOL     OW31711   2.437   4.160   0.391  0.0374  0.2131 -0.2247
 6692SOL    HW131712   2.394   4.080   0.361  0.5344  0.0841 -0.5896
 6692SOL    HW231713   2.422   4.142   0.484  0.7624  0.6044 -0.0290
 6693SOL     OW31714   1.912   3.407   7.211  0.0771  0.0134  0.0784
 6693SOL    HW131715   1.972   3.403   7.136  0.9099 -1.5468  0.8339
 6693SOL    HW231716   1.872   3.320   7.207 -0.3375  0.2292 -0.4630
 6694SOL     OW31717   0.278   1.877   9.427  0.4023  0.2022 -0.2032
 6694SOL    HW131718   0.357   1.929   9.408  0.9522 -1.2058 -1.8298
 6694SOL    HW231719   0.290   1.801   9.370 -2.2380 -0.5900  0.3148
 6695SOL     OW31720   3.489   1.775  12.904  0.1141  0.2430  0.2371
 6695SOL    HW131721   3.431   1.825  12.961  0.8663  0.8145  0.4958
 6695SOL    HW231722   3.560   1.836  12.884 -0.1059 -0.4896 -2.7403
 6696SOL     OW31723   4.719   2.699   2.978 -0.3255  0.1354  0.1749
 6696SOL    HW131724   4.713   2.609   2.947 -1.9469 -0.1947  1.4342
 6696SOL    HW231725   0.070   2.720   2.951 -0.5380 -3.2855 -3.2082
 6697SOL     OW31726   3.985   3.097  15.773  0.3337  0.5155 -0.3736
 6697SOL    HW131727   4.011   3.111  15.682  1.5007 -0.2883 -0.1563
 6697SOL    HW231728   3.893   3.071  15.763  0.1287  0.2709  2.3210
 6698SOL     OW31729   0.897   1.289  14.999  0.1681 -0.1471  0.2454
 6698SOL    HW131730   0.919   1.298  14.907  0.0872 -0.7114  0.1708
 6698SOL    HW231731   0.807   1.256  14.995  0.3384 -0.2627 -2.2234
 6699SOL     OW31732   0.984   2.543   7.877  0.0463 -0.2888  0.6999
 6699SOL    HW131733   0.985   2.453   7.844  0.7736  0.3898 -1.1202
 6699SOL    HW231734   1.031   2.581   7.803  1.5637 -0.7847  1.3927
 6700SOL     OW31735   0.651   1.289   1.730 -0.1946  0.7599  0.2902
 6700SOL    HW131736   0.637   1.199   1.701  2.1405  0.3874  0.2703
 6700SOL    HW231737   0.563   1.311   1.761 -0.1475  0.2877  0.7613
 6701SOL     OW31738   1.668   3.935   6.054  0.1065 -0.0457 -0.0758
 6701SOL    HW131739   1.592   3.990   6.074 -0.9106 -0.8594 -1.6848
 6701SOL    HW231740   1.630   3.860   6.008  0.3904 -0.1088 -0.2035
 6702SOL     OW31741   3.203   3.934   0.231 -0.3188  0.0876  0.0478
 6702SOL    HW131742   3.152   4.014   0.226 -0.4138  0.1055  1.2217
 6702SOL    HW231743   3.154   3.883   0.167  0.1424 -1.8861  1.2588
 6703SOL     OW31744   0.961   4.489   2.922 -0.1999 -0.0617  0.1581
 6703SOL    HW131745   1.033   4.535   2.965  1.1976 -0.4626 -1.7715
 6703SOL    HW231746   0.935   4.422   2.986  0.1864 -1.4135 -1.0902
 6704SOL     OW31747   0.450   2.403  12.353  0.2458  0.3263  0.3657
 6704SOL    HW131748   0.501   2.397  12.272 -0.1658  0.0601  0.1272
 6704SOL    HW231749   0.460   2.314  12.389  1.6610 -0.0589 -0.9960
 6705SOL     OW31750   1.102   3.725   5.852 -0.6147 -0.2599  0.6170
 6705SOL    HW131751   1.039   3.770   5.796 -0.7325  0.9694  1.7501
 6705SOL    HW231752   1.157   3.797   5.883  0.7841 -0.0378 -2.3852
 6706SOL     OW31753   2.548   3.166   2.997  0.1072 -0.2150 -0.2162
 6706SOL    HW131754   2.467   3.217   3.000  0.4193  0.1889  1.0234
 6706SOL    HW231755   2.514   3.103   2.933  0.6814 -0.1130 -0.6266
 6707SOL     OW31756   1.261   4.580   4.044 -0.1940  0.4989  0.3132
 6707SOL    HW131757   1.271   4.668   4.079 -0.0741  0.7830 -0.4380
 6707SOL    HW231758   1.342   4.543   4.080  0.8223 -1.1914 -3.5939
 6708SOL     OW31759   0.497   3.519   6.731 -0.4717 -0.2459  0.5394
 6708SOL    HW131760   0.491   3.549   6.640 -4.0146 -0.3343  0.7270
 6708SOL    HW231761   0.402   3.516   6.740 -0.5901 -1.4196 -1.0045
 6709SOL     OW31762   1.343   3.521   9.481 -0.3424 -0.0701  0.3483
 6709SOL    HW131763   1.329   3.530   9.387  1.3275 -1.0176 -0.0014
 6709SOL    HW231764   1.414   3.582   9.501  1.4703 -1.5894 -1.3671
 6710SOL     OW31765   0.762   3.736   1.814 -0.1847 -0.1338 -1.0321
 6710SOL    HW131766   0.816   3.659   1.832 -1.8736 -1.2248 -0.6018
 6710SOL    HW231767   0.677   3.713   1.776  0.1267 -1.7885 -0.7224
 6711SOL     OW31768   1.231   1.562   2.366 -0.0279 -0.1489  0.1127
 6711SOL    HW131769   1.252   1.476   2.331 -1.9226 -0.2466 -0.7823
 6711SOL    HW231770   1.200   1.522   2.448  1.1383 -0.0727  0.5950
 6712SOL     OW31771   3.289   2.858  14.768  0.1173 -0.0975  0.9795
 6712SOL    HW131772   3.228   2.816  14.707 -2.1279  0.5843  2.7490
 6712SOL    HW231773   3.365   2.801  14.758 -1.2707 -1.8801  0.5539
 6713SOL     OW31774   1.093   0.960   6.023 -0.4232 -0.5096 -0.1340
 6713SOL    HW131775   1.063   0.981   6.111  0.5701 -0.7842  0.2588
 6713SOL    HW231776   1.004   0.953   5.988  0.0235 -2.2976 -0.9288
 6714SOL     OW31777   0.215   1.109   8.589  0.5067  0.0688 -0.3160
 6714SOL    HW131778   0.120   1.114   8.605  0.6881  1.4642  0.3416
 6714SOL    HW231779   0.253   1.036   8.638 -1.6504 -2.0039 -1.6851
 6715SOL     OW31780   0.900   3.426   5.515 -0.0840 -0.1660 -0.5586
 6715SOL    HW131781   0.810   3.440   5.546  0.1240 -0.1473  0.0295
 6715SOL    HW231782   0.890   3.444   5.421 -1.3995  3.1705  0.2131
 6716SOL     OW31783   4.470   2.808   8.153  0.4092 -0.2423 -0.2872
 6716SOL    HW131784   4.547   2.794   8.098  1.9821  2.8169  1.1390
 6716SOL    HW231785   4.512   2.830   8.236 -0.4251  3.9803 -0.9414
 6717SOL     OW31786   1.589   3.237   8.425 -0.0365 -0.1589 -0.1439
 6717SOL    HW131787   1.647   3.295   8.474 -1.1591  0.5661  0.3196
 6717SOL    HW231788   1.659   3.180   8.393 -2.0515 -1.7859 -1.6187
 6718SOL     OW31789   0.864   3.737  17.603 -0.2044  0.3366  0.6753
 6718SOL    HW131790   0.861   3.830  17.627  0.1590  0.6969 -0.7118
 6718SOL    HW231791   0.808   3.731  17.526  2.1292  0.2900 -1.0003
 6719SOL     OW31792   2.123   0.005   6.340 -0.0313  0.2515  0.1836
 6719SOL    HW131793   2.207   0.007   6.294  0.9597  0.2728  1.9567
 6719SOL    HW231794   2.091   0.093   6.322  0.5978  0.2818 -0.7677
 6720SOL     OW31795   0.731   1.476   9.018  0.1143 -0.1881 -0.0600
 6720SOL    HW131796   0.747   1.452   8.926 -0.5827 -1.6226  0.1907
 6720SOL    HW231797   0.697   1.396   9.058  0.2581 -0.0107  0.4155
 6721SOL     OW31798   3.944   4.699   1.496 -0.2656 -0.0194 -0.2700
 6721SOL    HW131799   3.998   4.625   1.524 -0.7132  0.2977  1.4853
 6721SOL    HW231800   3.883   4.711   1.569 -0.8912  1.3542 -1.0256
 6722SOL     OW31801   3.871   4.371   4.507 -0.4353 -0.5014 -0.2741
 6722SOL    HW131802   3.851   4.298   4.565  1.4279  0.0418  1.0224
 6722SOL    HW231803   3.886   4.323   4.425 -0.1299  0.0075 -0.5139
 6723SOL     OW31804   2.927   1.883   6.999  0.1337 -0.2305  0.1742
 6723SOL    HW131805   2.923   1.950   7.067  0.8376  0.2501 -0.2547
 6723SOL    HW231806   2.837   1.868   6.969  1.0131 -0.4561 -2.3393
 6724SOL     OW31807   3.001   1.944   3.608 -0.0109 -0.2977  0.5045
 6724SOL    HW131808   2.980   1.903   3.691  2.0916  1.5919  1.9747
 6724SOL    HW231809   3.090   1.909   3.605  0.2069  0.3155 -0.2942
 6725SOL     OW31810   3.628   2.935  16.363 -0.4366  0.2176  0.0538
 6725SOL    HW131811   3.715   2.968  16.342 -0.5586 -0.6689 -1.8838
 6725SOL    HW231812   3.634   2.910  16.455 -0.9409  0.6178  0.1973
 6726SOL     OW31813   3.373   4.557   5.483 -0.3818  0.5473  0.0730
 6726SOL    HW131814   3.348   4.489   5.546 -2.5066 -0.2899 -1.6733
 6726SOL    HW231815   3.422   4.615   5.541 -0.7497  0.8689  0.0641
 6727SOL     OW31816   2.396   4.236   9.253 -0.2540  0.4817 -0.2736
 6727SOL    HW131817   2.439   4.318   9.278  2.0989  0.0089 -2.6898
 6727SOL    HW231818   2.461   4.175   9.289  0.3535 -0.2081 -2.5251
 6728SOL     OW31819   2.949   4.455   4.317 -0.4380  0.2478 -0.5684
 6728SOL    HW131820   3.004   4.479   4.391 -0.9615 -0.6700  0.1205
 6728SOL    HW231821   2.995   4.371   4.306 -0.1575  0.2161  0.8647
 6729SOL     OW31822   0.063   2.720   8.530 -0.4171  0.2505 -0.6239
 6729SOL    HW131823   4.729   2.780   8.508 -0.1326  0.7454 -0.1991
 6729SOL    HW231824   0.120   2.735   8.454 -1.7418 -1.6855 -2.0001
 6730SOL     OW31825   4.393   1.836   5.235 -0.4392  0.4117 -0.7143
 6730SOL    HW131826   4.364   1.753   5.196 -0.1820  0.8670 -1.8672
 6730SOL    HW231827   4.483   1.845   5.205 -0.1404  0.6568  0.2415
 6731SOL     OW31828   3.161   3.154   5.866 -0.0706  0.1736 -0.2983
 6731SOL    HW131829   3.244   3.201   5.870 -1.5137  2.7402 -0.5393
 6731SOL    HW231830   3.197   3.081   5.816 -1.9402 -1.1647  0.3182
 6732SOL     OW31831   0.425   4.721  10.895  0.0879 -0.4734 -0.5250
 6732SOL    HW131832   0.431   0.078  10.889  1.1923 -0.3881  1.8722
 6732SOL    HW231833   0.332   4.702  10.906 -0.2422  1.6919  0.2619
 6733SOL     OW31834   4.445   0.408   7.717  0.0184  0.1528 -0.2608
 6733SOL    HW131835   4.519   0.439   7.770 -0.9243  0.1891  1.0472
 6733SOL    HW231836   4.425   0.326   7.761 -1.1759  1.9041  2.5179
 6734SOL     OW31837   4.586   3.301   0.617  0.2650  0.5637 -0.0527
 6734SOL    HW131838   4.532   3.367   0.660 -1.0800 -0.1944 -0.5977
 6734SOL    HW231839   4.551   3.314   0.529  0.7207  1.8623 -0.0421
 6735SOL     OW31840   4.709   0.662   8.639 -0.3111  0.1329 -0.4858
 6735SOL    HW131841   4.715   0.581   8.689  0.6753  0.0981 -0.6596
 6735SOL    HW231842   4.670   0.717   8.707  2.9130  0.8163  0.7995
 6736SOL     OW31843   3.571   0.363   2.946 -0.0766  0.2054 -0.0537
 6736SOL    HW131844   3.638   0.322   2.890  1.5411  1.9789  0.5768
 6736SOL    HW231845   3.633   0.415   2.998 -1.4435  1.3696  0.4017
 6737SOL     OW31846   0.347   3.414   7.983 -0.6516  0.0671  0.2300
 6737SOL    HW131847   0.359   3.343   7.919 -0.8423 -0.8037  1.1532
 6737SOL    HW231848   0.420   3.466   7.950 -1.6485  1.9560  1.0117
 6738SOL     OW31849   1.603   4.402  11.865 -0.1694 -0.1911 -0.8125
 6738SOL    HW131850   1.536   4.441  11.920 -2.2647 -1.1808 -2.6320
 6738SOL    HW231851   1.649   4.484  11.849 -0.0455 -0.8332 -3.8705
 6739SOL     OW31852   3.266   0.425   0.473 -0.7290 -0.1194  0.3826
 6739SOL    HW131853   3.353   0.390   0.454 -0.6640 -1.5197  3.2867
 6739SOL    HW231854   3.272   0.516   0.442  0.5528 -0.3701 -0.1271
 6740SOL     OW31855   0.046   2.554   5.697  0.1642 -0.2219 -0.2468
 6740SOL    HW131856   4.721   2.483   5.710 -0.6639  0.6681  0.5745
 6740SOL    HW231857   0.097   2.555   5.778  1.5041  2.0918 -1.1067
 6741SOL     OW31858   0.101   1.619  14.814  0.5640 -0.1233  0.4710
 6741SOL    HW131859   0.094   1.712  14.837 -1.5297 -0.8874  2.9702
 6741SOL    HW231860   0.195   1.605  14.808  0.5337 -0.5256  0.9569
 6742SOL     OW31861   4.134   2.393  12.578 -0.5316 -0.5436 -0.1990
 6742SOL    HW131862   4.175   2.453  12.516  0.1979  0.1962  1.0008
 6742SOL    HW231863   4.211   2.387  12.634  0.3507 -0.4836 -1.3996
 6743SOL     OW31864   2.491   2.699   2.377 -0.5467 -0.4302 -0.0486
 6743SOL    HW131865   2.548   2.776   2.372  1.6384 -1.9723  0.6644
 6743SOL    HW231866   2.423   2.741   2.429 -0.8551  0.2557 -1.0152
 6744SOL     OW31867   3.556   0.585  12.622  0.4827  0.3286  0.2386
 6744SOL    HW131868   3.557   0.679  12.636  1.0834  0.2750  0.5622
 6744SOL    HW231869   3.537   0.561  12.713  2.8358  0.3938  0.7428
 6745SOL     OW31870   1.114   2.368  15.229 -0.4360  0.0362 -0.1748
 6745SOL    HW131871   1.173   2.381  15.303 -1.0703 -0.0991  0.3559
 6745SOL    HW231872   1.041   2.327  15.275 -0.0638 -0.5725 -0.1232
 6746SOL     OW31873   1.790   2.061   5.364  0.2719  0.2929 -0.3554
 6746SOL    HW131874   1.862   2.123   5.369  0.4975  0.0355 -0.4196
 6746SOL    HW231875   1.733   2.111   5.423  0.0433 -1.9367  1.3269
 6747SOL     OW31876   4.434   4.390   3.032  0.1817 -0.0999 -0.1265
 6747SOL    HW131877   4.396   4.368   3.117  1.4741  0.5319  0.6180
 6747SOL    HW231878   4.494   4.316   3.024  0.3528  0.1145 -0.8367
 6748SOL     OW31879   2.593   2.473   5.495 -0.1587 -0.1799 -0.9482
 6748SOL    HW131880   2.649   2.483   5.572 -0.6340  0.2695 -0.6630
 6748SOL    HW231881   2.629   2.395   5.453  0.0854 -1.3222  1.4012
 6749SOL     OW31882   1.531   1.684   5.329  0.3161 -0.0537 -0.0163
 6749SOL    HW131883   1.533   1.614   5.265 -1.5923 -1.0502  1.0187
 6749SOL    HW231884   1.593   1.742   5.283  0.9012 -0.3046  0.4540
 6750SOL     OW31885   3.971   1.729   5.196 -0.3047  0.2401  0.3231
 6750SOL    HW131886   4.027   1.804   5.174  1.9715 -1.3885  0.6098
 6750SOL    HW231887   4.024   1.676   5.255 -0.2574  2.2384  2.0756
 6751SOL     OW31888   4.182   4.247   4.718 -0.0147 -0.4191  0.2559
 6751SOL    HW131889   4.209   4.231   4.628  1.5214 -0.8787  0.8020
 6751SOL    HW231890   4.157   4.339   4.712  0.8085 -0.1342  1.2937
 6752SOL     OW31891   2.999   2.951   8.585 -0.7467 -0.0836 -0.2959
 6752SOL    HW131892   3.017   2.883   8.520 -2.4186 -0.0124 -0.8412
 6752SOL    HW231893   2.908   2.931   8.605 -0.5677  1.2073  1.8158
 6753SOL     OW31894   1.992   1.490   9.079 -0.0385  0.2306 -0.6224
 6753SOL    HW131895   2.058   1.549   9.116 -1.4635 -0.0394  2.3513
 6753SOL    HW231896   2.007   1.418   9.140  2.5770  0.3259 -1.1591
 6754SOL     OW31897   0.629   2.312  14.599 -0.4579 -0.1581 -0.0717
 6754SOL    HW131898   0.599   2.233  14.644 -0.2208 -0.0860  0.2119
 6754SOL    HW231899   0.623   2.278  14.510  0.2068 -0.2065 -0.0961
 6755SOL     OW31900   0.217   1.332  13.954  0.3573 -0.6220  0.3725
 6755SOL    HW131901   0.197   1.421  13.984  2.4184 -0.0145 -0.1069
 6755SOL    HW231902   0.215   1.282  14.036 -0.0664  0.4980  1.0580
 6756SOL     OW31903   3.062   1.816   8.090  0.0301  0.1799 -0.2812
 6756SOL    HW131904   3.157   1.824   8.099 -0.0561  0.8514  0.0629
 6756SOL    HW231905   3.039   1.909   8.080  2.6760  0.7923 -0.7874
 6757SOL     OW31906   1.015   1.470  12.093 -0.5248  0.0672  0.2949
 6757SOL    HW131907   0.978   1.382  12.095  0.8506 -0.5224 -0.2952
 6757SOL    HW231908   1.105   1.443  12.076 -0.4385 -0.0694  0.9783
 6758SOL     OW31909   4.399   2.825   2.861  0.3053 -0.0820 -0.4245
 6758SOL    HW131910   4.485   2.838   2.821  1.0043 -2.4318  0.3280
 6758SOL    HW231911   4.354   2.890   2.806 -0.0246  1.3228  1.4780
 6759SOL     OW31912   2.042   1.387  14.883  0.3013 -0.0776 -0.4209
 6759SOL    HW131913   2.019   1.333  14.959  0.8067 -0.5281 -0.5900
 6759SOL    HW231914   1.999   1.471  14.896 -0.4035 -0.3479 -1.0264
 6760SOL     OW31915   0.159   3.200   4.784 -0.4253  0.1014  0.4946
 6760SOL    HW131916   0.073   3.159   4.775 -0.3511 -0.2328  1.2706
 6760SOL    HW231917   0.170   3.167   4.873  2.3258  2.3919  0.9860
 6761SOL     OW31918   3.169   3.880   6.831 -0.1707  0.0813  0.2080
 6761SOL    HW131919   3.138   3.949   6.772  0.8418 -0.5066 -1.0247
 6761SOL    HW231920   3.208   3.808   6.782 -2.6859 -0.9154 -0.3562
 6762SOL     OW31921   0.480   0.630   9.102  0.1808  0.1484 -0.0692
 6762SOL    HW131922   0.474   0.667   9.190  2.7839  3.0064 -1.0979
 6762SOL    HW231923   0.430   0.550   9.115  0.1165  0.2839  0.5391
 6763SOL     OW31924   3.100   4.272   4.933  0.3153  1.3300  0.0445
 6763SOL    HW131925   3.124   4.262   4.840 -0.5112  2.0804 -0.2518
 6763SOL    HW231926   3.033   4.341   4.930  1.0781  2.0753 -0.0315
 6764SOL     OW31927   4.578   3.116   0.132  0.1480 -0.0564 -0.4906
 6764SOL    HW131928   4.501   3.084   0.087 -0.0949 -1.9353  1.2444
 6764SOL    HW231929   4.540   3.179   0.193  1.4719  1.2782 -1.0371
 6765SOL     OW31930   4.351   2.563   8.136  0.1994 -0.1249 -0.4287
 6765SOL    HW131931   4.365   2.532   8.047  1.4932 -0.8579  0.0357
 6765SOL    HW231932   4.397   2.647   8.134 -0.8366  0.5067  2.5387
 6766SOL     OW31933   4.050   0.808   5.005 -0.1556  0.0337  0.4524
 6766SOL    HW131934   3.990   0.881   5.018 -0.6164 -0.1356 -0.6984
 6766SOL    HW231935   4.083   0.808   5.094 -0.8581 -0.2769  0.7166
 6767SOL     OW31936   1.859   0.486   5.719 -0.9041 -0.2416 -0.5181
 6767SOL    HW131937   1.933   0.427   5.710 -0.1534  0.8023 -1.1684
 6767SOL    HW231938   1.872   0.510   5.810  2.4949  2.2990 -1.6731
 6768SOL     OW31939   3.864   2.696   4.370 -0.3174 -0.0022  0.0943
 6768SOL    HW131940   3.861   2.781   4.415  1.9484 -0.6513  1.4732
 6768SOL    HW231941   3.771   2.675   4.366 -0.9441  2.6014  1.0780
 6769SOL     OW31942   3.347   3.307   1.823 -0.3457  0.1062  0.5406
 6769SOL    HW131943   3.362   3.318   1.917 -1.0839 -2.8882  1.0035
 6769SOL    HW231944   3.341   3.401   1.804  0.6292  0.2445  0.9153
 6770SOL     OW31945   2.091   2.157  12.704  0.1421 -0.1225 -0.3682
 6770SOL    HW131946   2.165   2.147  12.646 -1.3159 -0.3113 -2.1947
 6770SOL    HW231947   2.017   2.131  12.649  0.5991 -2.8888  0.3746
 6771SOL     OW31948   2.039   3.373  11.638  0.1649 -0.3998  0.3685
 6771SOL    HW131949   1.984   3.317  11.694 -0.2778  1.9046  2.2155
 6771SOL    HW231950   2.065   3.455  11.680  0.3114 -0.9753  1.4011
 6772SOL     OW31951   2.332   1.137   8.389 -0.2567 -0.1269 -0.0466
 6772SOL    HW131952   2.405   1.126   8.327 -1.1017  0.4580 -1.1520
 6772SOL    HW231953   2.262   1.135   8.324 -0.0542 -0.4770 -0.2550
 6773SOL     OW31954   0.187   3.874   8.166 -0.1744 -0.0753 -0.0104
 6773SOL    HW131955   0.131   3.889   8.243  0.4038 -1.9187  0.7623
 6773SOL    HW231956   0.190   3.780   8.151  0.1113 -0.1041  0.2221
 6774SOL     OW31957   1.996   4.646   2.531 -1.2652  0.0078  0.0243
 6774SOL    HW131958   2.068   4.694   2.491 -0.8169 -1.3987 -0.8664
 6774SOL    HW231959   2.026   4.644   2.621 -1.7336 -0.1744  0.1758
 6775SOL     OW31960   2.746   1.339   9.497 -0.0615 -0.1579  0.0285
 6775SOL    HW131961   2.760   1.398   9.572  0.9087 -2.3258  1.5645
 6775SOL    HW231962   2.728   1.399   9.424 -1.8004 -1.8070 -0.8874
 6776SOL     OW31963   2.074   1.116   2.524  0.3860 -0.1834  0.1978
 6776SOL    HW131964   2.073   1.048   2.457  0.4264  0.8880 -0.9088
 6776SOL    HW231965   2.109   1.073   2.601 -1.3006 -0.4969  0.7805
 6777SOL     OW31966   0.609   0.162   3.922  0.4102 -0.7822  1.0068
 6777SOL    HW131967   0.558   0.228   3.876  1.0873  0.5878  2.2293
 6777SOL    HW231968   0.635   0.215   3.997  3.3634 -0.1094 -0.4892
 6778SOL     OW31969   0.312   1.013   7.900  0.3807 -0.7222 -0.0872
 6778SOL    HW131970   0.332   0.925   7.869  0.1004 -0.7328 -0.2359
 6778SOL    HW231971   0.329   1.001   7.994  4.2200 -0.3026 -0.7162
 6779SOL     OW31972   2.754   3.956   3.969  0.0857  0.2311  0.4480
 6779SOL    HW131973   2.659   3.961   3.978 -0.0022 -0.1596 -0.2283
 6779SOL    HW231974   2.775   4.035   4.019  3.4833 -0.8131  0.6579
 6780SOL     OW31975   0.521   0.678   3.818  0.2883 -0.3833  0.5817
 6780SOL    HW131976   0.596   0.620   3.804  0.8659  0.1092  1.6392
 6780SOL    HW231977   0.449   0.634   3.773  0.1663 -0.4096  0.8028
 6781SOL     OW31978   4.066   3.962   6.749 -0.0335  0.4709  0.6430
 6781SOL    HW131979   4.053   3.965   6.844 -0.9404  0.6874  0.5093
 6781SOL    HW231980   4.052   4.055   6.737 -1.4551  0.2963  0.9524
 6782SOL     OW31981   0.934   0.006   3.459  0.9295  0.5442  0.3401
 6782SOL    HW131982   0.983   4.662   3.444 -0.4908 -0.0122 -1.2793
 6782SOL    HW231983   0.965   0.035   3.545 -1.9966  0.2483  1.4809
 6783SOL     OW31984   4.726   1.022  17.132 -0.1566 -0.1839  0.3757
 6783SOL    HW131985   0.034   1.102  17.157 -1.3712  0.2515  1.2341
 6783SOL    HW231986   0.017   0.962  17.201 -0.4131  0.5751  1.1426
 6784SOL     OW31987   4.704   3.785   6.213 -0.4699 -0.3197  0.4253
 6784SOL    HW131988   4.653   3.833   6.278  1.2203 -0.0064  1.5105
 6784SOL    HW231989   4.663   3.699   6.216  2.3840 -1.7349 -1.6921
 6785SOL     OW31990   0.835   2.159   8.106  0.5733 -0.0944  0.1064
 6785SOL    HW131991   0.890   2.098   8.157  1.1008  0.6617  0.4577
 6785SOL    HW231992   0.753   2.114   8.125  0.4166  0.9136  1.8577
 6786SOL     OW31993   2.048   2.040   6.264  0.3615  0.4630  0.3491
 6786SOL    HW131994   1.985   2.070   6.199 -0.0246  0.3278  0.6667
 6786SOL    HW231995   2.106   1.988   6.208 -0.8787  1.5067 -1.9266
 6787SOL     OW31996   2.537   4.110   1.545 -0.3070  0.2082  0.1415
 6787SOL    HW131997   2.602   4.046   1.573  0.5279  1.8596  1.9426
 6787SOL    HW231998   2.493   4.120   1.629 -1.6964  0.4154 -0.6065
 6788SOL     OW31999   4.498   0.875  17.273  0.1160  0.2450  0.5022
 6788SOL    HW132000   4.527   0.926  17.197 -1.2851  0.3437  0.0236
 6788SOL    HW232001   4.558   0.892  17.345  0.1723  0.4549  0.4083
 6789SOL     OW32002   4.188   4.689   1.984 -0.4171  0.0504 -0.3703
 6789SOL    HW132003   4.215   4.638   2.060 -3.9985  1.6538  1.9195
 6789SOL    HW232004   4.148   4.617   1.934 -1.0341 -1.5600  2.4360
 6790SOL     OW32005   2.958   0.603   8.635  0.2889  0.5447  0.0822
 6790SOL    HW132006   2.947   0.508   8.630 -1.7816  0.8854 -2.0235
 6790SOL    HW232007   3.032   0.596   8.694  1.7117  1.2126 -1.6217
 6791SOL     OW32008   1.528   0.783   1.305 -0.5940 -0.0000 -0.1596
 6791SOL    HW132009   1.600   0.733   1.266  0.0218  1.4940 -0.9403
 6791SOL    HW232010   1.488   0.706   1.346  2.2554 -0.1785  2.2785
 6792SOL     OW32011   1.117   4.552   7.485  0.1207 -0.4788 -0.3407
 6792SOL    HW132012   1.077   4.479   7.533 -1.5460  0.3311 -0.4978
 6792SOL    HW232013   1.208   4.540   7.512  0.1168 -1.0853 -0.5887
 6793SOL     OW32014   0.460   1.094   3.980  0.2367  0.4435  0.1463
 6793SOL    HW132015   0.437   1.016   4.031  1.1125  2.5161  3.7242
 6793SOL    HW232016   0.546   1.117   4.015 -0.9585  0.5917  2.9654
 6794SOL     OW32017   0.663   2.992   6.441 -0.2103 -0.3155  0.3109
 6794SOL    HW132018   0.654   3.072   6.493 -2.6487  1.9853 -3.5937
 6794SOL    HW232019   0.681   3.036   6.357  1.2956 -1.3572  0.0884
 6795SOL     OW32020   2.698   4.174   6.744 -0.2985 -0.8376  0.5719
 6795SOL    HW132021   2.756   4.099   6.733  0.7978 -0.1358  1.5633
 6795SOL    HW232022   2.741   4.210   6.822  0.1069  1.3592 -0.6518
 6796SOL     OW32023   2.960   4.338  14.059  0.4762 -0.1590 -0.1538
 6796SOL    HW132024   2.922   4.416  14.018  1.2002  0.4486  0.3369
 6796SOL    HW232025   2.914   4.271  14.009  0.2974 -0.3357  0.2460
 6797SOL     OW32026   0.352   1.573   8.749  0.3178  0.1695 -0.0479
 6797SOL    HW132027   0.283   1.639   8.742  0.4013  0.3810  1.2000
 6797SOL    HW232028   0.432   1.624   8.738  0.9450 -0.5319  1.2762
 6798SOL     OW32029   0.956   3.553   1.862  0.4094  0.0952 -0.1469
 6798SOL    HW132030   1.038   3.521   1.823  0.4619 -0.4215  0.3960
 6798SOL    HW232031   0.995   3.637   1.885  1.3220 -0.2548 -0.3906
 6799SOL     OW32032   0.859   2.223   5.381 -1.0091 -0.3405 -0.3382
 6799SOL    HW132033   0.877   2.129   5.385  0.3295 -0.1562 -1.9945
 6799SOL    HW232034   0.930   2.260   5.433 -1.8157 -1.1478  1.3092
 6800SOL     OW32035   2.383   3.542   1.164 -0.2011 -0.4402  0.3168
 6800SOL    HW132036   2.403   3.474   1.098  2.8314  0.8350 -0.0633
 6800SOL    HW232037   2.293   3.558   1.135  0.2274 -0.6482 -1.1678
 6801SOL     OW32038   3.592   1.995   0.477 -0.0548  0.4720 -0.7043
 6801SOL    HW132039   3.498   1.992   0.495 -0.2330  2.1931 -1.2933
 6801SOL    HW232040   3.627   1.907   0.468  1.2609  0.9503 -0.2037
 6802SOL     OW32041   2.094   2.391   9.222 -0.1042  0.0009  0.3831
 6802SOL    HW132042   2.115   2.327   9.154  0.9757  0.9658 -0.2024
 6802SOL    HW232043   2.070   2.468   9.170  0.2283 -0.7159 -0.8408
 6803SOL     OW32044   0.504   4.639  16.634 -0.2496 -0.5745 -0.0513
 6803SOL    HW132045   0.554   4.584  16.694 -2.3798 -0.7330  1.5708
 6803SOL    HW232046   0.552   4.635  16.551  0.8623  0.1400  0.5436
 6804SOL     OW32047   3.289   1.514   5.728  0.3246  0.0738  0.0518
 6804SOL    HW132048   3.239   1.524   5.646  2.2093 -1.4573 -1.2721
 6804SOL    HW232049   3.328   1.427   5.719  0.6853  0.4031 -1.6667
 6805SOL     OW32050   3.902   2.059   9.085  0.2867  0.8390  0.7464
 6805SOL    HW132051   3.856   2.143   9.076 -1.4333 -0.0420  1.2069
 6805SOL    HW232052   3.990   2.085   9.110 -0.1845 -1.0238  4.3728
 6806SOL     OW32053   2.950   4.066   3.755 -0.2172 -0.7137 -0.2287
 6806SOL    HW132054   2.879   4.084   3.816 -0.5060 -1.1118 -0.4453
 6806SOL    HW232055   2.924   4.111   3.674  3.0575  2.7425  0.6166
 6807SOL     OW32056   3.215   3.482  15.735  0.5031  0.5482 -0.4650
 6807SOL    HW132057   3.240   3.461  15.645  0.0753  0.7919 -0.6422
 6807SOL    HW232058   3.304   3.489  15.768 -0.7947 -1.0359  3.4433
 6808SOL     OW32059   1.948   0.815   7.549 -0.7315  0.0395  0.3423
 6808SOL    HW132060   1.975   0.724   7.536  2.0489  1.2876 -2.4721
 6808SOL    HW232061   2.029   0.865   7.557 -0.4027 -0.2512 -1.1840
 6809SOL     OW32062   4.707   3.204   3.979  0.4856  0.2213  0.7562
 6809SOL    HW132063   0.035   3.219   4.047  3.0304 -1.2080 -1.3772
 6809SOL    HW232064   4.679   3.294   3.962 -0.5262  0.0727  1.6831
 6810SOL     OW32065   4.623   0.031   8.744 -0.0689 -0.2308  0.1206
 6810SOL    HW132066   4.688   0.016   8.812 -0.7345  1.8048  1.1807
 6810SOL    HW232067   4.678   0.024   8.666  0.2812 -0.8810  0.4234
 6811SOL     OW32068   3.153   4.201   3.177 -0.1487  0.6759 -0.1037
 6811SOL    HW132069   3.060   4.208   3.198 -0.5476 -0.2060 -1.6313
 6811SOL    HW232070   3.174   4.108   3.173 -2.9753  0.0678 -0.8706
 6812SOL     OW32071   4.101   1.634  11.573  0.4150 -0.4622 -0.4237
 6812SOL    HW132072   4.181   1.629  11.626  0.5154  0.6969 -0.4701
 6812SOL    HW232073   4.033   1.623  11.640 -0.4945 -0.3611 -1.3346
 6813SOL     OW32074   0.154   4.097   0.041 -0.5773  0.2551 -0.1722
 6813SOL    HW132075   0.126   4.080  17.701  0.1681 -1.3483 -0.1081
 6813SOL    HW232076   0.238   4.051   0.046 -0.9566 -0.4265  0.0020
 6814SOL     OW32077   3.632   2.760   8.191 -0.3612 -0.1499 -0.4575
 6814SOL    HW132078   3.649   2.844   8.150  0.9978 -0.6082 -0.8336
 6814SOL    HW232079   3.568   2.787   8.258 -0.6396 -0.7147 -0.4945
 6815SOL     OW32080   0.713   0.734   7.427  0.4660  0.1907 -0.0145
 6815SOL    HW132081   0.623   0.737   7.395  0.3143  1.1160  0.4812
 6815SOL    HW232082   0.702   0.640   7.437 -0.5834  0.3851  0.6602
 6816SOL     OW32083   1.819   3.213  11.772 -0.2250  0.2440 -0.2749
 6816SOL    HW132084   1.841   3.190  11.862  1.0474  1.9495 -0.1329
 6816SOL    HW232085   1.789   3.131  11.735 -0.3038 -0.0813  0.5071
 6817SOL     OW32086   2.756   1.393   2.097 -0.6220  0.7064 -0.0693
 6817SOL    HW132087   2.816   1.402   2.023  0.2606 -0.1107  0.5327
 6817SOL    HW232088   2.790   1.457   2.160  0.2024  0.2639 -0.0623
 6818SOL     OW32089   3.944   0.733   3.725 -0.1871  0.3107 -0.0631
 6818SOL    HW132090   3.991   0.749   3.806  0.2913 -2.0619  0.1274
 6818SOL    HW232091   3.983   0.804   3.674  1.5429 -1.2358 -0.8908
 6819SOL     OW32092   3.868   0.176  13.995  0.8757  0.6343  0.4000
 6819SOL    HW132093   3.897   0.210  14.079 -0.7805  1.7355  0.5419
 6819SOL    HW232094   3.876   0.256  13.944 -1.9355 -0.0033 -1.0676
 6820SOL     OW32095   2.434   0.339   4.168  0.0418 -0.4054  0.0861
 6820SOL    HW132096   2.468   0.424   4.137  0.3737 -0.7251 -0.4351
 6820SOL    HW232097   2.465   0.335   4.258  1.0785  2.3993 -0.1335
 6821SOL     OW32098   3.114   4.683   3.777 -0.2108 -0.4485 -1.0180
 6821SOL    HW132099   3.090   0.010   3.711 -0.1135  0.5566 -0.0506
 6821SOL    HW232100   3.194   4.652   3.735  0.5353 -0.1757  0.2380
 6822SOL     OW32101   0.049   0.788   8.236 -0.2135 -0.1505  0.2896
 6822SOL    HW132102   0.058   0.882   8.217 -0.6852  0.2692  2.1895
 6822SOL    HW232103   0.115   0.763   8.170  1.5376  3.1880  0.7517
 6823SOL     OW32104   3.542   1.900  16.490 -0.0956  0.5906  0.1582
 6823SOL    HW132105   3.618   1.865  16.536  0.0280  0.9518  0.2362
 6823SOL    HW232106   3.563   1.993  16.482  1.9987  0.0274 -0.6079
 6824SOL     OW32107   3.760   0.897   7.359 -0.1211 -0.9755  0.2931
 6824SOL    HW132108   3.766   0.900   7.454 -4.6411  0.7752  0.5333
 6824SOL    HW232109   3.705   0.974   7.342  0.0780 -1.2408 -1.5646
 6825SOL     OW32110   1.854   3.279  12.502 -0.3183  0.6068  0.3212
 6825SOL    HW132111   1.944   3.312  12.507  0.0178 -0.1909 -0.4252
 6825SOL    HW232112   1.858   3.195  12.548  1.1845 -0.2286 -1.3618
 6826SOL     OW32113   2.969   2.424   3.661 -0.5879  0.7088  0.0548
 6826SOL    HW132114   2.999   2.440   3.751 -0.2649 -1.5063  0.3462
 6826SOL    HW232115   2.929   2.337   3.660  1.3635 -0.1892 -0.6462
 6827SOL     OW32116   0.378   1.991   6.114  0.0292  0.0037 -0.6946
 6827SOL    HW132117   0.399   2.012   6.023  0.2446 -1.7331 -1.0544
 6827SOL    HW232118   0.308   1.926   6.106 -0.6630  0.8766 -1.6145
 6828SOL     OW32119   1.604   0.759  16.860  0.3071  0.0418 -0.5984
 6828SOL    HW132120   1.680   0.791  16.813 -0.7604  1.7600 -1.1766
 6828SOL    HW232121   1.611   0.823  16.931  0.5216  1.2900 -1.7657
 6829SOL     OW32122   2.490   3.346   0.966 -0.3436  0.2375 -0.1000
 6829SOL    HW132123   2.536   3.329   0.884  1.2346  1.4622  0.5314
 6829SOL    HW232124   2.448   3.260   0.970  1.1021 -0.5227 -1.2352
 6830SOL     OW32125   1.816   0.671   4.834 -0.2987 -0.2173 -0.3545
 6830SOL    HW132126   1.784   0.598   4.887  0.1267 -0.4802 -0.4650
 6830SOL    HW232127   1.765   0.665   4.753 -0.8458  1.8113 -0.1713
 6831SOL     OW32128   2.579   0.102  15.197 -0.3788  0.7483 -0.0382
 6831SOL    HW132129   2.551   0.015  15.166 -2.3824  1.6442 -0.7595
 6831SOL    HW232130   2.603   0.081  15.287 -0.1345  1.9891  0.1778
 6832SOL     OW32131   1.002   0.109   2.247 -0.1677 -0.2476  0.1058
 6832SOL    HW132132   0.984   0.015   2.241  0.9673 -0.4462 -0.2219
 6832SOL    HW232133   1.066   0.127   2.316 -0.5707 -1.2908  0.7516
 6833SOL     OW32134   2.467   3.328   3.408  0.5555 -0.4225  0.2873
 6833SOL    HW132135   2.449   3.395   3.474 -0.4156  1.0371 -1.4388
 6833SOL    HW232136   2.555   3.347   3.374  0.8775 -3.1655 -0.3989
 6834SOL     OW32137   3.308   3.436   6.950 -0.4472 -0.2728 -0.4267
 6834SOL    HW132138   3.354   3.352   6.937  0.7665  0.2925  0.1874
 6834SOL    HW232139   3.225   3.406   6.988  1.0335 -0.6158  2.5750
 6835SOL     OW32140   0.399   4.101   5.015 -0.4350 -0.3764  0.3273
 6835SOL    HW132141   0.410   4.016   5.058  1.2033  0.6057  1.8335
 6835SOL    HW232142   0.343   4.134   5.085 -1.9607 -0.0047 -1.0744
 6836SOL     OW32143   1.186   3.677   2.230 -0.0353 -0.0124 -0.2299
 6836SOL    HW132144   1.215   3.734   2.159  0.6373  2.2725  1.8994
 6836SOL    HW232145   1.236   3.720   2.299  1.1796 -1.7551 -0.0171
 6837SOL     OW32146   2.684   1.739   6.802 -0.7535 -0.0091  0.2904
 6837SOL    HW132147   2.772   1.723   6.767  0.4996  0.6141  3.1353
 6837SOL    HW232148   2.636   1.732   6.720 -0.8006  1.5390  0.1905
 6838SOL     OW32149   2.192   3.158   8.512  0.4541 -0.7373 -0.0019
 6838SOL    HW132150   2.114   3.209   8.493  0.8500  0.5470  1.8252
 6838SOL    HW232151   2.260   3.218   8.541  0.3710 -1.1561  1.0627
 6839SOL     OW32152   4.673   0.904  17.485  0.3492 -0.9340 -0.2458
 6839SOL    HW132153   0.024   0.901  17.521  0.5743 -1.8675 -0.8658
 6839SOL    HW232154   4.628   0.941  17.560 -1.3577 -0.2049 -1.6283
 6840SOL     OW32155   2.644   4.389   7.844 -0.2111  0.1462  0.0564
 6840SOL    HW132156   2.607   4.308   7.808 -3.2198  1.4697  0.2133
 6840SOL    HW232157   2.577   4.419   7.905 -0.6071 -2.4125  0.8899
 6841SOL     OW32158   3.926   0.308  11.751  0.2968 -0.2485 -0.3236
 6841SOL    HW132159   3.890   0.395  11.735  2.0788  0.3953 -0.8831
 6841SOL    HW232160   3.927   0.310  11.846  3.4020 -1.9643 -0.3162
 6842SOL     OW32161   3.864   3.841   4.788  0.0990  0.4575  0.3902
 6842SOL    HW132162   3.888   3.833   4.695  1.7831 -2.3944  1.0629
 6842SOL    HW232163   3.891   3.932   4.805  0.3225  0.2926  0.9226
 6843SOL     OW32164   0.852   0.644   4.399  0.3798 -0.0711 -0.4696
 6843SOL    HW132165   0.849   0.558   4.442  1.7893 -0.0918 -0.4306
 6843SOL    HW232166   0.943   0.667   4.417 -0.1834  1.4187  0.4227
 6844SOL     OW32167   2.510   1.069   5.361  0.5695 -0.4834  0.6401
 6844SOL    HW132168   2.506   0.974   5.350  0.4965 -0.0457 -3.1865
 6844SOL    HW232169   2.502   1.087   5.455  1.3878 -1.3287  0.8714
 6845SOL     OW32170   0.187   0.357   6.647 -0.1069 -0.7086  0.5628
 6845SOL    HW132171   0.226   0.340   6.733 -0.0937  2.9294  1.2745
 6845SOL    HW232172   0.095   0.357   6.671  0.1472  1.2935  1.5247
 6846SOL     OW32173   4.087   1.894   3.964 -0.1202 -0.2487 -0.4114
 6846SOL    HW132174   4.067   1.849   3.882  1.5671 -0.2090 -0.8450
 6846SOL    HW232175   4.043   1.835   4.026 -2.4447  0.4167 -1.4508
 6847SOL     OW32176   1.743   2.411   5.180  0.0024  0.2317  0.0501
 6847SOL    HW132177   1.717   2.414   5.272 -1.6727  1.2437 -0.4465
 6847SOL    HW232178   1.679   2.354   5.137 -1.2186  2.1049 -0.6208
 6848SOL     OW32179   4.494   3.891   8.106 -0.0985 -0.0504  0.1851
 6848SOL    HW132180   4.527   3.879   8.195  2.4433 -1.0238 -0.8871
 6848SOL    HW232181   4.426   3.824   8.096 -1.1982  0.9627  0.9973
 6849SOL     OW32182   0.814   2.129  17.253 -0.3719  0.4121 -0.0829
 6849SOL    HW132183   0.759   2.155  17.327 -0.8388  2.1546 -1.0550
 6849SOL    HW232184   0.771   2.188  17.191 -0.0530 -1.8374 -2.4539
 6850SOL     OW32185   3.798   1.062   8.582 -0.2176  0.7076  0.0692
 6850SOL    HW132186   3.849   1.024   8.654 -0.5302 -0.5230 -0.3622
 6850SOL    HW232187   3.823   1.154   8.584  0.6572  0.4931 -1.7446
 6851SOL     OW32188   3.200   1.789   9.602 -0.1600  0.3733  0.0334
 6851SOL    HW132189   3.167   1.864   9.553 -0.6763  0.5256  0.6156
 6851SOL    HW232190   3.145   1.722   9.562 -0.5659  0.0364  1.1567
 6852SOL     OW32191   1.552   3.810  17.476 -0.7922 -0.0736  0.2523
 6852SOL    HW132192   1.585   3.837  17.562  0.1184  1.2299 -0.5073
 6852SOL    HW232193   1.634   3.785  17.433 -0.1890  0.8726  0.8572
 6853SOL     OW32194   0.577   1.063   7.403 -0.5420 -0.5502  0.8426
 6853SOL    HW132195   0.486   1.036   7.394 -0.8150  0.8966 -0.6496
 6853SOL    HW232196   0.576   1.093   7.494  0.9119  2.1084 -0.0056
 6854SOL     OW32197   0.041   1.584   7.816 -0.0058 -0.0070  0.2544
 6854SOL    HW132198   0.083   1.624   7.740  2.2467  0.5021  1.7763
 6854SOL    HW232199   0.026   1.660   7.873 -0.2067  1.2410 -1.4801
 6855SOL     OW32200   1.331   4.036   3.616 -0.5487  0.1747 -0.2675
 6855SOL    HW132201   1.365   4.084   3.541 -1.9682 -0.8096 -1.5531
 6855SOL    HW232202   1.239   4.059   3.603  0.0994  2.0260 -1.6009
 6856SOL     OW32203   0.937   3.538  10.675  0.2130 -0.4888  0.1095
 6856SOL    HW132204   0.978   3.625  10.677 -1.2146  0.1990 -0.5563
 6856SOL    HW232205   0.879   3.550  10.750 -0.3197  2.2408 -0.7437
 6857SOL     OW32206   4.486   4.478   7.781 -0.1372 -0.2800  0.2179
 6857SOL    HW132207   4.401   4.469   7.825 -0.4052  2.2744  0.2216
 6857SOL    HW232208   4.477   4.443   7.692  0.6814 -0.4891  0.2231
 6858SOL     OW32209   1.779   1.886   9.424 -0.1687 -0.0882 -0.1211
 6858SOL    HW132210   1.826   1.904   9.342  1.2504  3.2764  1.4726
 6858SOL    HW232211   1.717   1.957   9.411  0.4825  0.3154 -1.0574
 6859SOL     OW32212   2.626   4.307   3.330  0.5155  0.5585 -0.5011
 6859SOL    HW132213   2.599   4.380   3.386  1.4800  1.7585 -1.6100
 6859SOL    HW232214   2.556   4.321   3.265  1.0621 -0.7369 -1.3672
 6860SOL     OW32215   3.114   3.802   9.328 -0.2436 -0.1905 -0.5853
 6860SOL    HW132216   3.090   3.730   9.269 -3.6047  2.0542 -1.9544
 6860SOL    HW232217   3.104   3.884   9.280  1.2129  0.8017  0.8556
 6861SOL     OW32218   1.887   2.464   0.627  0.0047 -0.7531 -0.2949
 6861SOL    HW132219   1.954   2.409   0.586  1.4978  2.6807 -2.4675
 6861SOL    HW232220   1.856   2.516   0.553 -0.8226 -2.4421 -1.1584
 6862SOL     OW32221   1.250   4.688   9.088 -0.5609 -0.3124  0.4041
 6862SOL    HW132222   1.188   4.616   9.096  0.3183 -1.0057  0.9213
 6862SOL    HW232223   1.323   4.634   9.057  1.2047  3.0365 -1.2588
 6863SOL     OW32224   2.275   4.544   0.363  0.5714 -0.2629 -0.4247
 6863SOL    HW132225   2.280   4.532   0.268  0.0590 -0.9292 -0.3655
 6863SOL    HW232226   2.247   4.634   0.377  0.1987 -0.2746 -1.1309
 6864SOL     OW32227   0.226   0.899  14.792  0.2317 -0.3939 -0.2064
 6864SOL    HW132228   0.158   0.925  14.730 -0.9432 -0.5059  1.0130
 6864SOL    HW232229   0.250   0.816  14.750 -0.9516  0.8029 -3.2097
 6865SOL     OW32230   2.897   4.114   5.290  0.1077 -0.1698 -0.3318
 6865SOL    HW132231   2.926   4.192   5.338 -0.4479 -0.4764  0.4989
 6865SOL    HW232232   2.817   4.099   5.339  0.2441  0.4000  0.0719
 6866SOL     OW32233   3.782   1.537   8.307 -0.2125 -0.0224 -0.2416
 6866SOL    HW132234   3.693   1.544   8.273 -0.0919 -0.8271 -0.7165
 6866SOL    HW232235   3.765   1.590   8.385  0.9293 -0.6885  0.4658
 6867SOL     OW32236   4.530   2.386   5.669 -0.0165  0.0672 -0.4827
 6867SOL    HW132237   4.489   2.321   5.726  1.1862  2.1786  2.8241
 6867SOL    HW232238   4.604   2.339   5.632  0.6793  0.3083  0.5819
 6868SOL     OW32239   0.117   0.998  11.163 -0.6013 -0.0491  0.4986
 6868SOL    HW132240   0.062   1.042  11.098 -1.5851  0.0679  1.4100
 6868SOL    HW232241   0.139   1.070  11.222  2.1374  0.3556 -1.0181
 6869SOL     OW32242   4.306   2.878  13.523  0.1577  0.0809 -0.1966
 6869SOL    HW132243   4.351   2.941  13.579 -0.1275  1.3943 -1.4586
 6869SOL    HW232244   4.366   2.803  13.535  0.7833  0.4996 -0.7005
 6870SOL     OW32245   1.031   2.220   1.651 -0.0230 -0.0499  0.4848
 6870SOL    HW132246   0.939   2.232   1.676  0.0647 -0.0256  0.7899
 6870SOL    HW232247   1.056   2.312   1.642  2.3183 -0.8667 -1.2452
 6871SOL     OW32248   1.735   2.189   3.919  0.1323  0.1756 -0.5932
 6871SOL    HW132249   1.743   2.094   3.925  0.5294  0.3265  1.2285
 6871SOL    HW232250   1.641   2.206   3.923  0.4400  1.5991  0.7869
 6872SOL     OW32251   3.107   4.168   0.198 -0.3426  0.1078  0.0754
 6872SOL    HW132252   3.195   4.204   0.188 -1.2532  2.4447  0.4284
 6872SOL    HW232253   3.091   4.207   0.284  1.6700  0.7546  0.1489
 6873SOL     OW32254   4.699   0.816   9.250 -0.2487  0.8382 -0.4003
 6873SOL    HW132255   4.658   0.731   9.237  1.4872  0.4827 -3.7528
 6873SOL    HW232256   4.710   0.814   9.345  4.1057  2.8729 -0.8490
 6874SOL     OW32257   1.916   4.010   4.275 -0.9504  0.0501 -0.6555
 6874SOL    HW132258   1.866   3.973   4.202 -0.5627  0.4484 -1.1218
 6874SOL    HW232259   1.911   4.104   4.263 -0.6700 -0.0186 -1.3262
 6875SOL     OW32260   0.110   3.737   2.936  0.5598 -0.0489 -0.2463
 6875SOL    HW132261   0.175   3.765   3.001  0.2243 -0.2240  0.1643
 6875SOL    HW232262   0.142   3.777   2.855  2.7167 -1.2492 -0.0088
 6876SOL     OW32263   1.118   2.788  13.178  0.2536  0.2702 -0.1239
 6876SOL    HW132264   1.155   2.753  13.259 -1.7432 -0.6969  0.3876
 6876SOL    HW232265   1.038   2.831  13.208 -1.2037 -2.6129  0.1568
 6877SOL     OW32266   3.964   2.391  12.375  0.4600 -0.0682 -0.3971
 6877SOL    HW132267   3.897   2.355  12.433  0.0023 -0.9572 -1.4724
 6877SOL    HW232268   4.027   2.414  12.443  1.3711 -1.4307 -0.7624
 6878SOL     OW32269   3.338   0.359   3.389  0.3233 -0.0583 -0.5547
 6878SOL    HW132270   3.411   0.320   3.341 -1.2944 -0.6961 -2.4577
 6878SOL    HW232271   3.373   0.367   3.478 -0.6139  1.4318 -0.3209
 6879SOL     OW32272   2.442   0.083   2.305  0.1032 -0.8466  0.5104
 6879SOL    HW132273   2.368   0.137   2.279  1.3350  0.5247 -0.1282
 6879SOL    HW232274   2.395   0.031   2.369 -0.1704 -1.0561  0.1421
 6880SOL     OW32275   3.708   3.977   5.376  0.3167  0.8321  0.1556
 6880SOL    HW132276   3.715   3.922   5.299 -0.5231 -0.4868  1.0212
 6880SOL    HW232277   3.794   4.019   5.384  0.6122  0.3723 -0.6442
 6881SOL     OW32278   1.441   2.789   8.229  0.7133  0.2575 -0.5225
 6881SOL    HW132279   1.444   2.709   8.282  0.0302  0.7594  0.2787
 6881SOL    HW232280   1.393   2.847   8.288  1.0035  1.4271 -1.4306
 6882SOL     OW32281   4.365   3.383   2.529  0.1792  0.0709  0.5480
 6882SOL    HW132282   4.384   3.406   2.438 -3.4326  0.6587 -0.0536
 6882SOL    HW232283   4.303   3.311   2.522  0.9707 -0.9303  3.9393
 6883SOL     OW32284   0.094   3.502   3.458  0.5225 -0.4706 -0.5189
 6883SOL    HW132285   0.181   3.542   3.454 -0.1030  0.6914 -2.5346
 6883SOL    HW232286   0.101   3.444   3.382  0.7213  1.0393 -1.6672
 6884SOL     OW32287   2.494   1.598   9.015  0.1775  0.0717  0.3078
 6884SOL    HW132288   2.556   1.622   8.946 -3.1942  1.0927 -2.3436
 6884SOL    HW232289   2.498   1.502   9.022  1.3013 -0.0593 -2.0496
 6885SOL     OW32290   3.155   1.939   6.826 -0.3352 -0.1623  0.2110
 6885SOL    HW132291   3.080   1.905   6.874  0.8347 -1.7975  0.8953
 6885SOL    HW232292   3.194   2.005   6.883 -1.9971  0.7693  0.2644
 6886SOL     OW32293   4.578   4.728   7.702 -0.1280 -0.0998 -0.1935
 6886SOL    HW132294   4.579   4.637   7.731  0.8032  0.0865  0.3845
 6886SOL    HW232295   4.550   4.712   7.612 -1.5515  0.4964  0.1498
 6887SOL     OW32296   1.028   0.536  12.185  0.1312  0.1755 -0.1925
 6887SOL    HW132297   0.977   0.534  12.104 -0.6146  2.8122  0.2103
 6887SOL    HW232298   1.089   0.602  12.156  0.8637  0.0366  1.0202
 6888SOL     OW32299   3.996   1.153   2.378 -0.1806  0.2885 -0.4268
 6888SOL    HW132300   3.999   1.199   2.294  1.4218 -0.4754 -0.7796
 6888SOL    HW232301   3.996   1.225   2.442 -0.3497 -0.4455  0.3930
 6889SOL     OW32302   2.719   3.584  10.589 -0.2991 -0.2393 -0.2723
 6889SOL    HW132303   2.784   3.520  10.559 -0.8258  0.2339 -2.4479
 6889SOL    HW232304   2.657   3.525  10.631  1.3132 -1.0787  0.9265
 6890SOL     OW32305   2.117   2.780  14.036  0.0283  0.3581 -0.5589
 6890SOL    HW132306   2.155   2.716  13.977  0.9010  0.0943  0.2916
 6890SOL    HW232307   2.041   2.802  13.981  0.0353  2.8629  0.4271
 6891SOL     OW32308   3.408   3.434   2.781  0.0612 -0.0902 -1.0177
 6891SOL    HW132309   3.320   3.396   2.776 -0.1359 -0.2467  3.4943
 6891SOL    HW232310   3.434   3.401   2.867 -0.6478  0.0085 -0.7671
 6892SOL     OW32311   3.421   1.586   7.633 -0.4013  0.0612  0.2859
 6892SOL    HW132312   3.404   1.666   7.584 -0.1099  0.6928  1.2044
 6892SOL    HW232313   3.490   1.610   7.695 -0.4919 -0.3427  0.5454
 6893SOL     OW32314   0.084   3.961   3.793  0.3726  0.3189  0.4808
 6893SOL    HW132315   0.161   3.977   3.739  1.4228 -1.3118  1.5063
 6893SOL    HW232316   0.082   3.866   3.782 -1.0395  0.3589  0.3855
 6894SOL     OW32317   2.507   4.452   3.941  0.3684  0.1446 -0.4614
 6894SOL    HW132318   2.440   4.501   3.893  0.3499  1.6111  1.0766
 6894SOL    HW232319   2.522   4.502   4.021  2.9763 -1.5911  0.1050
 6895SOL     OW32320   0.200   1.344  14.585  0.0146 -0.2276  0.0986
 6895SOL    HW132321   0.200   1.251  14.562 -1.6071 -0.1448 -0.2217
 6895SOL    HW232322   0.231   1.346  14.676 -1.3699 -4.7801  0.6957
 6896SOL     OW32323   1.826   3.830  13.948  0.2812 -0.3750 -0.6618
 6896SOL    HW132324   1.904   3.853  13.897  1.4636 -1.0007  0.8608
 6896SOL    HW232325   1.838   3.736  13.959 -0.7384 -0.9693 -4.6498
 6897SOL     OW32326   4.319   1.643  16.327 -0.4714  0.3899  0.1372
 6897SOL    HW132327   4.388   1.589  16.367 -1.0663  1.7846  3.0757
 6897SOL    HW232328   4.265   1.651  16.406  0.9338  0.8939  1.0397
 6898SOL     OW32329   4.082   1.507   0.852  0.4879 -0.5343 -0.4656
 6898SOL    HW132330   4.016   1.571   0.878  2.0888  0.9080  0.0458
 6898SOL    HW232331   4.060   1.424   0.895  0.8674 -1.0447 -1.2591
 6899SOL     OW32332   0.793   2.592   6.458  0.0694 -0.3878  0.0494
 6899SOL    HW132333   0.792   2.681   6.493 -0.8943  0.5315 -2.3422
 6899SOL    HW232334   0.832   2.612   6.373 -0.4514 -0.2028 -0.1442
 6900SOL     OW32335   1.103   0.806   2.530  0.1189 -0.1116 -0.0401
 6900SOL    HW132336   1.078   0.717   2.502  1.7274  0.1730 -2.4020
 6900SOL    HW232337   1.035   0.831   2.592  1.6040 -3.3581  2.9070
 6901SOL     OW32338   3.253   3.060  17.264  0.1266 -0.5373 -0.1412
 6901SOL    HW132339   3.218   3.094  17.182  1.8706  0.6566 -0.3902
 6901SOL    HW232340   3.235   3.138  17.316  1.1650 -0.3337 -0.0888
 6902SOL     OW32341   3.311   4.691   5.080  0.1520 -0.5622  0.3190
 6902SOL    HW132342   3.386   4.659   5.131 -0.1429  0.0373  1.1267
 6902SOL    HW232343   3.373   0.012   5.037 -1.2422  1.1465  0.6977
 6903SOL     OW32344   3.630   2.179   7.702  0.3629  0.1797  0.2001
 6903SOL    HW132345   3.588   2.263   7.688 -0.5989 -0.2879  0.2734
 6903SOL    HW232346   3.672   2.173   7.788 -0.9939 -0.2155  0.8344
 6904SOL     OW32347   2.722   0.347  16.062 -0.3719  0.1326 -0.0639
 6904SOL    HW132348   2.707   0.417  15.998  0.5479 -0.8573 -1.3714
 6904SOL    HW232349   2.737   0.283  15.992 -0.3576  0.9077 -0.7637
 6905SOL     OW32350   0.759   1.986   4.378 -0.5053  0.3745  0.5431
 6905SOL    HW132351   0.845   1.970   4.339 -0.7042 -0.5026  0.4604
 6905SOL    HW232352   0.696   2.001   4.307  0.2487  0.3399 -0.1404
 6906SOL     OW32353   0.093   4.025   8.407  0.4536  0.3969 -0.9175
 6906SOL    HW132354   0.166   4.086   8.403 -0.9593  2.2863  2.0483
 6906SOL    HW232355   0.076   4.025   8.501 -0.8063 -0.2824 -1.1508
 6907SOL     OW32356   3.419   1.659   3.607  0.3067  0.6732  0.0895
 6907SOL    HW132357   3.443   1.575   3.568  0.6183  1.3717 -1.2142
 6907SOL    HW232358   3.412   1.628   3.698  2.1559 -0.8166 -0.3005
 6908SOL     OW32359   0.531   4.264   3.954 -0.3916  0.1617 -0.1370
 6908SOL    HW132360   0.534   4.260   4.050  4.0513 -1.1172 -0.3500
 6908SOL    HW232361   0.616   4.299   3.929 -0.1984 -0.0869  0.1797
 6909SOL     OW32362   1.947   2.829  13.832 -0.1692  0.2513 -0.3049
 6909SOL    HW132363   1.964   2.737  13.810  0.0870 -0.0143  0.9949
 6909SOL    HW232364   1.906   2.856  13.750 -0.9623  0.8427  0.2872
 6910SOL     OW32365   0.777   2.967   6.943 -0.2223  0.1313 -0.4595
 6910SOL    HW132366   0.814   2.922   7.019  0.0521  2.9896  1.0584
 6910SOL    HW232367   0.694   2.918   6.944 -1.0566  1.5165 -2.4956
 6911SOL     OW32368   3.122   2.103   6.207 -0.1454  0.3629 -0.4081
 6911SOL    HW132369   3.099   2.019   6.247 -0.7505  0.1764 -1.1280
 6911SOL    HW232370   3.172   2.078   6.129  0.7868 -0.8563  0.5977
 6912SOL     OW32371   2.600   1.227   2.550  0.3170  0.1254 -0.0365
 6912SOL    HW132372   2.532   1.274   2.599 -0.4824  0.4996 -1.4831
 6912SOL    HW232373   2.539   1.162   2.515 -0.1619  1.0088 -0.8415
 6913SOL     OW32374   1.549   3.784   7.393 -0.6911  0.4521 -1.1763
 6913SOL    HW132375   1.493   3.713   7.362  0.6756 -0.6809 -1.0723
 6913SOL    HW232376   1.502   3.862   7.364 -2.7166  0.8193  3.1300
 6914SOL     OW32377   0.906   2.127  13.617 -0.4495  0.7322 -0.0590
 6914SOL    HW132378   0.957   2.064  13.669 -1.8316  1.7574  2.4913
 6914SOL    HW232379   0.975   2.186  13.587  0.7887 -0.7657 -0.2108
 6915SOL     OW32380   3.093   4.279   0.442 -0.0284  0.3796 -0.0433
 6915SOL    HW132381   3.073   4.337   0.515  0.8334 -1.2089  1.4625
 6915SOL    HW232382   3.166   4.228   0.478 -0.6055 -1.1609 -1.0448
 6916SOL     OW32383   0.902   3.492   3.032 -0.1169  0.1207  0.3508
 6916SOL    HW132384   0.963   3.547   2.985  0.2013 -0.0544  0.5576
 6916SOL    HW232385   0.919   3.404   3.000 -0.5104  1.3107 -3.0699
 6917SOL     OW32386   2.178   2.252  12.944 -0.2748 -0.3136 -0.5851
 6917SOL    HW132387   2.163   2.234  12.852 -2.3759 -1.0805 -0.0986
 6917SOL    HW232388   2.245   2.185  12.957  0.9235  1.0485  0.2026
 6918SOL     OW32389   1.670   0.529   7.031 -0.7817  0.1897 -0.3077
 6918SOL    HW132390   1.710   0.511   6.946 -1.0512 -0.4151 -0.3072
 6918SOL    HW232391   1.662   0.624   7.043  3.0340  0.6910 -1.7222
 6919SOL     OW32392   2.554   4.515   1.238 -0.3352 -0.7992 -0.5090
 6919SOL    HW132393   2.470   4.481   1.207 -0.6566  0.0349 -0.5557
 6919SOL    HW232394   2.531   4.602   1.271 -0.9116  0.1207 -3.3235
 6920SOL     OW32395   1.351   3.169   6.725 -0.3044  0.4758  0.5961
 6920SOL    HW132396   1.390   3.141   6.642  0.0595  0.3084  0.8187
 6920SOL    HW232397   1.277   3.211   6.682 -0.1835 -2.0057 -2.0696
 6921SOL     OW32398   0.297   1.036   1.076  0.0412 -0.3529  1.0215
 6921SOL    HW132399   0.376   1.062   1.030 -0.4798 -0.8566 -0.1449
 6921SOL    HW232400   0.293   1.106   1.141  0.0632  0.6435 -0.0581
 6922SOL     OW32401   1.057   1.988  10.947  0.4748 -0.3484  0.6346
 6922SOL    HW132402   0.976   2.001  10.896  0.5843  1.0922  0.8338
 6922SOL    HW232403   1.117   1.948  10.883 -0.5382  2.1513 -1.9055
 6923SOL     OW32404   2.428   4.053   1.275 -0.3832  0.0336 -0.1482
 6923SOL    HW132405   2.487   4.076   1.346  1.4632 -2.6464 -0.8163
 6923SOL    HW232406   2.394   3.972   1.314 -0.7738 -0.2296 -1.0315
 6924SOL     OW32407   2.247   3.021   7.410 -0.3412  0.1195 -0.1925
 6924SOL    HW132408   2.199   3.101   7.431 -0.0098  0.7694 -1.9198
 6924SOL    HW232409   2.323   3.061   7.368 -0.2288  1.2225  1.0736
 6925SOL     OW32410   4.004   3.542  11.771 -0.2618  0.3434  0.3900
 6925SOL    HW132411   3.927   3.506  11.816 -0.2485 -0.9961 -0.6607
 6925SOL    HW232412   3.999   3.632  11.804 -2.4904  0.6645 -0.8142
 6926SOL     OW32413   1.438   0.202   3.568 -0.0660  0.7078  0.5486
 6926SOL    HW132414   1.516   0.248   3.538  0.0394 -0.1293 -0.4549
 6926SOL    HW232415   1.368   0.253   3.527  0.7320  0.6237 -0.9195
 6927SOL     OW32416   2.796   4.387  11.985 -0.1883 -0.2924 -0.0707
 6927SOL    HW132417   2.791   4.432  12.069  0.7090  1.4639 -0.9518
 6927SOL    HW232418   2.710   4.391  11.941  0.2947  0.1032 -0.9815
 6928SOL     OW32419   1.931   1.981  15.952 -0.3554 -0.8361  0.0021
 6928SOL    HW132420   1.935   2.069  15.990 -1.1830 -1.8162  2.3957
 6928SOL    HW232421   1.953   1.926  16.028 -0.5966 -1.3229 -0.2788
 6929SOL     OW32422   0.997   0.713   6.862  0.2570  0.0972  0.0355
 6929SOL    HW132423   0.989   0.808   6.849  0.1142  0.2520  1.2985
 6929SOL    HW232424   1.025   0.707   6.953 -0.8010  0.1320  0.3598
 6930SOL     OW32425   3.929   1.687   3.468 -0.1012  0.1612  0.3269
 6930SOL    HW132426   3.952   1.595   3.459  0.9837  0.4117  0.5276
 6930SOL    HW232427   3.926   1.694   3.563 -0.1136 -2.7036  0.5332
 6931SOL     OW32428   0.003   1.901  14.582 -0.5238  0.3380  0.0407
 6931SOL    HW132429   0.015   1.989  14.616 -0.7937  0.0765  0.8294
 6931SOL    HW232430   0.056   1.844  14.638  1.5279  1.9105 -0.3124
 6932SOL     OW32431   1.872   1.802   2.554  0.3358 -0.1368  0.0756
 6932SOL    HW132432   1.823   1.722   2.530  1.8023 -0.6608 -1.1622
 6932SOL    HW232433   1.812   1.870   2.523  0.1781 -0.1855  0.2720
 6933SOL     OW32434   0.289   2.278   1.661 -0.2696  0.0255  0.1773
 6933SOL    HW132435   0.287   2.366   1.624 -0.1548 -0.5086 -1.0855
 6933SOL    HW232436   0.302   2.308   1.751  1.6460  1.4714 -0.5699
 6934SOL     OW32437   3.170   3.145   1.721  0.0774  0.5927 -0.6025
 6934SOL    HW132438   3.149   3.188   1.638 -3.2986  0.2818  0.0763
 6934SOL    HW232439   3.250   3.193   1.743  1.0063 -1.0831 -0.3525
 6935SOL     OW32440   3.144   1.768   0.321 -0.7674 -0.3552  0.6778
 6935SOL    HW132441   3.052   1.786   0.339 -0.4166  1.7082  0.3130
 6935SOL    HW232442   3.134   1.674   0.305  2.9592 -0.5842 -0.2375
 6936SOL     OW32443   1.759   3.911  11.577 -0.2461  0.1485  0.0286
 6936SOL    HW132444   1.810   3.973  11.524  0.0220 -0.7650 -0.7862
 6936SOL    HW232445   1.673   3.951  11.566  0.1793  0.7615 -1.0626
 6937SOL     OW32446   3.466   1.377   0.160  0.4424  0.4780 -0.0877
 6937SOL    HW132447   3.547   1.345   0.119 -1.4790 -2.8460 -1.2320
 6937SOL    HW232448   3.405   1.315   0.122  0.1696  0.5130  0.2964
 6938SOL     OW32449   4.497   4.351   5.740  0.0065  0.2343 -0.5006
 6938SOL    HW132450   4.542   4.267   5.750  1.1495  0.8327 -0.7185
 6938SOL    HW232451   4.463   4.337   5.652  2.3334  2.8518 -1.7973
 6939SOL     OW32452   1.222   2.077  16.752 -0.8253 -0.0971 -0.2897
 6939SOL    HW132453   1.254   2.072  16.842 -0.8363  2.7601 -0.1064
 6939SOL    HW232454   1.129   2.083  16.774 -0.7905  1.6823 -0.6127
 6940SOL     OW32455   4.690   3.948   3.504 -0.1646 -0.3477  0.0545
 6940SOL    HW132456   0.002   3.987   3.576  1.3240 -2.4864  0.1771
 6940SOL    HW232457   4.636   3.882   3.548  1.6446 -0.5086  2.0345
 6941SOL     OW32458   0.703   0.068   4.783 -0.2984  0.4829 -0.2022
 6941SOL    HW132459   0.642   0.073   4.857 -2.6197 -0.0356 -2.0513
 6941SOL    HW232460   0.648   0.042   4.709  0.5308 -0.1718 -0.5789
 6942SOL     OW32461   3.848   1.858   3.286  0.3433 -0.2196 -0.2424
 6942SOL    HW132462   3.858   1.798   3.360  0.6501  2.3394  1.8382
 6942SOL    HW232463   3.933   1.839   3.245  0.3267  0.9520 -0.8232
 6943SOL     OW32464   1.733   3.631   6.702  0.4657 -0.5906  0.1036
 6943SOL    HW132465   1.807   3.590   6.658 -1.4833 -1.7899 -2.1130
 6943SOL    HW232466   1.688   3.548   6.719 -0.4024 -0.2031 -0.3043
 6944SOL     OW32467   3.052   3.243  15.044 -0.0437  0.1804  0.2594
 6944SOL    HW132468   3.141   3.264  15.014 -0.7245  0.0964 -1.8414
 6944SOL    HW232469   3.055   3.266  15.137  1.0822 -0.6498  0.4260
 6945SOL     OW32470   2.816   0.528  12.627  0.0029 -0.2131  0.2975
 6945SOL    HW132471   2.774   0.442  12.621  0.5126 -0.3731 -1.0618
 6945SOL    HW232472   2.797   0.567  12.542 -2.7073 -0.4808  0.7575
 6946SOL     OW32473   2.954   3.098   9.239  0.5326  0.3453  0.6957
 6946SOL    HW132474   2.981   3.026   9.297  0.7488 -0.9886 -1.0327
 6946SOL    HW232475   2.962   3.168   9.304 -1.7920  1.9385 -0.7326
 6947SOL     OW32476   0.067   3.200  17.623 -0.0044  0.1057 -0.0382
 6947SOL    HW132477   0.075   3.105  17.622 -4.1755 -0.2366  1.0680
 6947SOL    HW232478   4.713   3.216  17.604  0.2087  0.5009 -0.7534
 6948SOL     OW32479   1.249   0.333  10.058  0.1616 -0.4888  0.3172
 6948SOL    HW132480   1.285   0.311   9.972  0.6429  0.1343  0.3551
 6948SOL    HW232481   1.328   0.337  10.112 -1.1426 -0.6822  2.2300
 6949SOL     OW32482   3.013   2.304   0.153  0.4216  0.0079 -0.3624
 6949SOL    HW132483   2.989   2.380   0.100 -0.7643 -1.5656 -2.0905
 6949SOL    HW232484   3.076   2.263   0.093 -0.8738 -2.4579 -0.0559
 6950SOL     OW32485   1.621   0.337   2.922 -0.0941 -0.0280  0.1134
 6950SOL    HW132486   1.539   0.375   2.955 -1.0404 -0.5754 -1.6255
 6950SOL    HW232487   1.589   0.287   2.847  1.3986 -0.2973 -0.3400
 6951SOL     OW32488   0.611   1.009   0.716  0.0881 -0.1944  0.1748
 6951SOL    HW132489   0.643   1.024   0.627  0.1557  0.1406  0.2569
 6951SOL    HW232490   0.621   0.915   0.727  2.0058 -0.1329 -1.1304
 6952SOL     OW32491   2.433   1.999   2.668 -0.1278 -0.0313 -0.1967
 6952SOL    HW132492   2.415   2.040   2.752  0.0639  0.4940 -0.4134
 6952SOL    HW232493   2.370   2.025   2.601 -0.2460  3.8600  1.4385
 6953SOL     OW32494   0.923   0.586   8.462  0.2440 -0.4136  0.2232
 6953SOL    HW132495   0.953   0.546   8.380  1.0976  1.3687 -0.3296
 6953SOL    HW232496   0.954   0.520   8.524 -1.8171 -0.3270  1.3493
 6954SOL     OW32497   4.147   0.469   0.476 -0.0028 -0.0253 -0.2849
 6954SOL    HW132498   4.199   0.493   0.553  0.5098 -0.0833 -0.6096
 6954SOL    HW232499   4.170   0.376   0.475  3.5479  0.8477 -2.0432
 6955SOL     OW32500   0.921   1.510   5.678  0.5520 -0.0935  0.3915
 6955SOL    HW132501   0.907   1.440   5.614 -1.3021  1.0030 -0.4045
 6955SOL    HW232502   0.856   1.481   5.742  0.6981  0.9262  1.0147
 6956SOL     OW32503   3.839   3.562   2.002  0.0623 -0.5171  0.4436
 6956SOL    HW132504   3.817   3.654   1.984  0.5457 -0.0309  2.4295
 6956SOL    HW232505   3.751   3.530   2.023 -0.1655 -0.4837 -0.4415
 6957SOL     OW32506   1.794   1.691  16.038  0.2242 -0.3907 -0.0200
 6957SOL    HW132507   1.714   1.668  16.087 -0.6206  0.6950 -0.9013
 6957SOL    HW232508   1.753   1.739  15.967  0.0580  0.0769  0.3907
 6958SOL     OW32509   2.871   1.618  13.711  0.1611 -0.1716 -0.5231
 6958SOL    HW132510   2.943   1.556  13.722  0.6930  0.7444  1.2265
 6958SOL    HW232511   2.895   1.680  13.780 -1.0319 -0.8391  0.4960
 6959SOL     OW32512   0.189   2.050   8.490 -0.2313 -0.3487  0.4897
 6959SOL    HW132513   0.124   2.120   8.489  0.8490  0.6681  0.2276
 6959SOL    HW232514   0.207   2.030   8.398  2.6646  0.1992  0.9409
 6960SOL     OW32515   0.164   2.461   8.549 -0.2466  0.2294 -0.6607
 6960SOL    HW132516   0.107   2.537   8.537 -0.5058  0.0649 -0.4659
 6960SOL    HW232517   0.134   2.403   8.479 -1.1914  2.1551 -1.8284
 6961SOL     OW32518   2.822   3.414   2.567 -0.4314  0.3459  0.1219
 6961SOL    HW132519   2.858   3.478   2.629 -0.7468  0.5356  0.1044
 6961SOL    HW232520   2.742   3.456   2.535 -1.0315  0.3110  1.5648
 6962SOL     OW32521   3.332   1.731  15.823  0.3915 -0.7265 -0.0979
 6962SOL    HW132522   3.280   1.660  15.861  0.1816 -0.6209 -0.1862
 6962SOL    HW232523   3.352   1.693  15.737  0.3008  0.1323 -0.4994
 6963SOL     OW32524   3.138   0.992   1.344 -0.3418  0.2951  0.0267
 6963SOL    HW132525   3.159   1.084   1.358  0.3021  0.0453  0.6393
 6963SOL    HW232526   3.091   1.001   1.261  1.7514  1.4259 -1.0466
 6964SOL     OW32527   0.501   1.408   8.342 -0.0255  0.0264 -0.3025
 6964SOL    HW132528   0.517   1.457   8.261 -0.1197 -0.7554 -0.7981
 6964SOL    HW232529   0.452   1.471   8.395 -0.0983 -0.7027  0.4815
 6965SOL     OW32530   1.862   2.846   5.680 -0.0665  0.1212 -0.4081
 6965SOL    HW132531   1.830   2.772   5.628  1.6404 -1.9707  1.5291
 6965SOL    HW232532   1.792   2.908   5.663  0.1481  0.1121 -1.3214
 6966SOL     OW32533   1.509   3.792   9.470  0.2920  0.6164 -0.0488
 6966SOL    HW132534   1.439   3.858   9.464 -1.3139 -1.1548 -0.7071
 6966SOL    HW232535   1.512   3.782   9.566  1.5903  2.6452  0.1298
 6967SOL     OW32536   0.418   1.542  14.829 -0.2846  0.1311 -0.2696
 6967SOL    HW132537   0.493   1.551  14.770 -0.3357 -0.2675 -0.3983
 6967SOL    HW232538   0.455   1.567  14.914  1.9984 -0.3046 -1.1486
 6968SOL     OW32539   0.464   2.777  11.305 -0.0257  0.4700  0.0647
 6968SOL    HW132540   0.480   2.695  11.259  1.6616  0.9982 -0.3152
 6968SOL    HW232541   0.411   2.824  11.240  2.5453 -0.9315 -3.0892
 6969SOL     OW32542   1.074   1.810   5.238  0.1053 -0.0312 -0.1108
 6969SOL    HW132543   1.135   1.776   5.172 -1.0772  2.7463 -2.6220
 6969SOL    HW232544   1.044   1.729   5.280 -0.0547  0.5112  0.8027
 6970SOL     OW32545   3.121   0.476   1.411  0.4150  0.2142  0.2822
 6970SOL    HW132546   3.099   0.565   1.384  0.7280 -0.0578 -0.8993
 6970SOL    HW232547   3.206   0.498   1.449 -0.5757  2.9579  0.8684
 6971SOL     OW32548   0.573   3.406   5.267 -0.2334  0.8102  0.3463
 6971SOL    HW132549   0.486   3.441   5.247 -1.4972 -1.2949  2.1011
 6971SOL    HW232550   0.592   3.456   5.346  0.3599 -0.0292  0.7441
 6972SOL     OW32551   1.760   3.680  10.704  0.0077  0.2536 -0.5815
 6972SOL    HW132552   1.793   3.595  10.733 -0.2287  0.7132  0.9958
 6972SOL    HW232553   1.668   3.684  10.730  0.2623 -0.5940  0.4766
 6973SOL     OW32554   2.713   3.928  12.488  0.5353 -0.1213 -0.2889
 6973SOL    HW132555   2.636   3.873  12.471 -0.2049 -0.1038  2.9566
 6973SOL    HW232556   2.746   3.879  12.563 -1.2746  1.0978  1.3264
 6974SOL     OW32557   0.269   2.294   5.615  0.0203  0.0672 -0.3534
 6974SOL    HW132558   0.323   2.354   5.564  0.2914 -0.9065 -1.2071
 6974SOL    HW232559   0.182   2.310   5.578 -0.3655 -0.7785  0.1917
 6975SOL     OW32560   1.256   3.421   2.056  0.0366 -0.0250 -0.7305
 6975SOL    HW132561   1.248   3.495   2.116 -0.6087 -1.2867  0.7604
 6975SOL    HW232562   1.330   3.378   2.100  0.3594  1.6625  0.3620
 6976SOL     OW32563   3.308   2.440   2.978 -0.1090  0.3427  0.2840
 6976SOL    HW132564   3.317   2.410   3.068  1.8886 -1.3226 -0.4892
 6976SOL    HW232565   3.399   2.459   2.956  0.3665 -1.3504  0.8134
 6977SOL     OW32566   2.212   1.849   0.700 -0.1339  0.0344  0.5696
 6977SOL    HW132567   2.178   1.930   0.739 -0.4803 -0.0433  0.4252
 6977SOL    HW232568   2.286   1.894   0.659 -0.1109 -0.4363  0.1102
 6978SOL     OW32569   3.024   0.205  16.203 -0.3422 -0.2872  0.1688
 6978SOL    HW132570   3.018   0.296  16.232  1.1846 -0.7852  2.0303
 6978SOL    HW232571   3.117   0.187  16.189 -0.6647 -2.5505  1.0124
 6979SOL     OW32572   1.812   2.415   6.508 -0.1874 -0.1618  0.0540
 6979SOL    HW132573   1.809   2.375   6.595  1.9125  0.8120  0.5700
 6979SOL    HW232574   1.783   2.502   6.534  0.9390  0.7717 -1.8762
 6980SOL     OW32575   2.632   2.507   3.641  0.5743  0.2810  1.0049
 6980SOL    HW132576   2.686   2.517   3.720  0.3732  0.5386  1.1111
 6980SOL    HW232577   2.622   2.412   3.643 -1.3572  0.4631  0.0188
 6981SOL     OW32578   0.398   1.740  11.467 -0.1349  0.0237  0.0775
 6981SOL    HW132579   0.415   1.830  11.496 -1.3776 -0.2641  1.7316
 6981SOL    HW232580   0.306   1.755  11.445  0.3831  2.8631 -0.1385
 6982SOL     OW32581   0.185   2.244   9.296 -0.3478  0.3760  0.6115
 6982SOL    HW132582   0.162   2.158   9.260 -0.4660  0.0080  1.5551
 6982SOL    HW232583   0.120   2.300   9.254 -0.9110  0.2081  1.2554
 6983SOL     OW32584   4.320   0.756   6.842  0.1038  0.5938  0.3093
 6983SOL    HW132585   4.299   0.822   6.777  1.5607  0.6551 -0.1006
 6983SOL    HW232586   4.411   0.769   6.871  0.2145  1.2407 -0.3224
 6984SOL     OW32587   0.482   0.231   2.728 -0.2038 -0.0886 -0.4051
 6984SOL    HW132588   0.463   0.143   2.761 -3.2829  0.5080 -0.6585
 6984SOL    HW232589   0.576   0.215   2.721 -0.1525  1.4768 -3.0460
 6985SOL     OW32590   0.054   2.876   7.609 -0.2235 -0.0387  0.2660
 6985SOL    HW132591   4.710   2.924   7.607  0.2650  0.8295  0.6457
 6985SOL    HW232592   0.081   2.883   7.701 -2.6644 -3.7190  1.2449
 6986SOL     OW32593   0.637   0.859   5.394 -0.2196 -0.1743 -0.0947
 6986SOL    HW132594   0.682   0.812   5.465 -0.9585 -1.3486 -0.4075
 6986SOL    HW232595   0.707   0.854   5.329  0.5628 -1.5965  0.8587
 6987SOL     OW32596   0.378   1.852   4.877  0.3395 -0.1371  0.2121
 6987SOL    HW132597   0.443   1.821   4.941  0.1435  0.5341  0.7486
 6987SOL    HW232598   0.428   1.856   4.795  0.8224  3.2197  0.6733
 6988SOL     OW32599   0.017   3.432   8.971 -0.2182  0.1845 -0.4655
 6988SOL    HW132600   4.680   3.431   8.911 -1.0132 -0.1736  0.5425
 6988SOL    HW232601   4.734   3.521   8.999 -0.0467  0.2978 -0.7016
 6989SOL     OW32602   0.551   1.592  16.747 -0.6608 -0.0788 -0.0378
 6989SOL    HW132603   0.641   1.560  16.738 -0.5435  0.0135  0.8161
 6989SOL    HW232604   0.535   1.563  16.837 -2.1781 -1.0059 -0.6235
 6990SOL     OW32605   1.681   0.865   1.020 -0.1068  0.0733 -0.0745
 6990SOL    HW132606   1.730   0.851   1.102 -2.0794  0.5456  1.1650
 6990SOL    HW232607   1.621   0.936   1.042  0.6235  0.4663  0.6741
 6991SOL     OW32608   1.314   2.173   7.462 -0.6392  0.6963 -0.1683
 6991SOL    HW132609   1.321   2.268   7.455  0.9243  0.4882 -1.4975
 6991SOL    HW232610   1.400   2.156   7.422 -1.2648 -1.7165 -0.4976
 6992SOL     OW32611   1.540   3.365   9.911 -0.1068  0.4284 -0.1277
 6992SOL    HW132612   1.540   3.294   9.976 -0.5792 -0.2599 -0.8789
 6992SOL    HW232613   1.446   3.361   9.890  0.3263 -1.8520 -1.6022
 6993SOL     OW32614   1.319   3.244   6.264  0.6133  0.4074  0.0688
 6993SOL    HW132615   1.287   3.322   6.308 -0.6234  0.9902 -1.8418
 6993SOL    HW232616   1.309   3.270   6.172 -0.2501 -2.7185 -0.7454
 6994SOL     OW32617   0.496   1.037  11.585  0.0812 -0.1195 -0.1460
 6994SOL    HW132618   0.575   0.988  11.607 -1.5393 -2.9950 -0.7666
 6994SOL    HW232619   0.456   1.025  11.672 -0.1092 -0.6569 -0.3087
 6995SOL     OW32620   2.843   2.853  15.881 -0.4224 -0.0372 -0.3008
 6995SOL    HW132621   2.890   2.794  15.823  0.6993 -0.9258  1.5269
 6995SOL    HW232622   2.779   2.789  15.912 -0.8394 -0.5499 -2.1895
 6996SOL     OW32623   3.837   1.836   1.387 -0.9322  0.0467  0.5331
 6996SOL    HW132624   3.926   1.865   1.406 -1.1849  0.1933  1.4873
 6996SOL    HW232625   3.787   1.883   1.454 -0.8040  1.0300 -0.0639
 6997SOL     OW32626   1.206   4.271   4.518 -0.2345  0.2949 -0.0990
 6997SOL    HW132627   1.270   4.206   4.488 -0.7880 -0.7279  0.9701
 6997SOL    HW232628   1.137   4.215   4.553 -0.3461  1.3987  1.4721
 6998SOL     OW32629   3.844   2.059   3.489  0.4044  0.2506 -0.1449
 6998SOL    HW132630   3.889   1.984   3.528 -1.2063 -0.8958 -0.5019
 6998SOL    HW232631   3.815   2.014   3.409 -0.6840  2.5419 -1.0448
 6999SOL     OW32632   3.248   0.543  12.917  0.4815  0.3286  0.5646
 6999SOL    HW132633   3.208   0.593  12.988 -3.2459  0.1305 -1.3821
 6999SOL    HW232634   3.305   0.492  12.974 -0.4150  0.4297  1.5419
 7000SOL     OW32635   3.718   3.692   3.148 -0.5456  0.2535 -0.1140
 7000SOL    HW132636   3.691   3.605   3.118 -0.5525  0.2427 -0.0765
 7000SOL    HW232637   3.718   3.674   3.242 -1.2688  0.9063  0.0129
 7001SOL     OW32638   0.834   2.677   3.700 -0.1403 -0.5343 -0.1963
 7001SOL    HW132639   0.819   2.752   3.758 -0.5060 -0.3611 -0.5196
 7001SOL    HW232640   0.752   2.684   3.652 -0.1513  0.5487 -0.0169
 7002SOL     OW32641   1.566   2.119   7.670 -0.5425  0.2283 -0.0915
 7002SOL    HW132642   1.506   2.075   7.610 -1.5189 -2.2288  2.7139
 7002SOL    HW232643   1.499   2.153   7.729  0.2747 -0.8332  1.4483
 7003SOL     OW32644   0.090   0.964   0.086 -0.3915  0.2556 -0.3361
 7003SOL    HW132645   0.044   1.039   0.125 -1.5027 -1.3505  1.4829
 7003SOL    HW232646   0.084   0.912   0.166  4.0786  3.6595  2.2085
 7004SOL     OW32647   0.699   3.443  17.675  0.4628  0.0926 -0.3926
 7004SOL    HW132648   0.757   3.367  17.675  0.9095  0.4499  1.6838
 7004SOL    HW232649   0.629   3.412  17.618  0.7368 -1.5663  0.1900
 7005SOL     OW32650   0.440   3.192   6.495 -0.3786  0.3447 -0.4025
 7005SOL    HW132651   0.409   3.129   6.430 -0.2399  0.8897 -0.9969
 7005SOL    HW232652   0.370   3.190   6.561 -0.5851 -1.6589 -0.6988
 7006SOL     OW32653   3.256   2.495  16.900  0.4428 -0.1104  0.2746
 7006SOL    HW132654   3.239   2.490  16.994 -1.5072  1.5759  0.0391
 7006SOL    HW232655   3.165   2.498  16.869  0.4912 -2.7447 -0.1178
 7007SOL     OW32656   4.515   2.639   6.396  0.2033 -0.0660  0.0200
 7007SOL    HW132657   4.521   2.584   6.318  1.3328 -0.3668  0.3165
 7007SOL    HW232658   4.543   2.574   6.460  2.3934 -1.1063 -1.9658
 7008SOL     OW32659   2.982   3.158   3.622 -0.1556 -0.0395 -0.2205
 7008SOL    HW132660   3.066   3.128   3.656 -0.2683  1.8332  1.7312
 7008SOL    HW232661   3.020   3.191   3.541 -0.3121  0.2966 -0.1610
 7009SOL     OW32662   4.637   4.585   0.343  1.0667  0.4841 -0.0243
 7009SOL    HW132663   4.607   4.494   0.343 -1.5046  1.3235  1.8433
 7009SOL    HW232664   4.565   4.625   0.392 -0.1575 -2.0504  0.2550
 7010SOL     OW32665   4.190   1.231   4.102 -0.3499 -0.1047 -0.4436
 7010SOL    HW132666   4.228   1.278   4.028  0.7083  1.4682  1.0784
 7010SOL    HW232667   4.148   1.298   4.157 -1.5112 -0.1123 -1.3203
 7011SOL     OW32668   0.469   0.976  14.539 -0.0261 -0.1225  0.4201
 7011SOL    HW132669   0.483   0.991  14.632 -1.4741 -1.2753  0.8374
 7011SOL    HW232670   0.558   0.983  14.507 -0.9087  0.9963 -1.7501
 7012SOL     OW32671   1.623   3.220   3.696 -0.5096  0.2020  0.4339
 7012SOL    HW132672   1.572   3.301   3.685  1.9330  1.5909 -0.8110
 7012SOL    HW232673   1.711   3.248   3.720 -0.7709 -0.2055  1.8761
 7013SOL     OW32674   0.698   0.530   8.795 -0.0365 -0.1173 -0.0591
 7013SOL    HW132675   0.734   0.584   8.725 -0.3660  1.3865  0.9377
 7013SOL    HW232676   0.772   0.493   8.843 -0.0348 -1.8412 -1.4017
 7014SOL     OW32677   2.071   2.248   8.100  0.5468  0.3355 -0.5133
 7014SOL    HW132678   2.044   2.171   8.051  1.5817 -1.0339  1.0547
 7014SOL    HW232679   1.984   2.286   8.113  0.7718 -0.0450  2.2678
 7015SOL     OW32680   0.934   2.058  16.723 -0.3531  0.3722  0.2502
 7015SOL    HW132681   1.003   1.997  16.698 -1.9854 -2.4232  2.5590
 7015SOL    HW232682   0.891   2.077  16.640 -1.3242 -0.2190  0.6098
 7016SOL     OW32683   2.187   1.349   1.756  0.3164  0.0918 -0.2499
 7016SOL    HW132684   2.144   1.366   1.840 -0.8157  1.4763 -1.1058
 7016SOL    HW232685   2.231   1.270   1.788 -0.5842 -0.1067  0.4977
 7017SOL     OW32686   2.804   3.661   1.116  0.4348 -0.2269  0.1311
 7017SOL    HW132687   2.786   3.622   1.202  1.9595  1.7122  1.3498
 7017SOL    HW232688   2.733   3.725   1.117 -0.0164 -0.7290  0.4804
 7018SOL     OW32689   4.022   1.249   2.006  0.1618  0.3120 -0.2932
 7018SOL    HW132690   4.018   1.165   1.959 -0.3892  1.1144 -1.7005
 7018SOL    HW232691   4.115   1.269   1.992  0.2986  0.4497  0.8661
 7019SOL     OW32692   1.046   3.100   2.471  0.2177  0.0343  0.1771
 7019SOL    HW132693   1.112   3.162   2.440  0.2333 -0.8052 -1.4608
 7019SOL    HW232694   0.973   3.163   2.478  1.2162  1.4604 -2.4484
 7020SOL     OW32695   1.879   2.082  16.525  0.0055  0.4929  0.6844
 7020SOL    HW132696   1.871   2.174  16.550 -0.6117  0.6632 -0.1166
 7020SOL    HW232697   1.970   2.070  16.551  0.1631 -0.2868 -0.2426
 7021SOL     OW32698   2.827   0.373  16.878  0.5991  0.7746 -0.2296
 7021SOL    HW132699   2.807   0.354  16.970  1.0119  0.1206 -0.2733
 7021SOL    HW232700   2.750   0.403  16.830  0.9497  0.7332 -0.8188
 7022SOL     OW32701   3.342   0.911   4.885  0.5494 -0.6785  0.0438
 7022SOL    HW132702   3.422   0.897   4.835 -0.1944  1.9705 -1.9141
 7022SOL    HW232703   3.346   0.846   4.955  0.3526  0.2032  0.8740
 7023SOL     OW32704   1.016   1.585   6.975  0.1269  0.0784 -0.8882
 7023SOL    HW132705   1.036   1.650   6.908  0.0181 -0.7054 -1.6834
 7023SOL    HW232706   0.921   1.598   6.978  0.1327  0.1736 -1.1565
 7024SOL     OW32707   3.756   0.456   6.857  0.0790  0.1534  0.1400
 7024SOL    HW132708   3.839   0.449   6.811 -0.4113  0.5504 -0.8013
 7024SOL    HW232709   3.781   0.448   6.949  2.2013  1.2181 -0.3334
 7025SOL     OW32710   3.700   1.538   1.531  0.2680 -0.1748 -0.0276
 7025SOL    HW132711   3.640   1.591   1.478  0.1214 -1.5108 -1.1898
 7025SOL    HW232712   3.737   1.608   1.584  3.3816 -1.0351 -1.0951
 7026SOL     OW32713   0.986   4.676   8.190 -0.2566 -0.2382 -0.2574
 7026SOL    HW132714   0.953   4.715   8.270 -0.6617 -0.1413 -0.4696
 7026SOL    HW232715   1.074   4.711   8.178  0.7203 -1.7492  2.5631
 7027SOL     OW32716   2.789   4.345   1.267 -0.5087 -0.3922  0.0530
 7027SOL    HW132717   2.800   4.364   1.360  0.1417 -0.1656 -0.0719
 7027SOL    HW232718   2.728   4.414   1.241  0.6157  0.5463 -0.1208
 7028SOL     OW32719   2.070   1.427   6.500 -0.0363 -0.2683 -0.0287
 7028SOL    HW132720   2.105   1.351   6.454 -3.2701 -1.8386  0.1441
 7028SOL    HW232721   2.017   1.382   6.565  0.3242  1.1514  1.2660
 7029SOL     OW32722   4.042   2.624   2.567  0.3611  0.5073 -0.2075
 7029SOL    HW132723   3.975   2.582   2.621  0.4756  0.4227 -0.1332
 7029SOL    HW232724   4.090   2.552   2.527  0.7537  0.5369  0.2127
 7030SOL     OW32725   2.084   3.435   1.664 -0.0526  0.6241  0.4990
 7030SOL    HW132726   2.148   3.435   1.592 -0.5596 -0.1047  0.0429
 7030SOL    HW232727   2.112   3.359   1.715 -2.7853  0.2713  1.4748
 7031SOL     OW32728   0.449   4.212   9.519 -0.5733 -0.5878  0.5375
 7031SOL    HW132729   0.433   4.284   9.580  2.1212  0.7507 -0.3834
 7031SOL    HW232730   0.394   4.143   9.557 -0.0377 -0.2168  1.9912
 7032SOL     OW32731   2.394   1.321   1.983  0.5429  0.3926  0.1631
 7032SOL    HW132732   2.311   1.293   2.021  0.4767 -1.1759 -1.1355
 7032SOL    HW232733   2.404   1.414   2.002  2.2532  0.4517 -1.0058
 7033SOL     OW32734   1.167   3.970   4.305  0.4881  0.0184  0.2683
 7033SOL    HW132735   1.166   3.938   4.395  1.1484  2.7279  1.2189
 7033SOL    HW232736   1.251   4.015   4.297  0.0052  0.9372  0.3842
 7034SOL     OW32737   3.824   2.446   7.250 -0.9522 -0.0180  0.6279
 7034SOL    HW132738   3.884   2.379   7.285 -1.2473 -1.3693 -1.4726
 7034SOL    HW232739   3.841   2.448   7.156 -1.6549 -0.7045  0.4859
 7035SOL     OW32740   1.385   4.080  14.929 -0.0166 -0.9486 -0.1420
 7035SOL    HW132741   1.354   4.097  15.018 -0.0365 -1.8269  0.0155
 7035SOL    HW232742   1.329   4.008  14.900 -1.7418 -0.0219  0.8815
 7036SOL     OW32743   4.231   4.527   4.518  0.1260  0.5136 -0.6966
 7036SOL    HW132744   4.174   4.502   4.445 -1.0468 -0.8809  0.6739
 7036SOL    HW232745   4.183   4.594   4.567  0.9196 -0.3875  1.2964
 7037SOL     OW32746   0.481   0.566   3.541 -0.5158 -0.0373 -0.2707
 7037SOL    HW132747   0.557   0.507   3.543  0.1039  0.8853  2.6398
 7037SOL    HW232748   0.478   0.604   3.453  0.0640  2.5949  0.8457
 7038SOL     OW32749   3.221   2.145   9.184  0.3905 -0.2913 -0.2417
 7038SOL    HW132750   3.238   2.182   9.098  0.7739  1.1822  0.4628
 7038SOL    HW232751   3.233   2.227   9.232  0.1944  0.5668 -1.6650
 7039SOL     OW32752   3.116   2.869   3.203 -0.0212  0.3828 -0.1529
 7039SOL    HW132753   3.094   2.776   3.202  2.0583 -0.0883 -1.7192
 7039SOL    HW232754   3.038   2.905   3.244 -0.9106 -2.7800  0.9461
 7040SOL     OW32755   3.205   1.464  12.681  0.6612 -0.3127 -0.0743
 7040SOL    HW132756   3.211   1.418  12.765  1.9278  1.9828  1.1122
 7040SOL    HW232757   3.245   1.411  12.612  1.5460  1.8266 -1.2029
 7041SOL     OW32758   0.076   4.483   9.735 -0.2487 -0.7781 -0.2024
 7041SOL    HW132759   0.151   4.469   9.793 -0.5508  0.5359  0.5136
 7041SOL    HW232760   0.017   4.533   9.792  0.9003  2.1343 -1.5330
 7042SOL     OW32761   3.863   1.474   3.197 -0.5579  0.5439 -0.0444
 7042SOL    HW132762   3.915   1.453   3.275 -1.0489 -1.2208 -0.2082
 7042SOL    HW232763   3.770   1.472   3.219 -0.1899 -0.8661  1.3858
 7043SOL     OW32764   3.665   2.339   2.390 -0.1364 -0.4659 -0.3567
 7043SOL    HW132765   3.735   2.311   2.332  0.0359 -2.6963  0.9483
 7043SOL    HW232766   3.708   2.408   2.442 -0.0542 -0.7888  0.0035
 7044SOL     OW32767   0.023   1.924   9.510  0.3117  0.3834 -0.5113
 7044SOL    HW132768   0.024   1.898   9.602  3.9272  0.7013 -0.4783
 7044SOL    HW232769   0.113   1.912   9.480  0.1557 -2.5844  0.1869
 7045SOL     OW32770   4.196   0.125  10.349  0.4887  0.6791  0.0591
 7045SOL    HW132771   4.173   0.162  10.435 -0.9717  2.3742 -1.0527
 7045SOL    HW232772   4.138   0.050  10.334  1.5110 -0.1275  0.1019
 7046SOL     OW32773   0.637   0.800  11.203  0.2428  0.1062  0.0745
 7046SOL    HW132774   0.551   0.834  11.228  0.2246  0.0530  0.0859
 7046SOL    HW232775   0.621   0.706  11.191 -0.0503  0.2795 -0.8355
 7047SOL     OW32776   3.818   2.032   7.544 -0.6569 -0.2258 -0.0064
 7047SOL    HW132777   3.758   2.096   7.581  0.0076  0.8292 -0.7483
 7047SOL    HW232778   3.817   1.970   7.617 -0.4112 -0.8364 -0.5224
 7048SOL     OW32779   3.971   1.595   4.864 -0.6345 -0.3780 -0.0091
 7048SOL    HW132780   3.898   1.562   4.812 -1.1902  0.1986  0.4049
 7048SOL    HW232781   3.922   1.638   4.934 -1.5108 -0.6522 -0.4520
 7049SOL     OW32782   4.036   0.962   3.581  0.1595  0.1594 -0.1363
 7049SOL    HW132783   4.111   0.904   3.597  2.2008  3.1668  1.1864
 7049SOL    HW232784   4.070   1.044   3.617 -0.0466  0.0607  0.2852
 7050SOL     OW32785   2.314   2.748   2.913 -0.6951  0.7260  0.0830
 7050SOL    HW132786   2.274   2.668   2.947 -0.3779 -0.5432 -2.5060
 7050SOL    HW232787   2.234   2.787   2.878  0.3733  1.3543 -1.7131
 7051SOL     OW32788   2.413   0.193   5.813  0.5148  0.0344 -0.4580
 7051SOL    HW132789   2.469   0.271   5.807  2.1791 -1.1794 -0.8021
 7051SOL    HW232790   2.472   0.146   5.872  2.7731  2.7874 -0.5228
 7052SOL     OW32791   1.091   4.021   2.380  0.3496 -0.1907  0.2957
 7052SOL    HW132792   1.013   4.019   2.435 -0.8164 -3.2715 -1.4458
 7052SOL    HW232793   1.117   3.929   2.384 -2.2082 -0.8814  0.7108
 7053SOL     OW32794   4.603   3.206   2.591 -0.1234  0.0536 -0.8979
 7053SOL    HW132795   4.534   3.241   2.534 -0.4918  1.2059  0.2569
 7053SOL    HW232796   4.678   3.180   2.539 -0.7096 -1.9110 -0.7518
 7054SOL     OW32797   1.764   0.886  14.308  0.1951  0.1947  0.6839
 7054SOL    HW132798   1.728   0.915  14.391  0.0078  3.0333 -0.3753
 7054SOL    HW232799   1.842   0.848  14.349  0.1188 -2.0116 -1.1882
 7055SOL     OW32800   1.344   2.964   3.033  0.1232  0.3673 -0.3911
 7055SOL    HW132801   1.294   2.900   3.082 -0.1514  0.7833 -0.1313
 7055SOL    HW232802   1.428   2.968   3.080 -0.4491  1.2197  0.5554
 7056SOL     OW32803   0.397   0.396  12.620  0.2959  0.0007  0.8626
 7056SOL    HW132804   0.475   0.371  12.569  2.5509  2.9843  2.8122
 7056SOL    HW232805   0.429   0.364  12.704 -0.3306  2.1270  1.9149
 7057SOL     OW32806   1.835   0.335   7.334 -0.5567 -0.3419  0.4670
 7057SOL    HW132807   1.845   0.421   7.375  1.0793 -0.1183 -0.4039
 7057SOL    HW232808   1.748   0.348   7.297  0.0427  0.6346 -0.5975
 7058SOL     OW32809   0.890   2.239   6.667 -0.2719 -0.2998  0.3305
 7058SOL    HW132810   0.875   2.169   6.730 -1.6895 -0.8310 -0.5924
 7058SOL    HW232811   0.836   2.223   6.590 -1.0716  1.0828  0.5887
 7059SOL     OW32812   1.334   2.496   8.575  0.1917  0.2541  0.4833
 7059SOL    HW132813   1.338   2.486   8.480 -0.8593  0.7038  0.3890
 7059SOL    HW232814   1.243   2.488   8.603 -0.5066  1.2503 -1.5694
 7060SOL     OW32815   0.467   1.441  17.273 -0.0092 -0.2184 -0.5914
 7060SOL    HW132816   0.412   1.376  17.317 -0.2674 -0.6065 -1.4788
 7060SOL    HW232817   0.481   1.381  17.199  0.6713 -1.7261  0.7598
 7061SOL     OW32818   0.077   2.296   3.819 -0.2123  0.1541  0.3012
 7061SOL    HW132819   0.120   2.319   3.736  0.2576 -0.1796  0.4507
 7061SOL    HW232820   0.149   2.304   3.881  0.2467 -1.3274 -0.0516
 7062SOL     OW32821   0.753   1.537   3.953  0.4884 -0.1585  0.6829
 7062SOL    HW132822   0.834   1.487   3.962  1.1904  1.3257  2.6298
 7062SOL    HW232823   0.791   1.610   3.905  0.0978 -0.4480 -0.0737
 7063SOL     OW32824   0.588   2.437  13.071 -0.1680 -0.1262 -0.0390
 7063SOL    HW132825   0.506   2.414  13.115 -1.0237  0.1383 -1.5233
 7063SOL    HW232826   0.598   2.370  13.004  0.0965  1.6360 -1.7461
 7064SOL     OW32827   2.048   2.317   4.721  0.5287  0.2770  0.0377
 7064SOL    HW132828   2.039   2.349   4.811  1.4985  1.0768 -0.1562
 7064SOL    HW232829   1.961   2.280   4.705 -0.2550  0.9570  2.6885
 7065SOL     OW32830   2.454   3.482   1.667  0.9389  0.0406  0.6115
 7065SOL    HW132831   2.532   3.530   1.641  0.4412  0.2573 -0.4869
 7065SOL    HW232832   2.416   3.454   1.584 -1.8566  2.1323  1.1992
 7066SOL     OW32833   2.683   1.833   5.264 -0.1387  0.0777 -0.0873
 7066SOL    HW132834   2.602   1.783   5.267 -1.4971  2.3236  0.5460
 7066SOL    HW232835   2.666   1.918   5.224  0.8240 -0.5994 -1.9832
 7067SOL     OW32836   2.159   0.993   1.743  0.0348  0.3270  0.3966
 7067SOL    HW132837   2.227   0.930   1.766 -0.7530 -0.6046  0.1733
 7067SOL    HW232838   2.165   0.998   1.647 -2.1036  0.2599  0.2538
 7068SOL     OW32839   4.377   2.963  15.424  0.3009 -0.1005 -0.3872
 7068SOL    HW132840   4.456   2.914  15.444 -1.0104 -1.4057  1.6768
 7068SOL    HW232841   4.372   2.952  15.329 -0.0129 -1.1401 -0.2506
 7069SOL     OW32842   2.140   4.580   3.414  0.4135  0.3001 -0.2091
 7069SOL    HW132843   2.073   4.517   3.392 -0.5051  1.0397  0.4530
 7069SOL    HW232844   2.097   4.662   3.438 -2.0494 -1.0653  0.0007
 7070SOL     OW32845   1.029   0.577   6.120 -0.2104  0.0148 -0.2082
 7070SOL    HW132846   1.104   0.634   6.139 -0.4218  1.1869 -2.8837
 7070SOL    HW232847   1.069   0.500   6.080  3.5368  0.3093  2.9142
 7071SOL     OW32848   2.232   3.746   4.341 -0.2838 -0.2396 -0.1858
 7071SOL    HW132849   2.154   3.691   4.338 -1.3764  1.2432  0.7557
 7071SOL    HW232850   2.301   3.693   4.303  1.1821 -0.2925  2.4985
 7072SOL     OW32851   4.518   0.265   8.012 -0.1641 -0.1446  0.3372
 7072SOL    HW132852   4.592   0.217   8.050 -1.9275 -2.0124  1.4482
 7072SOL    HW232853   4.444   0.204   8.018  0.0583 -0.2357  2.3308
 7073SOL     OW32854   1.686   3.377  14.188 -0.7081  0.1393 -0.1163
 7073SOL    HW132855   1.711   3.383  14.280  1.3346  0.2103 -0.6530
 7073SOL    HW232856   1.634   3.298  14.203 -0.6128 -0.2180 -1.6879
 7074SOL     OW32857   2.292   3.851  15.725  0.3405  0.2550 -0.1174
 7074SOL    HW132858   2.359   3.785  15.737 -1.5840 -1.7976 -0.7116
 7074SOL    HW232859   2.318   3.906  15.799  0.4336 -1.0200  0.7813
 7075SOL     OW32860   1.304   4.073   7.844  0.1391  0.1579  0.1929
 7075SOL    HW132861   1.375   4.069   7.780 -1.2477 -1.3579 -1.2180
 7075SOL    HW232862   1.237   4.116   7.792 -0.4052  0.2910  0.9963
 7076SOL     OW32863   1.556   3.725   6.871  0.2870  0.5951  0.8104
 7076SOL    HW132864   1.605   3.676   6.805  0.9037  0.2562  1.5270
 7076SOL    HW232865   1.539   3.807   6.824  1.5118  0.4267  0.0873
 7077SOL     OW32866   3.924   2.050   8.058 -0.0645 -0.1200  0.1474
 7077SOL    HW132867   3.959   2.004   7.982 -0.4774 -0.3756  0.1139
 7077SOL    HW232868   3.952   2.140   8.042 -1.0655 -0.0774 -1.3409
 7078SOL     OW32869   2.579   0.091   6.917 -0.3172  0.0110  0.4518
 7078SOL    HW132870   2.593   0.119   6.826  1.6281  1.8501  1.3197
 7078SOL    HW232871   2.623   0.165   6.958 -1.0052  0.7218 -0.0830
 7079SOL     OW32872   2.591   3.586   3.156 -0.1862 -0.0905  0.2979
 7079SOL    HW132873   2.631   3.626   3.234 -0.8395 -0.6679  0.9157
 7079SOL    HW232874   2.599   3.492   3.171  0.1995 -0.3905 -1.7005
 7080SOL     OW32875   4.681   1.413   1.888 -0.5216  0.0803 -0.3166
 7080SOL    HW132876   4.704   1.461   1.968 -0.3992 -2.6574  1.2741
 7080SOL    HW232877   4.619   1.477   1.851 -0.2943  0.9024  0.7177
 7081SOL     OW32878   3.058   0.207   2.633 -0.4492 -0.6770 -0.3926
 7081SOL    HW132879   3.088   0.116   2.641  0.2656 -0.3329  0.9018
 7081SOL    HW232880   3.056   0.236   2.724 -2.4411  0.3310 -0.7619
 7082SOL     OW32881   3.512   2.712   6.071  0.3543  0.4564 -0.1626
 7082SOL    HW132882   3.589   2.665   6.038  0.9842  0.9623  0.5849
 7082SOL    HW232883   3.554   2.779   6.125 -0.8750  1.2800 -0.2429
 7083SOL     OW32884   2.929   4.430   2.339  0.2390  0.6110 -0.2001
 7083SOL    HW132885   2.920   4.520   2.309  0.9468  0.3880 -1.1007
 7083SOL    HW232886   2.949   4.382   2.258  0.7184 -2.5141  1.7613
 7084SOL     OW32887   0.148   1.245   1.857 -0.9006  0.0381  0.4980
 7084SOL    HW132888   0.142   1.176   1.924  0.8014 -1.5639 -0.9875
 7084SOL    HW232889   0.067   1.295   1.861  0.3756  2.2484 -0.9964
 7085SOL     OW32890   2.761   1.625  17.722 -0.4234  0.4521  0.4967
 7085SOL    HW132891   2.764   1.544  17.672 -0.4063  0.4850  0.4448
 7085SOL    HW232892   2.767   1.591   0.061 -0.4199 -1.0529 -0.0771
 7086SOL     OW32893   3.658   3.255  13.345 -0.1156  0.4541  0.1040
 7086SOL    HW132894   3.622   3.275  13.432 -3.1092  1.4393 -1.3911
 7086SOL    HW232895   3.596   3.205  13.292  1.1291 -1.5892  0.5320
 7087SOL     OW32896   2.919   2.203   2.905  0.1950  0.0698  0.3196
 7087SOL    HW132897   2.914   2.170   2.816 -0.6069  0.8753  0.0640
 7087SOL    HW232898   3.012   2.204   2.926  0.3808  1.0296 -0.5480
 7088SOL     OW32899   0.088   1.833  11.054 -0.1124  0.1822 -0.2738
 7088SOL    HW132900   4.733   1.815  11.043 -0.3853  1.5286 -0.1571
 7088SOL    HW232901   0.126   1.782  10.983  0.8914 -0.3028  0.6039
 7089SOL     OW32902   3.037   0.256   2.883  0.0450  0.2036  0.0076
 7089SOL    HW132903   3.089   0.297   2.952  1.8576 -0.7339 -0.8048
 7089SOL    HW232904   3.005   0.179   2.929 -1.9233  0.3968 -1.0469
 7090SOL     OW32905   0.400   0.529   2.137 -0.2534  0.7579  0.3520
 7090SOL    HW132906   0.372   0.437   2.142  0.7415  0.5319  1.4841
 7090SOL    HW232907   0.331   0.564   2.080 -0.0112 -2.3000 -1.8531
 7091SOL     OW32908   2.864   0.220  14.324 -1.0436  0.0467  0.0523
 7091SOL    HW132909   2.807   0.265  14.262 -1.5049 -1.4882 -0.6151
 7091SOL    HW232910   2.947   0.260  14.296 -1.2602 -1.5008 -2.8078
 7092SOL     OW32911   0.329   0.818  12.418  0.0202 -0.5293  0.6979
 7092SOL    HW132912   0.369   0.903  12.436  2.1759 -1.7030  1.4689
 7092SOL    HW232913   0.403   0.762  12.439 -0.0234 -0.5385  0.8321
 7093SOL     OW32914   1.487   2.815   5.209  0.6340  0.3813  0.7049
 7093SOL    HW132915   1.518   2.891   5.159  1.2325 -1.8689 -2.3645
 7093SOL    HW232916   1.551   2.755   5.170 -0.6797 -1.0838  0.8129
 7094SOL     OW32917   1.361   3.563   6.644  0.0454 -0.0753  0.2498
 7094SOL    HW132918   1.282   3.572   6.697  0.7950  0.2480  1.3211
 7094SOL    HW232919   1.356   3.643   6.591 -0.5662 -1.2718 -1.5035
 7095SOL     OW32920   2.740   3.991   4.981  0.6472  0.7816  0.3899
 7095SOL    HW132921   2.780   4.025   4.901  0.0621  1.8355  0.5397
 7095SOL    HW232922   2.681   3.931   4.935  1.3347  0.6650 -0.3381
 7096SOL     OW32923   3.289   3.172  11.198 -0.0127  0.2098 -0.0538
 7096SOL    HW132924   3.342   3.247  11.171 -1.3849  1.2020 -0.0519
 7096SOL    HW232925   3.262   3.206  11.284  0.8874 -0.6964  0.5942
 7097SOL     OW32926   3.055   0.158  11.437  0.2905 -0.0364 -0.1403
 7097SOL    HW132927   3.111   0.100  11.488 -0.9357 -1.6219 -0.5787
 7097SOL    HW232928   3.041   0.231  11.498  0.2917  0.9826 -1.3584
 7098SOL     OW32929   2.891   2.999   2.658 -0.0430 -0.8511 -0.2317
 7098SOL    HW132930   2.935   3.006   2.572  0.1300 -1.1696 -0.1689
 7098SOL    HW232931   2.867   2.907   2.668 -1.5502 -0.3236  0.8851
 7099SOL     OW32932   2.889   3.776   8.459 -0.0211 -0.3521  0.2753
 7099SOL    HW132933   2.824   3.756   8.526  0.3470 -0.6774  0.5387
 7099SOL    HW232934   2.880   3.695   8.409  1.7496 -1.2145  1.3138
 7100SOL     OW32935   2.313   3.776  16.658 -0.0522 -0.4838  0.1536
 7100SOL    HW132936   2.308   3.834  16.582 -0.0239  0.6700  1.0310
 7100SOL    HW232937   2.244   3.815  16.711 -1.2384 -1.9715 -0.2806
 7101SOL     OW32938   4.609   0.246  13.292  0.2331 -0.1668  0.1185
 7101SOL    HW132939   4.650   0.332  13.301 -1.3020  0.4458  1.4273
 7101SOL    HW232940   4.522   0.275  13.319 -0.0563  0.9969 -2.0818
 7102SOL     OW32941   3.693   3.128  10.386  0.3858  0.1059 -0.1276
 7102SOL    HW132942   3.746   3.204  10.408  0.3461  0.3026 -0.7208
 7102SOL    HW232943   3.731   3.058  10.438  0.4945  0.3882  0.1777
 7103SOL     OW32944   3.047   2.195   5.151 -0.7837 -0.2829  0.3031
 7103SOL    HW132945   2.974   2.143   5.119 -1.6233 -0.1986  2.0627
 7103SOL    HW232946   3.003   2.278   5.170  2.0909  1.3810 -0.3010
 7104SOL     OW32947   1.719   2.904   3.430 -0.5767  0.6238 -0.1183
 7104SOL    HW132948   1.780   2.931   3.499  0.7394  0.1190 -1.0917
 7104SOL    HW232949   1.788   2.874   3.370  0.2000  1.1868  0.4884
 7105SOL     OW32950   3.909   2.086   5.137  0.4248 -0.2358 -0.6811
 7105SOL    HW132951   3.986   2.029   5.132 -0.7463 -2.1626  2.8847
 7105SOL    HW232952   3.893   2.115   5.047 -2.4854 -0.8779 -0.3843
 7106SOL     OW32953   1.876   0.386   1.962  0.0029  0.4962  0.7633
 7106SOL    HW132954   1.837   0.471   1.981 -3.4195 -0.9464  0.0772
 7106SOL    HW232955   1.799   0.333   1.983 -0.3408 -0.0782 -2.0174
 7107SOL     OW32956   4.443   0.839  15.688 -0.0662  0.3286 -0.4280
 7107SOL    HW132957   4.450   0.777  15.615  1.2045 -0.5612  0.4492
 7107SOL    HW232958   4.496   0.791  15.752 -1.6894 -1.9457 -0.8075
 7108SOL     OW32959   2.411   3.724   2.742  0.2118 -0.1571  0.5354
 7108SOL    HW132960   2.497   3.734   2.701 -0.7088 -0.3711 -1.4594
 7108SOL    HW232961   2.357   3.798   2.716  0.4214 -0.7494 -1.5823
 7109SOL     OW32962   4.199   0.262   3.582 -0.4838  0.7841 -0.2256
 7109SOL    HW132963   4.244   0.271   3.498 -0.1079  0.8095 -0.0216
 7109SOL    HW232964   4.158   0.347   3.592  0.9375  1.4660 -0.1494
 7110SOL     OW32965   2.373   0.743  16.382 -0.2159  0.2206 -0.4505
 7110SOL    HW132966   2.406   0.690  16.310  1.0539  0.7830 -0.2756
 7110SOL    HW232967   2.361   0.826  16.336 -3.5567 -0.9119 -1.6713
 7111SOL     OW32968   0.657   0.840  13.773 -0.2612  0.0373  0.2330
 7111SOL    HW132969   0.660   0.896  13.850  0.3185  0.6349 -0.2146
 7111SOL    HW232970   0.656   0.751  13.806 -1.6599  0.1692  0.5320
 7112SOL     OW32971   4.114   2.600   3.549 -0.4204 -0.1880  0.1313
 7112SOL    HW132972   4.131   2.693   3.566  0.7089 -0.5843  1.2117
 7112SOL    HW232973   4.064   2.609   3.468  0.7013  1.9400 -0.3230
 7113SOL     OW32974   2.872   4.404   8.231  0.0183 -0.3621  0.3309
 7113SOL    HW132975   2.788   4.449   8.223  0.1339 -0.6404 -2.7252
 7113SOL    HW232976   2.902   4.389   8.141 -2.4919 -0.1284 -0.5384
 7114SOL     OW32977   4.440   3.529   6.980 -0.3321  0.1795  0.3125
 7114SOL    HW132978   4.350   3.544   6.950  0.2545 -3.3259 -3.1749
 7114SOL    HW232979   4.452   3.614   7.023 -1.6992  0.3941  0.2988
 7115SOL     OW32980   2.413   2.101  10.406  0.2444  0.1805 -0.0167
 7115SOL    HW132981   2.443   2.110  10.496 -1.3284  0.3222  0.4989
 7115SOL    HW232982   2.354   2.177  10.408  0.3050  0.2304 -0.1352
 7116SOL     OW32983   4.535   0.227   6.385 -0.2455 -0.4172 -0.4811
 7116SOL    HW132984   4.526   0.133   6.367  0.8111 -0.4175 -1.0044
 7116SOL    HW232985   4.580   0.254   6.305 -0.9228  0.1893 -0.6562
 7117SOL     OW32986   3.119   1.393   9.644  0.4609  0.2131 -0.0644
 7117SOL    HW132987   3.124   1.384   9.739  1.3089 -0.1855 -0.1443
 7117SOL    HW232988   3.165   1.311   9.625  0.1575  0.6935 -3.0038
 7118SOL     OW32989   1.746   2.169   0.960 -0.3193  0.4893 -0.4686
 7118SOL    HW132990   1.727   2.177   1.054 -0.3623  3.8073 -0.7742
 7118SOL    HW232991   1.724   2.077   0.948  0.3140  0.5079 -1.8061
 7119SOL     OW32992   1.402   4.107   2.480  0.0134 -0.3894 -0.4206
 7119SOL    HW132993   1.452   4.119   2.399  2.0595 -0.9843  0.7354
 7119SOL    HW232994   1.392   4.012   2.472  1.0556 -0.7295  1.9514
 7120SOL     OW32995   3.420   2.428   5.608  0.5258 -0.1381 -0.0729
 7120SOL    HW132996   3.348   2.484   5.636 -0.4500  0.3830 -3.6331
 7120SOL    HW232997   3.462   2.415   5.693 -0.0580 -1.2164  0.0505
 7121SOL     OW32998   4.230   0.221   0.517 -0.4375 -0.0340  0.1493
 7121SOL    HW132999   4.245   0.128   0.532  1.8534  0.4864  1.0685
 7121SOL    HW233000   4.270   0.228   0.430 -0.7879 -0.5660 -0.0557
 7122SOL     OW33001   3.643   3.435   3.072  0.0335 -0.0266  0.4399
 7122SOL    HW133002   3.701   3.382   3.126 -0.4622  0.1093  1.1062
 7122SOL    HW233003   3.578   3.366   3.060  0.5968 -0.4505 -0.1318
 7123SOL     OW33004   3.568   2.830   5.510  0.4028 -0.5613  0.8298
 7123SOL    HW133005   3.648   2.836   5.458 -1.0383  1.9264 -1.1182
 7123SOL    HW233006   3.552   2.923   5.526 -1.7512 -0.0557 -4.4160
 7124SOL     OW33007   4.574   0.740   8.423 -0.3633  0.1045 -0.1506
 7124SOL    HW133008   4.654   0.771   8.381 -0.4398  0.3890 -0.0868
 7124SOL    HW233009   4.604   0.710   8.510  0.8821  0.1633 -0.5615
 7125SOL     OW33010   3.540   1.927  11.051  0.2978  0.4700  0.1414
 7125SOL    HW133011   3.530   1.947  11.144  1.0461  2.2205 -0.1516
 7125SOL    HW233012   3.554   2.016  11.019 -0.5461  1.6030  2.9634
 7126SOL     OW33013   0.309   4.209   5.265 -0.0088 -0.1996  0.1095
 7126SOL    HW133014   0.393   4.236   5.302 -0.0435 -1.9392  1.4641
 7126SOL    HW233015   0.256   4.289   5.276  1.1082  0.7016 -1.0888
 7127SOL     OW33016   4.342   1.346   4.341 -0.1889 -0.4878 -0.1890
 7127SOL    HW133017   4.274   1.387   4.287 -1.5943 -0.8757  1.3053
 7127SOL    HW233018   4.422   1.384   4.304 -0.9328  1.9843  0.7727
 7128SOL     OW33019   2.627   1.112   4.234 -0.0819  0.6671  0.2484
 7128SOL    HW133020   2.602   1.093   4.143  1.6320  0.2458 -0.1382
 7128SOL    HW233021   2.677   1.193   4.221  2.2926 -0.6879  0.8372
 7129SOL     OW33022   4.231   2.830   2.554  0.3269 -0.1809  0.8484
 7129SOL    HW133023   4.245   2.857   2.645 -1.3070 -1.2528  1.4001
 7129SOL    HW233024   4.177   2.752   2.561 -0.1952  0.3215  2.4352
 7130SOL     OW33025   1.247   0.457   8.712 -0.1026 -0.0412  0.0749
 7130SOL    HW133026   1.230   0.511   8.789 -0.3254  0.1199 -0.0886
 7130SOL    HW233027   1.292   0.501   8.640 -1.0011 -0.4553 -0.7358
 7131SOL     OW33028   4.367   2.815   8.486  0.1624  0.3817 -0.6551
 7131SOL    HW133029   4.339   2.835   8.575 -0.9235 -1.8510 -0.4847
 7131SOL    HW233030   4.302   2.751   8.456 -0.8197  1.1948 -0.2622
 7132SOL     OW33031   1.290   1.358   6.193 -0.1952  0.4285 -0.4110
 7132SOL    HW133032   1.353   1.392   6.258 -1.1322 -0.0570  0.7596
 7132SOL    HW233033   1.266   1.445   6.159 -1.0696 -0.1152 -1.1631
 7133SOL     OW33034   1.053   3.811   1.964  0.0632  0.2736 -0.2937
 7133SOL    HW133035   1.124   3.833   1.904  0.4200  0.0185  0.0436
 7133SOL    HW233036   1.005   3.894   1.960  3.7823  2.4071  0.1672
 7134SOL     OW33037   4.389   4.499   5.080  0.0271 -0.6635 -0.5413
 7134SOL    HW133038   4.398   4.410   5.044 -3.0232 -0.7704 -1.1069
 7134SOL    HW233039   4.426   4.556   5.012 -0.7588  0.6570  0.1400
 7135SOL     OW33040   3.361   1.578   5.377  0.0107  0.5116 -0.1241
 7135SOL    HW133041   3.439   1.538   5.415 -0.7560 -0.9960 -0.1337
 7135SOL    HW233042   3.378   1.671   5.394 -2.0470  0.7047  0.8645
 7136SOL     OW33043   1.122   0.729   4.434 -0.8247 -0.7789 -0.0960
 7136SOL    HW133044   1.150   0.818   4.413  1.4344 -1.2587  0.9200
 7136SOL    HW233045   1.168   0.720   4.517  1.5412  0.3198 -1.2607
 7137SOL     OW33046   3.446   3.714   2.691 -0.0975 -0.0029 -0.2106
 7137SOL    HW133047   3.495   3.665   2.625  0.4966  1.4993 -0.8616
 7137SOL    HW233048   3.399   3.645   2.739 -1.4494  0.2908 -1.0997
 7138SOL     OW33049   2.236   2.373   3.961  0.2137 -0.2512 -0.7723
 7138SOL    HW133050   2.142   2.354   3.957  0.0084  0.7929 -0.7820
 7138SOL    HW233051   2.268   2.283   3.951  2.1111  0.4306 -0.8599
 7139SOL     OW33052   0.776   2.138  13.995  0.2255  0.1114  0.3536
 7139SOL    HW133053   0.819   2.220  13.970 -1.3125  0.5705 -0.7860
 7139SOL    HW233054   0.842   2.093  14.047  0.5215  0.0582 -0.0723
 7140SOL     OW33055   1.048   3.541   3.301 -0.1396  0.1440  0.7469
 7140SOL    HW133056   0.966   3.553   3.254  0.6011  0.0191 -0.5654
 7140SOL    HW233057   1.099   3.469   3.264  0.4428  0.4019  1.0469
 7141SOL     OW33058   2.117   1.630   1.763 -0.0793  1.1189  0.2206
 7141SOL    HW133059   2.134   1.536   1.770 -0.7546  0.9377 -0.5306
 7141SOL    HW233060   2.056   1.627   1.689 -1.3496  1.6622  1.2682
 7142SOL     OW33061   3.578   2.393   2.920 -0.1314  0.0731  0.6111
 7142SOL    HW133062   3.574   2.316   2.863 -0.6717 -0.2636  1.0948
 7142SOL    HW233063   3.570   2.469   2.863  0.2143 -2.2022 -2.4725
 7143SOL     OW33064   0.131   0.359  16.689 -0.1309  0.0819 -0.0017
 7143SOL    HW133065   0.198   0.300  16.723 -1.2619 -1.0836  0.1947
 7143SOL    HW233066   0.181   0.426  16.641 -1.1708 -1.3575 -3.1218
 7144SOL     OW33067   0.465   0.657   8.846 -0.7390 -0.2104 -0.1495
 7144SOL    HW133068   0.553   0.621   8.830 -1.1371 -1.0033 -0.5127
 7144SOL    HW233069   0.462   0.652   8.941 -0.0564 -1.3265 -0.1851
 7145SOL     OW33070   2.776   4.589  15.136 -0.9948  0.4877  0.1813
 7145SOL    HW133071   2.688   4.555  15.117 -0.7325  0.3545 -0.8250
 7145SOL    HW233072   2.830   4.520  15.096  0.4941  0.2224  2.6213
 7146SOL     OW33073   1.960   3.414   1.986 -0.4546  0.8015 -0.0254
 7146SOL    HW133074   1.996   3.485   2.038  1.4814  0.0793 -0.3806
 7146SOL    HW233075   2.030   3.354   1.960  0.3577  2.1112 -0.8913
 7147SOL     OW33076   2.620   0.568  16.231  1.2707  0.4305 -0.1900
 7147SOL    HW133077   2.667   0.487  16.215 -0.2539 -0.4673 -0.1213
 7147SOL    HW233078   2.673   0.638  16.193  0.2809  2.4605  2.1388
 7148SOL     OW33079   0.654   4.530   9.948  0.0668 -0.0341  0.5182
 7148SOL    HW133080   0.671   4.436   9.940 -0.8185 -0.2066  0.5930
 7148SOL    HW233081   0.684   4.559   9.862  0.2277  1.8323  1.2059
 7149SOL     OW33082   2.344   3.551   6.385 -0.5173  0.0718  0.1834
 7149SOL    HW133083   2.324   3.639   6.353 -0.9219  0.0157  0.2784
 7149SOL    HW233084   2.327   3.507   6.302 -1.0885 -0.3261  0.5102
 7150SOL     OW33085   4.000   2.782  17.069 -0.5691  0.4216 -0.1345
 7150SOL    HW133086   3.976   2.872  17.091 -1.6055  0.3027 -0.8057
 7150SOL    HW233087   3.929   2.766  17.007  1.2696 -2.9507 -1.3525
 7151SOL     OW33088   2.981   1.387   6.209  0.1807 -0.7025  0.1476
 7151SOL    HW133089   3.054   1.369   6.149  0.9182 -1.7593  1.3629
 7151SOL    HW233090   3.008   1.457   6.268  1.4127 -2.6246  1.8615
 7152SOL     OW33091   2.498   3.407   5.925  0.5633 -0.5210 -0.1790
 7152SOL    HW133092   2.532   3.469   5.989 -2.6081 -0.7312  1.6894
 7152SOL    HW233093   2.546   3.327   5.945 -0.4051 -1.2648 -0.8517
 7153SOL     OW33094   2.627   1.946   2.288  0.2530  0.1004  0.5147
 7153SOL    HW133095   2.532   1.956   2.282  0.1627  0.1856  2.0389
 7153SOL    HW233096   2.651   2.033   2.256  0.4431  0.1893  0.8946
 7154SOL     OW33097   2.415   3.000  11.491  0.2176  0.2775  0.1916
 7154SOL    HW133098   2.391   2.911  11.467 -0.2845  0.1982  0.9831
 7154SOL    HW233099   2.333   3.050  11.494 -1.0116 -1.7027 -1.1695
 7155SOL     OW33100   2.001   0.762   8.317 -0.4435 -0.3709  0.1078
 7155SOL    HW133101   1.951   0.698   8.266 -0.7105 -0.6926  0.7785
 7155SOL    HW233102   1.935   0.821   8.355 -0.1013 -0.9993  1.6815
 7156SOL     OW33103   3.848   3.916   3.885  0.1598 -0.3705  0.0244
 7156SOL    HW133104   3.943   3.926   3.877  0.2630 -2.0131 -0.8094
 7156SOL    HW233105   3.851   3.820   3.890  1.7863 -0.3880 -1.2093
 7157SOL     OW33106   4.043   3.245  16.135 -0.3678 -0.0097  0.0288
 7157SOL    HW133107   3.996   3.170  16.099 -0.4775  0.0614  0.0242
 7157SOL    HW233108   3.969   3.294  16.170 -1.2170  0.4502 -2.4053
 7158SOL     OW33109   2.007   3.046  12.618 -0.2501  0.4933 -0.9235
 7158SOL    HW133110   2.062   2.969  12.604 -0.3855  0.9010 -3.5438
 7158SOL    HW233111   1.937   3.007  12.671 -0.0797  3.0816  1.2227
 7159SOL     OW33112   1.904   4.125   5.650 -0.2380 -0.0738 -0.0132
 7159SOL    HW133113   1.952   4.127   5.567  2.2787  2.5491  1.4855
 7159SOL    HW233114   1.941   4.204   5.689 -0.3256 -0.4057  0.7323
 7160SOL     OW33115   0.034   4.644  15.518  0.8308  0.2439 -0.1501
 7160SOL    HW133116   0.034   4.600  15.433  0.5581 -2.3560  1.1811
 7160SOL    HW233117   0.066   4.729  15.487  0.7052  0.8002  1.2651
 7161SOL     OW33118   0.986   0.904   5.667  0.0772 -0.4221 -0.5210
 7161SOL    HW133119   1.074   0.899   5.705  0.0224 -1.0005 -0.4713
 7161SOL    HW233120   0.963   0.985   5.712 -4.2028 -1.7763 -0.2703
 7162SOL     OW33121   2.943   2.967   2.395  0.1838  0.2602 -0.4590
 7162SOL    HW133122   2.881   2.947   2.325 -0.1736  0.3692 -0.1744
 7162SOL    HW233123   2.974   3.052   2.366  1.5599 -0.0800  0.0008
 7163SOL     OW33124   2.742   2.897   8.645 -0.2244  0.1649  0.2123
 7163SOL    HW133125   2.689   2.889   8.724  0.1289  0.7433  0.4993
 7163SOL    HW233126   2.746   2.805   8.617 -1.8304  0.4385 -0.9033
 7164SOL     OW33127   0.975   3.357   0.615 -0.7018  0.2078  0.7298
 7164SOL    HW133128   0.996   3.326   0.527 -0.6804  0.2887  0.7067
 7164SOL    HW233129   0.892   3.397   0.589  0.0772  0.6639 -1.0185
 7165SOL     OW33130   0.067   2.318  17.067 -0.4719 -0.0386  0.0893
 7165SOL    HW133131   0.067   2.359  16.980  1.9943 -1.1705 -0.4503
 7165SOL    HW233132   0.059   2.230  17.030 -1.1183 -0.2408  0.7185
 7166SOL     OW33133   4.528   4.383  12.768 -0.0994  0.1490  0.7182
 7166SOL    HW133134   4.611   4.362  12.726 -1.1778 -0.8074 -0.9604
 7166SOL    HW233135   4.564   4.405  12.853 -0.4819 -0.4917  1.0472
 7167SOL     OW33136   1.134   2.590   6.053  0.5355  0.2247 -0.4088
 7167SOL    HW133137   1.150   2.671   6.006 -2.5177  1.4505  0.6594
 7167SOL    HW233138   1.046   2.616   6.081 -0.1762 -2.0351 -0.5611
 7168SOL     OW33139   2.438   3.308   9.468 -0.4695  0.1345  0.0716
 7168SOL    HW133140   2.519   3.302   9.519 -0.1850 -0.2498 -0.4307
 7168SOL    HW233141   2.464   3.341   9.382 -1.0882  1.2583  0.3012
 7169SOL     OW33142   0.237   0.109   3.720  0.4563  0.3497  0.4611
 7169SOL    HW133143   0.244   0.199   3.688 -0.6540  0.7272  1.2826
 7169SOL    HW233144   0.317   0.069   3.685 -0.1980 -0.1607 -0.4490
 7170SOL     OW33145   2.921   4.583   5.424  0.7391 -0.4208  0.1794
 7170SOL    HW133146   2.863   4.583   5.348  0.5821  3.2827  0.2768
 7170SOL    HW233147   3.001   4.618   5.384  0.6798  0.4189  0.7870
 7171SOL     OW33148   2.849   3.843   9.208  0.1524  0.3661 -0.1448
 7171SOL    HW133149   2.932   3.861   9.251 -1.6458 -1.5774  4.1347
 7171SOL    HW233150   2.846   3.902   9.133  0.6919 -1.9326 -2.0117
 7172SOL     OW33151   1.926   0.687   5.317  0.3726  0.0743  0.5608
 7172SOL    HW133152   1.956   0.685   5.408  0.7300  2.3636  0.4953
 7172SOL    HW233153   1.851   0.746   5.328  1.3735  1.5733 -0.8408
 7173SOL     OW33154   2.210   2.097  10.842 -0.2144 -0.3353 -0.1196
 7173SOL    HW133155   2.125   2.056  10.827  1.1179 -2.4416 -1.9773
 7173SOL    HW233156   2.225   2.069  10.932  1.1245  2.4466  0.5170
 7174SOL     OW33157   1.140   1.581   8.123 -0.0601 -0.1150 -0.3000
 7174SOL    HW133158   1.215   1.526   8.147  0.0383  0.3563  0.4629
 7174SOL    HW233159   1.058   1.537   8.143  0.2034  0.1772  1.3846
 7175SOL     OW33160   2.711   0.307   6.217 -0.0822  0.2190 -0.9184
 7175SOL    HW133161   2.639   0.267   6.265 -0.7281  1.8077 -0.5400
 7175SOL    HW233162   2.687   0.391   6.176 -1.6869  0.3506  0.3164
 7176SOL     OW33163   2.748   1.105   0.438  0.0366  0.5336  0.2950
 7176SOL    HW133164   2.654   1.121   0.450  0.3821  2.4277  0.5538
 7176SOL    HW233165   2.771   1.119   0.530 -0.6280  3.1871  0.0736
 7177SOL     OW33166   4.532   1.972   5.688 -0.3324 -0.0847  1.2062
 7177SOL    HW133167   4.481   1.899   5.652 -0.4404  0.1164  0.9463
 7177SOL    HW233168   4.616   1.934   5.712  0.4939 -0.8768 -3.0885
 7178SOL     OW33169   2.609   0.381   1.798 -0.1631 -0.6463  0.2704
 7178SOL    HW133170   2.599   0.325   1.721 -0.9854 -1.7831  1.2026
 7178SOL    HW233171   2.626   0.314   1.864  1.1040 -0.0412  0.5551
 7179SOL     OW33172   1.295   3.804   6.515  0.2425 -0.3870  0.6542
 7179SOL    HW133173   1.382   3.840   6.500  0.2295 -1.5665 -2.0999
 7179SOL    HW233174   1.244   3.882   6.496 -1.1975 -1.1845  1.2190
 7180SOL     OW33175   1.696   0.588   2.037 -0.1883  0.0927 -0.2518
 7180SOL    HW133176   1.689   0.621   1.948  1.5189 -0.3782 -0.5398
 7180SOL    HW233177   1.753   0.656   2.072  2.4391 -0.9033 -2.7214
 7181SOL     OW33178   2.434   1.025   6.654  0.0054 -0.2388  0.0568
 7181SOL    HW133179   2.478   1.054   6.734  1.4228 -2.3438  0.0315
 7181SOL    HW233180   2.356   1.080   6.649 -1.2122 -1.9349  0.2526
 7182SOL     OW33181   2.719   3.009   9.697 -0.1222 -0.0022 -0.2319
 7182SOL    HW133182   2.709   3.054   9.781 -0.1564  1.9354 -1.2659
 7182SOL    HW233183   2.813   2.992   9.709 -0.2560  0.7937  1.9038
 7183SOL     OW33184   0.458   1.880   5.627 -0.2206  0.4296 -0.1615
 7183SOL    HW133185   0.452   1.940   5.552 -0.1044 -1.1656 -1.4351
 7183SOL    HW233186   0.550   1.861   5.641 -0.4411 -0.3568  0.2129
 7184SOL     OW33187   2.992   0.411   1.736  0.0654  0.5143  0.4120
 7184SOL    HW133188   2.963   0.360   1.811 -2.1581  0.9120 -0.1838
 7184SOL    HW233189   3.077   0.372   1.715  0.0631  0.5223  0.3879
 7185SOL     OW33190   4.238   2.745   5.632 -0.4491  0.8331  0.1829
 7185SOL    HW133191   4.330   2.733   5.652 -0.5480 -2.2281 -1.2468
 7185SOL    HW233192   4.204   2.655   5.631  2.9435 -0.4177 -0.1287
 7186SOL     OW33193   4.712   3.968   2.002 -0.0648 -0.0465 -0.6550
 7186SOL    HW133194   0.034   3.895   1.988 -1.1893 -1.0072 -0.4652
 7186SOL    HW233195   4.686   3.963   2.094 -2.1225  1.2002 -1.1590
 7187SOL     OW33196   3.379   3.614   3.272 -0.1102  0.5916  0.1605
 7187SOL    HW133197   3.374   3.644   3.181 -0.6998  1.0622  0.3436
 7187SOL    HW233198   3.445   3.676   3.303 -0.6431  1.3300 -0.1768
 7188SOL     OW33199   1.521   3.696   5.965 -0.0399  0.0701 -0.4973
 7188SOL    HW133200   1.528   3.647   6.047  0.9084  1.4780  0.2443
 7188SOL    HW233201   1.455   3.641   5.922  0.0844  0.9200 -1.7616
 7189SOL     OW33202   4.169   2.040   6.893  0.0742 -0.4202  0.0004
 7189SOL    HW133203   4.092   1.991   6.923  0.5081 -0.7306  0.6197
 7189SOL    HW233204   4.144   2.070   6.806 -0.0341  5.0605  1.8832
 7190SOL     OW33205   2.653   1.309   4.937  0.3665 -0.0703 -0.0098
 7190SOL    HW133206   2.679   1.271   4.853 -1.5757 -1.2013 -0.1011
 7190SOL    HW233207   2.706   1.261   5.000  0.0419 -1.3087 -0.6871
 7191SOL     OW33208   1.246   2.140   6.012  0.3416  0.1827 -0.3540
 7191SOL    HW133209   1.237   2.197   6.089 -0.5622  1.2117 -1.2176
 7191SOL    HW233210   1.154   2.117   5.996  0.0909  0.8774  0.0754
 7192SOL     OW33211   2.125   1.279   3.582  0.2719  0.8518 -0.5460
 7192SOL    HW133212   2.207   1.328   3.586  0.7346  0.1092 -0.9917
 7192SOL    HW233213   2.118   1.249   3.492 -1.9912 -2.0362  0.5728
 7193SOL     OW33214   0.919   4.044   5.402  0.3216  0.3082  0.1784
 7193SOL    HW133215   0.917   3.972   5.466 -0.0747 -0.6211 -0.8794
 7193SOL    HW233216   0.863   4.103   5.452 -1.0076 -2.5558  2.1348
 7194SOL     OW33217   4.624   3.480   6.470 -0.3582  0.4812  0.1602
 7194SOL    HW133218   4.586   3.543   6.531 -0.0080  2.4878 -1.6981
 7194SOL    HW233219   4.610   3.524   6.386 -2.6221 -0.6427 -0.0485
 7195SOL     OW33220   3.151   1.409   4.030  0.0348  0.0299  0.0600
 7195SOL    HW133221   3.100   1.369   3.960  1.4726  1.0442 -1.5464
 7195SOL    HW233222   3.209   1.340   4.064  0.9084  0.3584 -0.7575
 7196SOL     OW33223   4.134   4.439  17.313 -0.1331 -0.0382 -0.4972
 7196SOL    HW133224   4.188   4.457  17.235  0.1358  0.0851 -0.2808
 7196SOL    HW233225   4.125   4.344  17.309  1.7143 -0.2758  1.4238
 7197SOL     OW33226   3.001   0.873   3.670  0.2426  0.2502  0.2732
 7197SOL    HW133227   2.936   0.829   3.616  0.0640 -3.1542  3.3107
 7197SOL    HW233228   3.074   0.812   3.667  0.8994  1.0031  0.9014
 7198SOL     OW33229   1.153   4.313   6.067  0.3170  0.1924 -0.3840
 7198SOL    HW133230   1.196   4.396   6.048  1.1783  0.2593  1.8495
 7198SOL    HW233231   1.233   4.267   6.092  0.7604  0.6364 -1.0009
 7199SOL     OW33232   0.500   1.625  16.473 -0.3558 -0.1582  0.2056
 7199SOL    HW133233   0.507   1.589  16.562  1.2269  0.1544  0.2044
 7199SOL    HW233234   0.590   1.657  16.464 -1.0228  1.4583 -0.6511
 7200SOL     OW33235   4.061   3.344   9.416  0.1247  0.0645  0.1595
 7200SOL    HW133236   4.087   3.435   9.431 -2.1025  0.3188  2.5472
 7200SOL    HW233237   4.009   3.344   9.336  0.4041 -0.9108 -0.0108
 7201SOL     OW33238   3.933   2.727   8.808  0.0641 -0.1587  1.0344
 7201SOL    HW133239   3.975   2.813   8.810  0.2954 -0.2489  0.0300
 7201SOL    HW233240   4.011   2.671   8.814  1.1418  1.0363 -2.1595
 7202SOL     OW33241   1.707   4.403   2.125 -0.2840  0.0740  0.5477
 7202SOL    HW133242   1.622   4.447   2.117 -0.4495 -0.2088  0.7460
 7202SOL    HW233243   1.685   4.325   2.074  0.5842  1.5969 -2.1200
 7203SOL     OW33244   2.757   2.513   6.763 -0.1289 -0.6180  0.1785
 7203SOL    HW133245   2.761   2.554   6.677 -1.7769 -2.4487 -0.7652
 7203SOL    HW233246   2.850   2.530   6.780 -0.1317 -1.6931  1.2784
 7204SOL     OW33247   0.772   0.965   1.503  0.0928  0.2086  0.3287
 7204SOL    HW133248   0.784   0.995   1.413  0.3153 -2.0087 -0.3730
 7204SOL    HW233249   0.680   0.984   1.518  0.2420  1.1940  0.0362
 7205SOL     OW33250   4.092   3.808  12.845  0.4086  0.1539 -0.1175
 7205SOL    HW133251   4.074   3.725  12.889  0.3477  0.4413  0.4064
 7205SOL    HW233252   4.167   3.776  12.795 -0.1526 -1.1840 -0.1112
 7206SOL     OW33253   1.866   2.671   1.586 -0.0579  0.3413  0.8197
 7206SOL    HW133254   1.896   2.657   1.676 -1.7339  0.8550  1.4614
 7206SOL    HW233255   1.942   2.676   1.528 -0.9561 -2.3293 -0.5830
 7207SOL     OW33256   1.366   1.028   5.585  0.3038  0.8604  0.5843
 7207SOL    HW133257   1.331   0.978   5.658  2.0089  0.5613  1.1999
 7207SOL    HW233258   1.294   1.028   5.522 -0.1550  3.9543  1.1178
 7208SOL     OW33259   2.512   3.556   0.600  0.3624  0.3916 -0.1021
 7208SOL    HW133260   2.574   3.498   0.555 -0.7442  0.1342 -1.2920
 7208SOL    HW233261   2.549   3.637   0.568  1.8294 -0.5368 -0.7440
 7209SOL     OW33262   1.102   4.475  13.444  0.1281  0.1273  0.0343
 7209SOL    HW133263   1.145   4.407  13.391 -0.2627  0.7400 -1.0614
 7209SOL    HW233264   1.012   4.474  13.413  0.2222  1.6261 -0.2620
 7210SOL     OW33265   0.829   0.236   8.074  0.1917 -0.5916  0.4424
 7210SOL    HW133266   0.781   0.153   8.070  0.1051 -0.4462 -1.3650
 7210SOL    HW233267   0.798   0.259   8.162  0.9037  1.9752 -0.0005
 7211SOL     OW33268   3.962   2.449   3.180  0.9446 -0.2201  0.0875
 7211SOL    HW133269   3.888   2.393   3.157  0.1594  1.6301 -1.7967
 7211SOL    HW233270   3.990   2.397   3.256  1.5741 -2.5455 -1.7319
 7212SOL     OW33271   3.218   1.456  11.472  0.4139 -0.1154  0.1786
 7212SOL    HW133272   3.190   1.413  11.553  0.9124  1.4242  1.1764
 7212SOL    HW233273   3.294   1.401  11.454  0.5243  0.2150 -0.3690
 7213SOL     OW33274   2.077   1.402  13.871  0.1021 -0.3822 -0.6344
 7213SOL    HW133275   1.999   1.362  13.909 -1.6397  2.3685 -1.4139
 7213SOL    HW233276   2.152   1.373  13.924  1.2101  2.4469 -0.6665
 7214SOL     OW33277   3.473   2.895   8.365  0.3693 -0.0134 -0.2756
 7214SOL    HW133278   3.495   2.868   8.454  2.3466  2.3845 -0.0565
 7214SOL    HW233279   3.498   2.986   8.352 -1.3353  0.4486 -0.3218
 7215SOL     OW33280   1.162   3.527   1.320  0.6455 -0.4090 -0.8411
 7215SOL    HW133281   1.185   3.465   1.252  3.2251  0.3739 -0.6729
 7215SOL    HW233282   1.068   3.529   1.304  0.7070  1.5988 -1.0126
 7216SOL     OW33283   2.479   3.863  13.642  0.3980 -0.1052 -0.1178
 7216SOL    HW133284   2.448   3.881  13.731  0.4993  0.3476 -0.1790
 7216SOL    HW233285   2.522   3.778  13.654  1.0650  0.2507  0.0033
 7217SOL     OW33286   1.904   0.817   1.742 -0.0797  0.3397  0.2132
 7217SOL    HW133287   1.847   0.829   1.667 -0.1682 -0.2397  0.1861
 7217SOL    HW233288   1.980   0.864   1.709 -1.1364  0.9808 -1.2519
 7218SOL     OW33289   0.972   0.292   6.514  0.2130  0.4350 -0.0538
 7218SOL    HW133290   0.901   0.252   6.564  1.5767 -0.8546  0.8418
 7218SOL    HW233291   1.037   0.299   6.584 -0.7776  1.3256  0.7743
 7219SOL     OW33292   0.262   1.992   9.012 -0.6958 -0.1622 -0.2330
 7219SOL    HW133293   0.319   2.007   8.936 -1.9285 -0.1710 -1.1499
 7219SOL    HW233294   0.327   1.969   9.079  0.6089  1.6670 -0.8663
 7220SOL     OW33295   0.215   1.386   8.098  0.2435 -0.3156  0.1301
 7220SOL    HW133296   0.140   1.368   8.042 -1.1689  1.2558  1.5411
 7220SOL    HW233297   0.204   1.337   8.179 -1.8717  0.2335  0.1720
 7221SOL     OW33298   2.019   2.938   2.461  0.0211 -0.3965 -0.5795
 7221SOL    HW133299   1.946   2.967   2.407 -0.8539 -0.7945  0.4050
 7221SOL    HW233300   2.022   3.009   2.526 -1.4250  0.6828 -1.6899
 7222SOL     OW33301   2.914   3.125   1.802  0.4631  0.3604 -0.6191
 7222SOL    HW133302   3.008   3.124   1.786  0.5890  0.7007  0.0875
 7222SOL    HW233303   2.911   3.064   1.876  0.2179 -1.5967 -2.2473
 7223SOL     OW33304   0.137   0.471   4.871  0.0760  0.4408  0.0355
 7223SOL    HW133305   0.232   0.477   4.861 -0.2004  0.9817 -2.4124
 7223SOL    HW233306   0.132   0.375   4.867 -2.3938  0.5197  1.9044
 7224SOL     OW33307   1.155   1.897  13.162  0.1693 -0.2662  0.7515
 7224SOL    HW133308   1.081   1.957  13.164 -0.9822 -1.6659 -0.1994
 7224SOL    HW233309   1.195   1.925  13.245  1.5864 -0.8063  0.2529
 7225SOL     OW33310   0.604   1.223   4.285  0.1365 -0.0076 -0.2634
 7225SOL    HW133311   0.635   1.246   4.197  1.1203 -0.4097 -0.0241
 7225SOL    HW233312   0.578   1.133   4.264  0.8948  0.3538 -2.8091
 7226SOL     OW33313   1.246   3.816   3.967 -0.3228  0.3154  0.2643
 7226SOL    HW133314   1.152   3.802   3.980 -0.2504  1.8695  2.3748
 7226SOL    HW233315   1.259   3.799   3.873 -2.3320  2.0329 -0.3207
 7227SOL     OW33316   0.070   0.001   8.548  0.2102 -0.2730 -0.0302
 7227SOL    HW133317   0.116   4.673   8.496 -1.8741 -1.3792 -0.5116
 7227SOL    HW233318   0.133   0.072   8.555  1.6517 -1.4377 -1.3345
 7228SOL     OW33319   2.095   1.991   2.854 -0.5968 -0.9149 -0.1499
 7228SOL    HW133320   2.113   2.054   2.784  0.0030  3.9090  4.3334
 7228SOL    HW233321   2.107   1.910   2.805  2.3040 -0.7290  0.2720
 7229SOL     OW33322   0.386   1.978  15.662  0.0519 -0.1071  0.1792
 7229SOL    HW133323   0.337   1.909  15.707  0.0614 -0.0527  0.2745
 7229SOL    HW233324   0.343   2.046  15.715  1.5803  1.3329 -0.4331
 7230SOL     OW33325   0.100   1.368   3.060  0.6062  0.0982 -0.3111
 7230SOL    HW133326   0.182   1.365   3.012  0.1951  1.6002 -1.1176
 7230SOL    HW233327   0.128   1.314   3.134  3.1253  1.1468 -0.5265
 7231SOL     OW33328   2.991   2.773   7.792 -0.3914 -0.0779  0.2480
 7231SOL    HW133329   3.027   2.688   7.815 -0.3137 -0.1325 -0.0829
 7231SOL    HW233330   3.062   2.820   7.748 -0.3259  1.3712  1.8695
 7232SOL     OW33331   1.292   1.758   7.503 -0.0638  0.1962  0.1099
 7232SOL    HW133332   1.375   1.803   7.489  0.3903 -0.9716 -0.9433
 7232SOL    HW233333   1.335   1.679   7.534 -0.2197 -0.7584 -2.0609
 7233SOL     OW33334   4.396   0.883   1.947 -0.1769 -0.0310  0.5688
 7233SOL    HW133335   4.358   0.955   1.896  1.8569 -0.5603 -1.7049
 7233SOL    HW233336   4.490   0.903   1.952 -0.3925  1.4686 -1.3105
 7234SOL     OW33337   1.606   0.571   0.294 -0.4962 -0.0875 -0.4129
 7234SOL    HW133338   1.675   0.611   0.241 -1.0510  1.1550 -0.1802
 7234SOL    HW233339   1.666   0.513   0.341 -0.3026  0.6332  0.2034
 7235SOL     OW33340   2.710   0.125   4.721  0.2930  0.0841 -0.0780
 7235SOL    HW133341   2.709   0.147   4.814  0.5029 -1.7680  0.3749
 7235SOL    HW233342   2.786   0.176   4.693  2.0744 -1.7892  1.2808
 7236SOL     OW33343   0.971   4.591  11.577  0.3328  0.1382  0.6175
 7236SOL    HW133344   0.901   4.570  11.515  3.2961  0.3636 -2.8399
 7236SOL    HW233345   1.048   4.606  11.522 -0.7443 -0.7452 -1.1339
 7237SOL     OW33346   4.263   1.628   8.768 -0.8504  0.4205  0.4500
 7237SOL    HW133347   4.182   1.646   8.719  0.3196 -0.0473 -1.6512
 7237SOL    HW233348   4.231   1.594   8.851 -0.4420 -2.8064 -0.7199
 7238SOL     OW33349   0.270   3.545   2.168  0.7684 -0.4798  0.0323
 7238SOL    HW133350   0.286   3.476   2.103 -0.7840 -0.0976 -0.7672
 7238SOL    HW233351   0.346   3.539   2.226  2.1361 -1.8797 -1.8734
 7239SOL     OW33352   1.281   0.454   8.377  0.5923 -0.0963  0.2192
 7239SOL    HW133353   1.369   0.479   8.406  1.0441  0.3033 -1.4407
 7239SOL    HW233354   1.249   0.536   8.339 -0.4868 -0.1952  0.9415
 7240SOL     OW33355   3.513   4.095   5.926  0.7862  0.5651  0.5485
 7240SOL    HW133356   3.566   4.095   5.846 -0.8738  2.2429 -0.5623
 7240SOL    HW233357   3.498   4.190   5.933  0.3966  0.5491 -0.0563
 7241SOL     OW33358   3.826   1.823   9.158  0.1867  0.1837  0.2118
 7241SOL    HW133359   3.868   1.906   9.137 -2.0835  1.0721 -0.8663
 7241SOL    HW233360   3.752   1.824   9.098 -0.2087 -0.1042  0.6889
 7242SOL     OW33361   3.789   3.967   2.068  0.0868 -0.6149 -0.7049
 7242SOL    HW133362   3.808   3.887   2.019  3.3090 -0.3219  0.0536
 7242SOL    HW233363   3.877   4.004   2.073 -0.1716 -0.3405  1.8299
 7243SOL     OW33364   3.058   3.783   6.257 -0.0432 -0.0719  0.0592
 7243SOL    HW133365   3.079   3.860   6.309  0.5195  0.3615 -0.8191
 7243SOL    HW233366   3.138   3.736   6.280  0.3058  0.4373 -0.1284
 7244SOL     OW33367   0.262   0.624   3.365 -1.0095  0.3372  0.2368
 7244SOL    HW133368   0.248   0.716   3.339 -2.1368 -0.4217 -1.8888
 7244SOL    HW233369   0.268   0.631   3.460  1.2010  3.3134 -0.1096
 7245SOL     OW33370   2.357   4.311   4.246 -0.6567  0.0018 -0.7219
 7245SOL    HW133371   2.289   4.254   4.280  0.4779 -0.4741  0.7314
 7245SOL    HW233372   2.346   4.393   4.295  2.9846  0.6498 -0.9551
 7246SOL     OW33373   3.561   0.251   3.256  0.2003  0.3910 -0.0988
 7246SOL    HW133374   3.553   0.322   3.192 -0.9518 -0.9134 -1.3935
 7246SOL    HW233375   3.629   0.201   3.211 -0.8943 -1.1907 -0.0032
 7247SOL     OW33376   0.029   3.422   5.668 -0.0867 -0.3532 -0.5033
 7247SOL    HW133377   4.673   3.439   5.671 -0.2367 -2.0100  4.1355
 7247SOL    HW233378   0.029   3.340   5.617  0.7604 -0.4080 -0.4109
 7248SOL     OW33379   2.029   3.977   0.997  0.3451 -0.3164  0.2597
 7248SOL    HW133380   2.007   4.019   0.914  0.3301 -0.5472  0.1456
 7248SOL    HW233381   2.075   3.897   0.971 -1.6560 -2.6965  4.0515
 7249SOL     OW33382   1.249   4.387  17.164  0.6900  0.6066  0.3629
 7249SOL    HW133383   1.270   4.480  17.174  1.7875  0.4076 -0.0876
 7249SOL    HW233384   1.332   4.344  17.142  2.5618  3.0780  2.4734
 7250SOL     OW33385   2.731   1.071   5.728 -0.5885  0.1249  0.2783
 7250SOL    HW133386   2.805   1.048   5.671 -0.6209  1.7108 -0.3907
 7250SOL    HW233387   2.765   1.073   5.818 -2.0416 -1.4044  0.8564
 7251SOL     OW33388   1.383   4.035   2.835  0.1344  0.5328 -0.5583
 7251SOL    HW133389   1.437   4.077   2.768 -0.5047 -0.9264 -1.9903
 7251SOL    HW233390   1.444   3.999   2.900 -0.7730  2.0068  1.1067
 7252SOL     OW33391   0.519   2.758  14.914  0.5450  0.4747 -0.3204
 7252SOL    HW133392   0.483   2.689  14.971  0.7560  1.1302  0.6020
 7252SOL    HW233393   0.519   2.712  14.830  0.4320  0.3703 -0.2639
 7253SOL     OW33394   1.082   0.327   3.399  0.5503  0.4801  0.1112
 7253SOL    HW133395   1.000   0.334   3.449  0.9856 -1.4060  1.0876
 7253SOL    HW233396   1.148   0.351   3.464 -0.0382 -0.3054  0.9928
 7254SOL     OW33397   3.579   0.470  16.695 -0.0044  0.0811 -0.8956
 7254SOL    HW133398   3.510   0.405  16.705  0.9038 -0.5474  1.1916
 7254SOL    HW233399   3.535   0.537  16.749 -0.6799 -0.1844 -1.1207
 7255SOL     OW33400   2.111   0.247   1.719 -0.0433 -0.0129 -0.4675
 7255SOL    HW133401   2.154   0.171   1.757 -0.7047 -0.7424 -1.1913
 7255SOL    HW233402   2.132   0.319   1.779 -1.9932 -0.8451  1.2413
 7256SOL     OW33403   3.921   0.744   6.546 -0.2105 -0.4158 -0.0169
 7256SOL    HW133404   3.949   0.665   6.499 -0.8136  0.2326 -1.4546
 7256SOL    HW233405   3.970   0.738   6.629 -0.5777 -1.3973  0.1246
 7257SOL     OW33406   2.955   4.544   1.148 -0.6155 -0.0757 -0.2130
 7257SOL    HW133407   2.909   4.625   1.173 -0.4220  0.5495 -1.9110
 7257SOL    HW233408   2.914   4.475   1.200  1.3785 -0.6897  0.5757
 7258SOL     OW33409   2.684   1.364   6.207 -0.2879  0.6357  0.6548
 7258SOL    HW133410   2.771   1.392   6.180 -1.0768  0.5313 -1.9537
 7258SOL    HW233411   2.658   1.312   6.131  1.1032  3.7555 -1.9513
 7259SOL     OW33412   0.996   1.407   3.905  0.1840 -0.2254  0.1837
 7259SOL    HW133413   1.022   1.457   3.828  1.3842  1.2135  1.5196
 7259SOL    HW233414   1.080   1.386   3.945  0.7843  0.7215 -0.5835
 7260SOL     OW33415   3.265   0.793  11.080  0.1259  0.0162 -0.2186
 7260SOL    HW133416   3.317   0.828  11.007  0.3266 -0.6328 -0.3870
 7260SOL    HW233417   3.213   0.733  11.026 -0.2872  1.8283 -1.8567
 7261SOL     OW33418   3.955   4.192  16.747  0.4748  0.6436 -0.1459
 7261SOL    HW133419   3.942   4.125  16.815 -0.4398  0.9323 -0.0352
 7261SOL    HW233420   3.884   4.163  16.690 -0.0718  1.4066  0.1517
 7262SOL     OW33421   2.029   0.287   2.511  0.5838  0.5658 -0.3158
 7262SOL    HW133422   1.973   0.255   2.582 -1.1211 -0.5550 -2.1545
 7262SOL    HW233423   1.976   0.358   2.476  0.9452  0.5623 -0.8612
 7263SOL     OW33424   2.941   1.230   0.106  0.0289  0.1397 -0.0796
 7263SOL    HW133425   3.000   1.185   0.046 -0.5757 -0.1681 -0.4440
 7263SOL    HW233426   2.987   1.313   0.118 -0.1258  0.0125  1.3889
 7264SOL     OW33427   3.024   2.561   0.468  0.5338  0.1698 -0.0620
 7264SOL    HW133428   2.958   2.575   0.401  0.1334 -3.1035 -0.3365
 7264SOL    HW233429   3.008   2.631   0.532  0.3814  0.2132 -0.1475
 7265SOL     OW33430   4.347   1.708   3.462 -0.1751 -0.6708 -0.1629
 7265SOL    HW133431   4.297   1.714   3.544 -0.4613  0.3293 -0.4137
 7265SOL    HW233432   4.439   1.701   3.489 -0.3538 -2.0801  0.1064
 7266SOL     OW33433   4.665   2.014   7.650  0.4174 -0.0654 -0.1146
 7266SOL    HW133434   0.001   1.997   7.591 -0.2931 -1.5155 -0.6015
 7266SOL    HW233435   4.707   2.018   7.735 -0.8300 -3.7677  0.6765
 7267SOL     OW33436   3.184   1.312   2.801 -0.0285  0.4819  0.1390
 7267SOL    HW133437   3.171   1.397   2.843 -0.0171  0.1758  0.7545
 7267SOL    HW233438   3.179   1.344   2.710 -0.9354  0.0208  0.0326
 7268SOL     OW33439   0.307   1.732   3.161 -0.2277  0.3162 -0.1673
 7268SOL    HW133440   0.341   1.739   3.072 -1.4268  1.3862 -0.5344
 7268SOL    HW233441   0.365   1.660   3.187  0.8446  1.6609  1.1320
 7269SOL     OW33442   2.075   3.278   9.409  0.0211  0.1691 -0.7699
 7269SOL    HW133443   2.108   3.228   9.334  1.5163 -1.4775  0.9923
 7269SOL    HW233444   2.083   3.204   9.468  0.8278 -0.7119 -1.9728
 7270SOL     OW33445   0.088   0.640  16.803 -0.6011  0.0821 -0.1546
 7270SOL    HW133446   0.092   0.559  16.752  0.2857  1.9540 -3.0495
 7270SOL    HW233447   0.087   0.707  16.735 -1.0871 -0.0641 -0.2898
 7271SOL     OW33448   0.510   3.422   6.047 -0.2893 -0.0899 -0.0445
 7271SOL    HW133449   0.503   3.331   6.017  3.0482 -0.0481 -0.9458
 7271SOL    HW233450   0.433   3.426   6.103 -0.1485  1.5661  0.0370
 7272SOL     OW33451   0.789   2.387   5.148 -0.4668 -0.1111 -0.2997
 7272SOL    HW133452   0.881   2.400   5.124  0.0572 -0.1065  1.7013
 7272SOL    HW233453   0.790   2.320   5.217  0.2947 -0.5128 -0.6971
 7273SOL     OW33454   0.139   1.610   0.995  0.1911  0.5739  0.1587
 7273SOL    HW133455   0.054   1.599   1.037 -1.2591 -0.3816 -3.0313
 7273SOL    HW233456   0.155   1.521   0.962  1.4978  0.2747  1.6012
 7274SOL     OW33457   2.745   0.688  15.462  0.1205 -0.2973 -0.0980
 7274SOL    HW133458   2.654   0.670  15.484  0.5340 -0.1855  1.7733
 7274SOL    HW233459   2.735   0.767  15.409 -2.1391 -2.1385 -2.3638
 7275SOL     OW33460   1.021   3.620  10.069  0.2809 -0.4379 -0.2412
 7275SOL    HW133461   0.988   3.530  10.077  0.5256 -0.4070  1.2246
 7275SOL    HW233462   0.968   3.665  10.135  0.0851  2.3602 -2.3267
 7276SOL     OW33463   3.927   0.479   8.672  0.6679 -0.3676 -0.2143
 7276SOL    HW133464   3.924   0.574   8.679 -0.4230 -0.1905 -2.7654
 7276SOL    HW233465   3.892   0.453   8.757  0.5030  0.4720 -0.0333
 7277SOL     OW33466   4.361   2.406   4.877 -0.0755  0.4450 -0.1242
 7277SOL    HW133467   4.339   2.499   4.867  1.3439  1.1151  3.0386
 7277SOL    HW233468   4.327   2.392   4.965  2.8374  1.6714  1.1780
 7278SOL     OW33469   2.796   1.830   0.301 -0.0114 -0.4785  0.1610
 7278SOL    HW133470   2.836   1.889   0.237 -0.0365  0.8513  1.3709
 7278SOL    HW233471   2.786   1.744   0.260  0.2150 -0.3972 -0.0711
 7279SOL     OW33472   3.305   0.198   1.966 -0.1775  0.1967  0.6699
 7279SOL    HW133473   3.392   0.239   1.965 -1.4477  2.8383 -0.2294
 7279SOL    HW233474   3.273   0.239   1.886 -1.8008  2.0863  2.2865
 7280SOL     OW33475   3.324   2.557   2.660  0.6190  0.4629  0.4336
 7280SOL    HW133476   3.288   2.564   2.571  2.1708 -2.6245 -0.4324
 7280SOL    HW233477   3.248   2.553   2.717 -0.0828  1.7462 -0.4165
 7281SOL     OW33478   2.651   2.108  17.565 -0.0364 -0.4881  0.0757
 7281SOL    HW133479   2.719   2.088  17.501  0.5442 -1.3741  0.9724
 7281SOL    HW233480   2.654   2.029  17.618 -0.9990 -0.2937  0.4248
 7282SOL     OW33481   4.367   4.539   2.716  0.0122  0.5599  0.0539
 7282SOL    HW133482   4.454   4.561   2.682 -0.0635 -0.1636 -0.5946
 7282SOL    HW233483   4.332   4.627   2.729  0.1845  0.6089  0.1906
 7283SOL     OW33484   4.318   1.361   3.359 -0.3567 -0.3261  0.2573
 7283SOL    HW133485   4.293   1.330   3.271  1.1980 -2.4359  0.5499
 7283SOL    HW233486   4.409   1.334   3.366 -0.4113 -0.7483 -0.5901
 7284SOL     OW33487   0.459   0.054  10.547 -0.1003 -0.1462  0.1797
 7284SOL    HW133488   0.553   0.065  10.540  0.1659 -2.5907 -0.3013
 7284SOL    HW233489   0.453   4.701  10.578  1.5925 -0.3226  0.0006
 7285SOL     OW33490   1.993   2.352   1.972 -0.0135 -0.8706  0.2137
 7285SOL    HW133491   1.903   2.386   1.971 -0.6013 -2.5287 -2.4298
 7285SOL    HW233492   1.972   2.261   1.988  2.8229 -1.6880 -0.6849
 7286SOL     OW33493   4.413   4.487   1.539 -0.2594  0.3999 -0.2526
 7286SOL    HW133494   4.489   4.533   1.501  0.0897 -1.7811 -2.1977
 7286SOL    HW233495   4.461   4.449   1.612  0.1714 -0.3632 -0.9270
 7287SOL     OW33496   1.622   2.410  11.193  0.0961 -0.3164  0.6409
 7287SOL    HW133497   1.639   2.487  11.139  0.8965  1.2868  3.1800
 7287SOL    HW233498   1.663   2.444  11.273  0.9456  1.0190 -0.3613
 7288SOL     OW33499   1.042   0.922   0.189 -0.1558  0.2811 -0.2902
 7288SOL    HW133500   0.995   0.923   0.272  1.3384  0.1959  0.5461
 7288SOL    HW233501   1.127   0.938   0.229 -0.6480 -0.0962  0.9134
 7289SOL     OW33502   4.672   0.893   6.959 -0.4198  0.1674 -0.1677
 7289SOL    HW133503   4.591   0.944   6.970 -1.7078 -1.9059 -0.0418
 7289SOL    HW233504   4.670   0.821   7.022  1.5966  1.2195  1.0733
 7290SOL     OW33505   1.935   4.507   5.046 -0.7476  0.1075  0.4458
 7290SOL    HW133506   1.890   4.422   5.046  1.5302 -1.1130 -1.4080
 7290SOL    HW233507   2.013   4.482   5.096 -0.7477 -1.9814 -0.5791
 7291SOL     OW33508   3.258   3.723   4.905  0.6398 -0.1242  0.5203
 7291SOL    HW133509   3.284   3.632   4.891  2.7394  0.6696 -0.7662
 7291SOL    HW233510   3.226   3.710   4.994 -0.0188  0.7905  0.4261
 7292SOL     OW33511   1.947   3.859  11.790 -0.1789  0.0140  0.3648
 7292SOL    HW133512   2.016   3.925  11.783  0.8842 -1.2486 -0.9566
 7292SOL    HW233513   1.884   3.879  11.721  0.4334  1.1170  0.1234
 7293SOL     OW33514   0.452   1.483  16.990 -0.7349 -0.3365  0.3497
 7293SOL    HW133515   0.356   1.486  16.991 -0.6253  2.7436 -0.2528
 7293SOL    HW233516   0.467   1.480  17.085 -1.4517  1.5983  0.5314
 7294SOL     OW33517   1.959   1.658  16.367  0.3385  0.2026  0.0131
 7294SOL    HW133518   1.939   1.566  16.350  2.1466  0.1256 -1.7010
 7294SOL    HW233519   1.905   1.679  16.444 -0.8190 -0.5584 -0.5854
 7295SOL     OW33520   0.452   4.055   1.899 -0.2580 -0.3093 -0.3058
 7295SOL    HW133521   0.437   3.980   1.957  0.8699 -1.5935 -1.6824
 7295SOL    HW233522   0.372   4.054   1.846 -1.6800  0.1811  1.8522
 7296SOL     OW33523   2.497   2.763   7.436  0.3511  0.1164  0.0859
 7296SOL    HW133524   2.557   2.751   7.510 -0.2867 -4.2961 -0.1152
 7296SOL    HW233525   2.417   2.746   7.486  1.1084 -2.0317  0.5520
 7297SOL     OW33526   0.652   1.028   8.852  0.0997  0.6490  0.3340
 7297SOL    HW133527   0.579   0.970   8.876  1.0224 -0.2783  0.9265
 7297SOL    HW233528   0.718   0.995   8.914  0.5930 -1.6077 -1.3835
 7298SOL     OW33529   0.391   3.146  14.136  0.2208 -0.6134 -0.2558
 7298SOL    HW133530   0.449   3.183  14.203  0.0335  0.2189 -0.5537
 7298SOL    HW233531   0.423   3.173  14.050  0.4272 -1.1370 -0.3456
 7299SOL     OW33532   1.641   4.038  16.882  0.3292 -0.4367 -0.0194
 7299SOL    HW133533   1.663   4.012  16.793 -1.8680 -0.8656 -0.4170
 7299SOL    HW233534   1.561   4.091  16.879  1.2202  0.9423  0.2529
 7300SOL     OW33535   2.334   4.171   3.238  0.5821 -0.3134 -0.3378
 7300SOL    HW133536   2.397   4.185   3.168  1.2895  0.8014  0.5247
 7300SOL    HW233537   2.247   4.171   3.197  1.7349 -0.1010 -2.7607
 7301SOL     OW33538   0.267   3.075   5.962 -0.0429  0.7059  0.4765
 7301SOL    HW133539   0.275   3.169   5.946  1.8803  0.3197 -0.7764
 7301SOL    HW233540   0.277   3.070   6.057  1.7722 -0.3545  0.2253
 7302SOL     OW33541   3.943   3.044   7.787 -0.0096 -0.4453  0.1749
 7302SOL    HW133542   3.957   2.992   7.866  0.4392  1.1092  1.1232
 7302SOL    HW233543   3.851   3.025   7.767  0.1169  0.7007 -1.5265
 7303SOL     OW33544   3.307   2.133   8.446  0.5088  0.2595  0.1149
 7303SOL    HW133545   3.394   2.167   8.422  0.7369  0.0602  0.6662
 7303SOL    HW233546   3.317   2.042   8.421 -1.1015  0.1318 -0.0425
 7304SOL     OW33547   2.802   1.119  10.491  0.4856  0.3891 -0.4387
 7304SOL    HW133548   2.862   1.110  10.565  0.0859 -1.4115 -0.3364
 7304SOL    HW233549   2.750   1.187  10.532 -2.0164 -0.9863 -1.3212
 7305SOL     OW33550   1.431   1.659   4.641  0.0277 -0.2683 -0.7752
 7305SOL    HW133551   1.383   1.690   4.718  1.5820  2.2826 -0.8455
 7305SOL    HW233552   1.371   1.592   4.608 -1.3687  0.2852  0.6398
 7306SOL     OW33553   4.458   1.736   4.246  0.1903  0.0181  0.8164
 7306SOL    HW133554   4.492   1.749   4.334 -1.1588  0.6096  1.2569
 7306SOL    HW233555   4.513   1.797   4.199  0.8408 -0.8024  0.5131
 7307SOL     OW33556   3.533   2.314   3.324 -0.2584  0.3700  0.3026
 7307SOL    HW133557   3.626   2.317   3.299 -0.7014  0.8743 -1.2600
 7307SOL    HW233558   3.538   2.281   3.414  2.2671 -0.2356 -0.0405
 7308SOL     OW33559   0.512   3.936   8.867  0.2821  0.2517  0.3514
 7308SOL    HW133560   0.440   3.915   8.926  0.9372 -1.1177  0.6679
 7308SOL    HW233561   0.476   4.018   8.832  2.1373  0.8986 -0.0395
 7309SOL     OW33562   1.530   1.767   4.192 -0.0314 -0.0470 -0.7423
 7309SOL    HW133563   1.517   1.861   4.200  2.8626  0.2370  0.8586
 7309SOL    HW233564   1.598   1.762   4.260  1.6502 -2.0418 -2.5646
 7310SOL     OW33565   1.870   2.570  11.008 -0.1350  0.1476 -1.0410
 7310SOL    HW133566   1.934   2.559  10.938  0.1473 -1.0591 -0.5899
 7310SOL    HW233567   1.931   2.585  11.080 -1.2739 -0.7728  0.1180
 7311SOL     OW33568   0.613   3.606  13.446  0.4906 -0.1875 -0.3555
 7311SOL    HW133569   0.575   3.519  13.461  0.5302 -0.1899 -0.2701
 7311SOL    HW233570   0.591   3.611  13.353 -1.6101  0.6524  0.1660
 7312SOL     OW33571   1.918   4.608   6.245  1.1214 -0.2037  0.5524
 7312SOL    HW133572   2.002   4.632   6.284  0.5430  1.1391  0.9763
 7312SOL    HW233573   1.859   4.652   6.305 -2.1473 -1.6735 -1.5884
 7313SOL     OW33574   4.111   2.409   2.380 -0.1196 -0.5179  0.5791
 7313SOL    HW133575   4.118   2.313   2.381  0.8635 -0.4561 -0.7854
 7313SOL    HW233576   4.083   2.425   2.290  0.7115  0.8774  0.5698
 7314SOL     OW33577   0.330   0.331   3.622 -0.0196  0.1318  0.1320
 7314SOL    HW133578   0.306   0.414   3.664 -2.8058 -0.0058 -1.1249
 7314SOL    HW233579   0.405   0.363   3.572 -0.3233 -0.4415 -0.6958
 7315SOL     OW33580   2.871   0.108   4.220 -0.3043  0.0298  0.1742
 7315SOL    HW133581   2.936   0.074   4.282  1.4693  2.6907 -0.2581
 7315SOL    HW233582   2.797   0.047   4.219  0.6065 -1.0756  0.5838
 7316SOL     OW33583   3.383   0.099   8.666  0.0280 -0.2818 -0.0340
 7316SOL    HW133584   3.440   0.172   8.640  0.6967 -0.5151  0.7984
 7316SOL    HW233585   3.298   0.141   8.654  0.4365  0.6259  0.2290
 7317SOL     OW33586   1.166   1.308   3.039 -0.0579 -0.1913 -0.5352
 7317SOL    HW133587   1.155   1.309   3.134 -0.0129 -0.8787 -0.5208
 7317SOL    HW233588   1.077   1.299   3.005 -0.5217  0.0396  0.5950
 7318SOL     OW33589   3.406   2.654   5.082  0.2148  0.0278  0.5347
 7318SOL    HW133590   3.432   2.563   5.066  2.9083  0.5641  1.9048
 7318SOL    HW233591   3.454   2.679   5.161 -1.9814 -2.1054  2.5289
 7319SOL     OW33592   3.212   0.653   7.492  0.7079 -0.0885  0.2762
 7319SOL    HW133593   3.215   0.708   7.571  1.9560  0.3952 -0.1016
 7319SOL    HW233594   3.142   0.591   7.511 -1.9095  2.6427 -0.5484
 7320SOL     OW33595   1.576   2.710   1.639 -0.8697 -0.0690  0.3749
 7320SOL    HW133596   1.625   2.677   1.715 -0.6438  1.2638  0.7949
 7320SOL    HW233597   1.648   2.719   1.577 -1.5362  1.3722 -0.1710
 7321SOL     OW33598   1.973   2.772   6.386  0.1045  0.2031 -0.1614
 7321SOL    HW133599   1.938   2.818   6.309  0.9950  0.8041 -0.2174
 7321SOL    HW233600   2.061   2.742   6.362 -0.4378  0.0077 -1.9593
 7322SOL     OW33601   3.596   4.215   4.380 -0.2697 -0.0445  0.0808
 7322SOL    HW133602   3.576   4.172   4.297  0.9448  0.4671 -0.4862
 7322SOL    HW233603   3.578   4.304   4.347  1.3567  0.3174  0.1420
 7323SOL     OW33604   2.128   4.190   2.201  0.2600  0.0112  0.3268
 7323SOL    HW133605   2.172   4.273   2.221  0.3158  0.2740 -0.8749
 7323SOL    HW233606   2.036   4.210   2.218  0.2068 -1.1862  1.4090
 7324SOL     OW33607   1.113   1.934   6.184 -0.1296 -0.3356  0.5085
 7324SOL    HW133608   1.159   2.005   6.229 -0.0816  0.2780 -0.4986
 7324SOL    HW233609   1.110   1.876   6.260 -0.7938  0.6079  1.2085
 7325SOL     OW33610   2.909   2.054   5.999  0.6118  0.5554 -0.4601
 7325SOL    HW133611   2.992   2.007   6.003  0.1618 -0.1766  0.2825
 7325SOL    HW233612   2.862   1.988   5.948 -2.0510  0.7648  1.7290
 7326SOL     OW33613   0.881   3.867  10.989 -0.9455 -0.7474 -0.1362
 7326SOL    HW133614   0.868   3.951  10.945  0.6393  0.6945  2.1638
 7326SOL    HW233615   0.809   3.880  11.051 -1.0467  1.1602 -0.6321
 7327SOL     OW33616   4.587   2.016   8.130 -0.0660 -0.2683  0.3846
 7327SOL    HW133617   4.561   2.107   8.117  0.4015 -0.0199  1.2507
 7327SOL    HW233618   4.504   1.968   8.129  0.8099 -1.8417  3.1299
 7328SOL     OW33619   1.269   3.060   9.965 -0.4200 -0.0005  0.0314
 7328SOL    HW133620   1.201   3.046  10.031  0.7989  1.3916  1.5803
 7328SOL    HW233621   1.279   2.970   9.934  1.6153  0.1234  0.3545
 7329SOL     OW33622   3.774   2.991   3.635  0.3156  0.4971 -0.0298
 7329SOL    HW133623   3.828   2.914   3.651  0.2702  0.3678 -0.5110
 7329SOL    HW233624   3.729   3.015   3.716 -0.3356 -3.4822  0.7671
 7330SOL     OW33625   2.858   0.153   9.264  0.1487  0.3108 -0.2754
 7330SOL    HW133626   2.836   0.063   9.288  1.0324  0.7286  2.1670
 7330SOL    HW233627   2.952   0.140   9.249  0.2895 -0.5685  1.3073
 7331SOL     OW33628   0.215   4.575  12.934 -0.0935 -0.1427  0.0767
 7331SOL    HW133629   0.270   4.513  12.886  1.5466  2.0721 -0.9140
 7331SOL    HW233630   0.234   4.567  13.027  0.2852 -2.2473 -0.1826
 7332SOL     OW33631   2.266   2.045  12.464  0.3221 -0.0943  0.3673
 7332SOL    HW133632   2.193   2.014  12.411 -1.0983 -0.3674  2.4633
 7332SOL    HW233633   2.320   1.966  12.456  1.6223  0.8495 -0.1634
 7333SOL     OW33634   1.299   4.672   0.269  0.0914 -0.5769  0.3328
 7333SOL    HW133635   1.322   4.724   0.192  0.1579  0.0921  0.8085
 7333SOL    HW233636   1.207   4.697   0.270 -0.0403 -1.0579  0.2504
 7334SOL     OW33637   1.017   3.147  10.582 -0.0227  0.3835 -0.3445
 7334SOL    HW133638   1.058   3.061  10.590  0.4032  0.7576  1.4821
 7334SOL    HW233639   0.954   3.149  10.654 -0.0158  1.4658 -0.3657
 7335SOL     OW33640   4.039   0.163   2.614 -0.4365 -0.0133 -0.4525
 7335SOL    HW133641   3.966   0.141   2.557 -0.9171 -1.2932  0.6749
 7335SOL    HW233642   4.023   0.107   2.690 -1.3722 -1.2261 -1.5637
 7336SOL     OW33643   2.269   3.348   5.069  0.1599 -0.0828  0.3903
 7336SOL    HW133644   2.364   3.337   5.077  0.3009 -0.4917 -2.0111
 7336SOL    HW233645   2.249   3.417   5.006  0.3569  2.5938  3.2443
 7337SOL     OW33646   1.507   2.561   6.768 -0.8325 -0.0055 -0.5362
 7337SOL    HW133647   1.477   2.631   6.709  0.9270  0.2771 -1.0905
 7337SOL    HW233648   1.600   2.554   6.744 -0.8431  0.2266 -0.6508
 7338SOL     OW33649   2.562   3.066   4.893 -0.2290 -0.2243 -0.0443
 7338SOL    HW133650   2.610   3.147   4.907 -0.1573  0.1732 -2.6221
 7338SOL    HW233651   2.612   3.035   4.818  0.2903 -1.1567  0.6796
 7339SOL     OW33652   3.110   0.852  16.185  0.4098  0.5564 -0.2464
 7339SOL    HW133653   3.147   0.922  16.239  1.3863  0.1902 -0.4357
 7339SOL    HW233654   3.020   0.880  16.169  0.1086 -0.0938  0.3494
 7340SOL     OW33655   4.463   1.239   1.709  0.1946  0.2081  0.2546
 7340SOL    HW133656   4.518   1.188   1.649 -1.3047  1.6292 -2.3434
 7340SOL    HW233657   4.523   1.310   1.728 -0.3972  1.2673 -1.7910
 7341SOL     OW33658   0.915   1.260   1.931 -0.2582 -0.7026 -0.3281
 7341SOL    HW133659   0.996   1.220   1.901  0.8990  1.5760 -0.2039
 7341SOL    HW233660   0.852   1.229   1.866 -0.9515  0.5723 -0.2772
 7342SOL     OW33661   2.440   2.751  12.574  0.3635 -0.5408  0.0205
 7342SOL    HW133662   2.356   2.710  12.556  0.7890 -1.4330  0.0856
 7342SOL    HW233663   2.487   2.731  12.493 -2.1049  1.7803 -1.9784
 7343SOL     OW33664   2.047   4.323   3.666  0.3083 -0.0088 -0.7438
 7343SOL    HW133665   2.105   4.289   3.597  0.7163  2.8125 -1.7754
 7343SOL    HW233666   2.063   4.417   3.662  2.5284 -0.4035 -1.1808
 7344SOL     OW33667   3.444   0.063  12.633 -0.1801  0.2153 -0.3944
 7344SOL    HW133668   3.367   0.104  12.671  1.2025  0.9288  1.5812
 7344SOL    HW233669   3.411   4.719  12.594 -1.0621  0.2676  0.2629
 7345SOL     OW33670   1.054   2.924   3.999 -0.0125  0.2348 -0.2627
 7345SOL    HW133671   0.991   2.932   3.927 -0.9493 -1.5900  0.3466
 7345SOL    HW233672   1.001   2.923   4.078 -0.5791 -0.5433 -0.6503
 7346SOL     OW33673   2.959   3.029   6.611 -0.6754 -0.4334  0.0438
 7346SOL    HW133674   3.005   3.061   6.689 -1.6235  2.1521 -0.4395
 7346SOL    HW233675   2.870   3.035   6.646 -1.2258  0.0406 -1.4230
 7347SOL     OW33676   1.602   1.656   3.246  0.7169 -0.0176  0.0358
 7347SOL    HW133677   1.559   1.611   3.173  0.9047  1.1728 -0.8132
 7347SOL    HW233678   1.647   1.576   3.274 -2.5781 -2.0353 -0.5102
 7348SOL     OW33679   2.994   1.156   6.662 -0.4939 -0.2727 -0.1424
 7348SOL    HW133680   2.920   1.208   6.693 -0.4984 -0.9658  1.0097
 7348SOL    HW233681   2.972   1.063   6.652 -0.0591 -0.4997  1.0665
 7349SOL     OW33682   4.720   0.224   9.765 -0.3154 -0.1248  0.9032
 7349SOL    HW133683   4.635   0.256   9.735 -1.2815 -1.9369  1.6521
 7349SOL    HW233684   0.049   0.290   9.748 -2.7078  1.5552 -1.9191
 7350SOL     OW33685   0.712   1.378  12.454 -0.0252  0.7131  0.5026
 7350SOL    HW133686   0.688   1.299  12.504 -1.0683  0.7275  0.0339
 7350SOL    HW233687   0.806   1.383  12.471  0.0542 -0.0533  0.2874
 7351SOL     OW33688   3.541   4.272   2.524  0.2642 -0.3579 -0.4887
 7351SOL    HW133689   3.512   4.236   2.608  0.1195 -2.7909 -1.5823
 7351SOL    HW233690   3.557   4.363   2.549 -3.7517  0.0389  0.6141
 7352SOL     OW33691   2.364   3.745   1.794 -0.0777  0.0194 -0.0997
 7352SOL    HW133692   2.303   3.771   1.725  0.8427 -0.9931 -1.3018
 7352SOL    HW233693   2.406   3.674   1.746  2.3997  1.1882  0.3545
 7353SOL     OW33694   2.467   2.672   6.163 -0.2799 -0.3163  0.0250
 7353SOL    HW133695   2.506   2.602   6.216 -0.2730  0.9327  1.6731
 7353SOL    HW233696   2.459   2.622   6.082  0.8356  0.5459 -0.6131
 7354SOL     OW33697   1.216   0.638   8.942  0.8240 -0.2105  0.0572
 7354SOL    HW133698   1.196   0.606   9.030  1.4106  0.0693  0.2913
 7354SOL    HW233699   1.139   0.695   8.933 -0.0459 -1.1641  1.2916
 7355SOL     OW33700   3.570   4.517   2.733 -0.4185  0.3624 -0.0038
 7355SOL    HW133701   3.613   4.591   2.777  2.5361 -0.2621 -1.8023
 7355SOL    HW233702   3.557   4.463   2.810  0.6571  0.3529  0.1808
 7356SOL     OW33703   0.730   4.515  10.603  0.0107 -0.9552  0.4645
 7356SOL    HW133704   0.728   4.468  10.686  0.8382 -0.2092  0.9013
 7356SOL    HW233705   0.819   4.495  10.573 -0.3621 -0.2008 -1.1847
 7357SOL     OW33706   1.388   1.919  17.722  0.0884  0.7783  0.0520
 7357SOL    HW133707   1.325   1.930  17.651  0.0915 -1.8433 -0.3638
 7357SOL    HW233708   1.331   1.891   0.043 -2.6436  1.8459 -1.7111
 7358SOL     OW33709   0.478   0.776   9.341 -0.0030  0.3436  0.1710
 7358SOL    HW133710   0.387   0.775   9.311  0.5170 -0.6331 -1.3646
 7358SOL    HW233711   0.451   0.770   9.433  0.8801 -1.3622  0.3167
 7359SOL     OW33712   0.365   4.235  11.373  0.2119  0.0301  0.0154
 7359SOL    HW133713   0.308   4.288  11.429  0.2712  0.7418 -0.5966
 7359SOL    HW233714   0.339   4.146  11.397 -0.2989 -0.1273 -1.1259
 7360SOL     OW33715   4.447   3.618  16.042  0.5664  0.0936  0.6674
 7360SOL    HW133716   4.444   3.532  16.085 -0.1199 -0.7595 -1.0725
 7360SOL    HW233717   4.527   3.654  16.081  0.9093  1.1534 -1.0187
 7361SOL     OW33718   4.103   3.093   6.298 -0.1482  0.0576  0.4755
 7361SOL    HW133719   4.158   3.073   6.374  2.5628  1.7475 -1.0151
 7361SOL    HW233720   4.046   3.159   6.337 -0.7128 -0.0813 -0.1168
 7362SOL     OW33721   3.307   2.629   8.609  0.1987  0.2983 -0.5179
 7362SOL    HW133722   3.231   2.620   8.668  1.3939 -3.0233  0.4920
 7362SOL    HW233723   3.372   2.659   8.672  0.2520  3.6049 -2.1160
 7363SOL     OW33724   1.029   1.747   3.219  0.1321  0.2492 -0.0586
 7363SOL    HW133725   1.033   1.691   3.297 -1.1125  0.0591 -0.1359
 7363SOL    HW233726   0.934   1.751   3.208 -0.3083  0.7848  3.9794
 7364SOL     OW33727   4.181   3.953   7.540 -0.4683  0.3943  0.0725
 7364SOL    HW133728   4.188   4.045   7.564 -0.1853  0.6832 -1.1036
 7364SOL    HW233729   4.212   3.902   7.614 -0.7965  0.7152  0.4347
 7365SOL     OW33730   2.281   1.623   6.926 -0.3443  0.4084 -0.3085
 7365SOL    HW133731   2.186   1.639   6.929 -0.2744  1.1560 -1.5855
 7365SOL    HW233732   2.281   1.535   6.889  0.9655  0.4101 -0.3032
 7366SOL     OW33733   2.838   3.994   4.700  0.5663 -0.2699 -0.0770
 7366SOL    HW133734   2.769   3.939   4.663  1.0900 -0.3841 -0.8823
 7366SOL    HW233735   2.912   3.935   4.688  1.6790  1.0801  0.1318
 7367SOL     OW33736   4.124   3.018   5.799  0.3102  0.3157 -0.0805
 7367SOL    HW133737   4.111   3.096   5.854 -0.5105  2.3827 -3.2307
 7367SOL    HW233738   4.211   2.986   5.823  0.1793  0.2325  0.2921
 7368SOL     OW33739   3.849   0.834  14.466  0.3410 -0.2226  0.3059
 7368SOL    HW133740   3.760   0.837  14.499  0.2197  2.8099 -0.2893
 7368SOL    HW233741   3.886   0.918  14.495  0.2660 -0.3521  0.7804
 7369SOL     OW33742   1.394   3.367   9.004 -0.3011  0.0044  0.3690
 7369SOL    HW133743   1.317   3.338   9.052  0.5582 -0.2631  1.5688
 7369SOL    HW233744   1.462   3.367   9.071 -0.6200 -1.1128  0.6916
 7370SOL     OW33745   2.665   2.927   5.893  0.1295 -0.5600 -0.3951
 7370SOL    HW133746   2.665   2.837   5.861 -0.1415 -0.5702 -0.3692
 7370SOL    HW233747   2.600   2.932   5.964 -0.2748 -0.0601 -0.8006
 7371SOL     OW33748   0.476   2.980   9.396  0.3758 -0.4479 -0.2098
 7371SOL    HW133749   0.416   2.963   9.324 -1.4193  1.5205  0.8102
 7371SOL    HW233750   0.493   2.892   9.431  3.4469 -0.1414 -0.9373
 7372SOL     OW33751   3.034   0.416   2.436 -0.5791  0.0968  0.2947
 7372SOL    HW133752   3.056   0.338   2.486  1.3530 -0.2150 -1.0795
 7372SOL    HW233753   3.113   0.466   2.454 -1.2384  0.4982  2.0711
 7373SOL     OW33754   3.524   1.453   4.935  0.1499 -0.0505  0.2358
 7373SOL    HW133755   3.495   1.542   4.953 -0.5353  0.3104 -2.5912
 7373SOL    HW233756   3.542   1.452   4.840  1.4225  1.7930  0.4629
 7374SOL     OW33757   3.656   3.332   1.570 -0.0663  0.7595  0.1199
 7374SOL    HW133758   3.606   3.408   1.541 -3.1475 -1.5977 -0.7899
 7374SOL    HW233759   3.693   3.378   1.645 -1.0707 -0.0664  1.1302
 7375SOL     OW33760   1.876   0.787   2.688 -0.5138  0.0645  0.2582
 7375SOL    HW133761   1.785   0.765   2.669 -1.0923  2.0280  0.7979
 7375SOL    HW233762   1.882   0.866   2.634  1.2449  1.0015  1.8351
 7376SOL     OW33763   2.635   1.226   8.673 -0.0600  0.0153  0.3376
 7376SOL    HW133764   2.551   1.191   8.703 -0.2684  0.9861  0.8886
 7376SOL    HW233765   2.695   1.198   8.742 -0.1883 -0.4221  0.2733
 7377SOL     OW33766   1.727   0.942  15.942  0.2282  0.0341  0.0799
 7377SOL    HW133767   1.767   1.028  15.935  2.4364 -0.9170  0.9549
 7377SOL    HW233768   1.750   0.914  16.030  2.1044  3.1760  0.5899
 7378SOL     OW33769   3.106   3.347   9.723 -0.0785  0.2878 -0.0360
 7378SOL    HW133770   3.013   3.323   9.733  0.2936 -1.9732 -1.8507
 7378SOL    HW233771   3.129   3.349   9.816  0.4781 -3.6288 -0.0802
 7379SOL     OW33772   3.102   0.986   4.456  0.4136 -0.1629  0.0057
 7379SOL    HW133773   3.025   1.004   4.403  1.3768  0.6364 -1.1385
 7379SOL    HW233774   3.158   0.944   4.391 -1.0951  0.6120 -1.8092
 7380SOL     OW33775   2.350   3.063   6.546  0.1265  0.1671 -0.8694
 7380SOL    HW133776   2.305   3.006   6.609 -0.5229  0.5142 -1.0186
 7380SOL    HW233777   2.433   3.017   6.546  0.9444  1.6304  0.1743
 7381SOL     OW33778   0.152   1.249   2.696 -0.2229 -0.2311  0.6371
 7381SOL    HW133779   0.234   1.256   2.647 -0.7058 -1.6867 -0.3908
 7381SOL    HW233780   0.105   1.332   2.681  1.3965  0.7198  0.8398
 7382SOL     OW33781   1.130   0.368  10.919 -0.4380  0.1925 -0.0280
 7382SOL    HW133782   1.066   0.437  10.937 -0.4723 -0.1164  1.0250
 7382SOL    HW233783   1.209   0.422  10.918 -1.5062  1.8074  1.8965
 7383SOL     OW33784   0.908   1.967   7.676  0.5135  0.5666  0.2446
 7383SOL    HW133785   0.892   2.061   7.669  2.6134  0.9731  0.9349
 7383SOL    HW233786   0.995   1.959   7.636 -1.1663 -1.1606 -3.0027
 7384SOL     OW33787   1.055   2.845   9.957 -0.0796 -0.4180 -0.3950
 7384SOL    HW133788   1.086   2.810   9.873 -1.1815  1.2663 -1.5190
 7384SOL    HW233789   1.035   2.758   9.991 -1.0269  0.1186  0.4240
 7385SOL     OW33790   1.966   3.687   0.281 -0.1809 -0.1037  0.1042
 7385SOL    HW133791   1.885   3.715   0.238  0.0927 -0.2385 -0.4951
 7385SOL    HW233792   1.953   3.733   0.364  0.6913  0.8614 -0.3008
 7386SOL     OW33793   3.214   3.074   4.836  0.0070 -0.3454 -0.1791
 7386SOL    HW133794   3.230   3.143   4.900 -2.3864 -0.0733  0.1310
 7386SOL    HW233795   3.141   3.026   4.874  1.1729 -1.4392  0.6699
 7387SOL     OW33796   4.089   3.986   2.097  0.6767  0.2801  0.3594
 7387SOL    HW133797   4.106   3.894   2.118  0.7690  0.5800  1.6160
 7387SOL    HW233798   4.118   3.994   2.006  1.0322  2.0546  0.6317
 7388SOL     OW33799   4.110   2.110   2.077 -0.4027 -0.2533  0.2674
 7388SOL    HW133800   4.137   2.019   2.071  2.9552  0.7041  0.9266
 7388SOL    HW233801   4.066   2.117   1.993 -1.7940 -1.1653  0.9299
 7389SOL     OW33802   4.719   1.270   3.978  0.4450 -0.5239 -0.2309
 7389SOL    HW133803   4.697   1.304   3.891 -0.0635  1.8644  0.8144
 7389SOL    HW233804   0.077   1.269   3.972  0.5973  1.0398  2.0165
 7390SOL     OW33805   3.792   0.033   3.854 -0.3084  0.3672  0.3017
 7390SOL    HW133806   3.808   0.123   3.827  2.6181  0.2634  1.6491
 7390SOL    HW233807   3.838   4.727   3.783  0.6166 -0.2699  1.3054
 7391SOL     OW33808   0.928   3.837   3.532 -0.1877 -0.4494 -0.6250
 7391SOL    HW133809   0.922   3.868   3.622  1.4830 -1.6683 -0.1019
 7391SOL    HW233810   0.847   3.867   3.491 -0.0055  1.0231  0.0853
 7392SOL     OW33811   4.703   0.495  13.352 -0.2905 -0.1538  0.3718
 7392SOL    HW133812   4.636   0.494  13.420  1.0577  2.1233  1.7184
 7392SOL    HW233813   4.696   0.586  13.322 -0.8596 -1.1854 -2.6820
 7393SOL     OW33814   2.769   0.494   3.231  0.1236  0.4353  0.3477
 7393SOL    HW133815   2.685   0.478   3.276  0.5213  0.8750  1.2528
 7393SOL    HW233816   2.786   0.404   3.203  0.4471 -0.2422  2.6441
 7394SOL     OW33817   0.724   3.150   3.346 -0.0476 -0.3920 -0.3985
 7394SOL    HW133818   0.648   3.128   3.400 -1.0465  0.1620 -1.5762
 7394SOL    HW233819   0.731   3.245   3.359  0.4213 -0.2180 -1.9088
 7395SOL     OW33820   3.305   2.842   4.586  0.1398 -0.0380 -0.1102
 7395SOL    HW133821   3.298   2.750   4.612  0.2466  0.1891  0.7007
 7395SOL    HW233822   3.398   2.864   4.583 -0.4042  2.1502 -0.9581
 7396SOL     OW33823   0.354   3.318  10.793 -0.0007 -0.1260 -0.0785
 7396SOL    HW133824   0.408   3.301  10.715 -0.0182  1.7901 -0.5017
 7396SOL    HW233825   0.414   3.289  10.862 -2.1239 -3.2725  0.4436
 7397SOL     OW33826   3.555   0.121   3.635  0.6976 -0.0201  0.3598
 7397SOL    HW133827   3.513   0.109   3.549  0.7167  1.5677  0.1342
 7397SOL    HW233828   3.646   0.106   3.613  0.7057  0.2288  0.2321
 7398SOL     OW33829   4.673   2.266   7.376 -0.1091  0.0681  0.3178
 7398SOL    HW133830   4.581   2.241   7.370  0.3186 -0.9158 -1.8464
 7398SOL    HW233831   4.695   2.251   7.468  1.5434 -1.8676 -0.3906
 7399SOL     OW33832   2.677   3.178   5.767 -0.2531 -0.9639  0.1142
 7399SOL    HW133833   2.755   3.223   5.800 -1.4999  1.3385 -0.1683
 7399SOL    HW233834   2.684   3.090   5.805  1.9924  0.1499  2.2933
 7400SOL     OW33835   2.437   3.088   5.122  0.2843 -0.4479  0.5158
 7400SOL    HW133836   2.488   3.052   5.049  1.0163  1.9303 -0.1267
 7400SOL    HW233837   2.487   3.168   5.135 -1.0756  0.2528  1.3948
 7401SOL     OW33838   2.420   4.054   5.995  0.2100  0.0768 -0.3805
 7401SOL    HW133839   2.476   4.045   6.072 -0.6516  0.9709  0.3505
 7401SOL    HW233840   2.332   4.051   6.033  0.5637  3.1262  0.6328
 7402SOL     OW33841   3.393   1.929   1.103  0.2123  1.2968 -0.4904
 7402SOL    HW133842   3.304   1.920   1.068  0.7909 -1.1136 -1.3066
 7402SOL    HW233843   3.376   2.009   1.153 -0.0809  0.7006  0.3772
 7403SOL     OW33844   1.039   3.753   4.952  0.1734 -0.5186  0.0918
 7403SOL    HW133845   1.069   3.670   4.989  1.0320 -0.1901  0.1237
 7403SOL    HW233846   1.048   3.817   5.023  0.3325 -0.4685  0.0251
 7404SOL     OW33847   3.141   2.564   1.292 -0.2322 -0.3784 -0.1866
 7404SOL    HW133848   3.063   2.570   1.236  0.4636  0.7762 -1.0106
 7404SOL    HW233849   3.105   2.576   1.380  1.1701 -2.7709  0.6981
 7405SOL     OW33850   0.611   2.730   4.478  0.1160 -0.6712 -0.9227
 7405SOL    HW133851   0.629   2.764   4.390 -1.8128  0.8823 -0.7263
 7405SOL    HW233852   0.534   2.784   4.498  0.8735 -0.1943  0.7287
 7406SOL     OW33853   1.487   1.296   2.741  0.1043  0.3143 -0.4138
 7406SOL    HW133854   1.445   1.234   2.682 -0.6922  1.0556 -0.6238
 7406SOL    HW233855   1.579   1.273   2.725 -0.8144 -2.8728 -1.0114
 7407SOL     OW33856   1.148   1.501  16.600  0.3523  0.2936 -0.4939
 7407SOL    HW133857   1.082   1.484  16.668 -0.3308  3.3300 -0.3970
 7407SOL    HW233858   1.145   1.592  16.571 -1.8382  0.5468  0.4963
 7408SOL     OW33859   0.757   2.049   5.733  0.1389 -0.2531 -0.4975
 7408SOL    HW133860   0.721   2.015   5.651 -0.0881 -2.0128  0.3116
 7408SOL    HW233861   0.850   2.043   5.715  0.7446  0.8680  2.1941
 7409SOL     OW33862   0.099   3.994   9.504  0.7513  0.1817  0.0514
 7409SOL    HW133863   0.169   4.002   9.568  0.7957  0.6842 -0.0589
 7409SOL    HW233864   0.104   3.905   9.471 -1.4434  0.3255 -0.7094
 7410SOL     OW33865   4.198   0.098   6.667 -0.1914 -0.2980 -0.0312
 7410SOL    HW133866   4.221   0.022   6.613  0.4420 -1.7117  2.2651
 7410SOL    HW233867   4.223   0.177   6.619  1.4249  0.3067  1.8206
 7411SOL     OW33868   0.497   2.898   6.120 -0.2949 -0.2472  0.3036
 7411SOL    HW133869   0.425   2.861   6.069 -0.3928 -0.0204  0.2814
 7411SOL    HW233870   0.451   2.930   6.197 -0.0296  0.4614  0.1601
 7412SOL     OW33871   4.186   4.347   4.234  0.1250 -0.0728  0.3328
 7412SOL    HW133872   4.118   4.415   4.229 -0.5918 -0.7477  0.9505
 7412SOL    HW233873   4.142   4.291   4.170 -3.8398  2.6331  0.6421
 7413SOL     OW33874   4.235   0.060  15.409  0.0093  0.6837  0.5007
 7413SOL    HW133875   4.207   0.067  15.500  0.5022 -0.9508  0.7698
 7413SOL    HW233876   4.330   0.066  15.417 -0.0526  1.7185  0.4732
 7414SOL     OW33877   2.749   3.190   3.941  0.0907  0.8604  0.7953
 7414SOL    HW133878   2.799   3.271   3.945  0.8305  0.4268  0.3064
 7414SOL    HW233879   2.766   3.169   3.849  0.1861 -1.2010  1.2852
 7415SOL     OW33880   0.757   0.813   4.732 -0.3288  0.2173  0.2740
 7415SOL    HW133881   0.780   0.739   4.676 -2.7595  0.6673 -1.3546
 7415SOL    HW233882   0.735   0.882   4.669  2.5206 -0.6408 -1.6923
 7416SOL     OW33883   3.692   4.272   6.248 -0.5440 -0.4051 -0.7226
 7416SOL    HW133884   3.660   4.343   6.304 -1.1397 -1.2855  0.0334
 7416SOL    HW233885   3.740   4.327   6.186 -0.4894  0.0105 -0.3191
 7417SOL     OW33886   1.762   1.831   5.241  0.5708 -0.0449 -0.1171
 7417SOL    HW133887   1.773   1.910   5.293  1.1305  0.2989 -0.7517
 7417SOL    HW233888   1.827   1.774   5.280  1.2466 -0.0797 -1.2707
 7418SOL     OW33889   2.123   4.208   3.049  0.6789 -0.2816 -0.2689
 7418SOL    HW133890   2.191   4.214   2.982  2.1194 -0.4809  1.1586
 7418SOL    HW233891   2.041   4.234   3.007  0.6726 -1.6068 -1.0614
 7419SOL     OW33892   2.297   4.586   3.096  0.1700 -0.6852  0.2803
 7419SOL    HW133893   2.289   4.563   3.188 -1.6242 -1.2516 -0.0172
 7419SOL    HW233894   2.250   4.669   3.093 -0.6143 -1.1267  0.3774
 7420SOL     OW33895   0.104   3.536   9.459  0.2484  0.0085  0.6305
 7420SOL    HW133896   0.114   3.466   9.395 -2.9638 -1.1528  1.3931
 7420SOL    HW233897   0.119   3.487   9.540 -1.7695 -1.8939 -0.1835
 7421SOL     OW33898   0.926   1.482   0.408 -0.9350  0.6532 -0.2711
 7421SOL    HW133899   0.923   1.450   0.318 -2.8189 -0.4269  0.1563
 7421SOL    HW233900   0.953   1.573   0.403 -1.5836  0.8087 -0.9558
 7422SOL     OW33901   0.425   4.059   7.533 -0.0606  0.2224 -0.4711
 7422SOL    HW133902   0.333   4.035   7.541  0.1210 -0.1832  0.4544
 7422SOL    HW233903   0.461   3.981   7.489  1.3517  0.8145 -0.3681
 7423SOL     OW33904   3.854   4.223   6.012  0.2183  0.1590  0.1996
 7423SOL    HW133905   3.868   4.189   5.923 -0.5712  0.7139 -0.1348
 7423SOL    HW233906   3.906   4.158   6.060  0.4557  0.0156 -0.2504
 7424SOL     OW33907   0.567   4.181   7.217  0.0478  0.6776  0.1729
 7424SOL    HW133908   0.476   4.203   7.238 -0.2384 -0.1115 -0.2360
 7424SOL    HW233909   0.609   4.214   7.297 -1.0135  1.9174  0.2254
 7425SOL     OW33910   1.289   0.501   2.373 -0.0946 -0.5010 -0.0022
 7425SOL    HW133911   1.229   0.505   2.448  0.6600 -0.2917  0.5899
 7425SOL    HW233912   1.260   0.418   2.336 -0.9945 -0.0615 -0.2716
 7426SOL     OW33913   3.400   3.169   3.721  0.5056  0.1392 -0.1627
 7426SOL    HW133914   3.493   3.159   3.741  0.3376 -1.5575 -0.2895
 7426SOL    HW233915   3.387   3.145   3.629 -2.8172  0.6228  0.2007
 7427SOL     OW33916   0.402   1.174   5.861  0.2151 -0.5375 -0.2547
 7427SOL    HW133917   0.424   1.082   5.875  0.7738 -0.2215  0.9512
 7427SOL    HW233918   0.319   1.187   5.907  0.7283  1.5895  0.1114
 7428SOL     OW33919   0.198   4.714   3.321 -0.4382 -0.2252  0.0463
 7428SOL    HW133920   0.127   4.674   3.270  2.0653 -0.5456 -3.1867
 7428SOL    HW233921   0.173   4.700   3.413  0.9797  0.5544  0.5428
 7429SOL     OW33922   1.536   0.011   1.867 -0.1801 -0.3143  0.1784
 7429SOL    HW133923   1.609   4.715   1.815  0.3520  0.5624  0.3369
 7429SOL    HW233924   1.489   0.056   1.797 -0.2290 -1.3610 -0.4565
 7430SOL     OW33925   4.406   0.777   8.987  0.1714 -0.5475  0.4868
 7430SOL    HW133926   4.316   0.785   8.956  0.5543 -0.5632 -0.6178
 7430SOL    HW233927   4.383   0.715   9.057  0.1857 -1.7260 -0.5425
 7431SOL     OW33928   2.267   3.592   5.668  0.4127 -0.4919  0.8605
 7431SOL    HW133929   2.223   3.650   5.730  1.3189 -0.3697  1.3823
 7431SOL    HW233930   2.254   3.640   5.586  3.1500 -0.8200  0.2560
 7432SOL     OW33931   1.744   4.563   7.215  0.3485  0.8373  0.5656
 7432SOL    HW133932   1.795   4.482   7.221 -0.1571  0.5998  1.6908
 7432SOL    HW233933   1.796   4.617   7.275  2.0418  0.4108 -0.5100
 7433SOL     OW33934   2.935   4.280   2.093 -0.1855  0.4629  0.7062
 7433SOL    HW133935   3.024   4.267   2.060 -0.8303 -0.2586 -0.7728
 7433SOL    HW233936   2.909   4.204   2.144  0.6537  0.0300  0.4808
 7434SOL     OW33937   4.232   0.350   7.497 -0.4129 -0.1893 -0.3228
 7434SOL    HW133938   4.267   0.269   7.534 -0.2227 -0.3992 -0.9643
 7434SOL    HW233939   4.141   0.326   7.477 -0.4990  0.7827 -1.0836
 7435SOL     OW33940   2.687   3.043   5.451  0.1787 -0.0989  0.3964
 7435SOL    HW133941   2.771   3.081   5.477  0.5092 -0.8501  0.4081
 7435SOL    HW233942   2.623   3.108   5.481  0.6282  0.7562 -0.4809
 7436SOL     OW33943   2.749   4.258   6.322 -0.1029 -0.3965  0.1895
 7436SOL    HW133944   2.740   4.347   6.288 -1.2448 -1.2652 -1.7471
 7436SOL    HW233945   2.774   4.263   6.414  0.2889  0.2777  0.0422
 7437SOL     OW33946   4.505   0.746  14.934  0.2292  0.4084  0.3796
 7437SOL    HW133947   4.586   0.723  14.887 -0.4337 -2.4775  0.6552
 7437SOL    HW233948   4.451   0.750  14.855  1.0229 -1.2557 -0.2458
 7438SOL     OW33949   3.604   1.706   3.223  0.2479 -0.3209  0.1624
 7438SOL    HW133950   3.691   1.733   3.253  0.0233 -1.0817  1.5340
 7438SOL    HW233951   3.592   1.611   3.223  0.2910 -0.3276  0.6435
 7439SOL     OW33952   1.461   2.188   0.956 -0.0046  0.3339  0.3484
 7439SOL    HW133953   1.550   2.200   0.924 -0.4373  2.3354 -0.1093
 7439SOL    HW233954   1.463   2.218   1.047 -0.5648 -0.3370  0.5780
 7440SOL     OW33955   1.363   1.209   8.398 -0.0491  0.1055 -0.0015
 7440SOL    HW133956   1.434   1.145   8.406 -0.6681 -0.5567  0.1572
 7440SOL    HW233957   1.352   1.214   8.303  1.5395 -1.5937 -0.2879
 7441SOL     OW33958   2.877   3.878   6.028  0.3228 -0.5077  0.3482
 7441SOL    HW133959   2.871   3.868   6.123 -2.6354  1.2031  0.3578
 7441SOL    HW233960   2.887   3.783   6.018 -0.7403 -0.9666  3.6459
 7442SOL     OW33961   2.692   0.698   9.685  0.3318  0.2905  0.1417
 7442SOL    HW133962   2.679   0.641   9.761 -0.9592  0.9374  0.3906
 7442SOL    HW233963   2.765   0.756   9.709  1.7050 -1.4234  0.1360
 7443SOL     OW33964   2.861   0.403   7.234  0.0249  0.2164  0.3550
 7443SOL    HW133965   2.903   0.358   7.160 -0.7130  0.2977 -0.1157
 7443SOL    HW233966   2.864   0.325   7.289  2.6710 -0.1155 -0.2550
 7444SOL     OW33967   2.368   0.549   1.621  0.5577 -0.5616 -0.1264
 7444SOL    HW133968   2.379   0.494   1.699  1.0811  1.8683  1.5331
 7444SOL    HW233969   2.399   0.489   1.553  0.1347  0.0599 -0.8641
 7445SOL     OW33970   2.947   2.137   9.137 -0.0573 -0.3422  0.1575
 7445SOL    HW133971   2.933   2.045   9.115  2.4804 -0.4080 -1.1584
 7445SOL    HW233972   3.042   2.150   9.135  0.1063 -1.7063 -0.7116
 7446SOL     OW33973   1.492   0.881   2.390 -0.0226 -0.0130 -0.0830
 7446SOL    HW133974   1.498   0.834   2.306  0.4923  0.3448 -0.2505
 7446SOL    HW233975   1.573   0.847   2.428  1.2224  2.9128 -0.1101
 7447SOL     OW33976   4.116   2.782  10.615  0.4134  0.5224 -0.0245
 7447SOL    HW133977   4.109   2.877  10.622 -2.7890  0.2914  0.0620
 7447SOL    HW233978   4.092   2.764  10.524 -2.2628 -0.0639  0.8136
 7448SOL     OW33979   2.739   0.399   0.519 -0.6004  0.4994  0.2591
 7448SOL    HW133980   2.743   0.429   0.428 -0.3169  1.2103  0.5024
 7448SOL    HW233981   2.830   0.382   0.542 -0.5575  0.2924 -0.0786
 7449SOL     OW33982   0.779   2.505   0.028 -0.9439 -0.6490 -0.1469
 7449SOL    HW133983   0.759   2.592  17.744  0.6652 -0.3985 -0.4579
 7449SOL    HW233984   0.807   2.530   0.116  4.4509 -2.1651 -1.4338
 7450SOL     OW33985   4.104   0.602   4.226 -0.0119 -0.1460  0.2312
 7450SOL    HW133986   4.142   0.682   4.263  0.4262  0.1620 -0.8944
 7450SOL    HW233987   4.013   0.602   4.255  0.1540 -0.0768  0.7639
 7451SOL     OW33988   0.793   4.634   1.883 -0.4365  0.0678 -0.0364
 7451SOL    HW133989   0.710   4.679   1.868 -1.9443 -2.0479  1.8967
 7451SOL    HW233990   0.790   4.578   1.960  1.2030  0.2043  0.1299
 7452SOL     OW33991   1.904   2.633   4.028 -0.2162  0.4396 -0.7670
 7452SOL    HW133992   1.909   2.610   4.121  1.5310 -2.8601 -1.6836
 7452SOL    HW233993   1.996   2.637   4.001  0.5480  2.4837  2.0819
 7453SOL     OW33994   0.080   1.040   9.652 -0.4300  0.4799  0.0410
 7453SOL    HW133995   0.121   0.981   9.714  0.7143  0.7756 -0.4353
 7453SOL    HW233996   0.115   1.124   9.681  0.2831  0.4221 -0.6357
 7454SOL     OW33997   1.341   4.192   0.371  0.1077 -0.2141  0.3037
 7454SOL    HW133998   1.405   4.186   0.301  1.7832 -0.5916  1.8804
 7454SOL    HW233999   1.356   4.109   0.415  0.6555  1.3298  3.1008
 7455SOL     OW34000   4.065   0.774   8.636  0.0779  0.6237  0.6663
 7455SOL    HW134001   4.023   0.813   8.560  1.5915  1.0406  0.0484
 7455SOL    HW234002   4.126   0.708   8.603 -1.5782 -0.3894 -0.4078
 7456SOL     OW34003   1.349   3.557   2.680  0.6875 -0.0243 -0.7482
 7456SOL    HW134004   1.412   3.610   2.729 -1.1919  1.1546  0.3970
 7456SOL    HW234005   1.407   3.532   2.608  1.5293  0.0269 -0.0945
 7457SOL     OW34006   2.756   2.284   0.800  0.3522 -0.3009 -0.2142
 7457SOL    HW134007   2.818   2.297   0.871 -1.1786  0.2708  1.0174
 7457SOL    HW234008   2.805   2.324   0.728 -0.5130  0.6247 -0.2805
 7458SOL     OW34009   3.001   1.505   9.916  0.1396 -0.0262  0.0908
 7458SOL    HW134010   3.025   1.593   9.944 -0.7535 -0.0918  1.0664
 7458SOL    HW234011   3.087   1.464   9.918  0.4264  0.5488 -0.6172
 7459SOL     OW34012   3.321   0.636   2.234 -0.1740  0.5092  0.0681
 7459SOL    HW134013   3.292   0.653   2.324  0.1405 -1.2179  0.4962
 7459SOL    HW234014   3.247   0.586   2.199  1.4727 -1.3375 -0.7729
 7460SOL     OW34015   3.774   3.274   6.627 -0.0912  0.1478  0.0721
 7460SOL    HW134016   3.762   3.316   6.712 -0.4304 -0.9495  0.5754
 7460SOL    HW234017   3.688   3.233   6.616 -0.6322  1.6267 -1.2144
 7461SOL     OW34018   3.254   2.897   7.747  0.0385 -0.6086 -0.2976
 7461SOL    HW134019   3.215   2.935   7.825  1.1084  1.9050 -0.9990
 7461SOL    HW234020   3.304   2.968   7.707 -0.1615 -0.7458 -0.7885
 7462SOL     OW34021   1.416   3.088  12.621  0.3236 -0.1280 -0.5228
 7462SOL    HW134022   1.455   3.147  12.686 -0.5239  0.2375 -0.3486
 7462SOL    HW234023   1.484   3.086  12.553  0.3696 -1.7098 -0.4176
 7463SOL     OW34024   4.598   2.182   3.922 -0.0854  0.2270  0.0078
 7463SOL    HW134025   4.573   2.257   3.977  0.0203 -0.1022  0.5076
 7463SOL    HW234026   4.679   2.216   3.886 -0.0593 -0.3519 -0.4710
 7464SOL     OW34027   3.478   1.997   6.991 -0.1576  0.1815  0.0720
 7464SOL    HW134028   3.397   2.046   6.977  0.9902  2.4822  1.5835
 7464SOL    HW234029   3.520   2.008   6.905  0.6357 -0.3654  0.3946
 7465SOL     OW34030   1.103   1.854   6.456  0.6149 -0.7415  0.0362
 7465SOL    HW134031   1.136   1.777   6.503  2.5659 -0.2557 -0.5606
 7465SOL    HW234032   1.182   1.906   6.466  0.9446 -0.9058 -1.7407
 7466SOL     OW34033   2.739   1.164   3.800 -0.6464 -0.3867  0.9488
 7466SOL    HW134034   2.729   1.258   3.782  0.8747 -0.4949 -0.4178
 7466SOL    HW234035   2.773   1.134   3.716  2.3003 -0.4794  2.1782
 7467SOL     OW34036   4.126   2.102   6.199  0.2344 -0.4550 -0.8010
 7467SOL    HW134037   4.112   2.194   6.222 -1.8597 -0.7874 -0.7344
 7467SOL    HW234038   4.221   2.105   6.187  0.2471  0.7040 -0.4567
 7468SOL     OW34039   3.795   3.658   7.969  0.2741 -0.1324 -0.0221
 7468SOL    HW134040   3.732   3.700   8.027  1.5935  1.9305 -0.0780
 7468SOL    HW234041   3.749   3.577   7.946 -0.2961  0.3391 -0.5544
 7469SOL     OW34042   4.468   1.470  16.751 -0.5884 -0.1153 -0.2506
 7469SOL    HW134043   4.386   1.492  16.794 -0.7379 -0.1623 -0.5100
 7469SOL    HW234044   4.456   1.499  16.660 -1.1027  0.4433  0.0005
 7470SOL     OW34045   0.938   3.632  12.879 -0.4048  0.0280  0.2686
 7470SOL    HW134046   1.002   3.687  12.835 -0.6034 -0.3900 -0.5429
 7470SOL    HW234047   0.966   3.545  12.852  2.3296  1.5639 -1.7540
 7471SOL     OW34048   2.213   4.694  15.243  0.0337  0.0303  0.0161
 7471SOL    HW134049   2.206   4.671  15.150  1.3368 -2.1641  0.4552
 7471SOL    HW234050   2.186   0.046  15.231 -3.2250 -0.8245  1.0799
 7472SOL     OW34051   0.426   3.338   2.484 -0.2896 -0.6288 -0.5322
 7472SOL    HW134052   0.371   3.266   2.453  1.5809 -1.4777 -1.8692
 7472SOL    HW234053   0.444   3.391   2.406  0.1983  1.1594  0.7768
 7473SOL     OW34054   1.525   0.947   3.106  0.1290  0.1200  0.0413
 7473SOL    HW134055   1.457   0.961   3.039 -0.2271  1.5777  0.7065
 7473SOL    HW234056   1.562   1.035   3.104 -1.0486  0.5817 -1.9686
 7474SOL     OW34057   3.409   3.301   5.903  1.1415 -0.2367 -0.1958
 7474SOL    HW134058   3.446   3.229   5.954  2.1108  0.1838 -0.3077
 7474SOL    HW234059   3.428   3.372   5.965  0.1645  1.0579 -1.3787
 7475SOL     OW34060   2.269   2.548   2.283 -0.0099 -0.6378  0.5476
 7475SOL    HW134061   2.336   2.601   2.241 -0.5132  0.7439  1.4830
 7475SOL    HW234062   2.274   2.470   2.228  0.2069 -0.1143 -0.1682
 7476SOL     OW34063   2.163   0.284  17.241 -0.2381 -0.1075  0.2177
 7476SOL    HW134064   2.222   0.352  17.275  1.0746 -0.5136 -1.2105
 7476SOL    HW234065   2.169   0.227  17.317  1.1263  0.3358  0.4492
 7477SOL     OW34066   4.624   3.856   4.859  0.3001 -0.0024 -0.5097
 7477SOL    HW134067   4.606   3.763   4.847 -1.0492  0.0409  1.2649
 7477SOL    HW234068   4.645   3.879   4.768 -0.8302 -0.6814 -0.9316
 7478SOL     OW34069   3.695   1.624  17.140  0.3706  0.7111 -0.1219
 7478SOL    HW134070   3.618   1.631  17.084  1.9073  3.2119 -1.9572
 7478SOL    HW234071   3.750   1.571  17.083  0.4156  0.1904  0.4122
 7479SOL     OW34072   3.644   2.019   8.013  0.0985  0.3746  0.3992
 7479SOL    HW134073   3.714   2.018   8.078 -0.4071  1.9599  0.9387
 7479SOL    HW234074   3.607   2.106   8.022 -0.3899  0.0181  1.7759
 7480SOL     OW34075   3.758   0.220   7.158  0.2162  0.3381 -0.1185
 7480SOL    HW134076   3.735   0.199   7.249 -0.8897  1.2478 -0.1992
 7480SOL    HW234077   3.770   0.315   7.164 -0.7720  0.3671  1.4674
 7481SOL     OW34078   1.214   0.468  11.178 -0.3959  0.4684  0.0721
 7481SOL    HW134079   1.286   0.527  11.199 -0.2397  0.5268 -0.6336
 7481SOL    HW234080   1.194   0.445  11.269 -0.9409  2.4530  0.4530
 7482SOL     OW34081   3.616   2.789   3.998 -0.5281  0.0190 -0.1653
 7482SOL    HW134082   3.650   2.701   3.983 -1.5819 -0.2671 -0.8469
 7482SOL    HW234083   3.535   2.782   4.049  0.5803 -1.2081  1.3890
 7483SOL     OW34084   1.348   0.164  17.555 -0.4569  0.0396 -0.4954
 7483SOL    HW134085   1.281   0.223  17.588  0.6319  1.1301 -0.2370
 7483SOL    HW234086   1.361   0.198  17.467 -2.6665 -0.0952 -0.8590
 7484SOL     OW34087   0.955   0.525   8.184 -0.3541  0.1909  0.3338
 7484SOL    HW134088   1.028   0.483   8.139 -0.9876  0.6752 -1.1424
 7484SOL    HW234089   0.884   0.467   8.156  0.3780 -0.8005  0.5186
 7485SOL     OW34090   1.178   3.198   5.216 -0.4090 -0.4039  0.0171
 7485SOL    HW134091   1.253   3.251   5.244 -1.3568  1.2887 -0.6558
 7485SOL    HW234092   1.165   3.154   5.300 -0.3531 -0.3437  0.0570
 7486SOL     OW34093   3.146   2.824   5.246  0.0277  0.1558  0.3499
 7486SOL    HW134094   3.068   2.828   5.302 -1.0906  1.3378 -1.3142
 7486SOL    HW234095   3.201   2.775   5.308  1.1217 -0.6503 -1.2714
 7487SOL     OW34096   3.499   3.528   1.489 -0.0834  0.2463 -0.3072
 7487SOL    HW134097   3.428   3.544   1.550 -0.5332 -0.1399 -0.7311
 7487SOL    HW234098   3.513   3.611   1.443  1.2123  0.1024 -0.1949
 7488SOL     OW34099   1.935   1.583   4.755  0.0481  0.2823  0.0437
 7488SOL    HW134100   1.887   1.614   4.679 -1.5172 -3.1994 -0.3481
 7488SOL    HW234101   1.928   1.655   4.818  0.2146 -0.9989  1.5489
 7489SOL     OW34102   2.212   2.950  13.388 -0.8892  0.6505  0.1596
 7489SOL    HW134103   2.196   3.016  13.456 -0.8949  1.1770 -0.3503
 7489SOL    HW234104   2.193   2.868  13.433  0.9591 -0.3216 -0.8301
 7490SOL     OW34105   4.317   1.338   2.327  0.0258  0.2365 -0.2546
 7490SOL    HW134106   4.402   1.345   2.283  0.0656  1.6186  0.0363
 7490SOL    HW234107   4.265   1.393   2.269  0.8146 -1.1201 -2.2493
 7491SOL     OW34108   3.699   4.710   4.476 -0.2583  0.2629 -0.0643
 7491SOL    HW134109   3.725   0.049   4.526 -1.9961  0.4849  0.5127
 7491SOL    HW234110   3.738   4.726   4.390  0.0850 -0.3253 -0.0155
 7492SOL     OW34111   3.400   0.284   8.020 -0.1809 -0.2611 -0.1865
 7492SOL    HW134112   3.341   0.301   7.946 -0.0480  0.8353 -0.0367
 7492SOL    HW234113   3.370   0.200   8.055  2.7834 -1.2699 -0.0934
 7493SOL     OW34114   2.620   1.006   4.931 -0.3211 -0.0498 -0.1132
 7493SOL    HW134115   2.676   0.942   4.886  0.1946 -1.2428  2.2152
 7493SOL    HW234116   2.683   1.054   4.985 -1.0067  2.5954 -1.6667
 7494SOL     OW34117   3.114   0.733   9.182  0.4153  0.9808 -0.5799
 7494SOL    HW134118   3.057   0.658   9.167  0.9887 -0.1057  2.6913
 7494SOL    HW234119   3.137   0.749   9.091  0.4735  1.2449 -0.5204
 7495SOL     OW34120   1.287   1.353   2.202 -0.6915  0.1650  0.2720
 7495SOL    HW134121   1.299   1.270   2.156  2.1520 -0.7961  2.8049
 7495SOL    HW234122   1.192   1.350   2.213 -1.0267  0.6870 -2.2815
 7496SOL     OW34123   1.711   2.435  17.676  0.6604  0.5787 -0.5590
 7496SOL    HW134124   1.707   2.452   0.020 -0.0477 -1.4319 -0.2172
 7496SOL    HW234125   1.617   2.422  17.662  0.5905  0.3873  0.0700
 7497SOL     OW34126   2.717   1.851  13.672 -0.0868 -0.0126 -0.3614
 7497SOL    HW134127   2.787   1.794  13.704  0.2939  1.0575  0.7232
 7497SOL    HW234128   2.694   1.894  13.754  0.2968 -1.1316  0.3370
 7498SOL     OW34129   0.984   3.356   1.611 -0.0299  0.2657  0.4082
 7498SOL    HW134130   0.944   3.416   1.673  2.9828  1.7640  0.8836
 7498SOL    HW234131   0.954   3.388   1.525  0.9701  1.0167  0.3369
 7499SOL     OW34132   1.376   2.615   3.381  0.2798  0.4691  0.3463
 7499SOL    HW134133   1.409   2.531   3.413  2.0923  1.4496  1.0028
 7499SOL    HW234134   1.287   2.588   3.359  1.0577 -0.4010 -1.7636
 7500SOL     OW34135   0.980   3.721  14.904  0.4735  0.5485 -0.1124
 7500SOL    HW134136   0.894   3.734  14.864  0.2715  0.0156  0.1520
 7500SOL    HW234137   0.989   3.626  14.906  2.3416  0.6932 -1.2693
 7501SOL     OW34138   1.014   3.555   3.612 -0.2445 -0.0790  0.0352
 7501SOL    HW134139   0.975   3.528   3.528 -1.1222  1.0805  0.0664
 7501SOL    HW234140   0.966   3.637   3.623  1.5001  1.1433 -1.6114
 7502SOL     OW34141   0.451   4.453   9.652 -0.7093  0.5793 -0.2149
 7502SOL    HW134142   0.526   4.501   9.686 -2.2671  0.9398  2.7567
 7502SOL    HW234143   0.440   4.501   9.570  1.2880 -0.8851 -1.3427
 7503SOL     OW34144   4.460   3.957   6.763  0.1943  0.2553  0.1721
 7503SOL    HW134145   4.489   4.011   6.690 -0.4173  1.3606  0.7489
 7503SOL    HW234146   4.414   4.018   6.821 -0.3997  1.3845 -1.5006
 7504SOL     OW34147   2.761   2.162   5.664 -0.0616  0.2789 -0.5088
 7504SOL    HW134148   2.776   2.108   5.587 -1.6738 -1.1007  0.1237
 7504SOL    HW234149   2.849   2.194   5.686  0.1503 -0.8435  0.2382
 7505SOL     OW34150   0.120   3.778  16.599 -0.0607 -0.2768 -0.2620
 7505SOL    HW134151   0.127   3.793  16.505 -1.9438  1.0563 -0.1845
 7505SOL    HW234152   0.026   3.788  16.616 -0.2859 -1.5203 -0.8251
 7506SOL     OW34153   1.381   0.648  15.572  0.2716  0.4994 -0.0858
 7506SOL    HW134154   1.442   0.693  15.514  1.2170  0.0519  0.5812
 7506SOL    HW234155   1.437   0.607  15.637  1.1097 -0.7612 -1.6222
 7507SOL     OW34156   2.228   2.469   6.382 -0.1733 -0.6772 -0.4906
 7507SOL    HW134157   2.292   2.458   6.453 -0.2956 -0.7227 -0.3876
 7507SOL    HW234158   2.256   2.406   6.315 -2.4825  0.7225 -2.7563
 7508SOL     OW34159   3.518   3.103   2.635  0.1714  0.4165  0.3194
 7508SOL    HW134160   3.581   3.127   2.567 -0.9824 -0.2386 -0.9815
 7508SOL    HW234161   3.434   3.114   2.589 -0.0354  1.8945  1.0463
 7509SOL     OW34162   1.467   2.102  16.685  0.3040  0.3066  0.6480
 7509SOL    HW134163   1.489   2.086  16.776  1.5632  0.3144  0.3461
 7509SOL    HW234164   1.372   2.109  16.691  0.0967 -0.4439 -1.6175
 7510SOL     OW34165   3.530   1.374  16.242 -0.0455  0.1895 -0.2995
 7510SOL    HW134166   3.618   1.384  16.206 -0.7297  0.1756 -1.9801
 7510SOL    HW234167   3.544   1.324  16.322  1.2958  1.1940  0.0907
 7511SOL     OW34168   2.673   0.870   8.528  0.0209  0.2478  0.1086
 7511SOL    HW134169   2.655   0.954   8.570  0.4206 -0.1095  0.9790
 7511SOL    HW234170   2.763   0.895   8.511  0.4323 -1.2362  0.0955
 7512SOL     OW34171   4.110   3.843   3.859  0.2045  0.5736 -0.1694
 7512SOL    HW134172   4.171   3.808   3.924  1.7793  1.5225 -1.1458
 7512SOL    HW234173   4.170   3.892   3.803 -0.1419 -0.6982 -1.6576
 7513SOL     OW34174   2.658   1.971   9.092  0.0899  0.2503  0.0879
 7513SOL    HW134175   2.735   1.985   9.148  0.3862 -2.1816  0.2551
 7513SOL    HW234176   2.676   1.883   9.061  1.2305  1.0766 -1.6072
 7514SOL     OW34177   3.371   0.540  14.110 -0.3742  0.2582  0.4359
 7514SOL    HW134178   3.420   0.609  14.154  1.7837  1.2659 -3.5936
 7514SOL    HW234179   3.282   0.558  14.139  0.5489  0.8379  2.9013
 7515SOL     OW34180   2.705   2.264   1.834  0.1167  0.5034 -0.2114
 7515SOL    HW134181   2.672   2.351   1.811  1.4379  1.3090  0.9257
 7515SOL    HW234182   2.654   2.207   1.777  1.2483 -0.5825 -0.1279
 7516SOL     OW34183   2.451   1.796   7.907  0.1749  0.0282  0.0139
 7516SOL    HW134184   2.512   1.838   7.967 -1.1457  2.1875 -0.1573
 7516SOL    HW234185   2.375   1.796   7.965  1.5080 -2.7960  1.7868
 7517SOL     OW34186   4.680   3.276   6.628  0.1151 -0.5432  0.0822
 7517SOL    HW134187   4.682   3.340   6.556  1.8589 -0.7876 -0.0816
 7517SOL    HW234188   4.681   3.345   6.695 -1.1374  3.3253 -3.8185
 7518SOL     OW34189   1.347   0.368   1.754  0.5876  0.0400 -0.5412
 7518SOL    HW134190   1.433   0.355   1.714  1.3947 -0.9213  1.5191
 7518SOL    HW234191   1.368   0.390   1.845  0.3434  0.6897 -0.6437
 7519SOL     OW34192   4.727   2.171  14.731 -0.0716 -0.2674  0.0551
 7519SOL    HW134193   4.699   2.235  14.797  0.3567  0.8895 -0.8963
 7519SOL    HW234194   0.083   2.188  14.736 -0.2179  0.5579 -0.0125
 7520SOL     OW34195   1.287   3.582   5.037 -0.1833  0.0744  0.2481
 7520SOL    HW134196   1.312   3.651   4.974 -2.1055 -0.2641 -0.8869
 7520SOL    HW234197   1.296   3.504   4.983 -0.8594  1.6477 -2.1689
 7521SOL     OW34198   2.281   2.130   6.787  0.0952 -0.6893  0.0876
 7521SOL    HW134199   2.199   2.131   6.738  1.2737 -0.8806 -1.9304
 7521SOL    HW234200   2.349   2.162   6.727 -1.7222 -1.4889 -2.3757
 7522SOL     OW34201   1.457   1.339   8.603  0.3073 -0.3063 -0.6669
 7522SOL    HW134202   1.423   1.300   8.523 -0.0474  0.0047 -0.6666
 7522SOL    HW234203   1.402   1.288   8.663 -0.2012  0.0925 -0.7990
 7523SOL     OW34204   3.515   4.627   1.461 -0.7329 -0.4022 -0.3458
 7523SOL    HW134205   3.439   4.576   1.491  0.1085  0.9676  3.9973
 7523SOL    HW234206   3.529   4.568   1.386  0.4160 -0.3281 -0.1768
 7524SOL     OW34207   1.479   0.779  14.144  0.1081 -0.0619 -0.2678
 7524SOL    HW134208   1.463   0.728  14.223 -0.3666  1.9582  0.9273
 7524SOL    HW234209   1.466   0.869  14.174  0.9350 -0.7228  2.0549
 7525SOL     OW34210   3.675   3.546   8.528  0.1433  0.3202 -0.0971
 7525SOL    HW134211   3.610   3.479   8.506  1.6880 -1.1746 -0.1862
 7525SOL    HW234212   3.757   3.496   8.539  0.0328 -0.4497 -2.7973
 7526SOL     OW34213   0.285   4.447   8.655 -0.0560 -0.1851 -0.0264
 7526SOL    HW134214   0.213   4.451   8.592 -0.6108 -3.6792  0.3679
 7526SOL    HW234215   0.350   4.492   8.602  0.6628 -1.7496 -0.4709
 7527SOL     OW34216   1.508   2.943   4.930 -0.5345  0.3085  0.9395
 7527SOL    HW134217   1.570   3.010   4.959  1.1096 -1.0729  0.5991
 7527SOL    HW234218   1.431   2.989   4.963 -0.3195  0.4850  1.2018
 7528SOL     OW34219   2.641   4.288  14.586  0.4339 -0.0474  0.6141
 7528SOL    HW134220   2.660   4.232  14.511  1.3926  1.7153 -0.4506
 7528SOL    HW234221   2.629   4.375  14.548  1.7623  0.0452  0.4146
 7529SOL     OW34222   3.555   4.050   4.148  0.3062 -0.3614  0.2767
 7529SOL    HW134223   3.635   4.055   4.095 -0.7185  3.7077 -0.8428
 7529SOL    HW234224   3.504   4.120   4.108  2.3142  1.2457  0.5441
 7530SOL     OW34225   0.685   3.098   7.279 -0.6654 -0.2962 -0.2681
 7530SOL    HW134226   0.591   3.113   7.285 -0.5707 -0.5458  1.5995
 7530SOL    HW234227   0.689   3.003   7.285 -0.3414 -0.1462  1.6119
 7531SOL     OW34228   3.633   0.391   5.525  0.0232 -0.3533  0.0985
 7531SOL    HW134229   3.556   0.348   5.563 -1.8187  1.8718 -1.1425
 7531SOL    HW234230   3.674   0.323   5.471 -1.4152 -1.4450  0.3859
 7532SOL     OW34231   2.221   2.960   4.159 -0.0548 -0.0711 -0.0961
 7532SOL    HW134232   2.289   2.893   4.152  0.2003 -0.0649  2.1700
 7532SOL    HW234233   2.209   2.985   4.067 -1.4689 -1.9482 -0.4064
 7533SOL     OW34234   3.538   2.529  11.047  0.0764  0.1470 -0.3770
 7533SOL    HW134235   3.508   2.485  10.968  0.8819  0.2788 -0.7453
 7533SOL    HW234236   3.596   2.466  11.091  0.8445  1.7938  0.9715
 7534SOL     OW34237   0.557   1.792   7.465 -0.3974 -0.4219  0.8610
 7534SOL    HW134238   0.518   1.877   7.486  0.5550 -0.0025  0.9385
 7534SOL    HW234239   0.646   1.820   7.441 -1.9245  1.5264 -2.5593
 7535SOL     OW34240   4.609   2.933   2.685  0.5413  0.3091 -0.0104
 7535SOL    HW134241   4.591   3.024   2.661  0.7714  0.3596  0.0161
 7535SOL    HW234242   4.703   2.935   2.703  0.7020 -2.3855 -0.4691
 7536SOL     OW34243   1.681   3.722   0.273  0.6177 -0.0313 -0.2878
 7536SOL    HW134244   1.665   3.631   0.249 -0.6063  0.3166 -0.7946
 7536SOL    HW234245   1.657   3.715   0.365  0.2002 -1.3241 -0.5029
 7537SOL     OW34246   0.073   1.262   7.584 -0.7848 -0.1023 -0.1215
 7537SOL    HW134247   0.058   1.254   7.490 -2.2564  0.1754  0.0861
 7537SOL    HW234248   0.152   1.314   7.598 -0.4227 -0.3260 -1.3108
 7538SOL     OW34249   0.692   3.780   7.881 -0.2315 -0.2583  0.0227
 7538SOL    HW134250   0.605   3.820   7.892 -1.0625 -2.1420  0.3501
 7538SOL    HW234251   0.705   3.755   7.790  1.4267 -1.0430  0.4691
 7539SOL     OW34252   0.794   3.584   6.374  0.0909  0.1060 -0.5807
 7539SOL    HW134253   0.746   3.512   6.333  0.1865 -0.3856  0.1743
 7539SOL    HW234254   0.740   3.652   6.333 -1.7808 -0.3735  1.0943
 7540SOL     OW34255   1.949   0.971   6.412 -0.4346  0.0965 -0.7569
 7540SOL    HW134256   1.968   1.009   6.497  0.9837 -1.5184 -0.3322
 7540SOL    HW234257   1.994   1.028   6.350 -0.5816  1.6638  0.5930
 7541SOL     OW34258   0.152   2.910   6.977  0.0231 -0.0224 -0.4355
 7541SOL    HW134259   0.157   2.852   7.053 -1.2503 -2.0297 -1.8816
 7541SOL    HW234260   0.080   2.967   7.001  0.0840 -0.3893  0.6300
 7542SOL     OW34261   0.883   1.114   3.241 -0.0817 -0.4423 -0.6156
 7542SOL    HW134262   0.865   1.071   3.324 -0.6092 -1.3481 -1.2056
 7542SOL    HW234263   0.927   1.195   3.269 -1.3897  0.2151 -0.4757
 7543SOL     OW34264   3.024   1.130   4.114  0.3674  0.0377  0.5537
 7543SOL    HW134265   3.038   1.094   4.026  0.0839  0.8342  0.1838
 7543SOL    HW234266   2.985   1.058   4.163 -0.6706  0.3087  0.1234
 7544SOL     OW34267   2.054   2.236  13.755 -0.1555 -0.2776 -0.5238
 7544SOL    HW134268   2.076   2.152  13.796  1.1669  0.7549  0.8329
 7544SOL    HW234269   1.980   2.215  13.698 -1.1175  2.4657 -0.2836
 7545SOL     OW34270   3.160   2.660   2.469  0.2290  0.4976 -0.9170
 7545SOL    HW134271   3.065   2.661   2.461  0.1564 -1.0308 -0.3487
 7545SOL    HW234272   3.187   2.606   2.394 -1.0410 -2.0926  0.4598
 7546SOL     OW34273   4.444   1.041   6.934  0.4574 -0.6025  0.0509
 7546SOL    HW134274   4.394   1.073   6.859 -1.6061 -0.6469  1.4380
 7546SOL    HW234275   4.381   1.020   7.002  0.1811  2.0913  0.6026
 7547SOL     OW34276   2.646   0.830   6.041 -0.5418  0.4129 -0.6169
 7547SOL    HW134277   2.578   0.814   6.107  0.7999 -0.6329  0.5022
 7547SOL    HW234278   2.697   0.750   6.050 -1.0510  0.1837  0.2633
 7548SOL     OW34279   3.445   4.324   6.410 -0.2611  0.3847 -0.1381
 7548SOL    HW134280   3.495   4.361   6.483  0.3966  1.4842 -1.1354
 7548SOL    HW234281   3.424   4.234   6.435  1.6080  0.2260  0.8533
 7549SOL     OW34282   3.576   0.219   5.773 -0.5083 -0.4153  0.0907
 7549SOL    HW134283   3.554   0.154   5.841 -0.2978  0.0765  0.6309
 7549SOL    HW234284   3.513   0.198   5.705 -1.1327 -2.9242  1.4424
 7550SOL     OW34285   2.410   3.092   0.881  0.3144  0.9910 -0.0567
 7550SOL    HW134286   2.331   3.105   0.829 -0.9259 -1.5224  1.1516
 7550SOL    HW234287   2.479   3.093   0.815  1.6395  1.2541  1.3234
 7551SOL     OW34288   0.281   1.533   1.553  0.2573  0.2954  0.3231
 7551SOL    HW134289   0.360   1.571   1.514 -0.9008  1.9907 -0.4250
 7551SOL    HW234290   0.312   1.532   1.643 -0.3962  2.0838  0.5775
 7552SOL     OW34291   2.445   3.555   7.918 -0.0460  0.1881  0.1152
 7552SOL    HW134292   2.371   3.511   7.959  0.9511 -0.7592  0.9099
 7552SOL    HW234293   2.402   3.625   7.869 -1.7595 -0.7951  0.2128
 7553SOL     OW34294   4.396   3.858   5.983 -0.2395 -0.1380 -0.2056
 7553SOL    HW134295   4.327   3.801   5.949 -0.8521  0.3903  0.1528
 7553SOL    HW234296   4.467   3.794   5.993  0.1971  0.0641 -2.0025
 7554SOL     OW34297   1.645   2.822   9.275  0.7718 -0.6488 -0.2633
 7554SOL    HW134298   1.686   2.872   9.345  0.7898 -2.3685  0.9465
 7554SOL    HW234299   1.658   2.875   9.196  0.3740  1.2751  0.9681
 7555SOL     OW34300   2.269   1.832   4.602  0.1792  0.0864  0.2040
 7555SOL    HW134301   2.258   1.840   4.697 -1.6295 -0.4475  0.0415
 7555SOL    HW234302   2.353   1.787   4.602 -1.2974 -2.6999  0.2082
 7556SOL     OW34303   4.686   3.861  14.906 -0.3135  0.2736 -1.0263
 7556SOL    HW134304   4.695   3.766  14.903  0.5033  0.3105  0.3447
 7556SOL    HW234305   4.647   3.875  14.992 -2.4664 -1.2922 -1.7708
 7557SOL     OW34306   1.714   1.907  15.796  0.4357  0.4597  0.2493
 7557SOL    HW134307   1.798   1.922  15.840 -0.1067  0.2521  1.3557
 7557SOL    HW234308   1.653   1.956  15.851 -2.7036 -2.1822 -0.8989
 7558SOL     OW34309   4.360   2.453  12.716 -0.0142  0.0462 -0.0915
 7558SOL    HW134310   4.316   2.463  12.801  0.4138  0.3918  0.0919
 7558SOL    HW234311   4.451   2.429  12.732  0.6726  1.3369 -2.0588
 7559SOL     OW34312   3.228   4.649  17.157 -0.4081  0.1807  0.0092
 7559SOL    HW134313   3.202   4.564  17.191 -0.8574  0.0631 -0.6274
 7559SOL    HW234314   3.147   4.666  17.108 -0.4696  0.6398  0.2770
 7560SOL     OW34315   3.302   4.548  10.722  0.1579  0.0155 -0.1246
 7560SOL    HW134316   3.244   4.601  10.667 -1.2474 -0.3862  0.9749
 7560SOL    HW234317   3.267   4.462  10.698  2.4788 -0.9564 -0.0662
 7561SOL     OW34318   2.098   1.914   3.103  0.2341  0.1752 -0.4989
 7561SOL    HW134319   2.004   1.910   3.122  0.3098  0.6520 -0.0296
 7561SOL    HW234320   2.103   1.964   3.022  2.9528  1.4726  0.4663
 7562SOL     OW34321   1.238   2.117   3.198  0.9500 -0.2710  0.1948
 7562SOL    HW134322   1.163   2.057   3.189  0.5396  0.1977  0.4704
 7562SOL    HW234323   1.235   2.178   3.125 -0.2975  0.0603  0.5170
 7563SOL     OW34324   0.177   3.529  13.524 -0.4733  0.6475  0.5824
 7563SOL    HW134325   0.201   3.616  13.492  0.9550  0.0003 -0.0887
 7563SOL    HW234326   0.264   3.489  13.531 -1.5461 -1.6818  0.6716
 7564SOL     OW34327   0.710   0.093   2.410  0.1811 -0.2981 -0.2230
 7564SOL    HW134328   0.724   0.133   2.325  3.6918 -1.5764 -0.2520
 7564SOL    HW234329   0.625   0.136   2.425  0.1061 -0.7196  0.6159
 7565SOL     OW34330   0.982   0.919  13.675 -0.6494  0.0150 -0.3321
 7565SOL    HW134331   0.925   0.993  13.696 -0.7949  0.2054 -1.3817
 7565SOL    HW234332   0.982   0.865  13.754  1.8596  2.0917  1.0720
 7566SOL     OW34333   4.085   1.876  16.591  0.0980 -0.3115  0.4295
 7566SOL    HW134334   4.179   1.889  16.576  0.2466 -1.1891  0.5743
 7566SOL    HW234335   4.087   1.786  16.558 -3.1260  0.8348 -2.8627
 7567SOL     OW34336   2.478   2.987   2.342 -0.0197  0.4898 -0.2466
 7567SOL    HW134337   2.520   3.067   2.374 -1.2206 -0.0423  2.6145
 7567SOL    HW234338   2.419   2.971   2.415  0.8360 -1.6749 -0.0298
 7568SOL     OW34339   4.636   4.030  14.688  0.6176  0.3729  0.0524
 7568SOL    HW134340   4.654   3.991  14.773 -1.7119 -0.5309  0.1469
 7568SOL    HW234341   4.600   4.113  14.719 -1.7310 -0.8913  0.7023
 7569SOL     OW34342   4.037   1.802   7.876 -0.3490 -0.1881  0.2835
 7569SOL    HW134343   4.120   1.817   7.830  0.4930 -0.5034  1.7054
 7569SOL    HW234344   4.039   1.710   7.900 -0.4398 -0.0130  0.9699
 7570SOL     OW34345   1.112   4.230   9.353  0.1181 -0.3904  0.5087
 7570SOL    HW134346   1.104   4.325   9.360 -0.5686 -0.3362 -0.8805
 7570SOL    HW234347   1.053   4.217   9.278  0.0034  2.1515  0.1573
 7571SOL     OW34348   3.002   1.539  11.700  0.3326  0.5652  0.1038
 7571SOL    HW134349   3.013   1.609  11.764 -0.0793  2.1138 -1.5017
 7571SOL    HW234350   3.049   1.593  11.635  0.6349  0.0656 -0.0974
 7572SOL     OW34351   0.810   4.264  13.624 -0.1633  0.3076  0.5836
 7572SOL    HW134352   0.872   4.199  13.657  0.1256  0.1465 -0.2724
 7572SOL    HW234353   0.815   4.337  13.686 -1.6022  1.1060 -0.2428
 7573SOL     OW34354   1.804   1.111   9.090  0.7084 -0.2665  0.1494
 7573SOL    HW134355   1.716   1.134   9.120  0.6431  0.2021 -0.4056
 7573SOL    HW234356   1.833   1.081   9.176  0.2162 -2.4592 -0.4369
 7574SOL     OW34357   3.700   0.716   4.412  0.1037  0.1553 -0.3493
 7574SOL    HW134358   3.720   0.682   4.325  1.8772 -1.7954  0.8272
 7574SOL    HW234359   3.629   0.778   4.395  0.6368  1.3982  1.9579
 7575SOL     OW34360   0.390   4.433   2.900  0.5763 -0.1926  0.2548
 7575SOL    HW134361   0.462   4.426   2.838  0.3405 -0.5303  0.0236
 7575SOL    HW234362   0.425   4.503   2.956 -3.5140  1.8299  0.3288
 7576SOL     OW34363   4.624   2.774   4.807 -0.1486 -0.3804 -0.0940
 7576SOL    HW134364   4.607   2.793   4.715  0.6033 -0.5410 -0.2711
 7576SOL    HW234365   4.666   2.688   4.807 -0.5324 -0.5614 -1.8816
 7577SOL     OW34366   1.402   3.311   8.268  0.2690  0.3295 -0.3755
 7577SOL    HW134367   1.443   3.386   8.225 -2.1931  2.2040  0.5593
 7577SOL    HW234368   1.482   3.276   8.308  0.6982  0.1184 -1.4183
 7578SOL     OW34369   1.944   3.823  13.186  0.6080 -0.0037 -0.2463
 7578SOL    HW134370   2.036   3.830  13.213 -0.1758  2.3696  1.8155
 7578SOL    HW234371   1.947   3.880  13.109 -2.3568 -0.3219 -0.5770
 7579SOL     OW34372   1.128   1.501   4.894  0.0839 -0.8558  0.3694
 7579SOL    HW134373   1.094   1.573   4.840 -1.7760 -1.3004  0.9547
 7579SOL    HW234374   1.055   1.440   4.884  0.9133 -1.8911  0.6911
 7580SOL     OW34375   1.023   3.524  17.692  0.6272 -0.5675 -0.6163
 7580SOL    HW134376   0.969   3.593  17.654  0.7417 -0.3721 -0.4185
 7580SOL    HW234377   0.971   3.516   0.022 -0.7640  2.9883 -1.1615
 7581SOL     OW34378   4.492   0.498  15.127  0.0965  0.0727  0.1756
 7581SOL    HW134379   4.421   0.439  15.102  0.8149 -0.4575 -0.6419
 7581SOL    HW234380   4.522   0.457  15.208  0.5321 -0.5567 -0.3067
 7582SOL     OW34381   2.713   1.650   8.835  0.4324  0.2915  0.4242
 7582SOL    HW134382   2.713   1.734   8.791  0.2921 -0.0649 -0.2583
 7582SOL    HW234383   2.750   1.599   8.763  1.7146  0.7817  0.7452
 7583SOL     OW34384   4.640   1.026  16.839 -0.2772 -0.2129 -0.4986
 7583SOL    HW134385   4.664   1.015  16.931  0.7066 -0.7986 -0.8138
 7583SOL    HW234386   4.587   0.946  16.836 -0.9323  0.1710  0.9821
 7584SOL     OW34387   4.278   0.604   6.088  0.3843 -0.1358 -0.8203
 7584SOL    HW134388   4.261   0.521   6.044 -1.1971 -0.9902  1.4158
 7584SOL    HW234389   4.343   0.576   6.152  1.6033  0.7570 -1.6557
 7585SOL     OW34390   2.246   0.551  10.858  0.0624  0.2974 -0.2390
 7585SOL    HW134391   2.313   0.535  10.791 -1.3736 -1.4313 -1.2543
 7585SOL    HW234392   2.175   0.597  10.814 -1.9418 -2.2880  0.2791
 7586SOL     OW34393   4.449   2.060  10.746  0.1832 -0.5129 -0.1712
 7586SOL    HW134394   4.430   2.153  10.734 -0.4312 -0.7913 -1.3256
 7586SOL    HW234395   4.364   2.018  10.732 -0.0366 -0.0785 -0.1401
 7587SOL     OW34396   3.301   1.731   6.706 -0.1957  0.1994  0.9493
 7587SOL    HW134397   3.284   1.822   6.730 -1.3704 -0.2721  1.9243
 7587SOL    HW234398   3.394   1.717   6.725  0.1546 -0.2589 -1.1391
 7588SOL     OW34399   1.876   1.903  16.282  0.0977  0.3773 -0.0343
 7588SOL    HW134400   1.916   1.817  16.296  2.9173  1.6026 -0.3796
 7588SOL    HW234401   1.854   1.928  16.372 -0.8111 -0.3369 -0.0696
 7589SOL     OW34402   0.693   0.647  13.965 -0.3896  0.1118  0.5173
 7589SOL    HW134403   0.681   0.554  13.946 -0.7979  0.7798 -2.4939
 7589SOL    HW234404   0.699   0.655  14.061 -3.3611  0.2662  0.7159
 7590SOL     OW34405   2.907   0.627   2.579  0.2664 -0.0072 -0.2568
 7590SOL    HW134406   2.893   0.665   2.492 -0.8176  0.2623  0.0348
 7590SOL    HW234407   2.990   0.585   2.555  1.1733  2.7813 -1.9385
 7591SOL     OW34408   1.356   0.145  13.818  0.5694  0.0292  0.0510
 7591SOL    HW134409   1.428   0.097  13.777  2.3142  1.5829  1.2762
 7591SOL    HW234410   1.291   0.139  13.749 -0.2201  0.0312  0.7939
 7592SOL     OW34411   0.509   3.931   8.135 -0.0142  0.0276 -0.0148
 7592SOL    HW134412   0.421   3.959   8.110  0.3409 -1.6766 -3.2022
 7592SOL    HW234413   0.503   3.838   8.113 -1.1960  0.0827  0.0845
 7593SOL     OW34414   1.797   4.369  13.887  0.0909  0.3254  0.4274
 7593SOL    HW134415   1.738   4.342  13.817  0.0824 -1.2763  1.0519
 7593SOL    HW234416   1.842   4.288  13.907  1.0608  1.1295  1.5038
 7594SOL     OW34417   1.575   4.019   0.734  0.3926 -0.1091  0.0905
 7594SOL    HW134418   1.485   3.999   0.708  0.8757 -1.4531 -0.5416
 7594SOL    HW234419   1.560   4.039   0.827  0.7973 -3.5311  0.8699
 7595SOL     OW34420   4.404   1.234   2.978 -0.2485 -0.2564 -0.2774
 7595SOL    HW134421   4.441   1.171   2.916  0.4941 -0.9009  0.8184
 7595SOL    HW234422   4.464   1.308   2.983 -2.1215  1.1380  1.3794
 7596SOL     OW34423   0.399   4.547   7.241  0.2910  0.0301  0.1527
 7596SOL    HW134424   0.369   4.461   7.211  0.6744  0.5530 -1.7781
 7596SOL    HW234425   0.409   4.579   7.151 -0.3624 -1.1448 -0.3453
 7597SOL     OW34426   2.629   3.823   1.397 -0.2882 -0.5731 -0.4308
 7597SOL    HW134427   2.652   3.866   1.315 -0.1244 -3.4233 -1.8983
 7597SOL    HW234428   2.709   3.833   1.449  1.0613  1.5980 -2.9723
 7598SOL     OW34429   1.784   2.653  14.135  0.2049 -0.6618 -0.2743
 7598SOL    HW134430   1.848   2.672  14.203 -1.3459  4.3275 -0.2001
 7598SOL    HW234431   1.756   2.743  14.118  0.2771 -0.4377  0.7800
 7599SOL     OW34432   2.657   4.049   5.430 -0.3662  0.4133 -0.5362
 7599SOL    HW134433   2.659   4.118   5.497  0.6119 -0.4462  0.3332
 7599SOL    HW234434   2.591   4.080   5.369 -1.6441 -1.2708 -0.0181
 7600SOL     OW34435   2.396   2.790   5.200  0.0840 -0.1996 -0.2785
 7600SOL    HW134436   2.406   2.884   5.219  1.7687 -0.5549  0.5235
 7600SOL    HW234437   2.304   2.777   5.226 -0.1243 -0.4035 -1.1440
 7601SOL     OW34438   2.998   3.135   0.331  0.4636  0.2832 -0.1208
 7601SOL    HW134439   2.964   3.092   0.252 -1.1060 -2.1166  1.8498
 7601SOL    HW234440   3.093   3.128   0.323  0.3115 -1.0050 -0.8381
 7602SOL     OW34441   1.837   1.923   3.093 -0.4932 -0.5171  0.1246
 7602SOL    HW134442   1.761   1.916   3.035  0.3693 -1.8354 -0.8579
 7602SOL    HW234443   1.845   2.019   3.088 -1.1279 -0.4667  0.1705
 7603SOL     OW34444   2.071   3.919   4.475  0.3012  0.1015 -0.3688
 7603SOL    HW134445   2.122   3.847   4.438 -0.0730 -0.5962  0.4692
 7603SOL    HW234446   2.005   3.941   4.409  0.5698  0.6272 -0.4593
 7604SOL     OW34447   4.515   3.619   4.778 -0.0419 -0.3603  0.4012
 7604SOL    HW134448   4.421   3.633   4.793 -0.3905  0.1362 -2.2110
 7604SOL    HW234449   4.541   3.545   4.833  0.6661  0.1963  0.8077
 7605SOL     OW34450   4.727   2.772  17.175  0.2637  0.2588  0.5753
 7605SOL    HW134451   0.030   2.724  17.104  1.5892  0.8485  0.9390
 7605SOL    HW234452   4.714   2.705  17.242 -0.4179  1.2878  1.4926
 7606SOL     OW34453   0.674   2.608  12.810 -0.0478  0.4662 -0.6945
 7606SOL    HW134454   0.612   2.592  12.739 -0.4472  0.1467 -0.2738
 7606SOL    HW234455   0.651   2.533  12.866  0.2526  0.3143 -0.7741
 7607SOL     OW34456   4.674   1.841   5.192 -0.2763 -0.3658  0.6141
 7607SOL    HW134457   4.683   1.766   5.251 -0.6037 -0.7534  0.1696
 7607SOL    HW234458   0.015   1.840   5.138 -0.5528 -1.2673  0.2274
 7608SOL     OW34459   1.568   3.268   7.987 -0.2980 -0.0732 -0.1018
 7608SOL    HW134460   1.645   3.273   8.045  0.1473 -0.4938 -0.6515
 7608SOL    HW234461   1.572   3.177   7.959 -1.2170 -0.0387 -0.3502
 7609SOL     OW34462   2.727   0.631   3.870  0.0683 -0.1293 -0.9243
 7609SOL    HW134463   2.807   0.580   3.861 -0.0861 -0.5336 -0.0438
 7609SOL    HW234464   2.758   0.720   3.860 -0.7573  0.1992 -0.5778
 7610SOL     OW34465   3.097   3.317   2.801  0.4618  0.0074 -0.1636
 7610SOL    HW134466   3.086   3.300   2.707  0.2544 -0.6753 -0.0205
 7610SOL    HW234467   3.065   3.239   2.847  1.2058  1.0726  2.1553
 7611SOL     OW34468   0.560   0.957   5.941 -0.4873 -0.0961  0.0849
 7611SOL    HW134469   0.549   0.942   6.035 -0.2135  2.5472  0.5474
 7611SOL    HW234470   0.653   0.977   5.947 -0.4007 -0.2842 -0.6424
 7612SOL     OW34471   2.560   3.159   4.150  0.5470  0.2220  0.1507
 7612SOL    HW134472   2.595   3.114   4.226  1.7066  0.1036 -0.4633
 7612SOL    HW234473   2.635   3.183   4.097 -0.0375 -1.7576 -1.5942
 7613SOL     OW34474   2.238   3.793   6.661 -0.1913  0.5827  0.0066
 7613SOL    HW134475   2.156   3.748   6.640  0.3766 -0.7088  0.5850
 7613SOL    HW234476   2.250   3.759   6.749  0.1324  1.9740  0.5124
 7614SOL     OW34477   0.016   2.996   2.103  0.8578  0.8119 -0.3986
 7614SOL    HW134478   4.661   2.984   2.082  1.1352 -2.8361  0.5778
 7614SOL    HW234479   0.049   2.914   2.068 -1.0725  0.1959 -0.7941
 7615SOL     OW34480   0.835   0.125  14.025 -0.0442  0.5721  0.2587
 7615SOL    HW134481   0.817   0.042  14.069  0.2757 -1.2082 -2.9455
 7615SOL    HW234482   0.919   0.151  14.062 -0.9536 -0.4458  3.0259
 7616SOL     OW34483   2.445   3.985   6.501 -0.1512 -0.0816  0.2797
 7616SOL    HW134484   2.364   3.960   6.546  0.6683  0.4029  2.0625
 7616SOL    HW234485   2.503   3.945   6.566  0.2160 -0.8527 -0.5236
 7617SOL     OW34486   2.293   3.241   4.319  0.1821 -0.0286 -0.3798
 7617SOL    HW134487   2.325   3.217   4.405  0.6451 -1.4854 -0.9616
 7617SOL    HW234488   2.226   3.179   4.290  1.5020 -3.0855  3.1627
 7618SOL     OW34489   3.959   2.175   8.800 -0.3292 -0.0676  0.3110
 7618SOL    HW134490   3.928   2.265   8.813 -0.9182 -0.1705 -0.3695
 7618SOL    HW234491   3.878   2.125   8.795 -0.1143 -0.2829 -0.8741
 7619SOL     OW34492   2.392   3.368   8.518 -0.1746  0.1463  0.7010
 7619SOL    HW134493   2.388   3.416   8.435 -0.3008  2.1061  1.8404
 7619SOL    HW234494   2.482   3.392   8.542  0.4590  0.3872 -1.8515
 7620SOL     OW34495   2.219   0.711   2.001 -0.3606 -0.0571 -0.1193
 7620SOL    HW134496   2.244   0.763   1.924  1.9475 -0.7426  0.1431
 7620SOL    HW234497   2.306   0.672   2.016 -0.5589 -1.0261 -1.4642
 7621SOL     OW34498   3.962   3.802  11.848  0.6331 -0.2840  0.0436
 7621SOL    HW134499   3.882   3.847  11.824  0.2565 -0.9414  0.0520
 7621SOL    HW234500   3.976   3.832  11.938  0.9473  0.3492 -0.2177
 7622SOL     OW34501   0.244   0.584   2.904  0.1831 -0.2559 -0.4101
 7622SOL    HW134502   0.220   0.676   2.911  0.9643 -0.0934  0.1626
 7622SOL    HW234503   0.198   0.534   2.972 -0.8553 -0.4052 -1.2241
 7623SOL     OW34504   4.391   0.189   5.631  0.6055  0.1743 -0.2246
 7623SOL    HW134505   4.301   0.206   5.660  0.1903 -0.4862 -1.1551
 7623SOL    HW234506   4.441   0.239   5.696  0.7926 -1.5270  0.9361
 7624SOL     OW34507   2.837   1.787   5.813 -0.0563 -0.1067 -0.2220
 7624SOL    HW134508   2.819   1.730   5.738  3.4149 -0.9726 -0.3641
 7624SOL    HW234509   2.755   1.836   5.802  0.7059  1.0182 -0.8639
 7625SOL     OW34510   2.169   2.346  10.853 -0.0764 -0.1616  0.1269
 7625SOL    HW134511   2.166   2.253  10.833  2.1260 -0.2618  0.2569
 7625SOL    HW234512   2.257   2.374  10.828  0.0626 -1.5993 -0.9482
 7626SOL     OW34513   2.890   0.326   8.647  0.2761 -0.0757  0.2232
 7626SOL    HW134514   2.887   0.240   8.688 -0.3423  0.9129  2.2593
 7626SOL    HW234515   2.816   0.307   8.590  0.0846  0.2039  0.3776
 7627SOL     OW34516   4.638   4.715   9.859 -0.0322  0.2160  0.5967
 7627SOL    HW134517   4.577   4.731   9.931  0.6686 -0.6722  1.3734
 7627SOL    HW234518   4.661   0.067   9.836 -0.8705  0.0620 -0.8679
 7628SOL     OW34519   4.558   2.754  10.047  0.4313 -0.4980 -0.4624
 7628SOL    HW134520   4.577   2.844  10.073  1.0088 -0.3507 -1.4055
 7628SOL    HW234521   4.553   2.753   9.951 -1.3941  1.4969 -0.3956
 7629SOL     OW34522   3.072   1.080  11.813 -0.2103 -0.0827 -0.1610
 7629SOL    HW134523   3.160   1.043  11.816 -0.2875 -0.4316 -2.1117
 7629SOL    HW234524   3.048   1.024  11.739 -0.3648 -0.1509 -0.0594
 7630SOL     OW34525   4.400   1.385   5.538  0.2692  0.3490  0.2174
 7630SOL    HW134526   4.345   1.391   5.460 -1.7851  1.4178  1.7584
 7630SOL    HW234527   4.480   1.341   5.509  0.0420 -1.1862  1.9337
 7631SOL     OW34528   4.620   1.620  15.922  0.5512  0.0523 -0.2088
 7631SOL    HW134529   4.580   1.604  16.008 -1.0472  0.3692 -0.8914
 7631SOL    HW234530   4.593   1.540  15.878 -1.4422  2.0025 -2.5405
 7632SOL     OW34531   1.584   4.319   3.891  0.2087  0.0802 -0.3488
 7632SOL    HW134532   1.574   4.236   3.844 -2.3919  0.9703 -1.3630
 7632SOL    HW234533   1.510   4.321   3.952  0.0881  1.4372 -0.5382
 7633SOL     OW34534   0.394   2.614  15.131  0.9507 -0.2008 -0.0334
 7633SOL    HW134535   0.473   2.594  15.181 -1.1321 -1.6398  2.7208
 7633SOL    HW234536   0.333   2.656  15.192  1.1482  0.7033 -0.4641
 7634SOL     OW34537   2.399   2.592  13.179  0.4002  0.5660  0.3886
 7634SOL    HW134538   2.318   2.555  13.143  0.8679  0.4771 -0.5482
 7634SOL    HW234539   2.385   2.590  13.274  1.1703  1.0940  0.5071
 7635SOL     OW34540   3.291   1.690   2.047  0.1775 -0.4806 -0.4935
 7635SOL    HW134541   3.241   1.769   2.022 -0.6506 -1.1234 -0.8682
 7635SOL    HW234542   3.312   1.707   2.138  2.2944  1.6675 -1.3744
 7636SOL     OW34543   1.668   1.697   2.062 -0.2164 -0.3581 -0.1273
 7636SOL    HW134544   1.597   1.744   2.108 -0.8675 -1.3582 -0.1116
 7636SOL    HW234545   1.739   1.692   2.125 -1.0988 -2.7846  0.6601
 7637SOL     OW34546   1.916   1.957   6.563 -0.3816 -0.0482  0.1453
 7637SOL    HW134547   1.926   1.952   6.468  1.8109  1.3272  0.3062
 7637SOL    HW234548   1.995   2.009   6.581 -0.6529  0.5636 -0.4265
 7638SOL     OW34549   1.904   4.680  15.033 -0.4781  0.1829 -0.1302
 7638SOL    HW134550   1.995   4.680  15.005 -0.5240  0.2677 -0.2804
 7638SOL    HW234551   1.867   4.601  14.994  1.9766 -0.1827 -1.6594
 7639SOL     OW34552   3.143   2.586   7.405 -0.6447 -0.5201  0.2304
 7639SOL    HW134553   3.218   2.528   7.409 -1.1023 -1.0830  0.7706
 7639SOL    HW234554   3.086   2.542   7.343 -1.2956  0.0684  0.4055
 7640SOL     OW34555   1.259   2.179   4.426  0.3010  0.2689  0.4281
 7640SOL    HW134556   1.247   2.273   4.438  0.7788  0.0725  2.5776
 7640SOL    HW234557   1.326   2.181   4.359 -0.2841 -2.0620 -0.1988
 7641SOL     OW34558   1.980   2.921   8.487  0.5013 -0.0934 -0.3559
 7641SOL    HW134559   1.974   2.838   8.440 -3.4460 -0.0551  0.0231
 7641SOL    HW234560   1.927   2.893   8.562  0.2900  0.8822 -0.1394
 7642SOL     OW34561   3.031   4.584  17.409  0.1823 -0.8116  0.1475
 7642SOL    HW134562   2.988   4.655  17.361 -2.4601 -0.9179  2.3861
 7642SOL    HW234563   3.003   4.586  17.500 -2.4250  2.1156 -0.7135
 7643SOL     OW34564   0.100   3.186   8.748  0.3360  0.4437 -0.0547
 7643SOL    HW134565   0.150   3.228   8.819  0.4485  1.2955 -0.6383
 7643SOL    HW234566   0.156   3.113   8.725  0.0575  0.2106  0.0080
 7644SOL     OW34567   3.455   2.485   8.903  0.9347  0.1591 -0.0345
 7644SOL    HW134568   3.543   2.501   8.867  1.2865 -1.1384  0.2250
 7644SOL    HW234569   3.429   2.574   8.927  1.3414  0.5287 -0.9257
 7645SOL     OW34570   1.406   1.644   1.801  0.4872 -0.0748  0.5098
 7645SOL    HW134571   1.380   1.555   1.776 -0.7226  0.7562 -1.0841
 7645SOL    HW234572   1.339   1.657   1.868 -0.7853 -1.4021 -0.4956
 7646SOL     OW34573   1.934   2.493   2.891  0.2822 -0.3381 -0.3832
 7646SOL    HW134574   1.846   2.493   2.927  1.0062 -1.0598  1.3702
 7646SOL    HW234575   1.989   2.471   2.966  0.1219 -0.4347 -0.2938
 7647SOL     OW34576   0.993   1.657   4.719  0.4026 -0.1433 -0.4724
 7647SOL    HW134577   0.950   1.672   4.636 -1.8978  0.8110  0.8981
 7647SOL    HW234578   0.963   1.730   4.772 -1.5674 -0.8022 -0.6938
 7648SOL     OW34579   4.507   1.275   9.168  0.3045  0.0454 -0.1515
 7648SOL    HW134580   4.556   1.193   9.179  0.3914 -0.1280 -1.9001
 7648SOL    HW234581   4.420   1.250   9.200  0.1482  2.9713  1.7001
 7649SOL     OW34582   3.569   0.175   4.076 -0.4959  0.4590  0.6909
 7649SOL    HW134583   3.575   0.126   3.994 -2.5724  0.3804  0.5717
 7649SOL    HW234584   3.481   0.147   4.102 -1.6372  3.4151  0.0351
 7650SOL     OW34585   1.530   1.036   7.218  0.8197 -0.4487 -0.1603
 7650SOL    HW134586   1.568   1.002   7.299 -2.0971 -0.3066  1.2570
 7650SOL    HW234587   1.544   1.130   7.231 -0.3419 -0.2799 -0.0764
 7651SOL     OW34588   2.240   1.076   9.365 -0.5057 -0.4968 -0.2899
 7651SOL    HW134589   2.239   1.069   9.461  0.3128 -0.2482 -0.2593
 7651SOL    HW234590   2.329   1.056   9.334 -0.1731 -0.1753  0.4616
 7652SOL     OW34591   3.125   2.459   5.917 -0.4682 -0.3255 -0.1277
 7652SOL    HW134592   3.203   2.405   5.925  0.1874  0.5756 -0.3861
 7652SOL    HW234593   3.159   2.547   5.898 -3.1276  0.7239 -0.0660
 7653SOL     OW34594   2.167   2.197   8.996 -0.0856 -0.4472  0.4998
 7653SOL    HW134595   2.226   2.124   8.978  0.7746 -0.0633  1.7199
 7653SOL    HW234596   2.208   2.270   8.948 -0.6280 -1.2714 -1.1942
 7654SOL     OW34597   0.432   1.827   8.144  0.0066  0.0558  0.4798
 7654SOL    HW134598   0.425   1.800   8.236  0.3130  1.3075  0.8657
 7654SOL    HW234599   0.429   1.737   8.110  2.5648  0.0575  0.2505
 7655SOL     OW34600   0.973   0.070   5.764  0.2840  0.2881  0.6111
 7655SOL    HW134601   1.017   0.033   5.688  0.4502 -0.9473  1.3048
 7655SOL    HW234602   0.994   0.161   5.744 -0.0512  0.6653  1.9497
 7656SOL     OW34603   3.397   2.196   1.205  0.3701  0.7435 -0.1006
 7656SOL    HW134604   3.450   2.205   1.125 -0.0332 -2.2217 -0.6916
 7656SOL    HW234605   3.391   2.286   1.236  2.2028  0.3716  1.3273
 7657SOL     OW34606   4.346   4.258   3.276 -0.3057  0.0496 -0.1689
 7657SOL    HW134607   4.315   4.171   3.250  0.1008  0.2397 -1.2907
 7657SOL    HW234608   4.303   4.281   3.358 -0.6017 -0.3174 -0.2223
 7658SOL     OW34609   3.446   1.980   0.756  0.5106  0.0647 -0.1600
 7658SOL    HW134610   3.360   2.012   0.782  0.3366 -0.8175  0.3581
 7658SOL    HW234611   3.414   1.931   0.680 -2.7634 -1.4326  2.2065
 7659SOL     OW34612   0.020   0.288   6.889 -0.2816  0.5092  0.3260
 7659SOL    HW134613   4.698   0.256   6.822  1.3525 -0.5459 -0.6047
 7659SOL    HW234614   4.726   0.234   6.961 -1.9970  0.6036 -0.3520
 7660SOL     OW34615   2.472   3.127   3.602  0.5227  0.2155 -0.1569
 7660SOL    HW134616   2.554   3.164   3.634  0.0681  0.1064  1.1516
 7660SOL    HW234617   2.475   3.168   3.515  0.5072  1.8480  0.6056
 7661SOL     OW34618   2.017   4.179   0.784 -0.2295 -0.3622  0.0299
 7661SOL    HW134619   2.089   4.213   0.838 -0.8014 -2.1939  1.9823
 7661SOL    HW234620   2.031   4.225   0.702  0.0286 -0.3951  0.0532
 7662SOL     OW34621   1.380   1.241   3.293 -0.0715  0.0998 -0.9522
 7662SOL    HW134622   1.383   1.310   3.359  0.4517  1.0089 -1.9163
 7662SOL    HW234623   1.474   1.232   3.278 -0.3227 -0.6948 -2.0501
 7663SOL     OW34624   4.647   0.670   7.118  0.0564 -0.0786  0.3117
 7663SOL    HW134625   4.716   0.648   7.180 -1.1725 -0.4262  1.5594
 7663SOL    HW234626   4.575   0.691   7.178  0.8889  2.3104  0.5053
 7664SOL     OW34627   3.415   2.469   6.159  0.4026  0.1299 -0.3669
 7664SOL    HW134628   3.378   2.506   6.239  1.3662  0.7456 -0.2071
 7664SOL    HW234629   3.435   2.551   6.114 -1.8891 -0.5130 -2.5427
 7665SOL     OW34630   2.812   4.488  13.869  0.4265  0.1024 -0.4156
 7665SOL    HW134631   2.794   4.440  13.789  0.0886 -0.6684  0.1303
 7665SOL    HW234632   2.829   4.573  13.828 -0.1029 -0.9136 -2.7507
 7666SOL     OW34633   1.114   1.906   8.928  0.4863 -0.7663  0.8471
 7666SOL    HW134634   1.063   1.898   8.847  2.3003  2.9613 -0.6370
 7666SOL    HW234635   1.131   2.000   8.924  0.6614 -0.8755 -0.7778
 7667SOL     OW34636   0.316   1.164   7.141  0.1662 -0.2422  0.6000
 7667SOL    HW134637   0.357   1.210   7.068  0.8599 -0.1367  1.0542
 7667SOL    HW234638   0.228   1.201   7.132 -0.0198 -1.0394 -0.8857
 7668SOL     OW34639   1.857   3.817  16.938 -0.6680  0.0415 -0.5311
 7668SOL    HW134640   1.829   3.908  16.951  0.5276  0.3888 -0.3572
 7668SOL    HW234641   1.938   3.812  16.989 -1.5227 -1.1390  0.7081
 7669SOL     OW34642   2.178   1.215   6.343  0.3909 -0.4163  0.6220
 7669SOL    HW134643   2.190   1.168   6.426  0.9712  0.4896  1.0547
 7669SOL    HW234644   2.268   1.238   6.321  0.8062 -3.8314 -1.1700
 7670SOL     OW34645   2.951   4.021  12.469  0.3215 -0.5557 -0.1955
 7670SOL    HW134646   2.858   3.999  12.469 -0.0360  0.9745 -0.7169
 7670SOL    HW234647   2.949   4.100  12.524  0.9167 -0.2350 -0.6313
 7671SOL     OW34648   0.929   2.954   4.559 -0.6158  0.9932 -0.5169
 7671SOL    HW134649   0.915   3.041   4.522  1.3217  1.6071  0.2117
 7671SOL    HW234650   0.982   2.981   4.634 -1.5818  1.6197 -0.0578
 7672SOL     OW34651   2.771   1.344   3.589  0.1118 -0.2976 -0.1504
 7672SOL    HW134652   2.777   1.400   3.512  1.2692 -0.0360  0.1320
 7672SOL    HW234653   2.809   1.263   3.555  1.2665  0.2041 -0.0543
 7673SOL     OW34654   3.580   1.982   6.706  0.2643 -0.6242 -0.3685
 7673SOL    HW134655   3.552   1.979   6.614 -2.2053  0.6253  0.3366
 7673SOL    HW234656   3.574   1.887   6.721  3.2185 -1.0919 -2.2736
 7674SOL     OW34657   4.452   2.091   7.455  0.3310 -0.5217  0.1844
 7674SOL    HW134658   4.373   2.040   7.469 -1.6312  2.8614  1.5703
 7674SOL    HW234659   4.509   2.069   7.528 -1.4174 -0.2136  1.6330
 7675SOL     OW34660   3.295   1.863   8.401  0.5278 -0.3409  0.0648
 7675SOL    HW134661   3.207   1.837   8.429  0.3322 -0.4052 -0.6243
 7675SOL    HW234662   3.294   1.847   8.307 -1.0195 -2.8948  0.5008
 7676SOL     OW34663   2.768   1.623  13.466  0.0343  0.4525  0.0186
 7676SOL    HW134664   2.673   1.611  13.474  0.1802 -0.5674  0.2052
 7676SOL    HW234665   2.807   1.627  13.554  1.7291  0.6360 -0.7505
 7677SOL     OW34666   3.222   1.684  10.081 -0.1019  0.2052 -0.0627
 7677SOL    HW134667   3.254   1.613  10.025 -1.0186 -0.8113  0.7153
 7677SOL    HW234668   3.281   1.678  10.156  0.3007  2.4671 -0.1748
 7678SOL     OW34669   0.540   0.536   8.261  0.1527 -0.9928 -0.6984
 7678SOL    HW134670   0.524   0.521   8.354  1.1174  1.2994 -0.1637
 7678SOL    HW234671   0.575   0.625   8.258  1.8603 -1.5903  1.4295
 7679SOL     OW34672   0.581   4.290   1.969 -0.5852  0.5898 -0.6888
 7679SOL    HW134673   0.537   4.207   1.950  0.1563  0.5797 -2.4488
 7679SOL    HW234674   0.536   4.345   1.905 -1.0806  2.0229  0.9117
 7680SOL     OW34675   0.098   2.494   7.038 -0.5753 -0.1676 -0.4393
 7680SOL    HW134676   0.185   2.506   6.999  0.7565  0.1601  2.6403
 7680SOL    HW234677   0.046   2.462   6.964  1.7979 -1.8984 -1.3653
 7681SOL     OW34678   2.188   2.651   3.963 -0.2720  0.5205  0.0153
 7681SOL    HW134679   2.240   2.685   4.036  1.5509 -0.8817 -0.6044
 7681SOL    HW234680   2.209   2.557   3.958  0.3216  0.6512  0.0021
 7682SOL     OW34681   3.805   2.369  15.202  0.0651  0.0446  0.2079
 7682SOL    HW134682   3.787   2.290  15.252 -2.5011  0.2082 -0.4379
 7682SOL    HW234683   3.796   2.438  15.267 -1.4597  1.3993 -1.4200
 7683SOL     OW34684   4.007   3.967  14.588 -0.1138  0.1056  0.0879
 7683SOL    HW134685   4.041   3.932  14.506  0.3464 -1.9529  1.1731
 7683SOL    HW234686   4.092   3.988  14.627  0.6980  0.2066 -1.6939
 7684SOL     OW34687   4.503   0.092   1.333 -0.0760  0.3203 -0.0911
 7684SOL    HW134688   4.561   0.080   1.408  1.4561 -0.2580 -1.3728
 7684SOL    HW234689   4.562   0.086   1.258 -1.3682 -0.3524 -1.0540
 7685SOL     OW34690   0.708   3.173   8.137 -0.3725 -0.0870 -0.1196
 7685SOL    HW134691   0.621   3.210   8.154 -0.1256 -1.7045  4.5535
 7685SOL    HW234692   0.735   3.242   8.077  1.6716 -0.7064  0.0820
 7686SOL     OW34693   4.283   1.107   3.750  0.1207 -0.4150 -0.3491
 7686SOL    HW134694   4.320   1.195   3.755  0.4636 -0.4322 -2.4882
 7686SOL    HW234695   4.332   1.059   3.816  0.9725  3.0445  1.5514
 7687SOL     OW34696   2.808   0.061   5.774 -0.0790  0.1295  0.1243
 7687SOL    HW134697   2.782   0.073   5.683  1.3318  1.1159 -0.1420
 7687SOL    HW234698   2.812   4.703   5.777 -0.6102 -0.0312 -5.0560
 7688SOL     OW34699   3.524   3.147   4.373 -0.0603  0.7968 -0.4619
 7688SOL    HW134700   3.602   3.174   4.324 -0.1304 -0.3784 -1.2140
 7688SOL    HW234701   3.485   3.230   4.402  1.3136  1.4924 -0.5939
 7689SOL     OW34702   3.234   3.955   3.160 -0.2237 -0.6190  0.0869
 7689SOL    HW134703   3.186   3.873   3.171 -0.4228 -0.6402 -0.9375
 7689SOL    HW234704   3.322   3.929   3.186 -0.0949 -0.3478 -0.0792
 7690SOL     OW34705   3.567   0.923  11.814 -0.3838  0.5256 -0.2495
 7690SOL    HW134706   3.650   0.879  11.797  0.2864  1.5074  0.4756
 7690SOL    HW234707   3.597   0.981  11.883  0.7371 -1.0544  0.5965
 7691SOL     OW34708   0.741   1.651   8.656 -0.4113 -0.3656 -0.1483
 7691SOL    HW134709   0.791   1.726   8.623  2.6760 -2.2214  0.3274
 7691SOL    HW234710   0.657   1.696   8.663 -0.1979 -0.3251  1.9653
 7692SOL     OW34711   0.205   2.996  11.953  0.1231 -0.2487 -0.2286
 7692SOL    HW134712   0.188   2.908  11.987 -1.3769  0.7387  1.5710
 7692SOL    HW234713   0.127   3.044  11.982  0.4951 -0.3260  0.9126
 7693SOL     OW34714   3.025   3.069   9.662  0.2372 -0.3347  0.5352
 7693SOL    HW134715   3.110   3.058   9.707  0.2832  2.8131  1.2231
 7693SOL    HW234716   3.021   2.980   9.627 -1.3196 -0.4919  1.1448
 7694SOL     OW34717   0.394   2.132   4.929 -0.1102  0.3335 -0.3721
 7694SOL    HW134718   0.405   2.041   4.902 -1.1284  0.0602  0.1634
 7694SOL    HW234719   0.410   2.192   4.856  4.8939  1.5086  1.7008
 7695SOL     OW34720   0.829   0.682   2.430 -0.2762  0.1794 -0.0325
 7695SOL    HW134721   0.751   0.632   2.405 -0.0569 -1.0453  1.7243
 7695SOL    HW234722   0.823   0.689   2.525 -1.4987  2.7644 -0.2904
 7696SOL     OW34723   1.678   2.717  17.667 -0.4398 -0.6110  0.7178
 7696SOL    HW134724   1.762   2.683  17.699 -0.1987 -0.7219 -0.0171
 7696SOL    HW234725   1.635   2.734  17.750 -0.4039  0.3075  0.5405
 7697SOL     OW34726   4.604   3.685   9.051 -0.3122  0.4442  0.0258
 7697SOL    HW134727   4.573   3.749   8.987 -0.2577 -0.0572 -0.5053
 7697SOL    HW234728   4.697   3.702   9.062 -0.6610  0.1113  3.3589
 7698SOL     OW34729   4.139   4.252   1.661  0.3678  0.3496 -0.2477
 7698SOL    HW134730   4.152   4.181   1.599 -1.7908  0.2841 -0.6147
 7698SOL    HW234731   4.186   4.237   1.744  0.9669  0.8116 -0.5095
 7699SOL     OW34732   1.593   0.460   8.867  0.3373 -0.1695 -0.8240
 7699SOL    HW134733   1.520   0.419   8.913  1.8382 -2.0550 -0.1380
 7699SOL    HW234734   1.555   0.548   8.870  0.3216 -0.1367 -1.9128
 7700SOL     OW34735   2.212   4.139   9.032  0.3235 -0.1560  0.1985
 7700SOL    HW134736   2.204   4.045   9.051  0.5094 -0.3713 -0.8033
 7700SOL    HW234737   2.272   4.170   9.100 -3.0111  1.8763  2.2081
 7701SOL     OW34738   0.498   0.924  15.671 -0.2333  0.1951 -0.1207
 7701SOL    HW134739   0.537   0.845  15.710 -0.9546 -0.2410 -0.2882
 7701SOL    HW234740   0.457   0.971  15.743  1.0955  1.0904  0.0537
 7702SOL     OW34741   4.025   2.825   0.688 -0.8667 -0.0184  0.4265
 7702SOL    HW134742   3.969   2.869   0.752 -1.3804  1.5236 -1.0882
 7702SOL    HW234743   3.994   2.735   0.682 -0.5066 -0.1760  0.9104
 7703SOL     OW34744   3.975   3.516   3.301 -0.0335  0.2459  0.1710
 7703SOL    HW134745   4.020   3.514   3.385 -0.6195  1.6154  0.5117
 7703SOL    HW234746   3.997   3.604   3.271 -0.2218  0.1221 -0.3348
 7704SOL     OW34747   4.166   1.285  15.715 -0.0991 -0.0374  0.6499
 7704SOL    HW134748   4.208   1.349  15.773 -1.7011  1.0038  0.6428
 7704SOL    HW234749   4.223   1.208  15.719  0.3923  0.3791  1.8050
 7705SOL     OW34750   2.172   3.265   1.856  0.2111 -0.3260  0.1086
 7705SOL    HW134751   2.148   3.174   1.873  1.1860 -0.2426  1.9055
 7705SOL    HW234752   2.266   3.257   1.868 -0.0654 -5.5306 -1.1824
 7706SOL     OW34753   4.099   3.707   5.406  0.1020 -0.2659 -0.5614
 7706SOL    HW134754   4.163   3.638   5.392  1.9468  1.2676  0.3490
 7706SOL    HW234755   4.013   3.666   5.394 -0.0753  0.6809 -2.4357
 7707SOL     OW34756   2.982   1.514  17.496 -0.1069  0.5056 -0.2680
 7707SOL    HW134757   3.029   1.583  17.543  0.3546  0.1217 -0.1655
 7707SOL    HW234758   3.031   1.494  17.416 -0.5819 -0.8539 -0.2036
 7708SOL     OW34759   0.620   0.947   7.945 -0.1145  0.5526  0.0173
 7708SOL    HW134760   0.611   1.025   7.998 -0.1637 -0.5259  1.5795
 7708SOL    HW234761   0.555   0.964   7.877 -0.9018 -1.8948  0.1677
 7709SOL     OW34762   0.653   2.375   1.988 -0.5403  0.3321  0.5866
 7709SOL    HW134763   0.642   2.310   2.057  0.1811  0.3393  0.7011
 7709SOL    HW234764   0.589   2.445   2.007 -1.0757 -0.0384  0.1512
 7710SOL     OW34765   3.100   0.411   5.625  0.4854  0.3074 -0.5268
 7710SOL    HW134766   3.037   0.403   5.554 -0.3436  0.1383  0.2156
 7710SOL    HW234767   3.054   0.424   5.708  1.5136  0.8386 -0.0358
 7711SOL     OW34768   1.661   3.469   3.974 -0.7507  0.4848  0.1433
 7711SOL    HW134769   1.644   3.545   3.919 -0.2387 -0.6022 -1.4938
 7711SOL    HW234770   1.714   3.418   3.913 -1.0396  0.4551 -0.0818
 7712SOL     OW34771   0.019   3.923  13.665  0.1248 -0.5135  0.5161
 7712SOL    HW134772   4.708   3.989  13.616 -0.0543 -0.3843  0.8686
 7712SOL    HW234773   0.104   3.960  13.641  1.0754 -2.3429  1.0906
 7713SOL     OW34774   0.590   0.463  15.028  0.1119  0.1264  0.3968
 7713SOL    HW134775   0.682   0.489  15.038 -0.3581  1.2154  1.7867
 7713SOL    HW234776   0.582   0.410  14.949  0.5482  0.7015 -0.0346
 7714SOL     OW34777   0.500   0.645   3.058  0.8137  0.1912 -0.0650
 7714SOL    HW134778   0.564   0.635   2.987  1.6638  0.9174  0.6013
 7714SOL    HW234779   0.429   0.659   2.995 -0.6803  0.2053  1.6177
 7715SOL     OW34780   3.581   0.303   4.430 -0.4598  0.3830  0.2397
 7715SOL    HW134781   3.514   0.240   4.457  0.2691 -0.4930 -0.0342
 7715SOL    HW234782   3.655   0.264   4.475 -0.7654 -0.0375  0.3740
 7716SOL     OW34783   1.161   2.820   5.897  0.2460 -0.0826  0.5222
 7716SOL    HW134784   1.067   2.830   5.885  0.6904 -0.3569 -3.2036
 7716SOL    HW234785   1.170   2.905   5.941  2.4310 -0.5905  1.0547
 7717SOL     OW34786   3.849   3.419  16.234 -0.7413  0.2088  0.0379
 7717SOL    HW134787   3.757   3.439  16.252  0.0516  2.4379  1.6265
 7717SOL    HW234788   3.869   3.488  16.171 -0.4682 -0.8746 -1.0502
 7718SOL     OW34789   1.249   2.082   3.490 -0.0140  0.5783 -0.2277
 7718SOL    HW134790   1.300   2.099   3.411 -0.3023  0.8263 -0.3612
 7718SOL    HW234791   1.253   1.987   3.478 -0.5229  0.4756  0.4200
 7719SOL     OW34792   3.165   2.709   0.138  0.5051  0.0580  0.1369
 7719SOL    HW134793   3.196   2.619   0.136  2.2304  0.6490  0.1080
 7719SOL    HW234794   3.131   2.724   0.050 -1.0524 -0.9956  0.5624
 7720SOL     OW34795   3.051   3.698   1.230  0.5618 -0.0411 -0.3280
 7720SOL    HW134796   3.097   3.617   1.250  2.4648  0.4360 -2.6855
 7720SOL    HW234797   2.985   3.668   1.167 -0.5630 -0.9920  1.3302
 7721SOL     OW34798   3.641   3.808  14.215  0.0141 -0.4180 -0.0951
 7721SOL    HW134799   3.605   3.777  14.132  1.3810  0.4976 -1.0385
 7721SOL    HW234800   3.690   3.888  14.195  0.1392 -0.2673  0.8210
 7722SOL     OW34801   3.526   1.699   5.760 -0.3493  0.1140 -0.1860
 7722SOL    HW134802   3.578   1.779   5.754  1.2133 -0.8055  0.7968
 7722SOL    HW234803   3.477   1.705   5.679  1.2880 -1.2815 -1.2820
 7723SOL     OW34804   4.575   0.632  10.994  0.6809 -0.1312 -0.3216
 7723SOL    HW134805   4.572   0.678  11.078 -0.5291  0.9552 -0.9496
 7723SOL    HW234806   4.481   0.618  10.980  0.1186  2.4236  0.8530
 7724SOL     OW34807   1.931   2.475   1.225  0.6640  0.2632 -0.4885
 7724SOL    HW134808   1.984   2.555   1.226 -0.0570  0.7090  1.5751
 7724SOL    HW234809   1.843   2.509   1.238  1.1667  0.6629  1.9468
 7725SOL     OW34810   3.064   3.699   2.526 -0.0888 -0.2531  0.3963
 7725SOL    HW134811   3.057   3.644   2.604 -1.6973  0.0926  0.4874
 7725SOL    HW234812   2.986   3.753   2.541  0.6453  0.8799  0.1433
 7726SOL     OW34813   2.187   1.307   4.893  0.6664 -0.3399 -0.3194
 7726SOL    HW134814   2.261   1.250   4.870  1.4093 -0.0364  1.3096
 7726SOL    HW234815   2.127   1.244   4.934 -3.0502  3.8649  0.7071
 7727SOL     OW34816   1.013   4.020   8.220  0.7195  0.2260  0.1018
 7727SOL    HW134817   1.070   3.956   8.176  0.7541  1.2703 -1.3796
 7727SOL    HW234818   0.973   4.066   8.146  3.5269  1.5940 -0.5546
 7728SOL     OW34819   2.890   4.304   7.003  0.1401  0.4340  0.6650
 7728SOL    HW134820   2.925   4.374   7.058  1.1076  2.5349 -2.6285
 7728SOL    HW234821   2.836   4.266   7.073 -2.0566  2.9098  0.3175
 7729SOL     OW34822   3.515   2.041   4.007 -0.5205 -0.0492  0.2638
 7729SOL    HW134823   3.518   2.109   4.075  0.5487  0.6353 -0.4727
 7729SOL    HW234824   3.437   2.071   3.960 -1.1821 -0.3753  1.1658
 7730SOL     OW34825   1.171   3.439   1.048 -0.0913  0.0387 -0.0646
 7730SOL    HW134826   1.141   3.461   0.960  1.9856  1.1289 -0.5185
 7730SOL    HW234827   1.165   3.344   1.038 -0.0734 -0.1367  1.5702
 7731SOL     OW34828   1.311   2.701   7.990  0.2461 -0.1866  0.0853
 7731SOL    HW134829   1.263   2.777   7.957 -0.4465 -0.8756 -0.4984
 7731SOL    HW234830   1.346   2.741   8.069  0.5135 -1.1763  0.4721
 7732SOL     OW34831   2.756   1.998   5.458  0.1372  0.7834 -0.0203
 7732SOL    HW134832   2.755   1.925   5.397 -3.0649  1.2146 -0.4960
 7732SOL    HW234833   2.673   2.040   5.432 -0.8260 -0.6911  0.7189
 7733SOL     OW34834   3.646   1.138  11.614  0.4795  0.3892 -0.4064
 7733SOL    HW134835   3.722   1.148  11.556  1.7443  1.4102  1.4555
 7733SOL    HW234836   3.670   1.069  11.676 -1.1022  0.0658 -0.1426
 7734SOL     OW34837   2.755   1.168   0.697  0.2249  0.2426  0.0345
 7734SOL    HW134838   2.800   1.216   0.767 -1.5807  3.3350 -0.9257
 7734SOL    HW234839   2.680   1.224   0.676 -0.1324  0.6459  2.3535
 7735SOL     OW34840   4.577   4.313   0.351  0.6134 -0.0482 -0.4027
 7735SOL    HW134841   4.612   4.274   0.431 -1.1647 -0.8656 -0.0208
 7735SOL    HW234842   4.651   4.293   0.294  0.8519 -2.8238  0.9054
 7736SOL     OW34843   0.965   4.691  17.637 -0.0124  0.1786 -0.0329
 7736SOL    HW134844   1.002   4.612  17.597 -0.1066 -0.3882  0.9896
 7736SOL    HW234845   0.963   0.002  17.555 -2.2847  0.1036 -0.0101
 7737SOL     OW34846   2.262   2.605   6.904 -0.0703  0.2290  0.3097
 7737SOL    HW134847   2.290   2.676   6.961 -2.5483 -0.5154  2.4449
 7737SOL    HW234848   2.344   2.559   6.889  1.3898  3.3840 -1.2430
 7738SOL     OW34849   0.482   1.993  11.520 -0.1294  0.0420 -0.1089
 7738SOL    HW134850   0.528   2.054  11.462  0.7831 -0.4735  0.0748
 7738SOL    HW234851   0.537   1.986  11.599  0.1927  1.1409 -0.2262
 7739SOL     OW34852   1.252   3.151   0.410  0.5693  0.3840 -0.0153
 7739SOL    HW134853   1.296   3.153   0.325  2.1106  0.1154  0.7861
 7739SOL    HW234854   1.282   3.231   0.452 -2.6108  1.7679 -0.3622
 7740SOL     OW34855   1.580   3.447   1.809 -0.1812 -0.1165  0.9782
 7740SOL    HW134856   1.661   3.423   1.765 -2.7679 -2.3987 -2.5012
 7740SOL    HW234857   1.613   3.510   1.873  0.8904  0.9025 -0.5794
 7741SOL     OW34858   2.530   4.585   5.399  1.1233  0.3930  0.0193
 7741SOL    HW134859   2.451   4.532   5.407  0.2969  1.7943  1.0875
 7741SOL    HW234860   2.493   4.639   5.329  1.2419  1.7479  0.9956
 7742SOL     OW34861   3.952   2.090   1.851 -0.2754 -0.1358 -0.0946
 7742SOL    HW134862   3.965   2.184   1.862  0.8690 -0.3081  0.0344
 7742SOL    HW234863   3.882   2.081   1.786 -1.7124  1.4015  1.2320
 7743SOL     OW34864   3.710   3.286   5.161  0.1951 -0.6351 -0.0706
 7743SOL    HW134865   3.772   3.339   5.111 -1.3211 -0.1517 -1.4588
 7743SOL    HW234866   3.756   3.264   5.241  0.3302  0.4924  0.1641
 7744SOL     OW34867   1.728   1.313   6.356  0.0639 -0.6157  0.1653
 7744SOL    HW134868   1.703   1.262   6.433 -1.3742  1.0822  0.8261
 7744SOL    HW234869   1.713   1.242   6.294 -0.2720 -0.5133  0.1309
 7745SOL     OW34870   0.404   0.879  12.032 -0.0012 -0.2986  0.4916
 7745SOL    HW134871   0.457   0.869  12.111  0.8754 -3.2565 -0.4787
 7745SOL    HW234872   0.319   0.870  12.076 -1.5326 -0.8422 -2.5851
 7746SOL     OW34873   1.835   2.109   2.778  0.0549  0.0968  0.0831
 7746SOL    HW134874   1.923   2.127   2.813 -0.2047  2.8368 -0.6880
 7746SOL    HW234875   1.818   2.016   2.788 -0.2096  0.0692 -0.6951
 7747SOL     OW34876   4.321   0.437   2.571 -0.0366 -0.4291  0.2539
 7747SOL    HW134877   4.246   0.391   2.609 -0.6572 -0.7010 -1.3159
 7747SOL    HW234878   4.272   0.508   2.529 -0.6649 -1.0538 -0.0789
 7748SOL     OW34879   3.929   2.739   5.274  0.7579  0.7772  0.1481
 7748SOL    HW134880   4.006   2.683   5.279  1.5891  1.9868  1.1216
 7748SOL    HW234881   3.957   2.792   5.199  1.1474  1.7465  0.9706
 7749SOL     OW34882   2.246   1.580   3.680 -0.7040 -0.1289  0.3039
 7749SOL    HW134883   2.212   1.615   3.598  0.0743 -0.8501 -0.3146
 7749SOL    HW234884   2.293   1.509   3.637  0.1318  1.3075 -1.1438
 7750SOL     OW34885   2.694   3.440   7.657 -0.1176 -0.0241  0.0993
 7750SOL    HW134886   2.735   3.373   7.712  0.6604 -0.2377 -0.7321
 7750SOL    HW234887   2.615   3.390   7.636  0.7698 -1.7484  0.8744
 7751SOL     OW34888   0.596   3.160   3.764 -0.1952 -0.4288  0.2143
 7751SOL    HW134889   0.632   3.246   3.742 -1.9833  0.6057  1.2647
 7751SOL    HW234890   0.533   3.191   3.830  0.8072  0.0904  0.9381
 7752SOL     OW34891   3.786   1.393   5.038 -0.2892  0.0337 -0.6672
 7752SOL    HW134892   3.776   1.485   5.016 -3.1733  0.0984  0.9408
 7752SOL    HW234893   3.702   1.361   5.005  1.1689 -0.2890 -4.0939
 7753SOL     OW34894   1.887   3.846   5.647  0.3499 -0.1788  0.1405
 7753SOL    HW134895   1.900   3.940   5.656 -0.1887 -0.1871  0.9546
 7753SOL    HW234896   1.825   3.846   5.573  2.1469  1.2963 -1.3605
 7754SOL     OW34897   0.803   2.524  14.520  0.6250  0.8423  0.2243
 7754SOL    HW134898   0.715   2.536  14.485 -0.5619 -1.2683  2.5445
 7754SOL    HW234899   0.792   2.445  14.573 -3.0731  0.8432 -0.5493
 7755SOL     OW34900   0.565   1.250   3.617  1.0496  0.9096  0.1846
 7755SOL    HW134901   0.516   1.169   3.632 -1.6294  2.3512 -0.7936
 7755SOL    HW234902   0.642   1.240   3.673  0.9506 -0.9635 -0.0336
 7756SOL     OW34903   4.424   1.499   2.545  0.2238  0.3629  0.1681
 7756SOL    HW134904   4.407   1.423   2.489  1.6481  0.5493 -0.5107
 7756SOL    HW234905   4.472   1.561   2.491  2.7658 -1.8396 -0.1054
 7757SOL     OW34906   3.713   3.510   1.755 -0.2710  0.0595  0.3608
 7757SOL    HW134907   3.657   3.587   1.752 -0.4119 -0.0239  0.7630
 7757SOL    HW234908   3.771   3.534   1.827  0.9406  1.3246 -1.0506
 7758SOL     OW34909   4.166   2.734   7.752 -0.4513 -0.4650 -0.0639
 7758SOL    HW134910   4.222   2.705   7.680 -2.3413 -1.0826 -1.2970
 7758SOL    HW234911   4.214   2.810   7.786 -2.1409  0.4185  0.3473
 7759SOL     OW34912   1.515   2.562   8.366  0.0691 -0.3820  0.3462
 7759SOL    HW134913   1.565   2.538   8.443  0.7637  2.2655  0.7503
 7759SOL    HW234914   1.455   2.491   8.346  1.8716 -1.5759 -0.7986
 7760SOL     OW34915   4.708   3.784  10.786 -0.5556  0.3602  0.5282
 7760SOL    HW134916   4.645   3.839  10.833 -0.2881  0.2322  1.0300
 7760SOL    HW234917   4.727   3.834  10.707  1.0905 -2.0019 -0.5595
 7761SOL     OW34918   4.129   0.650  11.676 -0.1898  0.1252 -0.7207
 7761SOL    HW134919   4.056   0.666  11.736  0.9445 -1.2503  1.0165
 7761SOL    HW234920   4.103   0.698  11.597  1.7407  0.2631 -1.2736
 7762SOL     OW34921   3.658   0.631   8.118  0.1140 -0.1255  0.4763
 7762SOL    HW134922   3.668   0.538   8.098 -0.1219  0.2793 -1.5210
 7762SOL    HW234923   3.735   0.648   8.172 -0.1176 -2.0232  1.4053
 7763SOL     OW34924   0.080   4.696   2.382  0.1890  0.0717  0.4001
 7763SOL    HW134925   0.070   0.027   2.447  2.7901 -0.0160  0.8784
 7763SOL    HW234926   0.144   0.005   2.328 -1.0671  1.7045  0.3288
 7764SOL     OW34927   3.132   2.150  16.172  0.3591 -0.2424 -0.6583
 7764SOL    HW134928   3.055   2.161  16.115  1.6016  1.2660 -2.0244
 7764SOL    HW234929   3.087   2.137  16.256  1.2825  1.2987  0.0721
 7765SOL     OW34930   1.540   0.835  15.392 -1.0498 -0.4902 -0.6603
 7765SOL    HW134931   1.506   0.821  15.303 -0.5024 -1.3768 -0.7359
 7765SOL    HW234932   1.579   0.922  15.380 -1.1575 -0.5574 -1.4955
 7766SOL     OW34933   1.308   2.813   8.502  0.0719  0.3981 -0.5311
 7766SOL    HW134934   1.253   2.740   8.476 -1.5631  0.9770  1.3001
 7766SOL    HW234935   1.237   2.876   8.493  0.6823  0.9641 -1.4123
 7767SOL     OW34936   4.064   3.066   9.224  0.4449  0.4284 -0.4380
 7767SOL    HW134937   4.110   3.009   9.163 -1.3205  0.0873 -1.4461
 7767SOL    HW234938   4.120   3.061   9.301  1.4270  1.1640 -1.1082
 7768SOL     OW34939   4.383   0.996   7.922 -0.1857  0.1859 -0.0509
 7768SOL    HW134940   4.355   0.961   8.007  1.9350 -0.2190  0.4723
 7768SOL    HW234941   4.378   1.089   7.942  1.6808  0.8965 -2.9301
 7769SOL     OW34942   2.435   2.367   1.936 -0.3924  0.2988  0.3741
 7769SOL    HW134943   2.432   2.317   1.854 -1.7280  0.4979  0.3010
 7769SOL    HW234944   2.370   2.330   1.996  0.6794  0.4256  1.6225
 7770SOL     OW34945   0.290   1.485   0.414 -0.0545  0.1833  0.3900
 7770SOL    HW134946   0.267   1.392   0.415 -0.9947  0.4164  0.7556
 7770SOL    HW234947   0.297   1.512   0.506  1.1043  0.4719  0.2148
 7771SOL     OW34948   3.842   0.118   2.063 -0.3966 -0.3211 -0.0492
 7771SOL    HW134949   3.938   0.119   2.060 -0.4381 -0.2555 -1.3203
 7771SOL    HW234950   3.826   0.147   1.973 -2.4853 -0.5297  0.2578
 7772SOL     OW34951   0.493   0.881   9.936  0.2191  0.4321 -0.4813
 7772SOL    HW134952   0.545   0.951   9.976  0.3840  0.6498 -1.0815
 7772SOL    HW234953   0.495   0.827  10.015 -1.3208 -0.2883 -0.9413
 7773SOL     OW34954   1.773   4.044  16.342  0.8170 -0.1327 -0.0645
 7773SOL    HW134955   1.697   3.995  16.311  0.5065 -0.0769  0.6058
 7773SOL    HW234956   1.806   4.077  16.259 -0.7548  1.2150 -0.1680
 7774SOL     OW34957   0.782   2.354   3.501  0.2452  0.1072 -0.5357
 7774SOL    HW134958   0.791   2.442   3.463  2.7452 -0.8325 -2.0885
 7774SOL    HW234959   0.772   2.302   3.421 -0.6119  0.1014 -0.4265
 7775SOL     OW34960   0.186   1.360   6.559 -0.2548 -0.2385 -0.3416
 7775SOL    HW134961   0.245   1.411   6.503  0.5370 -0.0053  0.6903
 7775SOL    HW234962   0.216   1.270   6.546 -1.2380 -0.9285  2.1653
 7776SOL     OW34963   3.714   3.205  16.066  0.6638  0.0113 -0.4489
 7776SOL    HW134964   3.695   3.153  15.988 -2.0158 -1.1771  0.9818
 7776SOL    HW234965   3.731   3.138  16.132  2.1098 -0.5917 -1.4442
 7777SOL     OW34966   1.763   2.782   3.837 -0.2843 -0.7161 -1.2126
 7777SOL    HW134967   1.695   2.816   3.895  0.8487  1.5396 -1.2340
 7777SOL    HW234968   1.817   2.749   3.909 -1.3645  2.2733  0.9705
 7778SOL     OW34969   4.224   3.504   7.174 -0.4380 -0.9864 -0.3397
 7778SOL    HW134970   4.142   3.467   7.209 -1.3000  1.0863 -0.1980
 7778SOL    HW234971   4.259   3.422   7.138 -1.1387 -1.2261 -0.4764
 7779SOL     OW34972   2.328   0.711   5.294  0.8383 -0.7867  0.1777
 7779SOL    HW134973   2.369   0.628   5.269  0.4135 -0.4417 -1.6987
 7779SOL    HW234974   2.368   0.714   5.381  0.1075 -0.7775  0.5161
 7780SOL     OW34975   1.115   3.689   4.265  0.0753 -0.1801 -0.1816
 7780SOL    HW134976   1.138   3.782   4.264  1.6618 -0.5819 -1.0512
 7780SOL    HW234977   1.200   3.650   4.284 -0.2836 -1.1940 -0.6491
 7781SOL     OW34978   0.496   2.374  15.756 -0.3264  0.3418  0.2613
 7781SOL    HW134979   0.440   2.330  15.820  0.0815  1.2375  1.2230
 7781SOL    HW234980   0.579   2.327  15.767  0.7512  1.8222 -1.4596
 7782SOL     OW34981   3.825   1.542  17.489  0.0384  0.7669  0.8767
 7782SOL    HW134982   3.896   1.479  17.475  1.8472  2.7366  1.2324
 7782SOL    HW234983   3.861   1.570  17.573  0.4239  1.5818  0.4315
 7783SOL     OW34984   1.651   0.584   1.762 -0.2088 -0.5494  0.1607
 7783SOL    HW134985   1.698   0.607   1.682 -0.7426  3.0573  0.8881
 7783SOL    HW234986   1.639   0.490   1.747  0.2995 -0.4299 -0.9467
 7784SOL     OW34987   4.007   1.807   0.505  0.1077  0.0343  0.1987
 7784SOL    HW134988   3.973   1.732   0.554 -2.6308 -0.0575 -1.8351
 7784SOL    HW234989   4.078   1.837   0.562 -0.3954  1.6921 -0.0508
 7785SOL     OW34990   4.168   0.526   3.140 -0.0009 -0.4702 -0.6572
 7785SOL    HW134991   4.256   0.509   3.174  0.5027  1.5847 -0.9608
 7785SOL    HW234992   4.169   0.621   3.129  0.4962 -0.1989  1.7567
 7786SOL     OW34993   2.249   0.766   2.606  0.0350  0.5661 -0.1738
 7786SOL    HW134994   2.232   0.672   2.607 -0.0744  0.5998  1.5625
 7786SOL    HW234995   2.316   0.779   2.539 -0.1100 -2.4017 -0.9055
 7787SOL     OW34996   4.538   2.375  16.088  0.2903  0.0009  0.0623
 7787SOL    HW134997   4.493   2.305  16.040  3.5719 -0.9533 -1.5948
 7787SOL    HW234998   4.488   2.455  16.072  1.9273  1.2485  1.2115
 7788SOL     OW34999   1.613   4.305   0.315 -0.2295  0.3700 -0.2565
 7788SOL    HW135000   1.557   4.348   0.379  0.0933  0.2594  0.0968
 7788SOL    HW235001   1.629   4.220   0.355 -0.3177 -0.1366 -1.2932
 7789SOL     OW35002   2.793   4.035  10.385  0.3273 -0.7541  0.1660
 7789SOL    HW135003   2.738   4.064  10.312  0.5589 -0.2623  0.1911
 7789SOL    HW235004   2.762   3.946  10.402  0.1749 -1.0230 -1.5114
 7790SOL     OW35005   1.060   0.189   9.034 -0.7353 -0.4889  0.6329
 7790SOL    HW135006   0.989   0.125   9.029 -1.9753  0.8678  1.0087
 7790SOL    HW235007   1.133   0.132   9.009 -0.6522 -0.6262  1.1931
 7791SOL     OW35008   3.404   1.923   3.152  0.4935 -0.0214 -0.7661
 7791SOL    HW135009   3.441   1.847   3.198 -0.8494 -0.4330 -0.3675
 7791SOL    HW235010   3.334   1.962   3.204 -0.3328 -4.1303  1.2173
 7792SOL     OW35011   1.777   1.075   2.280 -0.1409  0.1001 -0.0953
 7792SOL    HW135012   1.706   1.085   2.343 -0.2853  1.4397 -0.4787
 7792SOL    HW235013   1.782   1.163   2.243  1.5677  0.1556  0.2751
 7793SOL     OW35014   0.436   2.697   4.953 -0.0648  0.2375  0.2542
 7793SOL    HW135015   0.465   2.628   5.012 -0.3784 -0.1092  0.0100
 7793SOL    HW235016   0.397   2.646   4.881  1.4159 -0.3151 -0.1543
 7794SOL     OW35017   1.220   4.343  11.824  0.1678 -0.5644  0.2167
 7794SOL    HW135018   1.211   4.260  11.776 -1.6121 -0.4856  0.4088
 7794SOL    HW235019   1.218   4.306  11.913 -3.0890 -1.7279 -0.3208
 7795SOL     OW35020   3.625   2.850   3.015  0.1127  0.3552  0.1598
 7795SOL    HW135021   3.703   2.817   2.970 -1.4312 -1.6743 -1.0234
 7795SOL    HW235022   3.568   2.879   2.944 -0.0780  2.6554  1.2644
 7796SOL     OW35023   2.509   4.592  14.840  0.1050 -0.0453  0.0661
 7796SOL    HW135024   2.436   4.547  14.882 -0.1152 -1.0448 -1.3755
 7796SOL    HW235025   2.468   4.673  14.810 -1.7622 -1.7303 -2.0440
 7797SOL     OW35026   4.535   3.778   4.560 -0.1913  0.4161 -0.2121
 7797SOL    HW135027   4.513   3.720   4.633 -2.2310  0.0169 -1.1200
 7797SOL    HW235028   4.609   3.735   4.519 -0.4388  0.3359 -0.5794
 7798SOL     OW35029   3.380   0.790   9.582 -0.0941  0.6977 -0.0365
 7798SOL    HW135030   3.437   0.863   9.605  0.6944  0.5263 -1.4549
 7798SOL    HW235031   3.337   0.809   9.498  0.6035  0.7708 -0.3745
 7799SOL     OW35032   1.465   4.200  16.101  0.1403 -0.0730  0.0922
 7799SOL    HW135033   1.438   4.289  16.077  0.8112  0.4975  1.4415
 7799SOL    HW235034   1.554   4.187  16.067 -0.0189 -0.7488 -0.0571
 7800SOL     OW35035   4.554   4.467  10.993  0.3796  0.3792 -0.2381
 7800SOL    HW135036   4.575   4.560  10.987  2.6989 -0.2210 -1.2995
 7800SOL    HW235037   4.592   4.440  10.910  0.1884 -0.2645 -0.1200
 7801SOL     OW35038   0.012   0.081   1.851  0.1575 -0.1334  0.0669
 7801SOL    HW135039   0.043   0.103   1.938  0.4346 -1.4939  0.3140
 7801SOL    HW235040   0.017   0.168   1.812  1.1747 -0.9050 -1.5311
 7802SOL     OW35041   3.872   1.352  11.869  0.3308  0.5626  0.0887
 7802SOL    HW135042   3.826   1.276  11.904 -0.6586  1.0467 -0.1840
 7802SOL    HW235043   3.925   1.376  11.945  1.8318 -1.6413 -0.2531
 7803SOL     OW35044   3.042   1.902   6.416  0.3210  0.2441 -0.2608
 7803SOL    HW135045   2.962   1.871   6.374  0.9714  0.0126 -1.3315
 7803SOL    HW235046   3.084   1.825   6.454  3.1390  1.8971 -0.0220
 7804SOL     OW35047   0.057   3.079   4.335  0.1681  0.5081 -0.0952
 7804SOL    HW135048   0.032   3.002   4.284 -1.5873  0.8647  0.2236
 7804SOL    HW235049   0.152   3.076   4.328  0.1111 -0.1888 -0.6186
 7805SOL     OW35050   0.128   2.424   5.259 -0.1378  0.3872 -0.5088
 7805SOL    HW135051   0.213   2.398   5.223  0.9407  1.6623  1.1460
 7805SOL    HW235052   0.097   2.487   5.194  0.4513  2.3025  1.0731
 7806SOL     OW35053   2.445   2.538   4.317  0.0577 -0.0566 -0.0558
 7806SOL    HW135054   2.412   2.540   4.407 -0.0107  2.8782 -0.1397
 7806SOL    HW235055   2.443   2.443   4.316  4.4953 -0.1403 -1.3705
 7807SOL     OW35056   2.458   4.066   8.835  0.3689 -0.5668 -0.0816
 7807SOL    HW135057   2.515   4.060   8.913  0.0153 -0.9915  0.1444
 7807SOL    HW235058   2.387   4.121   8.867  0.7249 -0.4226  0.4760
 7808SOL     OW35059   3.785   3.991  15.426 -0.5615 -0.0388  0.4614
 7808SOL    HW135060   3.745   3.913  15.387 -1.1815 -0.1272  1.2855
 7808SOL    HW235061   3.828   4.030  15.350 -1.6812  0.5008  0.1042
 7809SOL     OW35062   0.559   4.432   2.684 -0.1381 -0.0386 -0.0707
 7809SOL    HW135063   0.537   4.421   2.592  1.6971  0.2614 -0.5447
 7809SOL    HW235064   0.655   4.426   2.691  0.0549  1.8507 -0.9180
 7810SOL     OW35065   0.080   3.000  13.081  0.4696  0.3289 -0.1311
 7810SOL    HW135066   0.058   2.988  12.989 -0.6103  0.6086  0.0814
 7810SOL    HW235067   4.738   3.009  13.133 -0.7706 -2.3211 -1.5685
 7811SOL     OW35068   2.641   4.189  12.185  0.6998  0.5025  0.4711
 7811SOL    HW135069   2.638   4.274  12.229 -1.2587  1.4295 -1.4893
 7811SOL    HW235070   2.643   4.212  12.092 -2.0510  0.8125  0.4901
 7812SOL     OW35071   4.518   0.670   3.601  0.1763  0.2132 -0.2704
 7812SOL    HW135072   4.507   0.575   3.604 -0.3476  0.3072  0.6607
 7812SOL    HW235073   4.613   0.680   3.596  0.3834 -1.4031  0.4025
 7813SOL     OW35074   0.544   1.244  10.530  0.5082  0.0870 -0.4844
 7813SOL    HW135075   0.616   1.278  10.583  1.1068 -2.4179  0.2798
 7813SOL    HW235076   0.509   1.188  10.599 -1.7854  1.6151 -0.3874
 7814SOL     OW35077   2.017   3.285   5.126  0.2064  0.7147  0.1580
 7814SOL    HW135078   2.106   3.316   5.108 -0.6643  1.6331 -2.5731
 7814SOL    HW235079   2.027   3.195   5.158 -0.1408  0.4590 -0.4514
 7815SOL     OW35080   0.936   3.094   7.364 -0.3593  0.3327  0.3193
 7815SOL    HW135081   0.846   3.121   7.379 -0.7187 -0.1868 -0.9649
 7815SOL    HW235082   0.950   3.084   7.270  0.9436 -0.0371  0.5497
 7816SOL     OW35083   3.088   2.071   1.790 -0.3050 -0.5147  0.3016
 7816SOL    HW135084   3.063   2.017   1.715  1.8803  0.0149 -0.7928
 7816SOL    HW235085   3.116   2.149   1.743  1.1715 -0.2685  1.5637
 7817SOL     OW35086   0.229   2.785   7.195  0.0857  0.0719  0.3142
 7817SOL    HW135087   0.193   2.706   7.234  0.9085 -0.6148 -0.3231
 7817SOL    HW235088   0.318   2.793   7.228 -0.0164  1.2402  0.3086
 7818SOL     OW35089   2.960   1.242   8.467  0.6930  0.3909 -0.2961
 7818SOL    HW135090   2.908   1.314   8.431 -0.2218  0.2163  0.6987
 7818SOL    HW235091   3.044   1.286   8.483  0.9734  0.5835 -2.2500
 7819SOL     OW35092   0.609   2.523   3.351  0.0177  0.2593 -0.2682
 7819SOL    HW135093   0.515   2.522   3.372 -0.4505 -0.2044 -2.3849
 7819SOL    HW235094   0.614   2.512   3.256  0.5315  0.6917 -0.2902
 7820SOL     OW35095   2.864   2.631   3.448 -0.3152  0.2054  0.3765
 7820SOL    HW135096   2.907   2.563   3.501  0.2407 -0.5423 -1.0378
 7820SOL    HW235097   2.849   2.699   3.514 -2.2992 -0.5336  0.6771
 7821SOL     OW35098   2.081   1.204   5.791 -0.0326  0.0989 -0.7120
 7821SOL    HW135099   1.995   1.175   5.821 -0.8966 -0.3777 -3.6487
 7821SOL    HW235100   2.102   1.140   5.723  2.4587  1.1791 -0.9640
 7822SOL     OW35101   1.355   0.982   7.003  0.1709 -0.4223  0.2081
 7822SOL    HW135102   1.272   0.949   7.037 -1.2925  0.8229 -2.2292
 7822SOL    HW235103   1.406   0.991   7.084  1.8193 -0.3794 -0.8299
 7823SOL     OW35104   2.349   2.834   5.561 -0.6149 -0.5316  0.1282
 7823SOL    HW135105   2.315   2.901   5.502  1.2701  3.3595  3.4826
 7823SOL    HW235106   2.291   2.759   5.544 -0.6983 -0.2448 -0.8215
 7824SOL     OW35107   1.178   0.511  16.876  0.8564 -0.0203 -0.3322
 7824SOL    HW135108   1.102   0.524  16.820  1.6980 -0.6428 -1.6069
 7824SOL    HW235109   1.241   0.568  16.832  0.7012  1.3176  1.1607
 7825SOL     OW35110   0.665   4.450  14.799 -0.0230 -0.4784 -0.0959
 7825SOL    HW135111   0.591   4.464  14.858  1.0503 -0.6207  1.2918
 7825SOL    HW235112   0.674   4.541  14.772  1.2224 -0.9513 -1.2967
 7826SOL     OW35113   2.890   3.605   6.035  0.1310  0.0335 -0.1246
 7826SOL    HW135114   2.842   3.547   6.095  3.2990 -3.2185 -0.7196
 7826SOL    HW235115   2.984   3.586   6.031  0.3852  1.2326  0.1421
 7827SOL     OW35116   0.096   0.687  12.386  0.4066  0.0221 -0.0557
 7827SOL    HW135117   0.174   0.742  12.394  0.6879 -0.4455  0.4480
 7827SOL    HW235118   0.117   0.638  12.465  1.4552  0.2564 -0.1881
 7828SOL     OW35119   3.976   0.890   5.726 -0.4283  0.1835  0.4213
 7828SOL    HW135120   3.923   0.929   5.796  0.4967 -1.4232  2.0303
 7828SOL    HW235121   3.969   0.799   5.754 -0.1698  0.6089  1.8681
 7829SOL     OW35122   1.200   0.963   2.303 -0.2890  0.1394 -0.1109
 7829SOL    HW135123   1.277   0.908   2.321  0.1916  1.1046  0.7523
 7829SOL    HW235124   1.140   0.922   2.365  1.6698 -1.3567  0.8133
 7830SOL     OW35125   0.769   2.476   3.947  0.1791 -0.1060  0.0556
 7830SOL    HW135126   0.772   2.548   3.884 -0.0465  1.0619  1.3698
 7830SOL    HW235127   0.825   2.406   3.914  0.4347 -0.7239  1.7753
 7831SOL     OW35128   3.079   1.911  16.453  0.1163 -0.3586  0.2437
 7831SOL    HW135129   3.133   1.859  16.513 -0.3010  0.8264  1.6542
 7831SOL    HW235130   3.094   1.867  16.370 -2.7799 -2.1484  0.6467
 7832SOL     OW35131   2.090   3.564   3.847 -0.2651  0.1386  0.1148
 7832SOL    HW135132   2.062   3.633   3.787 -1.7855 -0.8971 -0.3740
 7832SOL    HW235133   2.184   3.556   3.832 -0.2817 -0.4925  0.3364
 7833SOL     OW35134   0.664   0.986   1.966  0.0449  0.6942 -0.3097
 7833SOL    HW135135   0.715   1.017   1.891  1.9343  0.0702  0.7161
 7833SOL    HW235136   0.744   0.970   2.016  0.0129 -0.5642 -0.6800
 7834SOL     OW35137   3.994   3.244   5.674  0.0878  0.1106  0.6093
 7834SOL    HW135138   4.045   3.200   5.606 -1.1065  1.9374 -1.4658
 7834SOL    HW235139   4.012   3.334   5.646  0.2407 -0.0918  0.0725
 7835SOL     OW35140   3.415   2.882  10.535  0.7608 -0.2981  0.3581
 7835SOL    HW135141   3.355   2.918  10.469  1.9138  0.6162 -0.1869
 7835SOL    HW235142   3.459   2.820  10.478 -0.9540 -1.1769 -0.0029
 7836SOL     OW35143   2.556   1.558   7.422 -0.5606 -0.1888  0.4739
 7836SOL    HW135144   2.489   1.577   7.356  0.3775  2.5983  0.3225
 7836SOL    HW235145   2.570   1.645   7.460 -1.2295  0.0164  0.2668
 7837SOL     OW35146   0.371   2.591   3.526  0.2831 -0.0640 -0.2368
 7837SOL    HW135147   0.287   2.579   3.482 -0.7762 -2.8391  2.5163
 7837SOL    HW235148   0.344   2.596   3.618  1.9031  0.0521  0.2406
 7838SOL     OW35149   0.679   1.918   4.030 -0.4554  0.5773 -0.4602
 7838SOL    HW135150   0.760   1.869   4.040 -0.7748 -0.2271 -1.8937
 7838SOL    HW235151   0.612   1.849   4.033 -0.2333  0.4026  0.4194
 7839SOL     OW35152   0.632   0.476   2.386 -0.0427  0.4553  0.5133
 7839SOL    HW135153   0.627   0.395   2.336 -2.2831  2.3191 -2.2905
 7839SOL    HW235154   0.540   0.500   2.380 -0.6078 -1.6732  0.7015
 7840SOL     OW35155   2.473   0.074   5.230 -0.3220  0.2688  0.2737
 7840SOL    HW135156   2.423   0.100   5.307  1.8844 -1.6704  2.3632
 7840SOL    HW235157   2.403   0.061   5.167 -0.7602  1.1559  0.5707
 7841SOL     OW35158   0.815   2.666  11.145 -0.2115 -0.3995  0.3222
 7841SOL    HW135159   0.768   2.700  11.069  1.8750  1.6951 -0.0187
 7841SOL    HW235160   0.899   2.701  11.116  0.7271 -2.0835  1.0216
 7842SOL     OW35161   2.301   4.473   1.178 -0.2274 -0.6158  0.0163
 7842SOL    HW135162   2.284   4.518   1.096  0.1865  3.2069  2.0480
 7842SOL    HW235163   2.213   4.481   1.217  0.1301  2.5177  0.1287
 7843SOL     OW35164   0.545   0.102  14.708  0.1534 -0.6157  0.1531
 7843SOL    HW135165   0.462   0.135  14.673  0.6033  1.4374  1.0318
 7843SOL    HW235166   0.598   0.181  14.702  0.3295 -0.7189  0.3742
 7844SOL     OW35167   3.292   3.926   1.344  0.3577  0.2554  0.0469
 7844SOL    HW135168   3.307   4.021   1.342 -1.0745  0.4113 -3.9439
 7844SOL    HW235169   3.379   3.892   1.323 -1.0857 -2.2601 -1.8779
 7845SOL     OW35170   0.106   4.176   0.318  0.1729  0.1130  0.3622
 7845SOL    HW135171   0.041   4.113   0.348  0.6483 -0.5940 -0.0625
 7845SOL    HW235172   0.133   4.137   0.234 -0.3908  4.0113 -1.6013
 7846SOL     OW35173   3.116   4.419  16.665 -0.9540  0.4352 -0.0172
 7846SOL    HW135174   3.088   4.475  16.593 -0.4014 -0.4769 -0.9471
 7846SOL    HW235175   3.058   4.345  16.650  1.7308 -1.8360  0.6241
 7847SOL     OW35176   1.841   2.838   0.542  0.1567 -0.1392 -0.8763
 7847SOL    HW135177   1.820   2.772   0.475  1.3561  0.7834 -2.1843
 7847SOL    HW235178   1.930   2.810   0.564 -0.0046 -0.3690 -0.5341
 7848SOL     OW35179   4.029   3.396   7.315  0.0769 -0.9107 -0.4401
 7848SOL    HW135180   3.937   3.370   7.327  0.4979 -0.7180  3.1349
 7848SOL    HW235181   4.043   3.419   7.407  1.5014 -0.5889 -0.7508
 7849SOL     OW35182   1.286   4.367   3.607 -0.0760  0.3474  0.0639
 7849SOL    HW135183   1.363   4.321   3.573 -2.4630 -2.3816 -1.6020
 7849SOL    HW235184   1.235   4.304   3.658  2.7301 -2.1055 -0.1614
 7850SOL     OW35185   3.365   1.341   1.423  0.4495 -0.4607 -0.4369
 7850SOL    HW135186   3.275   1.331   1.392  0.4221  1.7928 -1.1087
 7850SOL    HW235187   3.349   1.336   1.517 -0.9088 -0.0830 -0.6506
 7851SOL     OW35188   1.949   0.485   6.325 -0.4975 -0.5054  0.5208
 7851SOL    HW135189   1.860   0.514   6.346 -0.5907  0.6670 -1.4730
 7851SOL    HW235190   2.004   0.551   6.367  0.6197  0.2617 -2.1507
 7852SOL     OW35191   1.761   2.312   3.655 -0.1122 -0.0026 -0.0706
 7852SOL    HW135192   1.750   2.280   3.744  0.4984  3.3093  1.1881
 7852SOL    HW235193   1.828   2.379   3.667  1.8698 -1.9327 -0.2309
 7853SOL     OW35194   2.102   3.600  15.014 -0.1116  0.2707 -0.3298
 7853SOL    HW135195   2.011   3.572  15.021  0.3117 -0.3958  2.3255
 7853SOL    HW235196   2.134   3.577  14.927  0.1030  0.6117 -0.3404
 7854SOL     OW35197   1.009   0.156  11.681  0.3369  0.2732  0.3830
 7854SOL    HW135198   1.083   0.129  11.627 -0.7703  1.7347 -1.8721
 7854SOL    HW235199   1.036   0.237  11.724  2.7732  0.0637 -0.7539
 7855SOL     OW35200   0.750   2.846   2.101  0.5510 -0.5592  0.0158
 7855SOL    HW135201   0.805   2.910   2.055  0.8634 -1.6572 -1.1434
 7855SOL    HW235202   0.755   2.777   2.034 -0.7427  0.6236 -1.2905
 7856SOL     OW35203   0.135   3.510   4.799  0.5449 -0.3742  0.0533
 7856SOL    HW135204   0.096   3.498   4.885  0.6016  1.1018  0.2802
 7856SOL    HW235205   0.183   3.428   4.788 -1.7019 -1.5906 -0.6514
 7857SOL     OW35206   2.906   4.673   2.140 -1.0041  0.0789  0.2175
 7857SOL    HW135207   2.929   4.692   2.049 -2.3155  4.5758  0.8391
 7857SOL    HW235208   2.810   4.676   2.135 -0.8791  0.3498 -2.3192
 7858SOL     OW35209   1.757   2.319   7.001  0.6889 -0.2919 -0.3452
 7858SOL    HW135210   1.783   2.316   7.094 -1.0058  1.8269  0.2002
 7858SOL    HW235211   1.673   2.275   7.014  0.1265  0.0683 -2.8386
 7859SOL     OW35212   2.867   4.294  10.354 -0.1370  0.6431 -0.1839
 7859SOL    HW135213   2.836   4.204  10.358 -3.6821  1.9021  0.5057
 7859SOL    HW235214   2.961   4.281  10.346 -0.0717  0.7969  0.3271
 7860SOL     OW35215   2.419   3.439   2.133  0.8204  0.0837 -0.2563
 7860SOL    HW135216   2.324   3.436   2.142  0.7446  0.0404 -1.0426
 7860SOL    HW235217   2.426   3.394   2.049  0.5577 -1.7043  0.6662
 7861SOL     OW35218   0.393   4.447   0.271  0.0201 -0.1203 -0.3774
 7861SOL    HW135219   0.376   4.353   0.276  0.8313 -0.2961 -0.8715
 7861SOL    HW235220   0.385   4.473   0.180 -1.8296  1.1382  0.1440
 7862SOL     OW35221   0.436   0.608   6.991  0.3575 -0.3667  0.1694
 7862SOL    HW135222   0.469   0.686   7.035  1.5681 -0.3903 -0.6830
 7862SOL    HW235223   0.510   0.573   6.941  0.2217 -0.8886  0.3350
 7863SOL     OW35224   3.586   0.650  16.238 -0.5222  0.2336 -0.0115
 7863SOL    HW135225   3.521   0.643  16.167 -1.3424  2.1339  0.5278
 7863SOL    HW235226   3.595   0.562  16.273 -3.0645  0.5489  1.4910
 7864SOL     OW35227   0.054   3.257   6.316  0.5084 -0.1979  0.0005
 7864SOL    HW135228   0.017   3.170   6.300  0.7971 -0.1654 -0.8497
 7864SOL    HW235229   4.720   3.318   6.299  1.0092 -0.2091 -2.1207
 7865SOL     OW35230   3.692   1.120   1.213  0.3796  0.0531  0.5954
 7865SOL    HW135231   3.697   1.202   1.164 -0.9914 -1.1737 -1.6170
 7865SOL    HW235232   3.778   1.086   1.188 -0.7445 -1.6281 -1.0119
 7866SOL     OW35233   2.024   4.141  11.816  0.1114 -0.4928 -0.0228
 7866SOL    HW135234   1.943   4.186  11.839 -1.9340 -3.6165 -1.1671
 7866SOL    HW235235   2.036   4.202  11.743 -0.9894  1.6232  1.6009
 7867SOL     OW35236   0.004   3.065  16.118  0.0336  0.4630  0.2746
 7867SOL    HW135237   4.690   3.144  16.105  0.6897  1.1178  1.7140
 7867SOL    HW235238   4.684   3.015  16.176  0.3656 -0.3028 -0.0503
 7868SOL     OW35239   1.915   3.636   9.464 -0.0900  0.2208  0.5483
 7868SOL    HW135240   2.004   3.602   9.475 -0.1083  0.5113  1.5803
 7868SOL    HW235241   1.934   3.727   9.485 -1.6048  0.5451  0.5354
 7869SOL     OW35242   1.073   3.763  10.725  0.2329 -0.1641 -0.4624
 7869SOL    HW135243   1.145   3.760  10.663  1.1334 -0.3763  0.5983
 7869SOL    HW235244   1.040   3.851  10.705  2.9513  0.8648 -0.3399
 7870SOL     OW35245   2.105   0.899   4.900 -0.7002  0.5334 -0.1818
 7870SOL    HW135246   2.101   0.858   4.986 -1.7756  1.0983  0.0376
 7870SOL    HW235247   2.102   0.818   4.850 -0.9168  0.2328  0.3148
 7871SOL     OW35248   4.368   4.075   7.269  0.2764  0.3538  0.0860
 7871SOL    HW135249   4.403   4.071   7.358 -0.8441 -1.2811  0.4449
 7871SOL    HW235250   4.301   4.008   7.284 -1.6350  2.2772 -0.0077
 7872SOL     OW35251   3.839   3.636   4.257 -0.1629 -0.2977  0.5896
 7872SOL    HW135252   3.930   3.665   4.260 -0.4697  0.6591  0.7695
 7872SOL    HW235253   3.805   3.677   4.336 -1.2863 -0.3540  0.1459
 7873SOL     OW35254   3.924   3.120   4.538 -0.1101 -0.5009  0.0098
 7873SOL    HW135255   3.981   3.196   4.552 -0.6388 -0.4554  1.8826
 7873SOL    HW235256   3.921   3.067   4.617 -2.0160 -0.5604 -0.0969
 7874SOL     OW35257   1.263   0.906   8.532 -0.0290 -0.1122 -0.2422
 7874SOL    HW135258   1.344   0.917   8.582  0.1032 -1.6701 -0.1190
 7874SOL    HW235259   1.208   0.893   8.609 -1.5815  0.8153 -1.2100
 7875SOL     OW35260   0.254   3.353   7.179  0.0841 -0.0304 -0.4328
 7875SOL    HW135261   0.308   3.276   7.157  0.7590  0.2154  0.3536
 7875SOL    HW235262   0.313   3.426   7.159  1.5427 -1.0532  0.0905
 7876SOL     OW35263   2.283   0.525   9.042  0.4321 -0.1608  0.3550
 7876SOL    HW135264   2.245   0.447   9.081  0.7122 -0.9825 -1.0092
 7876SOL    HW235265   2.361   0.496   8.995  0.7337 -0.7477  1.2142
 7877SOL     OW35266   3.731   2.187  11.932 -0.0148 -0.1380 -0.1381
 7877SOL    HW135267   3.692   2.111  11.888  0.8283  0.3291 -1.6865
 7877SOL    HW235268   3.656   2.246  11.939 -0.6105 -0.7975 -0.9404
 7878SOL     OW35269   1.520   0.693  10.162 -0.2251  0.1602  0.2006
 7878SOL    HW135270   1.593   0.740  10.121 -0.6775  2.5732  2.1272
 7878SOL    HW235271   1.510   0.610  10.116 -1.1571  0.1634  0.3928
 7879SOL     OW35272   1.573   4.401   3.098  0.0990  0.0463  0.2412
 7879SOL    HW135273   1.593   4.382   3.189 -0.4467 -1.4793  0.0520
 7879SOL    HW235274   1.503   4.465   3.112  0.5679 -0.2170  3.7481
 7880SOL     OW35275   2.202   1.734   5.804 -0.2256  0.3631  0.3799
 7880SOL    HW135276   2.179   1.696   5.719  0.6385 -2.8661  1.6280
 7880SOL    HW235277   2.116   1.734   5.846 -0.3005  0.8207  0.2351
 7881SOL     OW35278   1.995   4.203   9.358 -0.1863  0.2643 -0.0461
 7881SOL    HW135279   1.968   4.161   9.276  0.0965 -0.8184  0.4171
 7881SOL    HW235280   2.016   4.291   9.329  1.7538 -0.1391  0.1396
 7882SOL     OW35281   0.231   1.713   9.773  0.3459 -0.2226  0.1940
 7882SOL    HW135282   0.179   1.655   9.718  2.2604 -1.4318 -0.3415
 7882SOL    HW235283   0.162   1.777   9.787 -0.0711  0.0878 -3.4403
 7883SOL     OW35284   4.424   1.050   8.408 -0.3812  0.2759  0.3236
 7883SOL    HW135285   4.462   0.972   8.447  2.4287  1.4740 -0.0006
 7883SOL    HW235286   4.409   1.109   8.482 -2.6574 -0.6944  0.6472
 7884SOL     OW35287   1.796   4.152   8.605 -0.2642 -0.4063 -0.0533
 7884SOL    HW135288   1.848   4.219   8.561 -1.7404  0.6023 -0.2601
 7884SOL    HW235289   1.772   4.197   8.686 -0.7612  0.5111 -0.7130
 7885SOL     OW35290   4.166   3.342   0.142  0.1750  0.2926 -0.6080
 7885SOL    HW135291   4.086   3.296   0.167 -0.7945  2.3609  0.0203
 7885SOL    HW235292   4.139   3.433   0.152  0.6968  0.0755  2.6963
 7886SOL     OW35293   3.069   3.752   3.263  0.3239  0.6438 -0.9381
 7886SOL    HW135294   2.988   3.786   3.224 -1.6730 -0.6218  2.1467
 7886SOL    HW235295   3.056   3.658   3.256 -1.5675  0.9190 -1.1318
 7887SOL     OW35296   2.521   4.662   5.826  0.2888  0.8462  0.1215
 7887SOL    HW135297   2.464   4.602   5.778 -1.1737  0.7143  2.0341
 7887SOL    HW235298   2.573   4.708   5.760  0.9377  1.3233  0.9624
 7888SOL     OW35299   0.858   1.268   0.815 -0.0281  0.1094 -0.0534
 7888SOL    HW135300   0.831   1.184   0.851  0.7838 -1.5490 -3.2429
 7888SOL    HW235301   0.860   1.251   0.720 -0.4481  0.0665 -0.0548
 7889SOL     OW35302   1.418   4.574  15.040  0.0250  0.2736  0.4821
 7889SOL    HW135303   1.422   4.661  15.000 -0.6213 -0.5666 -1.4231
 7889SOL    HW235304   1.401   4.513  14.968 -4.5407  1.2291  0.8138
 7890SOL     OW35305   3.801   2.669  11.096 -0.0437  0.1076  0.1263
 7890SOL    HW135306   3.847   2.749  11.073 -0.6203  0.5096  0.3801
 7890SOL    HW235307   3.715   2.688  11.059  0.1333 -0.0495 -0.3587
 7891SOL     OW35308   1.494   3.086   4.618  0.4770  0.3234  0.1010
 7891SOL    HW135309   1.556   3.028   4.573  1.3681  0.8188  0.6727
 7891SOL    HW235310   1.462   3.030   4.688 -0.2401 -0.4298 -0.8266
 7892SOL     OW35311   2.878   2.383   3.124 -0.2480 -0.1944  0.2919
 7892SOL    HW135312   2.877   2.327   3.047 -1.2863  1.9007 -1.2200
 7892SOL    HW235313   2.850   2.468   3.090 -0.7331 -0.6576 -0.4555
 7893SOL     OW35314   3.413   2.529  12.470 -0.4880 -0.5703 -0.0504
 7893SOL    HW135315   3.486   2.579  12.506  0.4126 -1.1379 -1.0846
 7893SOL    HW235316   3.461   2.457  12.428  0.7139 -0.1712  0.6446
 7894SOL     OW35317   1.080   2.694   8.422 -0.2364  0.0657 -0.4210
 7894SOL    HW135318   0.986   2.688   8.407 -0.2932  1.0142 -0.4281
 7894SOL    HW235319   1.097   2.776   8.375  2.8141 -0.0285  0.4976
 7895SOL     OW35320   3.479   1.762   7.131  0.5290  0.5481 -1.0036
 7895SOL    HW135321   3.554   1.708   7.105  1.2251  0.9273  0.2361
 7895SOL    HW235322   3.488   1.844   7.083  2.2167  0.9567  0.0206
 7896SOL     OW35323   1.722   2.410   0.186  0.3953 -0.7040 -0.2044
 7896SOL    HW135324   1.788   2.347   0.216  0.2321 -0.6658  0.2218
 7896SOL    HW235325   1.652   2.396   0.249  0.5996 -0.5948  0.0471
 7897SOL     OW35326   4.617   0.481  12.790  0.4632 -0.5205 -0.3783
 7897SOL    HW135327   4.648   0.466  12.701  2.4267  1.0880  0.0364
 7897SOL    HW235328   4.688   0.528  12.835 -0.7483  0.7106  0.2627
 7898SOL     OW35329   3.693   4.397   9.539  0.5998  0.2829  0.0913
 7898SOL    HW135330   3.783   4.418   9.513  1.4838  0.0869  2.9965
 7898SOL    HW235331   3.668   4.486   9.563  1.2253 -0.1534  2.3168
 7899SOL     OW35332   3.910   2.162   2.574  0.0283 -0.4391  0.1689
 7899SOL    HW135333   3.921   2.218   2.497 -2.9941 -0.4037 -0.2432
 7899SOL    HW235334   3.868   2.090   2.527  0.8726 -0.9390  0.1854
 7900SOL     OW35335   2.994   4.244  12.631  0.0460  0.1259  0.1266
 7900SOL    HW135336   2.941   4.242  12.710  1.1769 -0.7514  0.8651
 7900SOL    HW235337   3.082   4.235  12.668 -0.5353 -2.8851  0.7822
 7901SOL     OW35338   0.820   2.750   4.686  0.3314 -0.0149 -0.2734
 7901SOL    HW135339   0.740   2.745   4.634 -1.3331 -0.5933  2.3376
 7901SOL    HW235340   0.860   2.822   4.637  0.1675  1.1481  1.2872
 7902SOL     OW35341   0.090   0.621  15.750 -0.5521  0.0214 -0.7735
 7902SOL    HW135342   0.019   0.654  15.805 -0.5875 -2.6118  0.7517
 7902SOL    HW235343   0.066   0.529  15.748  1.2699 -0.3936 -3.7752
 7903SOL     OW35344   4.384   0.514   1.701  0.6441 -0.5314 -0.0631
 7903SOL    HW135345   4.379   0.429   1.657  4.4076 -1.6404  1.6289
 7903SOL    HW235346   4.357   0.485   1.788 -0.7292 -0.1325 -0.3640
 7904SOL     OW35347   2.554   0.701   3.364 -0.1675 -0.7181 -0.1912
 7904SOL    HW135348   2.580   0.713   3.273  1.5317  0.2538  0.4234
 7904SOL    HW235349   2.487   0.769   3.371 -0.2803 -0.7294 -1.0752
 7905SOL     OW35350   0.322   1.283   7.818 -0.2655 -0.0658  0.0200
 7905SOL    HW135351   0.233   1.271   7.850 -0.5123  3.4203  0.6946
 7905SOL    HW235352   0.362   1.202   7.850 -1.4261  0.2527  2.3024
 7906SOL     OW35353   0.945   0.719   1.462  0.0587 -0.4601  0.4006
 7906SOL    HW135354   0.881   0.649   1.477 -3.2789  1.8152 -3.3601
 7906SOL    HW235355   0.907   0.804   1.484  1.9923  0.3892  0.4354
 7907SOL     OW35356   1.789   0.660   3.957  0.2400  0.4454 -0.2565
 7907SOL    HW135357   1.828   0.747   3.948  1.7038 -0.3387 -1.3790
 7907SOL    HW235358   1.716   0.677   3.897 -0.1009  1.2143  0.3648
 7908SOL     OW35359   2.357   2.248   1.673 -0.4098 -0.0680 -0.1224
 7908SOL    HW135360   2.340   2.312   1.604 -1.1468 -2.8608 -2.5122
 7908SOL    HW235361   2.420   2.196   1.624  1.9191  1.4758  1.2000
 7909SOL     OW35362   2.039   0.119  16.355 -0.3814  0.1628  0.2327
 7909SOL    HW135363   2.111   0.146  16.412 -1.5944 -0.0510  1.8643
 7909SOL    HW235364   1.967   0.159  16.404  0.1562  2.5227 -0.8689
 7910SOL     OW35365   3.005   4.097   1.428 -0.2399 -0.1075 -0.0994
 7910SOL    HW135366   3.097   4.101   1.453 -0.6209  0.2393  1.2961
 7910SOL    HW235367   2.968   4.120   1.514 -0.1609  0.1686 -0.1420
 7911SOL     OW35368   1.354   2.430   6.090 -0.2229 -0.6034 -0.0277
 7911SOL    HW135369   1.334   2.371   6.017  1.3585 -0.8470 -0.2679
 7911SOL    HW235370   1.274   2.482   6.083  0.7502  0.5074 -2.8076
 7912SOL     OW35371   3.126   3.133  13.782 -0.2239  0.2049  0.4501
 7912SOL    HW135372   3.174   3.057  13.816 -0.6965 -0.3016 -0.0158
 7912SOL    HW235373   3.155   3.152  13.692 -0.4551  1.5133  0.6559
 7913SOL     OW35374   4.063   2.312   7.981 -0.7615 -0.6732 -0.1692
 7913SOL    HW135375   4.078   2.402   8.009  0.7108 -0.6769 -0.9565
 7913SOL    HW235376   4.049   2.322   7.887  0.6183 -0.4214 -0.3453
 7914SOL     OW35377   2.819   2.455   4.806 -0.3455  0.0415  0.4859
 7914SOL    HW135378   2.725   2.439   4.819 -0.6049  0.2986 -1.0276
 7914SOL    HW235379   2.843   2.363   4.812 -1.9272 -0.5647 -2.0678
 7915SOL     OW35380   1.311   4.617   3.772 -0.0449 -0.0652 -0.1515
 7915SOL    HW135381   1.306   4.571   3.855  1.3649  0.9800  0.5026
 7915SOL    HW235382   1.286   4.549   3.709  0.0686 -1.1450  0.9648
 7916SOL     OW35383   3.606   0.801   0.376 -0.2427 -0.5173 -0.1743
 7916SOL    HW135384   3.535   0.738   0.389 -1.9026  1.3701 -0.0725
 7916SOL    HW235385   3.548   0.876   0.366  0.6919  0.0785 -1.0297
 7917SOL     OW35386   3.086   2.523   8.739  0.6748  0.4605  0.3428
 7917SOL    HW135387   3.086   2.476   8.656  2.9925  1.0539  0.0187
 7917SOL    HW235388   2.999   2.493   8.769  1.2857 -2.2094 -0.4903
 7918SOL     OW35389   4.211   1.873   1.099  0.1618  0.2822 -0.0532
 7918SOL    HW135390   4.272   1.942   1.126  0.7669  0.7283 -2.5508
 7918SOL    HW235391   4.138   1.923   1.065 -0.2887  0.0041  0.5100
 7919SOL     OW35392   4.022   4.585   7.719  0.3654 -0.3531  0.6350
 7919SOL    HW135393   4.037   4.676   7.741  0.3152 -0.6778  2.0048
 7919SOL    HW235394   3.939   4.569   7.765  0.0467 -1.2046 -0.2370
 7920SOL     OW35395   0.995   3.091   9.301  0.4261 -0.1905 -0.1010
 7920SOL    HW135396   0.910   3.092   9.257  0.4033  0.0436 -0.0540
 7920SOL    HW235397   1.021   3.005   9.268 -1.3079 -0.4611 -0.7567
 7921SOL     OW35398   2.510   0.451   5.870  0.5506  0.2101 -0.5200
 7921SOL    HW135399   2.431   0.469   5.819  0.1545 -0.3545 -0.1194
 7921SOL    HW235400   2.576   0.494   5.817  1.5701  0.3858  0.8840
 7922SOL     OW35401   2.316   0.811   8.733  0.2433 -0.4311 -0.5168
 7922SOL    HW135402   2.392   0.754   8.737  0.7387  0.2068 -0.7768
 7922SOL    HW235403   2.273   0.792   8.650  0.0952 -3.6998  0.3401
 7923SOL     OW35404   0.026   2.993   5.858  0.3333  0.0288  0.1906
 7923SOL    HW135405   0.111   3.019   5.895  0.6204 -0.4148 -0.1656
 7923SOL    HW235406   0.017   3.050   5.782  0.1886 -0.7877 -0.3995
 7924SOL     OW35407   4.681   0.985  12.196  0.1688 -0.1585 -0.2291
 7924SOL    HW135408   4.626   0.907  12.208 -1.1984  0.8539  0.0206
 7924SOL    HW235409   4.651   1.019  12.112  1.0192  0.0728 -0.4372
 7925SOL     OW35410   4.039   2.760   2.103 -0.2850 -0.0177 -0.7394
 7925SOL    HW135411   4.071   2.819   2.172  0.7186 -0.1929 -1.0524
 7925SOL    HW235412   4.063   2.815   2.028  0.3613 -0.0178 -0.5320
 7926SOL     OW35413   4.478   2.662   3.528  0.0872  0.5565 -0.2267
 7926SOL    HW135414   4.456   2.580   3.483 -1.5028  1.6418 -1.4521
 7926SOL    HW235415   4.441   2.731   3.472  1.3339  0.9687 -0.5275
 7927SOL     OW35416   0.984   4.700   6.813 -0.2515  0.5060  0.1642
 7927SOL    HW135417   0.909   4.681   6.869 -0.1376 -2.2171 -0.6142
 7927SOL    HW235418   1.020   0.030   6.869 -0.5250 -0.3373  1.3695
 7928SOL     OW35419   3.325   3.425   7.476 -0.6366  0.6426  0.1856
 7928SOL    HW135420   3.294   3.506   7.435 -2.0040  0.4913  0.8970
 7928SOL    HW235421   3.241   3.382   7.492  0.6657 -1.3241  1.8007
 7929SOL     OW35422   3.182   0.698   5.997  0.2133  0.1108 -0.1078
 7929SOL    HW135423   3.238   0.683   5.920  1.8287  0.4106  1.0168
 7929SOL    HW235424   3.234   0.651   6.061 -1.0109 -0.9180  0.1214
 7930SOL     OW35425   3.101   0.569  16.182 -0.6010  0.1464  0.0130
 7930SOL    HW135426   3.122   0.663  16.180 -0.5773  0.2142  3.2380
 7930SOL    HW235427   3.040   0.562  16.109  1.1889  1.3880 -1.5864
 7931SOL     OW35428   1.348   0.784   3.910 -0.2792 -0.1663 -0.2247
 7931SOL    HW135429   1.391   0.703   3.937 -1.0871 -0.5885 -0.2036
 7931SOL    HW235430   1.424   0.841   3.927  0.8357 -2.2746  1.8734
 7932SOL     OW35431   0.843   2.371   3.011  0.3508  0.0948  0.0822
 7932SOL    HW135432   0.914   2.359   2.948  0.7529 -0.8365  0.7116
 7932SOL    HW235433   0.782   2.433   2.970 -0.4497 -0.3585  0.5889
 7933SOL     OW35434   1.800   3.962   2.517  0.4211 -0.1682  0.6377
 7933SOL    HW135435   1.862   4.025   2.553  0.9957 -0.4813  0.1920
 7933SOL    HW235436   1.720   4.003   2.549 -0.3366 -1.4720  0.4141
 7934SOL     OW35437   1.911   1.055   4.659 -0.0783 -0.2944 -0.6927
 7934SOL    HW135438   1.865   1.130   4.698 -2.8014 -2.8184  1.0432
 7934SOL    HW235439   1.999   1.075   4.690  0.2183 -1.3944 -0.8456
 7935SOL     OW35440   3.889   0.136   8.377  0.3448  0.0871 -0.3488
 7935SOL    HW135441   3.848   0.183   8.305 -1.9942 -0.3693  0.6969
 7935SOL    HW235442   3.857   0.193   8.447  1.4500 -0.0022  0.2316
 7936SOL     OW35443   3.331   3.306  15.049  0.1017 -0.4447  0.1729
 7936SOL    HW135444   3.319   3.368  14.977  1.8944 -0.2663  0.0363
 7936SOL    HW235445   3.424   3.286  15.038 -0.3418 -2.7102  0.4399
 7937SOL     OW35446   1.309   3.033   7.026 -0.9947  0.5885  0.2163
 7937SOL    HW135447   1.386   3.014   6.973  0.7479 -0.0352  2.9518
 7937SOL    HW235448   1.289   2.951   7.073 -2.4750 -0.4605 -2.2654
 7938SOL     OW35449   2.412   3.003   3.228  0.1733 -0.1934  0.2825
 7938SOL    HW135450   2.433   3.086   3.270 -2.8608 -0.1734  1.8063
 7938SOL    HW235451   2.336   2.964   3.271  0.4542 -1.1515 -0.0999
 7939SOL     OW35452   2.456   2.543   6.559  0.2904 -0.1338  0.5051
 7939SOL    HW135453   2.451   2.493   6.641  0.9820  0.7150  1.0649
 7939SOL    HW235454   2.478   2.630   6.594 -2.7165  0.5302  0.7565
 7940SOL     OW35455   3.454   3.299   2.349  0.2045  0.4938  0.0506
 7940SOL    HW135456   3.424   3.386   2.373  0.7927  0.8321 -0.4483
 7940SOL    HW235457   3.547   3.311   2.331  0.1257 -0.5421 -1.0551
 7941SOL     OW35458   0.796   4.320   5.525  0.4209 -0.3439  0.2801
 7941SOL    HW135459   0.744   4.348   5.600 -2.1434  1.0703 -2.0554
 7941SOL    HW235460   0.730   4.332   5.457  1.7449 -0.1646 -0.9790
 7942SOL     OW35461   3.605   1.314   3.872 -0.5690 -0.0926  0.2202
 7942SOL    HW135462   3.561   1.275   3.796  3.3865 -0.0254 -2.1280
 7942SOL    HW235463   3.590   1.246   3.937  0.2040 -1.1690 -0.7186
 7943SOL     OW35464   0.698   1.759   5.675  0.4838  0.1685  0.2554
 7943SOL    HW135465   0.789   1.742   5.649  0.8405  0.3957  1.3448
 7943SOL    HW235466   0.662   1.670   5.685  0.2551  0.1658 -0.5549
 7944SOL     OW35467   4.737   3.291   8.517  0.4163 -0.2528 -0.5875
 7944SOL    HW135468   0.010   3.217   8.577  1.0303  2.9430  3.2726
 7944SOL    HW235469   0.025   3.357   8.582 -1.2304 -1.1209  0.9518
 7945SOL     OW35470   1.366   4.672   4.327 -0.2865  0.4371  0.2865
 7945SOL    HW135471   1.441   4.674   4.267  1.2030 -0.4766  2.1304
 7945SOL    HW235472   1.398   4.720   4.403  1.9668  1.4867 -1.3142
 7946SOL     OW35473   1.438   0.318  17.313 -0.0034  0.0954 -0.5387
 7946SOL    HW135474   1.442   0.402  17.359  2.9943 -0.4201  0.1356
 7946SOL    HW235475   1.534   0.308  17.317  0.0933  0.7545 -1.1173
 7947SOL     OW35476   2.331   4.615   6.713 -0.1062  0.2818 -0.1827
 7947SOL    HW135477   2.258   4.581   6.663 -1.2230  1.4991  0.6276
 7947SOL    HW235478   2.359   4.676   6.645  1.9927 -2.0961 -1.4602
 7948SOL     OW35479   0.244   2.400   6.433  0.2539  0.3045  0.3718
 7948SOL    HW135480   0.282   2.316   6.459 -1.3718 -0.8980 -1.1270
 7948SOL    HW235481   0.307   2.436   6.370  1.0871 -1.6781  0.0815
 7949SOL     OW35482   0.504   0.861   7.672 -0.2511 -0.7364  0.5174
 7949SOL    HW135483   0.443   0.847   7.599  1.5935 -2.3815 -0.7019
 7949SOL    HW235484   0.581   0.814   7.640  0.5663  2.0496 -1.5282
 7950SOL     OW35485   3.859   1.290   1.447  0.2549 -0.4189 -0.2135
 7950SOL    HW135486   3.800   1.223   1.413  0.4048 -0.1677 -0.9672
 7950SOL    HW235487   3.801   1.362   1.468 -2.2686 -2.5649  0.1533
 7951SOL     OW35488   0.947   2.206   4.793  0.1326  0.1521  0.1711
 7951SOL    HW135489   0.864   2.161   4.780  0.1625  0.3147 -0.5509
 7951SOL    HW235490   0.997   2.157   4.728 -1.9305 -1.7544  0.0186
 7952SOL     OW35491   1.349   0.708  16.780 -0.4749  0.0400  0.4134
 7952SOL    HW135492   1.315   0.759  16.854 -1.0790  1.4253 -0.8343
 7952SOL    HW235493   1.441   0.714  16.806 -0.3455  0.2346 -0.0901
 7953SOL     OW35494   4.604   3.354   7.633 -0.0643  0.7792  0.4688
 7953SOL    HW135495   4.607   3.327   7.725  0.4303 -2.8400 -0.6145
 7953SOL    HW235496   4.508   3.355   7.632 -0.0896 -0.7570  1.6400
 7954SOL     OW35497   0.658   0.053  10.017  0.0376 -0.1517 -0.3915
 7954SOL    HW135498   0.634   4.705   9.983 -1.2169  0.8544 -2.0376
 7954SOL    HW235499   0.667   0.023  10.108 -0.3633  2.9856  0.6784
 7955SOL     OW35500   3.943   0.084   8.870  0.3356  0.1229  0.5838
 7955SOL    HW135501   3.998   0.065   8.946  1.5526  1.5847  0.0728
 7955SOL    HW235502   4.012   0.073   8.804  1.4726 -2.1663  2.1404
 7956SOL     OW35503   2.860   2.075   1.950  0.2037  0.2816 -0.0462
 7956SOL    HW135504   2.830   2.165   1.933  1.7928  0.8416  0.0591
 7956SOL    HW235505   2.939   2.076   1.896  0.1604  0.7357 -0.1064
 7957SOL     OW35506   0.066   4.685   3.582  0.7826 -0.4441 -0.6157
 7957SOL    HW135507   0.115   4.730   3.651  1.4708 -1.2677 -0.5602
 7957SOL    HW235508   0.072   4.596   3.618 -1.6448 -1.1040 -1.8351
 7958SOL     OW35509   0.415   4.172   5.622 -0.2403  0.1011  0.0737
 7958SOL    HW135510   0.473   4.114   5.671  2.5726  2.3588 -0.5814
 7958SOL    HW235511   0.475   4.223   5.567 -1.6908  1.6107 -0.1139
 7959SOL     OW35512   1.627   3.729   0.531 -0.4431 -0.2468 -0.2299
 7959SOL    HW135513   1.633   3.699   0.622 -0.0901  1.0985  0.1941
 7959SOL    HW235514   1.535   3.755   0.523 -0.0222  0.6051 -2.3207
 7960SOL     OW35515   1.587   0.634  16.259  0.2181 -0.7763  0.2331
 7960SOL    HW135516   1.579   0.720  16.300  0.2957 -1.6811  2.1798
 7960SOL    HW235517   1.523   0.578  16.304 -1.1960  0.2475 -0.5171
 7961SOL     OW35518   1.771   3.783   5.211 -0.0524 -0.0118  0.7626
 7961SOL    HW135519   1.824   3.704   5.199 -1.5025 -0.9469  0.4828
 7961SOL    HW235520   1.705   3.765   5.144  1.0355  1.6949 -0.7718
 7962SOL     OW35521   3.388   1.606   0.033 -0.1038 -0.3566 -0.0955
 7962SOL    HW135522   3.426   1.674   0.087 -0.4714 -0.8516  0.7811
 7962SOL    HW235523   3.442   1.534   0.065  2.0662  0.9285 -0.8910
 7963SOL     OW35524   2.917   1.983   3.120  0.3492 -0.0775 -0.5061
 7963SOL    HW135525   3.008   2.011   3.124  0.9338 -2.2636  1.6444
 7963SOL    HW235526   2.877   2.049   3.177  1.1024  0.4291 -0.5714
 7964SOL     OW35527   3.763   1.175   6.149  0.1368  0.4719  0.1220
 7964SOL    HW135528   3.752   1.236   6.222 -1.0287 -0.4870  0.7555
 7964SOL    HW235529   3.826   1.113   6.186 -1.8468 -1.3184  0.5218
 7965SOL     OW35530   0.527   2.588   1.355 -0.4457 -0.3100  0.2522
 7965SOL    HW135531   0.620   2.587   1.375 -0.3525 -0.6986 -0.1982
 7965SOL    HW235532   0.525   2.575   1.260  0.7140 -3.3111  0.6311
 7966SOL     OW35533   3.133   2.740   8.428 -0.1805 -1.1080  0.2604
 7966SOL    HW135534   3.197   2.692   8.480 -0.4071 -0.9857  0.6615
 7966SOL    HW235535   3.107   2.681   8.358 -2.5434  0.8403 -0.5201
 7967SOL     OW35536   4.534   3.584   7.477  0.1558 -0.7023 -0.1181
 7967SOL    HW135537   4.589   3.586   7.399  0.8706 -1.2300  0.3688
 7967SOL    HW235538   4.560   3.496   7.506 -0.5708 -0.7106  0.4941
 7968SOL     OW35539   2.516   1.702   3.935 -0.1921  0.2582  0.0439
 7968SOL    HW135540   2.497   1.637   3.867  2.9776  1.9704 -2.4835
 7968SOL    HW235541   2.442   1.693   3.994  1.0908  0.3056  1.6453
 7969SOL     OW35542   1.849   3.560  15.417  0.3021  0.3637  0.2308
 7969SOL    HW135543   1.855   3.637  15.474  0.3552  1.1469 -0.8273
 7969SOL    HW235544   1.837   3.492  15.483  0.3478 -0.1992 -0.3467
 7970SOL     OW35545   2.080   3.624  11.174 -0.0942 -0.0591  0.0510
 7970SOL    HW135546   1.998   3.611  11.129  0.0741 -0.7314 -0.0569
 7970SOL    HW235547   2.051   3.621  11.265  0.3174  0.5185  0.2087
 7971SOL     OW35548   0.975   1.095  15.180  0.5810 -0.2100 -0.0102
 7971SOL    HW135549   0.906   1.103  15.245 -1.4792  0.1318 -2.2545
 7971SOL    HW235550   0.946   1.151  15.108  0.1177 -0.3349  0.0816
 7972SOL     OW35551   1.737   1.192   4.360  0.2561  0.4196 -0.1388
 7972SOL    HW135552   1.686   1.123   4.402  0.1170  0.1740 -0.7084
 7972SOL    HW235553   1.803   1.203   4.428 -0.3666  1.0790  0.3564
 7973SOL     OW35554   3.318   0.153   4.636 -0.0062  0.1403 -0.1868
 7973SOL    HW135555   3.411   0.172   4.628  0.0264 -0.4375 -1.0869
 7973SOL    HW235556   3.299   0.131   4.545  0.3933  0.5981 -0.3860
 7974SOL     OW35557   1.285   3.002   4.117  0.3127 -0.0422 -0.0521
 7974SOL    HW135558   1.315   2.912   4.108 -0.9952 -0.3408 -1.5169
 7974SOL    HW235559   1.208   3.004   4.059 -0.8736 -0.0905  1.5185
 7975SOL     OW35560   3.873   0.621   2.348 -0.2306  0.5262 -0.6443
 7975SOL    HW135561   3.896   0.534   2.315 -2.0235 -0.7199  1.4305
 7975SOL    HW235562   3.946   0.644   2.407 -0.2654 -1.7021  0.2479
 7976SOL     OW35563   1.216   4.278   8.029  0.3850  0.2342 -0.8282
 7976SOL    HW135564   1.233   4.242   8.116 -2.4383 -2.3250 -1.3072
 7976SOL    HW235565   1.295   4.253   7.981  0.8969  0.5345 -0.1481
 7977SOL     OW35566   0.282   0.143   8.977  0.2445  0.3605 -0.4830
 7977SOL    HW135567   0.214   0.190   8.929 -0.7786  2.6371  3.2386
 7977SOL    HW235568   0.330   0.121   8.897 -1.3188 -2.4414 -0.6366
 7978SOL     OW35569   3.991   4.179   5.407  0.1238  0.1805 -0.0403
 7978SOL    HW135570   3.972   4.194   5.315  0.7630 -0.9178 -0.3584
 7978SOL    HW235571   4.045   4.100   5.397  0.4083  0.5013 -1.0307
 7979SOL     OW35572   2.439   2.110  16.486 -0.6777  1.2755  0.3549
 7979SOL    HW135573   2.462   2.097  16.394 -1.9051 -1.2837  0.3974
 7979SOL    HW235574   2.497   2.179  16.517  0.1412  0.5160  0.5054
 7980SOL     OW35575   1.543   2.039   4.228 -0.8563  0.4793 -0.2247
 7980SOL    HW135576   1.636   2.054   4.245 -0.6384  0.4728 -1.3592
 7980SOL    HW235577   1.502   2.124   4.245  0.1139  1.1540 -1.2159
 7981SOL     OW35578   0.587   3.601   9.616  0.2425 -0.4197 -0.1957
 7981SOL    HW135579   0.540   3.628   9.694  2.8423 -1.1273  1.6228
 7981SOL    HW235580   0.658   3.663   9.632  0.0144  0.0423 -0.9587
 7982SOL     OW35581   1.194   1.033  10.870  0.0783  0.1448 -0.2093
 7982SOL    HW135582   1.138   1.109  10.851 -0.0286 -0.0925 -0.8488
 7982SOL    HW235583   1.248   1.028  10.792  0.2188 -0.6056 -0.0668
 7983SOL     OW35584   2.520   4.419   4.609  0.1187  0.1481 -0.5345
 7983SOL    HW135585   2.431   4.412   4.573 -0.6005  0.9231  1.1193
 7983SOL    HW235586   2.569   4.463   4.540  0.4610  1.4987  0.5894
 7984SOL     OW35587   1.970   3.964  16.492  0.1455 -0.1503 -0.8753
 7984SOL    HW135588   1.925   3.898  16.545 -0.9670  0.1481 -1.4410
 7984SOL    HW235589   1.893   3.981  16.437  0.7339 -0.1907 -1.7121
 7985SOL     OW35590   3.004   3.385  13.664  0.3211  0.4415  0.3992
 7985SOL    HW135591   3.027   3.323  13.733 -0.8971  1.7078  1.9365
 7985SOL    HW235592   3.034   3.336  13.587  0.7695  2.4270 -0.6760
 7986SOL     OW35593   3.466   0.446   7.567  0.2073  0.1251  0.2529
 7986SOL    HW135594   3.389   0.419   7.617 -0.4222  2.1938  0.3904
 7986SOL    HW235595   3.509   0.504   7.630  3.1241 -0.7731 -0.8952
 7987SOL     OW35596   2.561   1.600   2.065  0.5826  0.0834  0.5562
 7987SOL    HW135597   2.621   1.526   2.077  1.4236  0.0977 -3.5930
 7987SOL    HW235598   2.578   1.638   1.979 -2.5660 -0.4066 -0.2555
 7988SOL     OW35599   2.628   0.674   9.084  0.8634 -0.3543 -0.5254
 7988SOL    HW135600   2.683   0.752   9.082 -0.8359  0.9039  2.3947
 7988SOL    HW235601   2.625   0.655   8.990  2.0648  1.0503 -0.8559
 7989SOL     OW35602   2.962   4.464  14.911 -0.1147 -0.0221  0.6060
 7989SOL    HW135603   2.941   4.549  14.873 -0.9620 -0.8959 -0.8727
 7989SOL    HW235604   2.878   4.422  14.893 -0.2438  0.6792 -0.4463
 7990SOL     OW35605   1.629   0.923  16.452  0.1942 -0.3154  0.1932
 7990SOL    HW135606   1.545   0.957  16.421 -1.1029 -1.9634  1.9117
 7990SOL    HW235607   1.616   0.931  16.547  0.8636  0.5753  0.2138
 7991SOL     OW35608   2.955   1.367   1.526  0.0518  0.2463 -0.1822
 7991SOL    HW135609   2.872   1.347   1.569  0.3011 -0.3509  0.0179
 7991SOL    HW235610   2.987   1.436   1.585 -0.2305  0.7261 -0.5854
 7992SOL     OW35611   0.925   2.687  12.762  0.1349  0.3393  0.5194
 7992SOL    HW135612   0.957   2.665  12.850 -1.8638  0.0903  1.2059
 7992SOL    HW235613   0.831   2.669  12.760 -0.4540  3.0028  2.8444
 7993SOL     OW35614   0.530   0.295  10.076 -0.0957  0.3122 -0.0137
 7993SOL    HW135615   0.438   0.268  10.075  0.2885 -0.9735 -0.4871
 7993SOL    HW235616   0.585   0.218  10.064 -1.2375 -0.3637 -0.8842
 7994SOL     OW35617   4.695   3.487   3.865 -0.0812  0.4721 -0.1611
 7994SOL    HW135618   0.023   3.428   3.829  0.8962  2.5449 -1.7416
 7994SOL    HW235619   0.006   3.538   3.929  0.0928  0.9218 -0.6490
 7995SOL     OW35620   2.184   0.244   9.011 -0.1068 -0.3018 -0.1330
 7995SOL    HW135621   2.258   0.187   9.031  0.5590  0.2321 -1.0664
 7995SOL    HW235622   2.111   0.184   9.024 -0.7578  0.0762 -1.9730
 7996SOL     OW35623   0.882   4.184   4.008  0.0536  0.4418 -0.0754
 7996SOL    HW135624   0.907   4.213   4.095  0.6499 -1.1774  0.2939
 7996SOL    HW235625   0.853   4.267   3.970  2.4797  1.0957 -0.4915
 7997SOL     OW35626   1.625   1.267   3.562  0.2274 -0.1902 -0.1470
 7997SOL    HW135627   1.677   1.195   3.598  1.6702  1.0658  0.3124
 7997SOL    HW235628   1.678   1.342   3.591 -0.2386  1.3176 -3.2127
 7998SOL     OW35629   1.092   1.946  12.697  0.2015 -0.1622 -0.0456
 7998SOL    HW135630   1.125   2.036  12.689 -0.2191  0.0885  1.0387
 7998SOL    HW235631   1.016   1.962  12.753 -0.4926 -0.9025 -0.7828
 7999SOL     OW35632   2.471   4.094   3.679 -0.0839 -0.1744 -0.6250
 7999SOL    HW135633   2.418   4.040   3.738 -0.0828  0.0149 -0.4540
 7999SOL    HW235634   2.416   4.116   3.604 -1.8029 -0.3600  0.5810
 8000SOL     OW35635   1.235   0.708  12.055  0.0051  0.0781  1.2238
 8000SOL    HW135636   1.327   0.692  12.073  0.5634  0.3625 -1.2809
 8000SOL    HW235637   1.234   0.687  11.961  0.2627  0.4959  1.1257
 8001SOL     OW35638   2.505   1.784   3.648  0.5149  0.2179  0.1279
 8001SOL    HW135639   2.530   1.692   3.647 -0.0088  0.0996 -1.2045
 8001SOL    HW235640   2.580   1.825   3.604  1.2751 -0.1823  1.0498
 8002SOL     OW35641   2.908   3.867   3.527  0.2784  0.1209 -0.2952
 8002SOL    HW135642   2.994   3.902   3.501  0.0363  0.4804 -0.6217
 8002SOL    HW235643   2.848   3.934   3.496 -0.1344 -0.4757 -0.7757
 8003SOL     OW35644   2.688   4.692  11.932  0.2123 -0.2994  0.4689
 8003SOL    HW135645   2.718   4.624  11.872  0.7624  2.1407 -2.0657
 8003SOL    HW235646   2.764   0.010  11.918 -0.4110  0.2249 -0.8876
 8004SOL     OW35647   1.630   3.251   7.643 -0.7566 -0.2587 -0.3611
 8004SOL    HW135648   1.557   3.282   7.590 -1.3195 -2.2678 -0.7464
 8004SOL    HW235649   1.629   3.156   7.635  0.5578 -0.3214  0.1247
 8005SOL     OW35650   2.428   1.337   7.550  0.0418  0.5157  0.3137
 8005SOL    HW135651   2.341   1.375   7.535 -0.2203 -0.7576 -1.4466
 8005SOL    HW235652   2.481   1.408   7.513  0.5938  1.4050  2.8223
 8006SOL     OW35653   1.596   3.840  12.173  0.6247 -0.0771  0.3618
 8006SOL    HW135654   1.669   3.864  12.116 -0.8280 -0.3336 -1.6243
 8006SOL    HW235655   1.620   3.751  12.200 -1.5989 -0.3008  1.6278
 8007SOL     OW35656   3.720   2.537   3.965 -0.1253 -0.6391  0.3794
 8007SOL    HW135657   3.718   2.451   4.007  1.5824 -0.6295  0.4801
 8007SOL    HW235658   3.813   2.555   3.980 -0.2085  2.8592 -3.2430
 8008SOL     OW35659   3.353   0.008   4.118 -0.1725 -0.1153  0.7112
 8008SOL    HW135660   3.300   4.676   4.157  0.0534 -0.2411  0.7894
 8008SOL    HW235661   3.336   4.738   4.024  2.1776 -1.8732  0.4603
 8009SOL     OW35662   2.103   2.258   3.689 -0.3179 -0.0242  0.1718
 8009SOL    HW135663   2.127   2.214   3.770 -1.8358 -2.5524 -0.7549
 8009SOL    HW235664   2.040   2.324   3.719 -0.0567 -0.0381  0.7392
 8010SOL     OW35665   2.848   3.514   8.349  0.0703 -0.0126 -0.2813
 8010SOL    HW135666   2.759   3.531   8.319 -0.4749 -0.8158  0.8760
 8010SOL    HW235667   2.841   3.425   8.382 -4.0616  0.1526 -0.7658
 8011SOL     OW35668   2.921   4.162   4.360 -1.1103  0.3040 -0.3763
 8011SOL    HW135669   2.841   4.130   4.318 -0.1873 -0.2953 -1.6752
 8011SOL    HW235670   2.894   4.144   4.451 -0.2712 -2.0163 -0.5897
 8012SOL     OW35671   1.277   4.402   4.306  0.6816 -0.0169  0.2455
 8012SOL    HW135672   1.248   4.368   4.391 -0.5241 -1.5129 -0.7781
 8012SOL    HW235673   1.289   4.495   4.327  1.8494 -0.6182  2.2202
 8013SOL     OW35674   0.751   0.368   4.758 -0.0073  0.1135 -0.0456
 8013SOL    HW135675   0.707   0.284   4.768  0.7565 -0.3249 -0.4596
 8013SOL    HW235676   0.706   0.420   4.825  1.1723 -0.4222  1.1731
 8014SOL     OW35677   0.630   3.620   4.431 -0.5509 -0.1264 -0.5601
 8014SOL    HW135678   0.607   3.548   4.490 -2.5132  1.9605  1.2527
 8014SOL    HW235679   0.722   3.598   4.418 -0.7264 -1.2132  0.0055
 8015SOL     OW35680   2.369   0.257   1.223  0.4464 -0.4053 -0.2616
 8015SOL    HW135681   2.312   0.262   1.146  2.0131  0.5551 -1.3540
 8015SOL    HW235682   2.315   0.294   1.292 -0.5005 -2.0801 -0.1120
 8016SOL     OW35683   2.209   3.736  12.034  0.0015 -0.9981 -0.0496
 8016SOL    HW135684   2.224   3.828  12.013 -3.1550 -0.2291  1.0899
 8016SOL    HW235685   2.277   3.711  12.097 -0.8921  1.0082  1.7113
 8017SOL     OW35686   2.462   4.315   8.162  0.3442 -0.4081  0.2096
 8017SOL    HW135687   2.382   4.264   8.175  0.0850 -0.2068 -0.5781
 8017SOL    HW235688   2.452   4.331   8.068 -0.9821  2.7877  0.9150
 8018SOL     OW35689   3.268   4.134  12.474  0.1857  0.2003 -0.0113
 8018SOL    HW135690   3.268   4.068  12.543 -1.6079 -0.1395 -0.3550
 8018SOL    HW235691   3.354   4.105  12.443  0.2961  1.6557 -1.0460
 8019SOL     OW35692   4.129   0.435   5.090  0.2863 -0.1126 -0.0228
 8019SOL    HW135693   4.140   0.402   5.001 -0.1172 -3.1306  1.0365
 8019SOL    HW235694   4.194   0.505   5.094 -0.1244  0.3204 -0.8990
 8020SOL     OW35695   1.636   0.607   4.414  0.3719  0.3691  0.0166
 8020SOL    HW135696   1.608   0.536   4.356  1.4727  1.7039 -2.1590
 8020SOL    HW235697   1.596   0.588   4.499 -1.5214  1.7266 -0.5680
 8021SOL     OW35698   4.238   0.041   5.980 -0.6011 -0.2788 -0.0415
 8021SOL    HW135699   4.163   4.721   5.973 -0.5206 -0.2634 -0.9547
 8021SOL    HW235700   4.230   0.087   5.897  0.2062  1.8268  1.0353
 8022SOL     OW35701   0.990   0.320   2.065  0.4738 -0.2263  0.1536
 8022SOL    HW135702   0.979   0.253   2.133 -3.2666  1.0801  0.8022
 8022SOL    HW235703   1.055   0.273   2.012 -0.8412 -2.4853  0.5077
 8023SOL     OW35704   4.018   2.526   4.216  0.2639  0.2246 -0.0852
 8023SOL    HW135705   3.973   2.597   4.260 -0.1410  1.4241 -2.4497
 8023SOL    HW235706   4.005   2.451   4.274 -1.5289  0.0086 -0.7722
 8024SOL     OW35707   2.607   3.615   3.904  0.0784  0.5704  0.3390
 8024SOL    HW135708   2.653   3.683   3.854  0.7873 -1.2645 -1.4547
 8024SOL    HW235709   2.669   3.588   3.972  0.7681  0.6556 -0.2536
 8025SOL     OW35710   4.157   2.359  14.572 -0.0321 -0.0705 -0.5256
 8025SOL    HW135711   4.198   2.433  14.526  1.8770 -0.1969  0.9775
 8025SOL    HW235712   4.144   2.298  14.500 -0.0435 -0.1291 -0.4741
 8026SOL     OW35713   2.217   3.561   2.574  0.2117 -0.0238 -0.7871
 8026SOL    HW135714   2.274   3.605   2.511  1.8353 -0.4875  0.3604
 8026SOL    HW235715   2.158   3.507   2.521  0.2921 -0.6617 -0.2343
 8027SOL     OW35716   1.453   0.325  12.090  0.4567  0.4170  0.4598
 8027SOL    HW135717   1.377   0.347  12.143  0.1910  2.2173 -0.6795
 8027SOL    HW235718   1.509   0.284  12.156  1.1849  1.3758  0.4297
 8028SOL     OW35719   2.648   1.856   3.123 -0.5198 -0.1811 -0.4055
 8028SOL    HW135720   2.743   1.869   3.128 -0.5805 -0.3575  1.0442
 8028SOL    HW235721   2.639   1.811   3.039  0.6189 -0.4795 -0.3675
 8029SOL     OW35722   0.102   3.773  15.327 -0.5857  0.2692  0.4012
 8029SOL    HW135723   0.101   3.859  15.286 -1.1876  0.6243  1.1719
 8029SOL    HW235724   0.104   3.720  15.247 -1.4769  2.0091 -0.7578
 8030SOL     OW35725   1.068   3.556  10.944 -0.2036 -0.3220 -0.4737
 8030SOL    HW135726   1.134   3.496  10.908 -0.6314  0.1254 -1.9845
 8030SOL    HW235727   1.033   3.614  10.877  0.6785  1.5003  0.6602
 8031SOL     OW35728   1.025   4.360   4.185 -0.0982  0.6195  0.0207
 8031SOL    HW135729   1.111   4.356   4.226  0.5461  0.7978 -1.3287
 8031SOL    HW235730   1.044   4.442   4.138 -0.0864  0.0082 -1.0489
 8032SOL     OW35731   0.668   2.525   2.836 -0.9698 -0.3994  0.2610
 8032SOL    HW135732   0.638   2.606   2.794 -2.2612 -0.6463  0.6950
 8032SOL    HW235733   0.591   2.468   2.836 -0.4919 -1.0399  1.7990
 8033SOL     OW35734   0.863   4.025  17.611 -0.4932 -0.1407  0.7011
 8033SOL    HW135735   0.853   4.089  17.540  2.5075 -0.2712  0.1833
 8033SOL    HW235736   0.879   4.084  17.684 -0.9320  1.4521 -0.4860
 8034SOL     OW35737   0.860   3.438   4.396 -0.4198  0.0900  0.4740
 8034SOL    HW135738   0.927   3.435   4.465  0.7279  1.3592 -0.5605
 8034SOL    HW235739   0.890   3.354   4.361  0.4712  1.8440 -2.9284
 8035SOL     OW35740   0.085   1.182  15.525 -0.1886 -0.4875  0.3405
 8035SOL    HW135741   0.139   1.221  15.457 -1.7275 -0.1673 -0.7034
 8035SOL    HW235742   0.005   1.234  15.535  0.2463 -0.0073  1.3315
 8036SOL     OW35743   2.038   0.719  10.783 -0.2316 -0.1911 -0.5402
 8036SOL    HW135744   2.031   0.798  10.836  1.4821 -0.6457  0.3643
 8036SOL    HW235745   2.043   0.761  10.698 -0.8737  1.7703  0.3951
 8037SOL     OW35746   3.757   0.579  15.478  0.8699 -0.3091  0.6537
 8037SOL    HW135747   3.777   0.624  15.396  2.4952 -0.9191  0.7227
 8037SOL    HW235748   3.725   0.657  15.523 -0.2569 -1.7051  2.2860
 8038SOL     OW35749   1.952   0.149   3.959 -0.1559  0.2949 -0.6840
 8038SOL    HW135750   1.862   0.138   3.929 -0.1168  0.1486 -0.7479
 8038SOL    HW235751   1.982   0.210   3.891  0.0157  0.3163 -0.5904
 8039SOL     OW35752   2.796   3.368   6.114 -0.2806 -0.0352 -0.4411
 8039SOL    HW135753   2.835   3.341   6.030 -0.8536  0.9395 -1.0247
 8039SOL    HW235754   2.731   3.297   6.117 -0.4457  0.1741  0.8119
 8040SOL     OW35755   1.837   3.510   6.106  0.4733  0.5074 -0.0838
 8040SOL    HW135756   1.833   3.596   6.148  1.2845  1.6062 -2.2607
 8040SOL    HW235757   1.901   3.522   6.036  1.7782 -1.2887  0.7725
 8041SOL     OW35758   0.812   1.363  10.989  0.0596  0.1234 -0.6534
 8041SOL    HW135759   0.775   1.439  11.035 -0.1670  0.3763 -1.2463
 8041SOL    HW235760   0.744   1.297  11.003  0.1144 -0.0404 -1.1614
 8042SOL     OW35761   1.639   2.618   3.262 -0.4720 -0.1245  0.0211
 8042SOL    HW135762   1.722   2.665   3.254 -1.1655  1.2274  0.6764
 8042SOL    HW235763   1.665   2.532   3.293  0.8797  0.5999  0.8782
 8043SOL     OW35764   1.577   3.393   6.608 -0.1636 -0.0694  0.5161
 8043SOL    HW135765   1.634   3.398   6.531 -2.2017  1.4804 -0.9350
 8043SOL    HW235766   1.520   3.469   6.594  0.2308  0.3583  1.2644
 8044SOL     OW35767   0.503   2.704   5.587 -0.6270  0.3358 -0.1360
 8044SOL    HW135768   0.554   2.776   5.549  1.5937 -0.9075  0.5035
 8044SOL    HW235769   0.439   2.758   5.633  1.5829  2.9253 -0.1072
 8045SOL     OW35770   2.075   0.657   8.078  0.1765  0.1399  0.1113
 8045SOL    HW135771   2.087   0.723   8.145  2.4857 -0.3208  0.1390
 8045SOL    HW235772   2.137   0.695   8.016 -0.3510  1.0034  0.1157
 8046SOL     OW35773   4.274   0.091   8.029  0.5890  0.1811 -0.2213
 8046SOL    HW135774   4.248   4.738   8.039 -1.3710  0.7271 -0.3362
 8046SOL    HW235775   4.188   0.132   8.024  1.3391  1.8367  0.2314
 8047SOL     OW35776   0.352   2.647   8.656  0.4419 -0.5416 -0.4687
 8047SOL    HW135777   0.346   2.686   8.744  0.0515 -1.3377 -0.1394
 8047SOL    HW235778   0.270   2.598   8.655 -0.1809  0.4355  1.9585
 8048SOL     OW35779   3.026   2.618   3.221 -0.5146 -0.4432  0.1525
 8048SOL    HW135780   3.023   2.523   3.209 -3.0540 -0.2776 -0.5135
 8048SOL    HW235781   2.951   2.639   3.276  0.2472  3.3017 -0.2737
 8049SOL     OW35782   4.628   1.389   0.164 -0.2910  0.2498 -0.4298
 8049SOL    HW135783   4.539   1.419   0.180 -0.1517  1.5270 -2.0210
 8049SOL    HW235784   4.613   1.305   0.121 -2.1693  0.9375 -1.0758
 8050SOL     OW35785   1.456   4.666   3.491  0.1241  0.1666 -0.0274
 8050SOL    HW135786   1.430   0.014   3.523  1.0751 -0.4978  2.5487
 8050SOL    HW235787   1.511   4.631   3.561  0.0324  1.0743  0.4910
 8051SOL     OW35788   1.045   0.689  13.372 -0.9045 -0.1470 -0.4636
 8051SOL    HW135789   1.075   0.758  13.313 -2.5770  2.2758  1.5243
 8051SOL    HW235790   1.119   0.627  13.373 -1.2165 -0.4978  0.7742
 8052SOL     OW35791   0.686   3.698  17.044 -0.6209 -0.1163  0.1114
 8052SOL    HW135792   0.608   3.730  16.999 -1.9356 -1.5381  1.3790
 8052SOL    HW235793   0.734   3.676  16.964 -0.0879  3.0266 -0.4319
 8053SOL     OW35794   3.443   0.752   1.212 -0.0394 -0.0855 -0.4620
 8053SOL    HW135795   3.440   0.844   1.186  1.5461  0.3756  0.9774
 8053SOL    HW235796   3.511   0.768   1.277  0.6660 -1.8139 -0.7761
 8054SOL     OW35797   0.016   1.989   9.245 -0.0693  0.2291  0.6449
 8054SOL    HW135798   0.099   1.947   9.222 -1.0710 -1.7579  0.6867
 8054SOL    HW235799   4.738   1.953   9.332 -0.4926  1.7428  1.1894
 8055SOL     OW35800   3.386   2.942  11.056 -0.2027 -0.2096  0.0688
 8055SOL    HW135801   3.362   3.032  11.077  0.7814  0.1924 -0.5233
 8055SOL    HW235802   3.343   2.887  11.121 -0.4743 -0.1560 -0.0673
 8056SOL     OW35803   2.422   3.630   0.857  0.2932  0.3091 -0.1777
 8056SOL    HW135804   2.453   3.556   0.910  1.4478  0.3858 -0.7505
 8056SOL    HW235805   2.455   3.605   0.771 -0.0090 -0.0537 -0.1907
 8057SOL     OW35806   1.898   1.540   7.679  0.7001 -0.2056  0.7641
 8057SOL    HW135807   1.969   1.576   7.732 -0.4281  0.5142  1.8132
 8057SOL    HW235808   1.820   1.550   7.734  0.6674 -1.4759  0.9413
 8058SOL     OW35809   0.741   2.048   4.654  0.1757  0.3468 -1.0346
 8058SOL    HW135810   0.798   2.015   4.585 -0.2453 -0.9594 -0.7612
 8058SOL    HW235811   0.665   1.990   4.650  1.8913 -1.8022 -2.0055
 8059SOL     OW35812   2.845   4.244   1.615 -0.3023  0.0193 -0.4672
 8059SOL    HW135813   2.763   4.200   1.593 -0.5037  0.3473 -0.3662
 8059SOL    HW235814   2.821   4.270   1.704 -1.7050  0.2983 -0.9261
 8060SOL     OW35815   4.422   4.606  15.020  0.4516 -0.1990 -0.0858
 8060SOL    HW135816   4.349   4.633  15.076 -0.1028 -0.5411 -0.6495
 8060SOL    HW235817   4.493   4.629  15.080 -0.0885  0.5939  0.2586
 8061SOL     OW35818   2.471   0.626  12.084  0.1139 -0.0679 -0.7208
 8061SOL    HW135819   2.386   0.623  12.129 -0.5628  1.4377 -1.9183
 8061SOL    HW235820   2.519   0.694  12.132  0.8796 -0.8443 -0.3813
 8062SOL     OW35821   3.801   0.540   8.933 -0.3263 -0.3340  0.2376
 8062SOL    HW135822   3.712   0.575   8.937  0.1369  0.9513 -0.7850
 8062SOL    HW235823   3.789   0.451   8.969  0.2176 -0.8630 -0.8870
 8063SOL     OW35824   2.718   3.321   4.409  0.2022 -0.4596  0.1984
 8063SOL    HW135825   2.733   3.234   4.372 -0.4962  1.3800 -4.2651
 8063SOL    HW235826   2.807   3.344   4.436  0.4689  1.4424 -2.3823
 8064SOL     OW35827   3.196   4.403  12.474  0.0677  0.3139 -0.1664
 8064SOL    HW135828   3.223   4.442  12.557 -0.4342  0.9264 -0.2871
 8064SOL    HW235829   3.222   4.311  12.478  1.3660  0.6853 -0.0964
 8065SOL     OW35830   4.247   3.894  14.471 -0.0084  0.2156  0.0186
 8065SOL    HW135831   4.263   3.802  14.492 -0.2971  0.0823 -0.3464
 8065SOL    HW235832   4.311   3.945  14.520 -1.7997  2.2612  0.2035
 8066SOL     OW35833   0.781   4.424   2.351 -0.2258 -0.3823 -0.7498
 8066SOL    HW135834   0.771   4.332   2.375  3.0498  0.0930  2.2842
 8066SOL    HW235835   0.774   4.477   2.431  0.7568 -2.4317  0.6898
 8067SOL     OW35836   3.782   0.480   7.429 -0.0115 -0.2632  0.4633
 8067SOL    HW135837   3.862   0.427   7.423  0.0980 -0.0877  0.3780
 8067SOL    HW235838   3.739   0.483   7.343  3.4609 -1.0852 -1.3511
 8068SOL     OW35839   2.640   0.551   7.220  0.2270 -0.4206 -0.2754
 8068SOL    HW135840   2.618   0.519   7.307  2.2311 -0.8727  0.0423
 8068SOL    HW235841   2.733   0.533   7.215  0.5221  0.9298  0.2916
 8069SOL     OW35842   1.430   0.025   2.220 -0.5243  0.4410 -0.3041
 8069SOL    HW135843   1.377   0.034   2.141  0.5645  1.3490 -0.9444
 8069SOL    HW235844   1.511   4.729   2.181  0.9806  1.5764  1.8283
 8070SOL     OW35845   4.125   0.214   6.372 -0.0701  0.5657 -0.7111
 8070SOL    HW135846   4.068   0.147   6.335  0.9943  0.1988 -1.6765
 8070SOL    HW235847   4.155   0.250   6.289 -1.1981 -0.5046 -1.5765
 8071SOL     OW35848   0.289   3.489   5.437 -0.6335 -0.3376  0.2543
 8071SOL    HW135849   0.284   3.502   5.342 -2.1375  0.7340  0.4845
 8071SOL    HW235850   0.270   3.395   5.439  0.3123 -0.5523 -1.0848
 8072SOL     OW35851   2.749   0.670   8.805 -0.1195  0.2318  0.0466
 8072SOL    HW135852   2.822   0.641   8.751  0.3861  0.2199  0.7285
 8072SOL    HW235853   2.766   0.762   8.827  1.9223 -0.0122 -0.5523
 8073SOL     OW35854   3.204   2.212  17.729 -0.0069 -0.1485  0.1724
 8073SOL    HW135855   3.246   2.298  17.732  1.7638 -1.0969  2.3700
 8073SOL    HW235856   3.251   2.173  17.655  1.3200 -1.2040  1.5622
 8074SOL     OW35857   2.655   2.143  10.795 -0.3579 -0.4795 -0.0399
 8074SOL    HW135858   2.575   2.131  10.743 -0.2502  1.2623 -0.5978
 8074SOL    HW235859   2.709   2.068  10.767  2.0065  2.1742 -2.5716
 8075SOL     OW35860   0.000   2.322  13.356 -0.0468  0.4335 -0.4269
 8075SOL    HW135861   4.649   2.342  13.384 -0.1089 -1.6049  0.8499
 8075SOL    HW235862   0.025   2.413  13.344 -2.2735  1.3612  2.0980
 8076SOL     OW35863   1.765   3.646  16.770  0.2643  0.3410 -0.3931
 8076SOL    HW135864   1.778   3.724  16.824 -1.0425  1.2137 -1.3370
 8076SOL    HW235865   1.815   3.589  16.829  0.0712  0.1389 -0.4239
 8077SOL     OW35866   1.233   4.258   1.622  0.0674  0.5872  0.6525
 8077SOL    HW135867   1.149   4.262   1.577  0.9189  0.9781 -0.8923
 8077SOL    HW235868   1.203   4.290   1.707  0.0806 -0.2293  0.9690
 8078SOL     OW35869   2.781   1.552   2.363  0.2497 -0.4543 -0.0477
 8078SOL    HW135870   2.818   1.597   2.438  1.7658 -1.7285 -0.0277
 8078SOL    HW235871   2.691   1.585   2.370 -0.1605 -1.8230  1.1211
 8079SOL     OW35872   1.100   0.795  16.949  0.1360  0.2616  0.4157
 8079SOL    HW135873   1.122   0.759  17.035  0.8871  1.6182  0.8005
 8079SOL    HW235874   1.027   0.740  16.921  1.2238 -0.9359 -0.0553
 8080SOL     OW35875   3.449   0.451   8.780  0.1403 -0.3816  0.0189
 8080SOL    HW135876   3.496   0.377   8.818 -0.3425  0.0050  1.3347
 8080SOL    HW235877   3.468   0.436   8.687  0.1004  0.3314 -0.1036
 8081SOL     OW35878   1.431   0.827   8.021  0.3952 -0.1113 -0.7593
 8081SOL    HW135879   1.344   0.788   8.012  0.6621 -0.4292 -1.9135
 8081SOL    HW235880   1.476   0.744   8.032 -2.0521 -1.2118  0.8378
 8082SOL     OW35881   0.199   2.832  17.672 -0.6330 -0.7585 -0.2435
 8082SOL    HW135882   0.128   2.859  17.731 -0.4319 -0.6070 -0.0700
 8082SOL    HW235883   0.150   2.844  17.590 -0.5081 -0.3468 -0.2593
 8083SOL     OW35884   3.000   2.881   6.223  0.1182 -0.0968  0.0892
 8083SOL    HW135885   3.006   2.856   6.131 -1.7494  0.4404 -0.1871
 8083SOL    HW235886   2.987   2.796   6.265  0.0879 -0.9002 -1.5800
 8084SOL     OW35887   3.614   0.513  13.401  0.4556 -0.6488 -0.0084
 8084SOL    HW135888   3.597   0.420  13.412 -0.7332 -0.5116 -0.6373
 8084SOL    HW235889   3.521   0.537  13.409  0.3411 -1.0275 -0.2089
 8085SOL     OW35890   2.665   3.349   1.480  0.1386  0.0947 -0.1595
 8085SOL    HW135891   2.648   3.331   1.572  1.1087  1.2094  0.2413
 8085SOL    HW235892   2.645   3.266   1.436  1.0311  0.8578 -2.0288
 8086SOL     OW35893   1.695   4.101   9.647  0.1135 -0.7685  0.1260
 8086SOL    HW135894   1.779   4.104   9.693 -0.8452 -0.0613  1.8456
 8086SOL    HW235895   1.712   4.098   9.553 -1.3180  1.3539 -0.2115
 8087SOL     OW35896   0.653   0.347  14.739 -0.1264  0.3720  0.4559
 8087SOL    HW135897   0.734   0.339  14.789 -1.4046  1.8565  2.8029
 8087SOL    HW235898   0.674   0.344  14.646 -0.9282 -1.7272  0.3377
 8088SOL     OW35899   4.510   0.172   8.388  0.2444  0.1827 -0.3939
 8088SOL    HW135900   4.590   0.150   8.341  0.6081 -0.7777  0.6746
 8088SOL    HW235901   4.458   0.212   8.319 -0.5568  0.1317  0.1820
 8089SOL     OW35902   0.044   0.033   4.632 -0.4088  0.0616 -0.0917
 8089SOL    HW135903   0.108   0.050   4.563  1.0096  2.4175  1.7671
 8089SOL    HW235904   4.730   4.706   4.586  0.6246 -1.1668  0.4849
 8090SOL     OW35905   2.354   1.517   6.609  0.2354 -0.1147  0.4106
 8090SOL    HW135906   2.360   1.440   6.553  0.9643  0.3906 -0.2110
 8090SOL    HW235907   2.270   1.554   6.582  1.4980  2.5301  0.0936
 8091SOL     OW35908   4.043   3.583  14.244 -0.5253  0.9473  0.1669
 8091SOL    HW135909   4.062   3.501  14.289 -0.1782  1.6847  1.3558
 8091SOL    HW235910   4.133   3.615  14.233  0.4353 -1.4749  0.9831
 8092SOL     OW35911   3.435   3.128  13.930 -0.5735 -0.3369  0.0683
 8092SOL    HW135912   3.372   3.063  13.961 -1.1928  0.6359  0.8434
 8092SOL    HW235913   3.391   3.200  13.974 -2.1080 -0.4651 -1.2634
 8093SOL     OW35914   0.855   0.644  13.555  0.3397 -0.6778 -0.2329
 8093SOL    HW135915   0.865   0.717  13.615 -0.0095 -0.3094 -0.6260
 8093SOL    HW235916   0.921   0.663  13.489  1.2325 -0.0293  0.8405
 8094SOL     OW35917   3.045   4.298   2.759 -0.5274  0.3070  0.3896
 8094SOL    HW135918   3.083   4.324   2.675  0.9707  0.3703  1.0778
 8094SOL    HW235919   2.956   4.295   2.727 -0.0846  0.8031 -0.8856
 8095SOL     OW35920   4.044   2.828  13.562  0.2540  0.1206  0.4213
 8095SOL    HW135921   4.130   2.868  13.557  0.1349  0.1769 -1.0515
 8095SOL    HW235922   4.070   2.735  13.560 -2.7788 -0.7638  1.4089
 8096SOL     OW35923   1.879   2.972  10.845 -0.3546 -0.2477 -0.1189
 8096SOL    HW135924   1.797   2.928  10.823 -1.6920  1.5804  1.2216
 8096SOL    HW235925   1.892   2.964  10.939 -0.5702  0.6657 -0.0043
 8097SOL     OW35926   0.996   4.389   5.358 -0.3064  0.0592 -0.4712
 8097SOL    HW135927   1.059   4.413   5.426  0.6373 -0.1793 -1.2612
 8097SOL    HW235928   0.921   4.385   5.417  1.1255 -0.1648  1.3463
 8098SOL     OW35929   1.486   0.372   0.615  0.2144  0.0991 -0.5537
 8098SOL    HW135930   1.487   0.302   0.680  0.2307  0.5091 -0.1103
 8098SOL    HW235931   1.570   0.382   0.570  1.7244 -2.4094  1.6895
 8099SOL     OW35932   3.193   0.885   0.213 -0.4541 -0.0571  0.3420
 8099SOL    HW135933   3.100   0.903   0.229 -0.8193 -2.2479  0.7159
 8099SOL    HW235934   3.206   0.917   0.124 -0.4727 -2.2842 -0.4791
 8100SOL     OW35935   2.010   0.585   3.608 -0.0517 -0.8321 -0.2819
 8100SOL    HW135936   2.097   0.589   3.568 -0.4101 -1.7884 -1.1616
 8100SOL    HW235937   1.953   0.579   3.531  1.7170 -0.3889 -1.6253
 8101SOL     OW35938   3.969   4.408   4.823  0.1142 -0.3356 -0.2260
 8101SOL    HW135939   3.875   4.388   4.829 -0.1611  0.4049 -2.1926
 8101SOL    HW235940   3.997   4.411   4.915  0.5804 -2.6074 -0.2691
 8102SOL     OW35941   3.587   1.498   4.129 -0.8542 -0.3668  0.3174
 8102SOL    HW135942   3.562   1.587   4.151 -0.1116  0.0248 -0.4252
 8102SOL    HW235943   3.500   1.465   4.105 -1.8397 -0.3644  3.8385
 8103SOL     OW35944   1.333   3.458   4.615 -0.5916  0.3086 -0.2724
 8103SOL    HW135945   1.286   3.393   4.561 -0.7785  0.9303 -0.8551
 8103SOL    HW235946   1.296   3.543   4.592 -1.7727  0.1807  1.1592
 8104SOL     OW35947   1.129   0.831  11.312  0.0972 -0.1499 -0.4940
 8104SOL    HW135948   1.125   0.764  11.244 -0.4556 -1.0604  0.4424
 8104SOL    HW235949   1.209   0.868  11.275 -0.4226  1.1126 -0.3449
 8105SOL     OW35950   1.492   4.280  17.102 -0.2100 -0.0282  0.2676
 8105SOL    HW135951   1.515   4.366  17.068 -3.5759  0.3963 -0.9012
 8105SOL    HW235952   1.444   4.248  17.025 -0.0500 -2.0374  0.9946
 8106SOL     OW35953   2.464   3.770   4.044 -0.2677  0.3961  0.6199
 8106SOL    HW135954   2.463   3.725   4.129  0.6160 -1.1799 -0.2002
 8106SOL    HW235955   2.512   3.703   3.994 -0.5708 -0.3767  1.3543
 8107SOL     OW35956   4.274   3.561   5.105 -0.3749 -0.3924 -0.1639
 8107SOL    HW135957   4.260   3.585   5.014 -1.0528 -0.6525 -0.1331
 8107SOL    HW235958   4.207   3.613   5.150  0.8008  1.3645 -0.4590
 8108SOL     OW35959   2.140   1.526   8.842  0.1837 -0.0974  1.0834
 8108SOL    HW135960   2.047   1.530   8.817 -0.6877 -1.7552  4.0914
 8108SOL    HW235961   2.128   1.476   8.923 -0.8146  0.0464  1.0271
 8109SOL     OW35962   0.958   3.937   6.031  0.3158  0.3566 -0.2255
 8109SOL    HW135963   1.020   3.984   5.975  1.3034 -0.9950 -0.2636
 8109SOL    HW235964   0.926   3.883   5.959  0.0499  1.5145 -0.9704
 8110SOL     OW35965   0.273   0.023   1.731 -0.2661 -0.6618 -0.2602
 8110SOL    HW135966   0.287   0.097   1.673  1.5746  0.4603  1.5884
 8110SOL    HW235967   0.196   0.044   1.784  0.0193  0.8215 -0.4284
 8111SOL     OW35968   4.527   1.627   2.329 -0.1007  0.1032  0.4242
 8111SOL    HW135969   4.546   1.586   2.244 -4.7183  0.2954 -0.6992
 8111SOL    HW235970   4.483   1.702   2.289 -0.3352 -0.5746 -0.6077
 8112SOL     OW35971   2.976   4.531   7.172  0.4300  0.2473 -0.1776
 8112SOL    HW135972   2.988   4.605   7.112 -1.3629 -1.5906 -2.7971
 8112SOL    HW235973   2.882   4.540   7.185  0.5382 -1.4195  1.6664
 8113SOL     OW35974   0.836   4.019   9.836 -0.2505  0.3365 -0.4477
 8113SOL    HW135975   0.914   3.972   9.806 -0.5986 -1.9300  2.1520
 8113SOL    HW235976   0.871   4.047   9.921 -1.5125  0.0718  0.1512
 8114SOL     OW35977   2.495   2.269   0.739  0.6159 -0.3156  0.5945
 8114SOL    HW135978   2.489   2.176   0.718  0.7876  0.2714 -2.1587
 8114SOL    HW235979   2.590   2.278   0.751  0.8992 -2.2107 -0.1297
 8115SOL     OW35980   1.536   2.332   4.715  0.1413  0.0819  0.0847
 8115SOL    HW135981   1.540   2.289   4.800  0.0869 -0.4857 -0.2038
 8115SOL    HW235982   1.442   2.330   4.698  0.4231 -3.0478 -0.9624
 8116SOL     OW35983   3.388   2.665   8.074 -0.1740  0.3317 -0.6217
 8116SOL    HW135984   3.388   2.613   8.154  0.7104 -0.9804 -1.4777
 8116SOL    HW235985   3.479   2.693   8.069  0.4752 -1.4920  1.3366
 8117SOL     OW35986   0.732   0.273   8.317 -0.6608 -0.4518 -0.2194
 8117SOL    HW135987   0.645   0.309   8.338 -0.2169  0.5353 -0.0460
 8117SOL    HW235988   0.775   0.266   8.402 -0.1279 -2.0498 -0.6256
 8118SOL     OW35989   1.786   0.004   9.352  0.4438 -0.7353  0.2526
 8118SOL    HW135990   1.761   4.686   9.426  1.7248 -0.0016  1.2437
 8118SOL    HW235991   1.709   0.058   9.336  1.6598  0.9114  0.0253
 8119SOL     OW35992   1.708   4.243   7.610  0.4573 -0.9168 -0.1209
 8119SOL    HW135993   1.651   4.170   7.584 -1.1820  0.8239 -1.3942
 8119SOL    HW235994   1.792   4.221   7.569  1.6208  3.0146  0.1514
 8120SOL     OW35995   3.667   3.930   8.816 -0.6564 -0.5113  0.1138
 8120SOL    HW135996   3.750   3.885   8.828  0.5358  2.0661  1.3711
 8120SOL    HW235997   3.648   3.966   8.903  3.3912  1.1507  0.2861
 8121SOL     OW35998   4.705   0.151   3.872 -0.0342  0.6066 -0.5171
 8121SOL    HW135999   4.698   0.056   3.885 -0.1041  0.7751  0.6376
 8121SOL    HW236000   0.050   0.150   3.825 -1.1152  0.0839 -2.4450
 8122SOL     OW36001   1.848   1.893   7.469  0.0717 -0.1512 -0.2405
 8122SOL    HW136002   1.934   1.921   7.438  0.3183  0.6092  1.1372
 8122SOL    HW236003   1.828   1.958   7.537 -1.2515  0.0880 -0.8519
 8123SOL     OW36004   1.859   1.033   8.252  0.4864 -0.0900 -0.0467
 8123SOL    HW136005   1.843   1.007   8.342 -1.4208 -1.8199 -0.8814
 8123SOL    HW236006   1.785   0.993   8.206  1.7566 -1.3339 -0.9934
 8124SOL     OW36007   0.058   1.904   8.875 -0.0416 -0.3434 -0.4398
 8124SOL    HW136008   0.102   1.959   8.939  1.1800 -0.6543 -1.0199
 8124SOL    HW236009   4.737   1.864   8.939 -0.2286  0.3918 -0.1485
 8125SOL     OW36010   0.221   3.234   5.409 -0.0885  0.6075  0.1107
 8125SOL    HW136011   0.167   3.224   5.487  1.1958  0.7030  0.9998
 8125SOL    HW236012   0.153   3.216   5.344  1.4382  1.2900 -1.6537
 8126SOL     OW36013   3.814   3.955   9.918 -0.5736 -0.0268 -0.2837
 8126SOL    HW136014   3.753   3.908   9.975 -1.6337  0.2129 -1.2282
 8126SOL    HW236015   3.815   3.919   9.830  1.8171  3.4968 -1.6839
 8127SOL     OW36016   2.690   0.661   7.853 -0.3840 -0.3969 -0.4772
 8127SOL    HW136017   2.638   0.736   7.882 -0.0759  0.3433 -1.8041
 8127SOL    HW236018   2.744   0.667   7.932  0.0026 -0.7595 -0.7140
 8128SOL     OW36019   1.644   3.945   8.865 -0.5770 -0.1893  0.3543
 8128SOL    HW136020   1.617   4.009   8.800 -0.9542 -0.0580  0.6399
 8128SOL    HW236021   1.739   3.939   8.852 -0.7584 -1.2519 -0.4016
 8129SOL     OW36022   0.386   3.073   4.711  0.1093 -0.1148 -0.3628
 8129SOL    HW136023   0.426   3.085   4.797 -0.5525 -0.4608 -0.0041
 8129SOL    HW236024   0.313   3.134   4.720  1.7846  1.9484 -0.7784
 8130SOL     OW36025   1.643   0.751   3.752  0.5036  0.1816  0.5589
 8130SOL    HW136026   1.620   0.843   3.767 -0.3200  0.2588 -1.2279
 8130SOL    HW236027   1.722   0.762   3.700  0.5617  0.6079  0.7364
 8131SOL     OW36028   0.808   0.751   5.577 -0.6164  0.5418  0.1287
 8131SOL    HW136029   0.858   0.679   5.539 -0.9918 -0.4562  1.5315
 8131SOL    HW236030   0.873   0.809   5.615  0.6937 -0.8538  0.0071
 8132SOL     OW36031   1.590   3.461   7.794  0.0591  0.4453  0.3723
 8132SOL    HW136032   1.551   3.410   7.865 -1.3635 -0.2303 -0.8899
 8132SOL    HW236033   1.599   3.391   7.729 -0.2789 -0.0318  0.8373
 8133SOL     OW36034   2.274   2.135  14.191  0.1260 -0.1368 -0.1783
 8133SOL    HW136035   2.226   2.215  14.167 -0.8380 -0.8483 -0.6123
 8133SOL    HW236036   2.341   2.180  14.243  1.6014 -2.3159 -0.2115
 8134SOL     OW36037   3.758   1.510   0.306  0.2201  0.4189 -0.2588
 8134SOL    HW136038   3.822   1.445   0.333  0.3441  1.2603  1.4868
 8134SOL    HW236039   3.764   1.509   0.210 -0.0029 -0.6157 -0.2610
 8135SOL     OW36040   3.489   1.436   6.924 -0.2370 -0.8313  0.3785
 8135SOL    HW136041   3.443   1.454   6.842 -1.8489 -0.1610  1.4118
 8135SOL    HW236042   3.526   1.349   6.915 -1.0525 -1.2164  0.7285
 8136SOL     OW36043   4.097   3.156  15.532 -0.1629 -0.0560 -0.3415
 8136SOL    HW136044   4.172   3.214  15.545  2.3250 -3.1098 -1.0919
 8136SOL    HW236045   4.067   3.201  15.453 -0.5191 -0.8157 -0.6385
 8137SOL     OW36046   2.499   2.473  13.854 -0.3308  0.8637 -0.4335
 8137SOL    HW136047   2.558   2.500  13.783 -0.4271 -0.1247 -0.8910
 8137SOL    HW236048   2.465   2.388  13.825  2.5597 -0.1289 -0.9077
 8138SOL     OW36049   1.073   1.443  16.874 -0.4888 -0.1681  0.0697
 8138SOL    HW136050   1.142   1.423  16.937  0.0987  0.2276 -0.4575
 8138SOL    HW236051   0.995   1.459  16.929 -0.5575  0.8795 -0.3262
 8139SOL     OW36052   0.584   4.083  17.505 -0.0610  0.2679  0.0591
 8139SOL    HW136053   0.640   4.054  17.433 -1.8686 -1.3410 -0.7273
 8139SOL    HW236054   0.523   4.009  17.497  1.8882 -1.6198  2.5720
 8140SOL     OW36055   1.663   1.786   1.803 -0.1022 -0.3910  0.2764
 8140SOL    HW136056   1.664   1.759   1.895  0.7899  0.5991  0.5626
 8140SOL    HW236057   1.572   1.768   1.781 -0.5326  0.7491  1.0995
 8141SOL     OW36058   3.374   4.232   4.081  0.4148 -0.0176 -0.3873
 8141SOL    HW136059   3.291   4.245   4.036  0.0381 -1.1962 -0.0201
 8141SOL    HW236060   3.411   4.321   4.081  0.7966 -0.1631  1.6297
 8142SOL     OW36061   2.642   2.221   7.583  0.1263  0.4084 -0.1176
 8142SOL    HW136062   2.576   2.189   7.644 -0.6316 -3.6884 -3.0380
 8142SOL    HW236063   2.593   2.298   7.556 -0.6563  0.5272  1.6451
 8143SOL     OW36064   1.708   4.371   8.111  0.4052 -0.1469 -0.5857
 8143SOL    HW136065   1.718   4.276   8.102  1.1146 -0.2579  1.2419
 8143SOL    HW236066   1.678   4.375   8.202 -1.8969  0.1308 -1.3518
 8144SOL     OW36067   3.200   4.166   3.584  0.2844 -0.4735  0.3716
 8144SOL    HW136068   3.118   4.137   3.623 -1.9313  4.4547 -0.6710
 8144SOL    HW236069   3.270   4.148   3.647 -0.6399  0.0589  1.5462
 8145SOL     OW36070   0.387   1.704   2.916 -0.0598 -0.1085 -0.5561
 8145SOL    HW136071   0.356   1.642   2.851 -0.6388 -0.2929 -0.0956
 8145SOL    HW236072   0.409   1.782   2.864  3.7048 -2.2917 -2.2996
 8146SOL     OW36073   4.532   3.107  13.531  0.3001  0.0973  0.1525
 8146SOL    HW136074   4.497   3.148  13.610 -1.1990 -0.7983 -0.0626
 8146SOL    HW236075   4.620   3.144  13.541 -0.1002  0.9965  0.3311
 8147SOL     OW36076   2.267   3.396   6.606  0.3248  0.2262 -0.0879
 8147SOL    HW136077   2.266   3.304   6.580  2.3579  0.3612 -0.6557
 8147SOL    HW236078   2.298   3.442   6.527 -0.1811  1.5911  0.5025
 8148SOL     OW36079   1.141   0.300   6.731 -0.5480 -0.0229  0.1399
 8148SOL    HW136080   1.195   0.222   6.722  0.7046  0.7669  0.8774
 8148SOL    HW236081   1.214   0.360   6.744 -1.5053  1.0781  0.4278
 8149SOL     OW36082   4.039   0.514   1.338  0.1228 -0.0487  0.1230
 8149SOL    HW136083   3.976   0.474   1.398  0.2473  0.2012  0.4244
 8149SOL    HW236084   4.061   0.592   1.390  1.4771 -0.5413  0.2837
 8150SOL     OW36085   3.686   4.283   8.363 -0.4057 -0.7813 -0.0973
 8150SOL    HW136086   3.690   4.219   8.434 -0.1265  0.9633  1.4359
 8150SOL    HW236087   3.591   4.280   8.346 -0.3946 -2.2932  0.0700
 8151SOL     OW36088   2.277   1.068   1.474 -0.4373  0.3973  0.0224
 8151SOL    HW136089   2.259   1.158   1.447  4.3841  1.0366 -0.9573
 8151SOL    HW236090   2.367   1.073   1.506 -0.2125 -0.0989 -0.5300
 8152SOL     OW36091   1.745   3.051   0.419  0.0748 -0.1261 -0.0754
 8152SOL    HW136092   1.718   2.987   0.354  1.5735  0.7531 -1.5861
 8152SOL    HW236093   1.790   2.993   0.480  1.4526 -2.4684 -3.2965
 8153SOL     OW36094   1.112   0.448   4.425  0.0523 -0.2983  0.0208
 8153SOL    HW136095   1.143   0.447   4.515 -0.4231  3.7587  0.2359
 8153SOL    HW236096   1.167   0.520   4.393  2.1089 -1.5128  0.8349
 8154SOL     OW36097   3.223   3.230   6.142  0.3056 -0.2329 -0.0738
 8154SOL    HW136098   3.198   3.188   6.224 -0.6212 -1.2185 -0.8519
 8154SOL    HW236099   3.185   3.181   6.068 -0.6015  1.0832 -0.4943
 8155SOL     OW36100   0.417   2.020   5.275  0.4062 -0.1439 -0.4623
 8155SOL    HW136101   0.502   1.988   5.244 -1.2208 -2.0958 -2.8671
 8155SOL    HW236102   0.362   1.972   5.213 -0.2813 -1.1233  0.9160
 8156SOL     OW36103   2.483   2.984   1.739 -0.1657  0.0768  0.0228
 8156SOL    HW136104   2.388   2.989   1.725 -0.1467 -0.9914 -0.4411
 8156SOL    HW236105   2.500   2.897   1.703 -0.2119  0.2721 -0.4730
 8157SOL     OW36106   1.336   0.321  13.520  0.6031 -0.2888 -0.4091
 8157SOL    HW136107   1.407   0.365  13.568 -0.0563  1.5169 -1.0783
 8157SOL    HW236108   1.385   0.258  13.468  0.4061 -1.8541  1.3070
 8158SOL     OW36109   0.676   1.261   2.740 -0.1302 -0.0566 -0.3951
 8158SOL    HW136110   0.694   1.335   2.798  4.0458 -1.6348  0.2774
 8158SOL    HW236111   0.591   1.292   2.708 -0.7297  0.2865  1.5435
 8159SOL     OW36112   2.808   1.310   4.142  0.2436 -0.4477 -0.4226
 8159SOL    HW136113   2.855   1.385   4.179 -0.3963 -0.1505 -0.2175
 8159SOL    HW236114   2.873   1.241   4.128 -0.3450 -1.0255 -0.3028
 8160SOL     OW36115   2.444   0.466  17.107 -0.0836  0.5751  0.7088
 8160SOL    HW136116   2.463   0.523  17.033  0.5347 -1.5426 -0.7582
 8160SOL    HW236117   2.357   0.500  17.127 -0.6016 -0.2083 -0.2167
 8161SOL     OW36118   2.913   3.386   6.684  0.6507  0.1911 -0.0517
 8161SOL    HW136119   2.883   3.329   6.613 -0.8088  0.3899  0.4154
 8161SOL    HW236120   2.888   3.473   6.652 -1.1484 -0.5118 -0.5277
 8162SOL     OW36121   3.904   1.109   4.678  0.4297  0.5595 -0.3616
 8162SOL    HW136122   3.965   1.047   4.638  1.5222  2.5999 -1.8261
 8162SOL    HW236123   3.869   1.166   4.609 -1.7971  0.3645  0.5969
 8163SOL     OW36124   3.003   2.066   1.149 -0.6294  0.0254 -0.3162
 8163SOL    HW136125   2.978   1.982   1.188 -4.1689  1.1474 -0.1863
 8163SOL    HW236126   3.052   2.100   1.224  0.3599 -2.1962  0.0299
 8164SOL     OW36127   4.259   2.626   7.268  0.7509 -0.6230  0.0864
 8164SOL    HW136128   4.308   2.687   7.212  1.4419 -0.0405  1.3155
 8164SOL    HW236129   4.242   2.686   7.341 -0.9355  0.5758 -1.2853
 8165SOL     OW36130   1.593   1.196   5.033  0.3519 -0.2449  0.3255
 8165SOL    HW136131   1.650   1.197   5.109 -0.6662  2.0193  1.0626
 8165SOL    HW236132   1.574   1.290   5.030 -1.4917 -0.6162  0.4656
 8166SOL     OW36133   2.648   4.651   9.076 -0.1233 -0.0672  0.3021
 8166SOL    HW136134   2.576   4.707   9.105  1.5456  2.0939  0.2664
 8166SOL    HW236135   2.713   4.673   9.143  0.8741  2.0392 -1.3804
 8167SOL     OW36136   1.953   3.899   8.322  0.7601 -0.0114  0.1211
 8167SOL    HW136137   2.040   3.937   8.335  1.3320 -1.0578 -0.6768
 8167SOL    HW236138   1.908   3.944   8.394  4.2885  0.9873  1.6898
 8168SOL     OW36139   2.297   1.741   2.447  0.2337  0.1828 -0.1683
 8168SOL    HW136140   2.370   1.679   2.442  0.7124  0.5476  2.6284
 8168SOL    HW236141   2.345   1.819   2.419 -0.5308  1.5202  2.2552
 8169SOL     OW36142   2.169   1.347   1.464  0.2428 -0.1289 -0.3824
 8169SOL    HW136143   2.075   1.339   1.484  0.2783  0.1082 -0.1188
 8169SOL    HW236144   2.196   1.340   1.555  0.1794  2.0195 -0.2119
 8170SOL     OW36145   1.198   1.476  11.442  0.2033  0.6083 -0.9009
 8170SOL    HW136146   1.165   1.530  11.514 -0.8926  1.8104 -2.3081
 8170SOL    HW236147   1.129   1.410  11.435  1.2520 -0.3528 -2.1936
 8171SOL     OW36148   3.799   3.132  11.936  0.6128 -0.4977 -0.0495
 8171SOL    HW136149   3.885   3.169  11.915  0.8862 -0.8157  0.5056
 8171SOL    HW236150   3.765   3.118  11.847  1.9284  1.6981 -0.8901
 8172SOL     OW36151   1.530   3.812   0.949  0.4128 -0.3481  0.6376
 8172SOL    HW136152   1.536   3.853   1.035  1.4097  2.2393 -0.6772
 8172SOL    HW236153   1.443   3.772   0.960 -0.6354  1.5763 -0.6201
 8173SOL     OW36154   2.009   0.051  14.175  0.4949  0.0897  0.1413
 8173SOL    HW136155   2.079   0.103  14.137 -0.2489  0.3135 -0.9228
 8173SOL    HW236156   2.028   4.704  14.134 -2.6534 -1.3415  1.6087
 8174SOL     OW36157   4.704   3.216   7.834  0.7269  0.4862 -0.1425
 8174SOL    HW136158   0.011   3.200   7.917  0.2332 -0.2431 -0.0141
 8174SOL    HW236159   0.042   3.197   7.779 -1.1409 -2.4680 -1.7287
 8175SOL     OW36160   4.034   3.404  11.528 -0.2567  0.2845 -0.3525
 8175SOL    HW136161   4.004   3.466  11.594  0.1569 -0.3018  0.3934
 8175SOL    HW236162   4.118   3.444  11.506 -1.2284  1.9353 -1.0356
 8176SOL     OW36163   3.564   1.588  14.837  0.1440 -0.4552 -0.1338
 8176SOL    HW136164   3.597   1.533  14.766 -1.9457 -1.2643 -0.4759
 8176SOL    HW236165   3.486   1.539  14.862  0.3721  0.8384  3.1526
 8177SOL     OW36166   3.792   4.477   6.841 -0.2955  0.2087  0.1497
 8177SOL    HW136167   3.823   4.510   6.926 -1.3710 -1.2861  1.1345
 8177SOL    HW236168   3.729   4.548   6.829 -1.3287 -0.8972 -0.8676
 8178SOL     OW36169   3.132   2.366   8.181  0.2053  0.8220 -0.4648
 8178SOL    HW136170   3.152   2.279   8.146  0.3751  0.9236 -0.6221
 8178SOL    HW236171   3.076   2.345   8.255  1.1362  1.8551  0.5287
 8179SOL     OW36172   1.861   3.202  16.017 -0.4967 -0.1837  0.2334
 8179SOL    HW136173   1.874   3.284  15.970  0.2596 -0.6128 -0.2980
 8179SOL    HW236174   1.820   3.228  16.100  0.5387  1.2546  0.2901
 8180SOL     OW36175   2.391   2.247   4.372  0.2522  0.1733 -0.1012
 8180SOL    HW136176   2.302   2.243   4.406  0.2774 -2.4808 -0.3496
 8180SOL    HW236177   2.392   2.179   4.304  0.6249 -1.1077  1.1898
 8181SOL     OW36178   1.887   1.631   7.425 -0.0456  0.3091 -0.0288
 8181SOL    HW136179   1.861   1.722   7.441 -1.2039 -0.4943  2.6583
 8181SOL    HW236180   1.875   1.598   7.514 -0.4549 -0.8833 -0.5286
 8182SOL     OW36181   3.483   3.397   3.396  0.8260  0.1803 -0.4856
 8182SOL    HW136182   3.562   3.448   3.418 -0.9352  1.4838  2.7748
 8182SOL    HW236183   3.428   3.464   3.354 -0.5185 -0.3521  0.4414
 8183SOL     OW36184   1.718   4.554   3.968  0.3667 -0.1014  0.0565
 8183SOL    HW136185   1.674   4.476   3.935 -0.8132 -0.0127  1.3905
 8183SOL    HW236186   1.756   4.514   4.046  0.9309  1.3148  0.5177
 8184SOL     OW36187   0.668   4.408  15.838  0.1815 -0.0825  0.2038
 8184SOL    HW136188   0.666   4.327  15.787  0.3679  0.5194 -0.7684
 8184SOL    HW236189   0.736   4.385  15.901 -0.5273  0.6693  1.2381
 8185SOL     OW36190   2.576   2.649   0.910  0.1451  0.1453 -0.8557
 8185SOL    HW136191   2.645   2.615   0.967 -1.1788  2.8358  2.3631
 8185SOL    HW236192   2.514   2.698   0.965 -0.8722  1.3277 -3.0462
 8186SOL     OW36193   3.550   4.716   7.433  0.4006 -0.3331 -0.2937
 8186SOL    HW136194   3.584   0.065   7.413  1.1768 -0.5048  0.2860
 8186SOL    HW236195   3.470   0.011   7.475  0.0554 -1.2994 -0.1969
 8187SOL     OW36196   2.632   3.662   9.192  0.0917  0.0703 -0.1761
 8187SOL    HW136197   2.717   3.699   9.217 -0.0121  1.5330 -1.9860
 8187SOL    HW236198   2.580   3.742   9.204  0.3269 -0.0576  1.7400
 8188SOL     OW36199   3.656   0.985   0.084 -0.0517  0.2209 -0.3988
 8188SOL    HW136200   3.693   0.997   0.171 -0.8030 -2.1384  0.2392
 8188SOL    HW236201   3.711   0.920   0.040 -0.0817 -2.0584  2.9727
 8189SOL     OW36202   1.540   0.553   8.049  0.4091  0.2008 -0.2753
 8189SOL    HW136203   1.575   0.469   8.021  0.7442  0.8574 -1.8465
 8189SOL    HW236204   1.622   0.600   8.066 -0.3043  1.7670 -1.1879
 8190SOL     OW36205   0.687   2.826   7.279 -0.1180  0.0935 -0.1551
 8190SOL    HW136206   0.611   2.787   7.323  0.2309 -0.8260 -0.3610
 8190SOL    HW236207   0.692   2.769   7.203 -1.5740 -2.2262  1.4780
 8191SOL     OW36208   0.617   2.772   9.559  0.1256 -0.3144 -0.4951
 8191SOL    HW136209   0.642   2.778   9.466 -0.5850 -0.2618 -0.6775
 8191SOL    HW236210   0.660   2.691   9.587 -1.0052 -0.5161  0.6453
 8192SOL     OW36211   2.299   3.302   2.962 -0.4150 -0.1127  0.2834
 8192SOL    HW136212   2.311   3.397   2.970 -2.7087  0.1424  0.8787
 8192SOL    HW236213   2.318   3.299   2.868 -1.6571 -0.4722  0.0388
 8193SOL     OW36214   1.206   3.475   0.739 -0.1435  0.3599  0.3569
 8193SOL    HW136215   1.256   3.405   0.698 -0.4441  0.5799 -0.3738
 8193SOL    HW236216   1.123   3.467   0.693  0.3135 -1.5138 -0.1296
 8194SOL     OW36217   2.678   2.046   3.307  0.1949  0.5773  0.0650
 8194SOL    HW136218   2.655   2.009   3.222  1.8383 -0.8665  0.2280
 8194SOL    HW236219   2.647   2.137   3.299 -0.3798  0.4208  0.5823
 8195SOL     OW36220   2.839   4.369  13.580 -0.4348  0.3454 -0.0281
 8195SOL    HW136221   2.897   4.443  13.559  1.9717 -1.2959  0.9274
 8195SOL    HW236222   2.902   4.300  13.597 -1.6188 -0.5978  0.5222
 8196SOL     OW36223   3.076   4.119   7.285  0.3800  0.7259 -0.4532
 8196SOL    HW136224   3.119   4.204   7.282 -1.7051  1.8840  2.2586
 8196SOL    HW236225   3.140   4.051   7.265 -0.5903 -0.3179 -0.0164
 8197SOL     OW36226   3.861   1.114   3.845  0.2096  0.4632  0.3474
 8197SOL    HW136227   3.817   1.081   3.767 -0.4367 -1.2254  1.4171
 8197SOL    HW236228   3.866   1.206   3.819  0.2865  0.5693  0.7314
 8198SOL     OW36229   0.647   0.957   4.179 -0.2886 -0.0125 -0.4012
 8198SOL    HW136230   0.721   0.898   4.165  0.5937  0.4491  2.2717
 8198SOL    HW236231   0.583   0.892   4.206 -1.7998  1.3818 -0.6490
 8199SOL     OW36232   3.990   1.123   7.132 -0.0987  0.1114 -0.3727
 8199SOL    HW136233   3.956   1.131   7.221 -1.6050 -2.5939 -0.6989
 8199SOL    HW236234   4.082   1.151   7.135 -0.2485  0.7147 -1.6853
 8200SOL     OW36235   2.580   1.807   4.253  0.1444  0.3372  0.3640
 8200SOL    HW136236   2.548   1.718   4.268 -2.1285  0.3404 -4.2696
 8200SOL    HW236237   2.598   1.838   4.341 -0.0961 -0.6870  0.7770
 8201SOL     OW36238   3.160   2.642  17.599 -0.2012 -0.4329  0.0860
 8201SOL    HW136239   3.097   2.580  17.636 -0.8652 -0.0607 -0.4195
 8201SOL    HW236240   3.112   2.725  17.606  0.3492 -0.0775 -0.4113
 8202SOL     OW36241   2.272   0.360   2.813 -0.0054  0.0640  0.6620
 8202SOL    HW136242   2.179   0.338   2.807  0.2532 -0.1567 -2.3615
 8202SOL    HW236243   2.242   0.434   2.866  1.2134  0.6880  0.4662
 8203SOL     OW36244   3.417   1.303   2.103 -0.3117 -0.1245 -0.2455
 8203SOL    HW136245   3.431   1.210   2.084 -2.6812 -0.5092 -0.1131
 8203SOL    HW236246   3.332   1.296   2.147 -0.0481 -1.7624  0.0049
 8204SOL     OW36247   1.355   2.304  10.384 -0.0386  0.4146 -0.2634
 8204SOL    HW136248   1.374   2.226  10.437 -1.2513 -0.5877 -1.3093
 8204SOL    HW236249   1.432   2.354  10.413  0.6462 -1.5670  1.3445
 8205SOL     OW36250   4.685   3.105   8.260  0.1366  0.1519  0.1263
 8205SOL    HW136251   4.700   3.027   8.207  1.6949  2.4033 -2.7163
 8205SOL    HW236252   4.678   3.067   8.348 -0.5468  0.0195  0.0192
 8206SOL     OW36253   4.737   4.081   7.799 -0.1098 -0.4308 -0.0617
 8206SOL    HW136254   4.662   4.030   7.769  0.8627 -1.7944 -0.1643
 8206SOL    HW236255   4.708   4.122   7.881 -2.4102 -0.0859 -1.0374
 8207SOL     OW36256   4.512   3.869  16.226 -0.1266 -0.0460 -0.1095
 8207SOL    HW136257   4.588   3.817  16.199 -0.7390 -2.1778  2.3083
 8207SOL    HW236258   4.551   3.910  16.303 -1.0388  0.7103 -0.0515
 8208SOL     OW36259   0.436   3.617  17.420  0.2639 -0.0308  0.6285
 8208SOL    HW136260   0.366   3.566  17.460  0.2777 -0.2191  0.4075
 8208SOL    HW236261   0.486   3.546  17.380  2.4874 -0.0349  3.4119
 8209SOL     OW36262   4.052   1.166  13.137  0.6475 -0.1633  0.4461
 8209SOL    HW136263   4.062   1.231  13.206  2.0035  0.7001 -0.5616
 8209SOL    HW236264   3.958   1.170  13.124  0.7462 -0.4021 -0.3303
 8210SOL     OW36265   0.928   1.510   3.537 -0.0781 -0.8809 -0.0289
 8210SOL    HW136266   0.925   1.605   3.545 -0.1345 -0.7473 -1.4900
 8210SOL    HW236267   0.842   1.490   3.500 -1.6459  1.4935  2.4210
 8211SOL     OW36268   0.695   3.782  16.583 -0.4744 -0.1185 -0.0103
 8211SOL    HW136269   0.733   3.729  16.653  0.2806  0.4173 -0.0119
 8211SOL    HW236270   0.775   3.825  16.552 -0.1575 -1.3908 -0.9747
 8212SOL     OW36271   0.290   2.326   4.004 -0.1682 -0.3988 -0.0289
 8212SOL    HW136272   0.371   2.297   3.962 -0.9581 -0.4375 -1.5331
 8212SOL    HW236273   0.325   2.380   4.075 -2.4716 -0.4266  1.1266
 8213SOL     OW36274   1.361   0.713   7.230  0.0962 -0.5593  0.1451
 8213SOL    HW136275   1.381   0.664   7.310  1.1491 -1.8879 -0.9314
 8213SOL    HW236276   1.444   0.745   7.197 -0.1868 -0.6928 -0.7090
 8214SOL     OW36277   2.948   3.176   2.195 -0.1262 -0.5412 -0.1653
 8214SOL    HW136278   2.956   3.254   2.250 -0.3744  0.5317 -1.6626
 8214SOL    HW236279   2.867   3.193   2.147 -0.1813  1.0308  0.4739
 8215SOL     OW36280   4.228   1.912  12.838 -0.2070  0.1999  0.0931
 8215SOL    HW136281   4.305   1.860  12.816 -0.8014 -0.4832 -0.3894
 8215SOL    HW236282   4.258   1.993  12.878 -1.6807  1.8376 -2.1398
 8216SOL     OW36283   1.197   2.337   7.021 -0.6966 -0.2028 -0.3219
 8216SOL    HW136284   1.191   2.355   7.115 -0.7598 -0.9837 -0.1814
 8216SOL    HW236285   1.269   2.396   7.000  0.2068 -0.3920  2.2497
 8217SOL     OW36286   2.313   2.260   0.061 -0.0854  0.8059  0.0903
 8217SOL    HW136287   2.222   2.266   0.032  0.4411  1.5480 -1.4472
 8217SOL    HW236288   2.301   2.266   0.155 -1.0393  1.8620 -0.0974
 8218SOL     OW36289   3.905   0.956   1.050 -0.1541  0.3637  0.3161
 8218SOL    HW136290   3.843   0.927   0.983  2.5545  2.8833 -3.2108
 8218SOL    HW236291   3.906   0.885   1.114 -2.9631  1.7012  1.8602
 8219SOL     OW36292   1.151   0.543   7.688  0.8116 -0.5886  0.1270
 8219SOL    HW136293   1.070   0.579   7.651  1.8237 -0.3428 -1.8315
 8219SOL    HW236294   1.183   0.502   7.609  0.6888  0.0280 -0.2454
 8220SOL     OW36295   2.385   2.465   2.918 -0.6241 -0.0292  0.1719
 8220SOL    HW136296   2.478   2.486   2.929 -0.3967 -1.0815  0.2411
 8220SOL    HW236297   2.377   2.499   2.829  4.0798  1.7731  0.3796
 8221SOL     OW36298   0.450   0.941   8.999 -0.2993  0.0831 -0.2805
 8221SOL    HW136299   0.409   1.008   9.053 -2.2244  0.1617 -1.8321
 8221SOL    HW236300   0.440   0.868   9.061 -1.2692 -1.9786 -2.8907
 8222SOL     OW36301   2.710   1.942   4.033 -0.3821  0.0361 -0.6417
 8222SOL    HW136302   2.700   2.034   4.056  0.2408  0.4791 -2.1410
 8222SOL    HW236303   2.644   1.896   4.085  1.1787 -1.4432  0.0241
 8223SOL     OW36304   0.051   2.595   5.047  0.5984  0.2512  0.4334
 8223SOL    HW136305   0.068   2.577   4.954  1.7847  0.2922  0.6404
 8223SOL    HW236306   0.079   2.685   5.063  1.5475  0.0984 -0.3631
 8224SOL     OW36307   0.167   3.945  13.330  0.6755 -0.2420  0.0806
 8224SOL    HW136308   0.182   4.023  13.276  1.7606 -0.2487  0.3553
 8224SOL    HW236309   0.214   3.969  13.410 -0.5326  0.0883  0.6886
 8225SOL     OW36310   2.012   3.540   7.419  0.0298 -0.5912 -0.3283
 8225SOL    HW136311   1.939   3.540   7.481  0.6304  0.8702  0.3555
 8225SOL    HW236312   1.980   3.486   7.347 -1.7110 -0.1553  0.1130
 8226SOL     OW36313   4.203   3.535   3.484  0.4138 -0.4867  0.0371
 8226SOL    HW136314   4.246   3.479   3.549  1.3602 -1.5107 -1.4529
 8226SOL    HW236315   4.270   3.529   3.416 -1.4581  0.2623 -1.8559
 8227SOL     OW36316   3.431   0.066   5.958  0.4784  0.1170 -0.4336
 8227SOL    HW136317   3.497   0.065   6.027 -0.8566 -1.7064  0.8045
 8227SOL    HW236318   3.397   4.715   5.951 -0.0175  0.3729 -1.3364
 8228SOL     OW36319   1.723   0.862   7.388  0.5888  0.6922  0.2494
 8228SOL    HW136320   1.799   0.836   7.440 -1.6093 -0.9111  2.6595
 8228SOL    HW236321   1.670   0.783   7.392  0.3234  0.8765  0.3769
 8229SOL     OW36322   1.916   4.284  16.213  0.3499  0.4531 -0.0455
 8229SOL    HW136323   1.905   4.332  16.131  2.3530 -1.2541 -1.3248
 8229SOL    HW236324   1.984   4.222  16.186 -1.2971 -1.4554  0.1834
 8230SOL     OW36325   0.834   1.027  12.331 -0.1959 -0.9679  0.1061
 8230SOL    HW136326   0.871   1.081  12.401  0.0597 -0.7665 -0.1829
 8230SOL    HW236327   0.921   1.002  12.300  0.0686  1.7204 -1.3361
 8231SOL     OW36328   3.303   0.398  15.925 -0.5384 -0.1088  0.2938
 8231SOL    HW136329   3.225   0.384  15.871  1.3275 -3.3188 -1.5658
 8231SOL    HW236330   3.286   0.332  15.992  1.3305  0.3678  1.2391
 8232SOL     OW36331   3.068   2.143   2.369  0.3703 -0.8571  0.4217
 8232SOL    HW136332   3.087   2.228   2.329 -0.4973 -0.8099  0.1014
 8232SOL    HW236333   3.091   2.164   2.460  2.2602  0.9714 -0.4866
 8233SOL     OW36334   1.321   0.795   6.014  0.4955 -0.3934 -0.3972
 8233SOL    HW136335   1.349   0.775   6.103  1.0081 -0.7999 -0.6432
 8233SOL    HW236336   1.243   0.847   6.032  0.5935 -0.5739  0.5337
 8234SOL     OW36337   4.320   1.676   7.312 -0.0498  0.1156 -0.3278
 8234SOL    HW136338   4.243   1.710   7.266  0.2566  2.0805  0.5925
 8234SOL    HW236339   4.397   1.713   7.268 -0.8099  0.7085 -1.1625
 8235SOL     OW36340   3.301   1.473   1.893  0.4663 -0.1408  0.0739
 8235SOL    HW136341   3.350   1.406   1.941  2.4684  2.1601  1.1852
 8235SOL    HW236342   3.291   1.543   1.958  2.6496  0.4285 -0.2150
 8236SOL     OW36343   1.350   1.427   7.964 -0.5796  0.0154  0.6146
 8236SOL    HW136344   1.278   1.469   7.916 -2.2623 -2.1270  1.2698
 8236SOL    HW236345   1.402   1.391   7.893 -0.2307 -0.3363  1.0479
 8237SOL     OW36346   3.260   2.948   5.725  0.2605 -0.1408 -0.3447
 8237SOL    HW136347   3.321   2.991   5.665 -1.6106  2.9224 -0.0639
 8237SOL    HW236348   3.315   2.873   5.748 -0.9989 -1.0883 -0.3882
 8238SOL     OW36349   4.002   0.691  10.323  0.2276 -0.8662 -0.7709
 8238SOL    HW136350   4.077   0.740  10.355  0.6954 -1.3616 -1.1139
 8238SOL    HW236351   3.942   0.752  10.280 -0.1121 -1.1086 -0.6412
 8239SOL     OW36352   2.888   0.927   4.247  0.5248  0.2517  0.1371
 8239SOL    HW136353   2.817   0.895   4.303 -0.0446 -0.1083 -0.7991
 8239SOL    HW236354   2.878   0.884   4.162  0.4667 -0.3933  0.4719
 8240SOL     OW36355   3.677   3.584   3.415 -0.4862 -0.0163 -0.3846
 8240SOL    HW136356   3.634   3.629   3.488 -1.6368 -0.5979 -0.7084
 8240SOL    HW236357   3.757   3.546   3.451 -1.0336 -2.0186 -1.2809
 8241SOL     OW36358   1.134   0.773   7.116  0.0587  0.0943  0.1290
 8241SOL    HW136359   1.227   0.768   7.139 -0.4955  0.2903  2.3385
 8241SOL    HW236360   1.110   0.719   7.191 -2.8919 -0.3726 -1.1628
 8242SOL     OW36361   2.437   1.009   9.109  0.4166  0.1755  0.3579
 8242SOL    HW136362   2.407   0.930   9.063  3.1309 -0.8055  0.3205
 8242SOL    HW236363   2.526   1.010   9.074  0.0247  0.3048 -0.6272
 8243SOL     OW36364   0.363   1.368   2.950  0.4392  0.1296  0.4711
 8243SOL    HW136365   0.448   1.379   2.992  0.3167  1.1768  0.4270
 8243SOL    HW236366   0.368   1.275   2.929  0.4863 -0.2598  2.1525
 8244SOL     OW36367   1.069   4.493   9.328  0.4590 -0.5353  0.0544
 8244SOL    HW136368   1.090   4.486   9.235 -1.8799 -0.3107 -0.4720
 8244SOL    HW236369   1.148   4.532   9.365  0.2127 -1.8281  1.9382
 8245SOL     OW36370   1.389   3.572  12.616 -0.0995  0.0834  1.0804
 8245SOL    HW136371   1.472   3.541  12.652 -0.0338  2.3515  2.8917
 8245SOL    HW236372   1.417   3.660  12.591  0.8402 -0.8878 -1.2504
 8246SOL     OW36373   2.770   3.941   3.177 -0.2213  0.6007  0.4216
 8246SOL    HW136374   2.694   3.930   3.120  1.4304 -0.1811 -1.6344
 8246SOL    HW236375   2.747   3.886   3.251 -3.5376  2.2585  0.6302
 8247SOL     OW36376   2.122   1.401   5.223  0.4954  0.0437  0.0226
 8247SOL    HW136377   2.118   1.327   5.284  0.6781 -0.8724 -1.0761
 8247SOL    HW236378   2.216   1.397   5.206  1.3732  1.6900  4.4266
 8248SOL     OW36379   1.509   3.805  16.693  0.3081  0.0696 -0.0208
 8248SOL    HW136380   1.479   3.813  16.783  0.4126  2.5260 -0.2123
 8248SOL    HW236381   1.576   3.737  16.703 -0.4207 -0.3250  2.0559
 8249SOL     OW36382   3.560   3.082  14.675 -0.2063 -0.3554 -0.7962
 8249SOL    HW136383   3.510   3.163  14.663  0.4882  0.5960  2.5989
 8249SOL    HW236384   3.549   3.028  14.597  0.4426 -0.6522 -0.6825
 8250SOL     OW36385   2.106   0.457   8.585  0.5776  0.0427  0.3413
 8250SOL    HW136386   2.027   0.508   8.566  0.5167 -0.2831 -0.2749
 8250SOL    HW236387   2.162   0.527   8.551  1.0475 -0.1372  0.7558
 8251SOL     OW36388   0.128   2.033   7.885 -0.4112 -0.5038 -0.5860
 8251SOL    HW136389   0.099   1.951   7.924 -3.1410 -0.1389 -1.8383
 8251SOL    HW236390   0.223   2.024   7.888 -0.2590  0.9227 -0.8683
 8252SOL     OW36391   3.331   4.093   8.700 -0.9255 -0.2230 -0.3834
 8252SOL    HW136392   3.282   4.142   8.634  0.4194  0.4564 -0.8581
 8252SOL    HW236393   3.416   4.136   8.704 -0.7330 -0.5799 -0.6713
 8253SOL     OW36394   3.763   0.625  16.533 -0.3090 -0.1326  0.5223
 8253SOL    HW136395   3.672   0.595  16.528 -0.6049  0.7583  0.6703
 8253SOL    HW236396   3.808   0.541  16.529 -0.0379  0.0147  0.5169
 8254SOL     OW36397   3.595   4.028   6.199 -0.2664 -0.2472  0.1943
 8254SOL    HW136398   3.573   4.055   6.109 -2.1465  1.1149  1.0610
 8254SOL    HW236399   3.605   4.118   6.230 -1.7416 -0.0874  0.2299
 8255SOL     OW36400   3.100   2.846  13.096 -0.1405  0.0018  0.1253
 8255SOL    HW136401   3.013   2.807  13.085 -0.3193  0.5515 -0.3994
 8255SOL    HW236402   3.098   2.883  13.184 -2.7935  2.0123 -0.7493
 8256SOL     OW36403   1.856   1.290  13.993  0.2538  0.5266  0.0459
 8256SOL    HW136404   1.791   1.356  14.018 -0.7845 -0.9098  1.1495
 8256SOL    HW236405   1.801   1.215  14.014 -0.0116  0.3575 -1.2373
 8257SOL     OW36406   0.337   4.373   9.913  0.5977 -0.2377 -0.0721
 8257SOL    HW136407   0.376   4.398   9.829 -1.5062  0.5549 -0.8248
 8257SOL    HW236408   0.386   4.295   9.936 -1.5025 -1.2140  1.1084
 8258SOL     OW36409   4.637   2.264   6.835  0.5674 -0.6168 -0.1549
 8258SOL    HW136410   4.558   2.251   6.887  1.5992 -1.2822  1.2516
 8258SOL    HW236411   4.642   2.178   6.792 -1.4650 -1.6819  1.7175
 8259SOL     OW36412   1.346   3.675   0.546 -0.8633 -0.0212  0.1797
 8259SOL    HW136413   1.303   3.644   0.466 -0.7961 -0.4969  0.3303
 8259SOL    HW236414   1.344   3.597   0.600 -4.2768 -0.4322 -0.5595
 8260SOL     OW36415   1.748   1.335   7.000  0.4257 -0.1413  0.0979
 8260SOL    HW136416   1.779   1.426   7.006  0.3761 -0.0274 -1.1870
 8260SOL    HW236417   1.819   1.280   6.969  1.3606  0.4568  1.2017
 8261SOL     OW36418   4.496   4.048   7.576  0.0849 -0.3346 -0.3249
 8261SOL    HW136419   4.548   3.968   7.582 -0.8249 -0.9916 -1.1723
 8261SOL    HW236420   4.468   4.049   7.667 -1.2955  2.6374 -0.7758
 8262SOL     OW36421   3.430   3.193   6.980 -0.1396  0.7117  0.3469
 8262SOL    HW136422   3.430   3.103   7.011  0.5380  0.0029 -1.7151
 8262SOL    HW236423   3.461   3.174   6.892 -0.4402 -1.7913  0.7738
 8263SOL     OW36424   0.912   1.647  11.922 -0.3756 -0.5757 -1.0237
 8263SOL    HW136425   0.914   1.587  11.996 -0.0000  0.3088 -0.3133
 8263SOL    HW236426   0.984   1.707  11.939  1.1968 -3.1655  1.4314
 8264SOL     OW36427   1.738   3.904   2.018  0.2499  0.1960 -0.0793
 8264SOL    HW136428   1.825   3.931   1.989  0.2599  3.3738  2.8560
 8264SOL    HW236429   1.746   3.928   2.110  0.3603 -0.0532 -0.0250
 8265SOL     OW36430   4.199   3.245   3.865  0.5714  0.4802 -0.4518
 8265SOL    HW136431   4.118   3.194   3.859  0.6123  0.2856  0.6154
 8265SOL    HW236432   4.207   3.276   3.775 -0.5829 -0.5570 -0.9142
 8266SOL     OW36433   4.374   2.121   7.834 -0.5909 -0.0021  0.0276
 8266SOL    HW136434   4.383   2.030   7.862  4.5913  0.5590  0.1754
 8266SOL    HW236435   4.366   2.162   7.920 -0.6992  0.4892 -0.2173
 8267SOL     OW36436   0.018   2.541   3.623 -0.3898  0.0786  0.0294
 8267SOL    HW136437   4.663   2.556   3.643 -0.1421  2.8719 -0.9023
 8267SOL    HW236438   0.031   2.582   3.537 -0.4493  0.2553  0.1049
 8268SOL     OW36439   2.099   0.039  13.821 -0.6966  0.0776  0.2275
 8268SOL    HW136440   2.133   4.715  13.756  1.1070 -1.3515  2.5226
 8268SOL    HW236441   2.184   0.054  13.861  1.4497  0.4629 -4.4216
 8269SOL     OW36442   2.429   4.732   8.278 -0.2825  0.3369 -0.3445
 8269SOL    HW136443   2.417   0.088   8.272 -0.7203  0.3149  0.1902
 8269SOL    HW236444   2.396   4.707   8.364 -1.3898 -0.2429 -0.9337
 8270SOL     OW36445   4.359   2.989   5.974  0.0901  0.2866  0.5338
 8270SOL    HW136446   4.302   2.938   6.032 -1.3683  1.0628 -0.2078
 8270SOL    HW236447   4.409   3.038   6.040 -0.7141 -0.7661  1.9383
 8271SOL     OW36448   0.005   3.552  10.015  0.1579  0.7101  0.3103
 8271SOL    HW136449   4.682   3.607  10.064 -1.0005  0.0268 -0.3781
 8271SOL    HW236450   0.016   3.475  10.070  0.2360 -0.1547 -0.9230
 8272SOL     OW36451   0.368   2.793   8.890 -0.1562 -0.6912  0.4940
 8272SOL    HW136452   0.355   2.874   8.841  3.5571 -0.2246  0.3117
 8272SOL    HW236453   0.287   2.772   8.937 -0.3364 -2.0655 -0.4076
 8273SOL     OW36454   3.292   1.483   8.431  0.0484 -0.2321 -0.0025
 8273SOL    HW136455   3.271   1.391   8.412 -0.7146 -0.0203 -0.1539
 8273SOL    HW236456   3.222   1.537   8.396 -0.4660  0.2990  1.8471
 8274SOL     OW36457   1.519   4.699   0.439  0.0758 -0.2339  0.5277
 8274SOL    HW136458   1.451   4.679   0.375 -0.7208 -0.2643  1.3886
 8274SOL    HW236459   1.536   4.609   0.469 -0.9830 -0.0779  1.6313
 8275SOL     OW36460   3.986   3.676  17.043  0.3040 -0.3062  0.8112
 8275SOL    HW136461   4.068   3.646  17.004  0.1763 -0.2273  0.4764
 8275SOL    HW236462   3.948   3.593  17.073 -0.8685  0.2151  0.7796
 8276SOL     OW36463   0.570   0.281   8.753 -0.6784 -0.1193 -0.3087
 8276SOL    HW136464   0.576   0.376   8.757 -1.3243 -0.0576 -0.8573
 8276SOL    HW236465   0.574   0.265   8.848 -1.4126 -0.9311 -0.4113
 8277SOL     OW36466   2.269   0.545  16.534 -0.6121 -0.3370  0.6915
 8277SOL    HW136467   2.288   0.636  16.514 -2.4118 -0.1885 -0.3019
 8277SOL    HW236468   2.179   0.528  16.505  0.3240  0.6875 -2.8467
 8278SOL     OW36469   0.185   2.989  14.247 -0.3252 -0.3329 -0.1024
 8278SOL    HW136470   0.225   2.905  14.226  2.0510  1.1685 -1.5659
 8278SOL    HW236471   0.246   3.053  14.211  1.0603 -0.9747  1.1226
 8279SOL     OW36472   4.171   3.212   6.051  0.2250 -0.0633  0.5313
 8279SOL    HW136473   4.157   3.186   6.142 -0.6116 -2.6383 -0.3237
 8279SOL    HW236474   4.108   3.284   6.048 -0.1183 -0.3352  1.0532
 8280SOL     OW36475   2.260   1.122   0.757  0.2579 -0.8365  0.3109
 8280SOL    HW136476   2.243   1.197   0.700  1.4807  0.5387  1.7541
 8280SOL    HW236477   2.286   1.163   0.840  0.8262 -1.0027  0.2170
 8281SOL     OW36478   4.002   0.020   6.246 -0.3726  0.0544  0.0340
 8281SOL    HW136479   4.020   4.703   6.170 -1.3559  1.0071 -0.9056
 8281SOL    HW236480   3.907   0.013   6.256 -0.7649  3.6803 -0.9405
 8282SOL     OW36481   4.138   0.846   6.283 -0.0103 -0.4193  0.0565
 8282SOL    HW136482   4.119   0.790   6.208  2.5359  0.7967 -1.5389
 8282SOL    HW236483   4.223   0.886   6.262 -1.4205  2.4106 -0.3525
 8283SOL     OW36484   1.727   1.354   8.062 -0.0598  0.2276  0.8180
 8283SOL    HW136485   1.671   1.281   8.085  1.6485 -1.0878  0.7617
 8283SOL    HW236486   1.766   1.382   8.145  2.5827 -0.8715 -0.0412
 8284SOL     OW36487   2.629   1.015   6.393  0.8000  0.7630  0.1383
 8284SOL    HW136488   2.556   1.056   6.441  0.6209  0.3136  0.2468
 8284SOL    HW236489   2.589   0.956   6.330  0.3423  0.5114  0.6672
 8285SOL     OW36490   4.654   4.162   1.455 -0.3947 -0.1130 -0.4952
 8285SOL    HW136491   4.583   4.200   1.403 -1.4578  0.1173  1.1404
 8285SOL    HW236492   4.714   4.235   1.473 -0.6561  0.3389 -1.4542
 8286SOL     OW36493   0.352   3.823   5.368  0.0297 -0.0573 -0.0517
 8286SOL    HW136494   0.265   3.799   5.338 -0.3255  1.9380 -0.5989
 8286SOL    HW236495   0.391   3.849   5.285 -1.0296 -0.2355 -0.6017
 8287SOL     OW36496   0.783   1.999   2.294 -1.1532 -0.0663 -0.1234
 8287SOL    HW136497   0.849   2.062   2.265 -2.3823  1.3246  0.1653
 8287SOL    HW236498   0.792   2.011   2.389  3.4709 -0.1783 -0.5634
 8288SOL     OW36499   2.418   1.046   3.371  0.5117 -0.1721  0.4367
 8288SOL    HW136500   2.500   1.081   3.336 -0.8964  0.6437 -2.0110
 8288SOL    HW236501   2.352   1.084   3.314 -0.3704 -2.4233 -0.0007
 8289SOL     OW36502   4.256   2.947   5.392  0.0472 -0.1609  0.2691
 8289SOL    HW136503   4.297   2.897   5.322 -3.0771 -2.4699  0.1083
 8289SOL    HW236504   4.251   2.893   5.471 -2.7760  1.5101  1.2181
 8290SOL     OW36505   0.194   1.104  10.812 -0.1651  0.2826 -0.1209
 8290SOL    HW136506   0.146   1.030  10.850  2.1560 -2.4047 -2.5164
 8290SOL    HW236507   0.151   1.176  10.860 -0.5968  0.2210 -0.4191
 8291SOL     OW36508   4.026   1.592   8.221  0.2686 -0.3886  0.1488
 8291SOL    HW136509   3.934   1.587   8.244 -0.0120  0.7632 -0.7456
 8291SOL    HW236510   4.022   1.546   8.137  2.7388  0.5049 -0.4784
 8292SOL     OW36511   2.200   1.139  15.886 -0.0412  0.3339  0.2200
 8292SOL    HW136512   2.137   1.200  15.926 -0.6676 -0.4650  0.4621
 8292SOL    HW236513   2.148   1.059  15.899  0.7114  0.0241  1.3135
 8293SOL     OW36514   0.410   3.456  14.690  0.2636 -0.3439 -0.3440
 8293SOL    HW136515   0.341   3.410  14.737 -1.4483  0.2382 -2.2689
 8293SOL    HW236516   0.406   3.394  14.617  3.1278  0.9878 -1.6305
 8294SOL     OW36517   1.306   2.016   5.439 -0.0924  0.2569  0.3852
 8294SOL    HW136518   1.297   1.928   5.475 -2.4669  0.2337 -0.2327
 8294SOL    HW236519   1.279   2.061   5.519  0.6293 -0.3149  0.9441
 8295SOL     OW36520   3.087   4.262   7.616  0.0277 -0.7000 -0.0786
 8295SOL    HW136521   3.009   4.286   7.565 -0.4462 -0.7733  0.6035
 8295SOL    HW236522   3.054   4.177   7.647  1.4403 -0.6929  1.4481
 8296SOL     OW36523   4.674   4.123   5.811 -0.2269  0.3339  0.3573
 8296SOL    HW136524   4.648   4.035   5.785 -3.1128  1.4127 -0.4423
 8296SOL    HW236525   0.022   4.136   5.772 -1.1566  2.2615 -1.0515
 8297SOL     OW36526   0.955   0.355   3.685 -0.0941 -0.0034 -0.6746
 8297SOL    HW136527   0.992   0.434   3.724  0.5709 -0.5652 -0.1756
 8297SOL    HW236528   1.008   0.286   3.724 -0.1183  0.9963  1.1831
 8298SOL     OW36529   2.881   3.060  16.674  0.5364 -0.2398 -0.9830
 8298SOL    HW136530   2.967   3.024  16.699 -0.3320 -1.0398  0.8221
 8298SOL    HW236531   2.874   3.022  16.586  2.3107 -3.0052  0.0645
 8299SOL     OW36532   4.190   2.416  16.772 -0.4642 -0.9809  0.7694
 8299SOL    HW136533   4.177   2.350  16.703  0.2710  2.7603 -2.8977
 8299SOL    HW236534   4.128   2.487  16.755  1.1478 -0.2042 -1.8469
 8300SOL     OW36535   1.676   1.214   6.611  0.9097 -0.6771 -0.0621
 8300SOL    HW136536   1.633   1.297   6.630  1.5050  0.6637 -4.4552
 8300SOL    HW236537   1.612   1.150   6.643 -1.0561  1.8400  0.9984
 8301SOL     OW36538   3.498   2.969   5.233  0.8471 -0.3516 -0.5619
 8301SOL    HW136539   3.421   2.914   5.249  1.0891 -0.2012  1.0199
 8301SOL    HW236540   3.550   2.891   5.212  2.5075  0.6123  0.0408
 8302SOL     OW36541   1.269   2.447   2.634  0.1485 -0.0711 -0.1234
 8302SOL    HW136542   1.240   2.368   2.588 -1.5798  0.9272 -0.7718
 8302SOL    HW236543   1.211   2.444   2.711 -1.3387  1.4896 -1.1710
 8303SOL     OW36544   2.448   0.841   4.109  0.5383 -0.5537 -0.0644
 8303SOL    HW136545   2.353   0.841   4.111  0.4707  1.4262 -2.7703
 8303SOL    HW236546   2.474   0.926   4.074  2.0672 -0.4175  1.4117
 8304SOL     OW36547   3.594   2.707   7.061  0.6271 -0.0147 -0.0436
 8304SOL    HW136548   3.615   2.639   6.997 -3.4471  0.5456 -2.0049
 8304SOL    HW236549   3.570   2.650   7.134  0.1019 -0.7524 -0.7783
 8305SOL     OW36550   2.805   2.585   9.623 -0.4678 -0.2351  0.5420
 8305SOL    HW136551   2.855   2.576   9.543 -3.0992  0.6721 -1.2184
 8305SOL    HW236552   2.720   2.609   9.584 -0.4894 -0.6624  0.3264
 8306SOL     OW36553   2.412   1.995   9.179  0.1085  0.0837 -0.2454
 8306SOL    HW136554   2.506   1.991   9.161  0.5528  1.4452  1.7507
 8306SOL    HW236555   2.386   1.999   9.087 -0.1476  2.7751 -0.0317
 8307SOL     OW36556   1.719   0.399   8.614 -0.6957 -0.1926 -0.2541
 8307SOL    HW136557   1.739   0.371   8.703  2.2340  1.4912 -0.3854
 8307SOL    HW236558   1.779   0.333   8.579 -0.9520 -0.1095 -0.8573
 8308SOL     OW36559   1.632   0.318   3.909  0.2704 -0.4932 -0.6283
 8308SOL    HW136560   1.637   0.225   3.886 -0.6374 -0.5925 -0.4162
 8308SOL    HW236561   1.687   0.353   3.838 -2.3333  0.4407 -2.2019
 8309SOL     OW36562   4.281   0.060   2.723 -0.1671 -0.6527  0.0447
 8309SOL    HW136563   4.206   0.112   2.693 -1.3622 -0.9212  2.5334
 8309SOL    HW236564   4.335   0.116   2.778  1.2229 -2.5894  0.6511
 8310SOL     OW36565   2.869   3.905  12.038 -0.0449  0.0417  0.0409
 8310SOL    HW136566   2.820   3.907  12.120 -1.3253 -0.5548 -0.7129
 8310SOL    HW236567   2.881   3.999  12.024 -1.7812  0.4719  1.4398
 8311SOL     OW36568   1.701   1.760   5.832  0.6776 -0.5498 -0.0961
 8311SOL    HW136569   1.757   1.832   5.861  0.4973  0.8724 -3.2931
 8311SOL    HW236570   1.630   1.766   5.896 -0.2697 -1.5278 -1.0576
 8312SOL     OW36571   1.360   0.101   1.683 -0.2378 -0.2478 -0.4210
 8312SOL    HW136572   1.292   0.046   1.644  0.0093 -0.2235 -0.8841
 8312SOL    HW236573   1.311   0.179   1.707  0.8971  0.5467 -0.7061
 8313SOL     OW36574   0.866   4.316   6.733  0.7533 -0.3141  0.4192
 8313SOL    HW136575   0.781   4.303   6.691  0.0717  0.6091  1.5255
 8313SOL    HW236576   0.849   4.346   6.823  1.2941 -1.8125  1.0339
 8314SOL     OW36577   1.576   2.718   4.224  0.1766  0.1573  0.2141
 8314SOL    HW136578   1.628   2.792   4.191  0.5644 -0.3329 -0.2673
 8314SOL    HW236579   1.498   2.724   4.169  1.1938 -1.8339 -1.4321
 8315SOL     OW36580   2.852   1.958   8.316  0.0755  0.2890 -0.2523
 8315SOL    HW136581   2.855   2.018   8.242  0.2259 -0.3438 -0.7597
 8315SOL    HW236582   2.769   1.912   8.305 -0.2135  0.9583 -0.8417
 8316SOL     OW36583   4.649   2.711   6.962  0.1693 -0.0113 -0.1516
 8316SOL    HW136584   4.710   2.784   6.950 -0.1948  0.4865  1.0416
 8316SOL    HW236585   4.682   2.650   6.896  0.3444 -0.2563  0.1572
 8317SOL     OW36586   1.480   2.522   1.436 -0.0674  0.2119  0.0992
 8317SOL    HW136587   1.522   2.572   1.506 -0.9556 -1.1637  1.6173
 8317SOL    HW236588   1.462   2.443   1.488 -0.9627  1.8829  2.3510
 8318SOL     OW36589   0.918   2.036   3.461 -0.0183  0.1839  0.2576
 8318SOL    HW136590   0.874   2.099   3.403  0.3476  0.5602  0.3923
 8318SOL    HW236591   0.929   2.095   3.535 -0.2523  1.8982 -1.0748
 8319SOL     OW36592   0.952   2.910  14.449 -0.0708 -0.2165  0.2281
 8319SOL    HW136593   1.007   2.833  14.464 -0.5081  0.0189  3.1555
 8319SOL    HW236594   0.867   2.871  14.472  0.5584 -0.7365  1.6862
 8320SOL     OW36595   0.242   0.009   5.042 -0.8020  0.0488  0.6318
 8320SOL    HW136596   0.259   4.676   4.981 -0.7597  1.0656 -0.5314
 8320SOL    HW236597   0.204   0.082   4.994 -1.4813 -1.0970 -0.5780
 8321SOL     OW36598   1.591   2.303   6.294  0.1419 -0.1095  0.4448
 8321SOL    HW136599   1.534   2.346   6.358  1.3129  1.0625  0.7256
 8321SOL    HW236600   1.605   2.225   6.348  0.3149 -0.7972 -0.6114
 8322SOL     OW36601   0.660   1.003   6.841  0.5341  0.3526 -0.0750
 8322SOL    HW136602   0.571   1.006   6.805  0.4195 -1.4968  0.0671
 8322SOL    HW236603   0.689   0.912   6.842  1.1900  0.5494 -0.6584
 8323SOL     OW36604   3.675   2.848   2.059 -0.2019  0.1470  0.2247
 8323SOL    HW136605   3.742   2.911   2.085  1.6188 -1.2719 -1.0351
 8323SOL    HW236606   3.614   2.910   2.019 -1.2519 -0.5529  0.7374
 8324SOL     OW36607   4.043   2.859   6.128 -1.0330  0.2220 -0.0521
 8324SOL    HW136608   3.949   2.874   6.136 -0.9709  1.4717 -1.5531
 8324SOL    HW236609   4.078   2.945   6.153  2.7786 -1.5519  0.6280
 8325SOL     OW36610   0.550   1.626   4.524 -0.3312  0.2260  0.0980
 8325SOL    HW136611   0.580   1.539   4.497  0.7096  0.4880  0.4180
 8325SOL    HW236612   0.512   1.662   4.443 -1.4484  0.1186  0.5691
 8326SOL     OW36613   3.705   4.397  15.973  0.2628  0.0181 -0.6857
 8326SOL    HW136614   3.736   4.405  15.883  2.4179 -0.0444  0.0587
 8326SOL    HW236615   3.628   4.340  15.967  0.0724 -0.0875  2.6077
 8327SOL     OW36616   3.070   1.925   4.235 -0.3775  0.6286  0.6467
 8327SOL    HW136617   3.119   1.863   4.182  0.5296  0.8337  1.2685
 8327SOL    HW236618   3.104   2.005   4.195  0.3560 -0.4384 -0.8693
 8328SOL     OW36619   2.309   0.352   7.786 -0.0963 -0.3227  0.1715
 8328SOL    HW136620   2.366   0.352   7.710 -0.9664 -1.3972 -0.4862
 8328SOL    HW236621   2.369   0.350   7.860  2.0095 -0.6629 -1.5765
 8329SOL     OW36622   4.445   3.109   4.546 -0.2268  0.3026  0.0098
 8329SOL    HW136623   4.479   3.174   4.485 -0.7535  0.9204  0.3739
 8329SOL    HW236624   4.441   3.033   4.488  1.6642 -0.9494  1.5056
 8330SOL     OW36625   2.543   3.640  14.478 -0.2758  0.1022  0.1160
 8330SOL    HW136626   2.544   3.735  14.468  2.0234 -0.1256 -1.6582
 8330SOL    HW236627   2.630   3.619  14.445 -0.3086  0.0245  0.0771
 8331SOL     OW36628   4.694   4.612   5.138 -0.2224 -0.6209 -0.3643
 8331SOL    HW136629   4.682   4.629   5.044  2.9704 -1.9244 -0.9887
 8331SOL    HW236630   4.691   4.516   5.139  0.8892 -0.6481  0.4651
 8332SOL     OW36631   0.299   3.701  13.347 -0.5649  0.1111 -0.3044
 8332SOL    HW136632   0.388   3.736  13.337 -0.5488  0.0517 -0.3643
 8332SOL    HW236633   0.242   3.770  13.313 -0.0875  1.1741  1.0251
 8333SOL     OW36634   1.923   4.277   2.879 -0.4469  0.0808  1.2006
 8333SOL    HW136635   1.924   4.194   2.832  0.0434  1.2196 -0.8025
 8333SOL    HW236636   1.840   4.318   2.856  0.4189  0.4438 -1.2602
 8334SOL     OW36637   2.743   0.757   5.239 -0.3492  0.0798  0.1263
 8334SOL    HW136638   2.728   0.706   5.318  1.3752  1.0459  1.0731
 8334SOL    HW236639   2.804   0.826   5.265  0.0795 -0.7177  1.2365
 8335SOL     OW36640   0.504   0.678  12.596 -0.3288 -0.1310  0.0817
 8335SOL    HW136641   0.521   0.587  12.620 -1.9716 -0.2639  0.6925
 8335SOL    HW236642   0.443   0.697  12.667 -1.2679  1.4005 -1.1298
 8336SOL     OW36643   1.846   1.125   5.867 -0.6229 -0.6094  0.2333
 8336SOL    HW136644   1.784   1.141   5.796  0.0053 -1.7237 -0.5487
 8336SOL    HW236645   1.826   1.180   5.943 -2.9584 -0.8001 -0.2225
 8337SOL     OW36646   4.283   4.221   3.817 -0.3477  0.0071 -0.1516
 8337SOL    HW136647   4.195   4.194   3.793  1.1578 -2.2039 -3.1189
 8337SOL    HW236648   4.279   4.316   3.807  0.0013  0.0705  0.2831
 8338SOL     OW36649   0.781   1.800   3.172 -0.1979 -0.0605 -0.0947
 8338SOL    HW136650   0.724   1.875   3.157  1.5635  1.1737 -0.6221
 8338SOL    HW236651   0.717   1.729   3.183  1.1038 -1.0078  1.3083
 8339SOL     OW36652   1.886   2.065   8.344  0.2654 -0.9792  0.1440
 8339SOL    HW136653   1.886   2.084   8.250 -1.4717 -2.7499 -0.2156
 8339SOL    HW236654   1.842   2.140   8.382  1.2368 -0.6181  0.5760
 8340SOL     OW36655   4.404   3.397  13.381  0.3308  0.4382 -0.4494
 8340SOL    HW136656   4.447   3.456  13.320  0.0180 -0.3908 -1.4764
 8340SOL    HW236657   4.405   3.309  13.343 -1.3032  0.5540 -0.7578
 8341SOL     OW36658   0.919   4.193   3.362  0.9083 -0.3302  0.4786
 8341SOL    HW136659   0.896   4.212   3.271 -0.2708 -0.8231  0.6670
 8341SOL    HW236660   0.901   4.279   3.401  0.5373 -0.2133  0.0548
 8342SOL     OW36661   2.013   4.235  12.245 -0.3670  0.2086  0.2392
 8342SOL    HW136662   1.970   4.273  12.169 -0.4579 -0.7384 -0.1788
 8342SOL    HW236663   2.053   4.159  12.202 -0.7946  0.4727 -0.6104
 8343SOL     OW36664   2.076   4.711   3.680  0.6162  0.1556  0.2495
 8343SOL    HW136665   2.111   0.058   3.651 -0.4193 -0.1328 -1.8766
 8343SOL    HW236666   1.989   4.729   3.644  0.4109  0.1623  0.7487
 8344SOL     OW36667   2.444   0.282   7.257 -0.0270 -0.3181  0.4332
 8344SOL    HW136668   2.517   0.229   7.287 -0.3987 -0.4425  1.1243
 8344SOL    HW236669   2.377   0.215   7.243  0.2973 -0.5243 -0.1188
 8345SOL     OW36670   2.430   0.984   2.441  0.1887 -0.0813  0.4631
 8345SOL    HW136671   2.411   0.907   2.386 -0.2164  0.9291 -0.8037
 8345SOL    HW236672   2.452   0.941   2.524  1.8801 -0.4494 -0.1755
 8346SOL     OW36673   0.426   0.745   7.384  0.5018 -0.6902  0.0463
 8346SOL    HW136674   0.371   0.667   7.391 -1.7200  0.9058  0.2235
 8346SOL    HW236675   0.371   0.792   7.322 -0.5901 -2.7180 -0.5170
 8347SOL     OW36676   3.096   0.944   2.018 -0.0097 -0.0979 -0.3102
 8347SOL    HW136677   3.172   0.991   2.052 -0.9905  1.2951 -0.0347
 8347SOL    HW236678   3.113   0.906   1.931 -0.0293  1.4849 -1.0077
 8348SOL     OW36679   2.930   3.377   1.646 -0.5495 -0.0893 -0.4801
 8348SOL    HW136680   2.851   3.430   1.658  0.1083  0.3321  2.0243
 8348SOL    HW236681   2.919   3.305   1.709  1.3417 -1.0676 -1.2789
 8349SOL     OW36682   3.356   1.298   1.695  0.1409 -0.3930 -0.4062
 8349SOL    HW136683   3.325   1.370   1.749 -1.2261 -0.1071 -1.5898
 8349SOL    HW236684   3.290   1.231   1.715 -0.2080 -0.3041 -1.2507
 8350SOL     OW36685   2.347   3.277   7.865 -0.4763  0.0931 -0.0159
 8350SOL    HW136686   2.439   3.261   7.845 -0.2263  1.4909  0.0007
 8350SOL    HW236687   2.338   3.227   7.947 -0.5390  0.2751  0.0896
 8351SOL     OW36688   3.569   2.809  10.087 -0.2744  0.5213 -0.0435
 8351SOL    HW136689   3.658   2.794  10.054 -0.0813 -0.3977  0.8967
 8351SOL    HW236690   3.590   2.898  10.116  3.0673 -0.3167  0.1876
 8352SOL     OW36691   2.821   2.633  14.730 -0.2249  0.1630  0.1333
 8352SOL    HW136692   2.771   2.595  14.802 -1.3147  0.3485 -0.5416
 8352SOL    HW236693   2.767   2.630  14.651 -1.8647 -2.2856  1.3611
 8353SOL     OW36694   2.506   0.778   9.298 -0.0364 -0.5128  0.1750
 8353SOL    HW136695   2.565   0.733   9.236 -1.4166 -1.7987 -0.2052
 8353SOL    HW236696   2.450   0.822   9.233 -1.1863 -1.0412  0.8204
 8354SOL     OW36697   2.784   4.452   9.778 -0.1620  0.2618 -0.4602
 8354SOL    HW136698   2.759   4.508   9.851 -0.1240 -1.2151  0.6724
 8354SOL    HW236699   2.875   4.425   9.792 -0.0207  2.0935  2.1349
 8355SOL     OW36700   2.680   0.043   8.042 -0.2414 -0.6636  0.0681
 8355SOL    HW136701   2.651   0.002   8.124  1.9152  0.2773  1.3097
 8355SOL    HW236702   2.680   0.135   8.068 -2.1918 -0.3341 -1.1021
 8356SOL     OW36703   3.926   3.067  13.397  0.6516  0.4085  0.1102
 8356SOL    HW136704   3.883   3.133  13.452  1.8689  0.2987  1.1753
 8356SOL    HW236705   3.928   2.993  13.457 -1.1867 -0.1233 -0.4868
 8357SOL     OW36706   4.619   1.765   6.061 -0.3806  0.1293  0.7858
 8357SOL    HW136707   4.534   1.767   6.017 -1.5032  1.3121  2.9823
 8357SOL    HW236708   4.658   1.852   6.066 -0.1365 -0.0048  1.2353
 8358SOL     OW36709   3.889   0.310   3.909  0.5436 -0.3172 -0.2564
 8358SOL    HW136710   3.965   0.348   3.953  0.2256 -0.3558  0.3222
 8358SOL    HW236711   3.930   0.291   3.824  0.5385 -1.9271  0.0884
 8359SOL     OW36712   0.923   3.020   1.932 -0.0770 -0.6903  0.2177
 8359SOL    HW136713   1.011   2.992   1.953 -0.3728 -1.4463  0.4275
 8359SOL    HW236714   0.927   3.116   1.938  0.1952 -0.6372 -0.9334
 8360SOL     OW36715   0.890   2.790  15.998 -0.3413 -0.5076 -0.1435
 8360SOL    HW136716   0.981   2.777  15.974 -0.4843 -1.7229 -0.0530
 8360SOL    HW236717   0.868   2.859  15.936  0.5225 -0.6105 -0.5570
 8361SOL     OW36718   3.886   1.300   5.263  0.1517  0.2779  0.7671
 8361SOL    HW136719   3.852   1.339   5.183 -1.3821  0.5479  1.5547
 8361SOL    HW236720   3.807   1.261   5.300  0.3438 -1.4646 -0.6880
 8362SOL     OW36721   2.587   0.874   7.579 -0.1821 -0.0839 -0.7392
 8362SOL    HW136722   2.599   0.961   7.540  2.4213 -0.8498 -1.6214
 8362SOL    HW236723   2.568   0.913   7.665  0.0642 -1.8864  0.1423
 8363SOL     OW36724   0.408   1.498   5.260  0.0091  0.0321 -0.4983
 8363SOL    HW136725   0.427   1.508   5.167 -0.1068 -2.4407 -0.7832
 8363SOL    HW236726   0.487   1.547   5.282  0.1518 -0.5050  0.1920
 8364SOL     OW36727   1.940   2.377  14.060  0.1472  0.2511  0.1700
 8364SOL    HW136728   1.938   2.471  14.076 -0.1034 -0.3163  3.5036
 8364SOL    HW236729   2.016   2.366  14.003  0.7080 -1.8190  1.2871
 8365SOL     OW36730   2.127   3.336  12.509  0.2169  0.0353  0.3194
 8365SOL    HW136731   2.160   3.297  12.590  1.9670  2.0337  0.5849
 8365SOL    HW236732   2.183   3.414  12.508 -2.4989  1.9711  2.0787
 8366SOL     OW36733   0.652   3.954   4.463  0.0120  0.5877  0.0138
 8366SOL    HW136734   0.730   3.947   4.409 -0.0159 -1.7169  0.2754
 8366SOL    HW236735   0.687   3.904   4.537 -1.8238 -1.5198 -0.5195
 8367SOL     OW36736   0.113   0.949   6.073  0.2364  0.4869  0.1674
 8367SOL    HW136737   0.128   0.966   5.980  1.5636  2.1016  0.6715
 8367SOL    HW236738   0.041   1.012   6.081 -0.8880 -0.9058  0.9470
 8368SOL     OW36739   2.945   2.311   0.999  0.0960  0.5440  0.8947
 8368SOL    HW136740   2.961   2.252   1.074  1.9568  1.3316  1.1205
 8368SOL    HW236741   3.036   2.325   0.971 -0.1273 -1.3660 -0.7364
 8369SOL     OW36742   4.323   2.438   3.460  0.7765 -0.2979  0.0811
 8369SOL    HW136743   4.252   2.493   3.495  1.1843 -0.0193  0.4686
 8369SOL    HW236744   4.275   2.355   3.457 -0.8180  0.6194  0.0946
 8370SOL     OW36745   3.430   2.961   0.785  0.1670  0.3884  0.3127
 8370SOL    HW136746   3.504   2.936   0.730 -2.0699 -3.6967 -0.8686
 8370SOL    HW236747   3.353   2.921   0.743  1.6888 -1.5617 -0.6241
 8371SOL     OW36748   0.584   1.385   7.500 -0.3557  0.2033  0.3043
 8371SOL    HW136749   0.574   1.302   7.547 -0.9946 -1.9809 -3.6759
 8371SOL    HW236750   0.674   1.388   7.466 -0.4244 -3.3379 -0.1986
 8372SOL     OW36751   0.115   2.492  17.253 -0.5694  0.2571  0.4232
 8372SOL    HW136752   0.099   2.443  17.173  0.0861 -1.3353  1.2653
 8372SOL    HW236753   0.173   2.428  17.293 -0.3086  0.9971  1.2355
 8373SOL     OW36754   1.078   2.626   7.630  0.2190  0.2677 -0.6831
 8373SOL    HW136755   1.173   2.613   7.633  0.2361  1.1118  3.1396
 8373SOL    HW236756   1.089   2.709   7.583 -0.4786  1.8070  1.8541
 8374SOL     OW36757   2.612   1.717   7.046  0.1321  0.2188 -0.0822
 8374SOL    HW136758   2.523   1.719   7.009  0.1360  0.0403 -0.0979
 8374SOL    HW236759   2.656   1.732   6.962  0.5722  0.5467  0.2095
 8375SOL     OW36760   0.076   0.156   4.869 -0.7463 -0.0822  0.9152
 8375SOL    HW136761   0.083   0.119   4.781  0.2836  0.8899  0.5715
 8375SOL    HW236762   4.725   0.181   4.892 -1.2256 -0.8032 -0.2012
 8376SOL     OW36763   4.688   1.645   9.359 -0.4190  0.4540  0.2423
 8376SOL    HW136764   4.634   1.719   9.388  0.2535  0.8268  0.5530
 8376SOL    HW236765   4.658   1.573   9.414  0.7700  0.5044  0.9680
 8377SOL     OW36766   3.435   3.849   8.718  0.5325 -0.2076  0.7617
 8377SOL    HW136767   3.524   3.875   8.743 -0.2010  1.6537  1.4212
 8377SOL    HW236768   3.394   3.936   8.715  1.0690 -0.0520 -2.0621
 8378SOL     OW36769   4.035   4.160   2.380  0.2176  0.0106  0.1025
 8378SOL    HW136770   3.946   4.142   2.348 -0.1359  2.0113 -0.0660
 8378SOL    HW236771   4.090   4.109   2.321  0.8441 -1.0755  1.6197
 8379SOL     OW36772   3.914   1.718   0.870 -0.1093 -0.2032  0.2467
 8379SOL    HW136773   3.939   1.805   0.838  0.7196 -0.9140 -1.0157
 8379SOL    HW236774   3.820   1.707   0.856 -0.3278  0.8698  0.8524
 8380SOL     OW36775   3.044   3.372   7.527 -0.1578  0.2580  0.0412
 8380SOL    HW136776   2.960   3.409   7.498 -1.4735 -1.4108  1.6931
 8380SOL    HW236777   3.017   3.317   7.600  2.6398 -3.0829 -1.4767
 8381SOL     OW36778   4.016   1.597   1.433 -0.0132 -0.2249 -0.2799
 8381SOL    HW136779   3.928   1.631   1.422  0.2136  0.1301 -0.9764
 8381SOL    HW236780   4.034   1.588   1.340  0.9094  1.1739 -0.2438
 8382SOL     OW36781   3.953   2.330   7.698  0.5555  0.3118 -0.3927
 8382SOL    HW136782   3.890   2.401   7.688  1.4197  0.9180 -1.6253
 8382SOL    HW236783   4.013   2.350   7.626  0.5323 -0.8659 -0.7241
 8383SOL     OW36784   3.866   0.263   5.666 -0.1884  0.3327 -1.2735
 8383SOL    HW136785   3.779   0.267   5.706  0.3302  0.0034 -0.1047
 8383SOL    HW236786   3.866   0.341   5.611  0.2918  1.9701  1.0149
 8384SOL     OW36787   1.065   4.208  10.531 -0.7529 -0.0623  0.5486
 8384SOL    HW136788   1.014   4.246  10.460  0.7810  1.7238  0.3853
 8384SOL    HW236789   1.020   4.254  10.603 -0.0964  1.0484  0.2497
 8385SOL     OW36790   1.439   1.230  17.369  0.2154 -0.6737 -0.1197
 8385SOL    HW136791   1.392   1.313  17.379  2.8716  0.7030  1.1647
 8385SOL    HW236792   1.407   1.172  17.438 -1.6084  0.6496  0.1589
 8386SOL     OW36793   2.034   0.202   6.772 -0.0931 -0.2252  0.0484
 8386SOL    HW136794   2.079   0.202   6.857  1.9175  0.8435 -1.0129
 8386SOL    HW236795   1.948   0.177   6.807 -0.8095  2.3026  0.0281
 8387SOL     OW36796   4.055   3.841   6.252  0.3356  0.0892 -0.4037
 8387SOL    HW136797   3.989   3.870   6.189  0.1225  1.5537  0.4865
 8387SOL    HW236798   4.014   3.839   6.339  0.2362 -1.3574 -0.4923
 8388SOL     OW36799   0.450   3.644   8.975 -0.4381 -0.0211  0.1111
 8388SOL    HW136800   0.430   3.556   8.943 -0.0617  0.0008 -0.1849
 8388SOL    HW236801   0.543   3.646   8.996 -0.5187 -1.2423  0.5930
 8389SOL     OW36802   3.171   3.995   6.433 -0.1050 -0.2859 -0.4419
 8389SOL    HW136803   3.147   4.049   6.358 -2.2467  0.3239  0.7077
 8389SOL    HW236804   3.267   3.996   6.433 -0.1101  0.5780  1.0155
 8390SOL     OW36805   1.864   4.588   2.006  0.0963  0.1761  0.0351
 8390SOL    HW136806   1.805   4.532   2.055 -0.8636  1.5535  0.4677
 8390SOL    HW236807   1.911   4.629   2.078  1.3134 -0.3575 -0.4576
 8391SOL     OW36808   0.396   2.259  11.628 -0.1802 -0.3073  0.0222
 8391SOL    HW136809   0.439   2.229  11.548 -1.3137 -0.8060 -0.3952
 8391SOL    HW236810   0.331   2.323  11.599  0.1565  0.9864  2.1385
 8392SOL     OW36811   1.136   0.947  14.300 -0.5550  0.0215  0.0312
 8392SOL    HW136812   1.116   0.909  14.215 -0.1776  0.2141 -0.1444
 8392SOL    HW236813   1.220   0.983  14.272  0.4289 -1.2817  1.2963
 8393SOL     OW36814   0.728   1.958   6.000  0.5069  0.0911 -0.2883
 8393SOL    HW136815   0.777   1.972   5.919  0.1784 -1.2322 -0.7243
 8393SOL    HW236816   0.640   1.988   5.979  0.9097 -0.1879 -2.3937
 8394SOL     OW36817   3.467   4.518  14.462  0.0262 -0.7792  0.1634
 8394SOL    HW136818   3.489   4.611  14.457  0.1508 -0.8932 -1.3931
 8394SOL    HW236819   3.501   4.491  14.547 -0.8788  1.7066  1.3336
 8395SOL     OW36820   0.828   0.010  13.461 -0.0834  0.9932 -0.1462
 8395SOL    HW136821   0.747   0.023  13.510  0.0618  0.6796  0.1791
 8395SOL    HW236822   0.891   0.005  13.534 -1.6646  1.0556  1.2258
 8396SOL     OW36823   0.611   0.012   8.402  0.0232  0.6257  0.5237
 8396SOL    HW136824   0.613   0.108   8.404  3.1812  0.5678  1.3063
 8396SOL    HW236825   0.704   4.726   8.400 -0.3361 -0.9726  3.7167
 8397SOL     OW36826   4.314   4.390   5.955  0.0978  0.0687  0.3019
 8397SOL    HW136827   4.381   4.389   5.886  0.0554  0.8753  0.2469
 8397SOL    HW236828   4.318   4.299   5.984  0.0702  0.0728  0.3187
 8398SOL     OW36829   3.246   3.130  15.252 -0.1013  0.1562 -0.1021
 8398SOL    HW136830   3.230   3.061  15.188 -3.4794  2.0392 -1.2925
 8398SOL    HW236831   3.267   3.196  15.185  0.5134  0.9901  0.9175
 8399SOL     OW36832   0.310   2.755   2.014 -0.4569 -0.0287 -0.4461
 8399SOL    HW136833   0.266   2.747   1.929 -1.0814 -1.1343 -0.0156
 8399SOL    HW236834   0.374   2.818   1.981  0.1287 -0.8931 -0.9652
 8400SOL     OW36835   3.529   0.847   7.828 -0.6435  0.1037 -0.4612
 8400SOL    HW136836   3.576   0.890   7.756  0.5144  0.5099  0.5394
 8400SOL    HW236837   3.536   0.910   7.899 -1.2068 -1.4614  0.9875
 8401SOL     OW36838   4.293   2.936   0.243  0.1096 -0.0170 -0.0399
 8401SOL    HW136839   4.289   2.974   0.155  1.2726 -0.2524 -0.1989
 8401SOL    HW236840   4.332   2.850   0.234  0.2571 -0.1265  1.6680
 8402SOL     OW36841   2.038   3.698   6.404  0.1185 -0.3214  0.2964
 8402SOL    HW136842   2.055   3.604   6.410  0.9372 -0.1078  1.4055
 8402SOL    HW236843   2.127   3.730   6.388  0.2091 -0.3980  0.6394
 8403SOL     OW36844   0.349   2.910   3.762 -0.1635  0.8225 -0.0777
 8403SOL    HW136845   0.391   2.827   3.781 -1.6351  0.1090  0.0856
 8403SOL    HW236846   0.367   2.940   3.851  2.6641  2.0969 -1.0751
 8404SOL     OW36847   1.197   3.951   0.955 -0.5772 -0.0695 -0.3706
 8404SOL    HW136848   1.198   3.989   1.043 -0.9901  0.9832 -0.8323
 8404SOL    HW236849   1.218   3.859   0.976  0.2922  0.6029  1.7588
 8405SOL     OW36850   0.093   2.096  10.783 -0.5188  0.0170  0.2983
 8405SOL    HW136851   0.184   2.113  10.759 -0.3037  0.9470  1.8151
 8405SOL    HW236852   0.047   2.147  10.716 -0.2868 -0.7026 -0.4216
 8406SOL     OW36853   3.366   3.021   8.672 -0.4046  0.3992 -0.2887
 8406SOL    HW136854   3.301   3.091   8.665  0.2499  0.9845 -0.6763
 8406SOL    HW236855   3.311   2.953   8.709 -1.0572  1.2968  0.4041
 8407SOL     OW36856   2.124   1.206   2.070  0.3895  0.5198 -0.0820
 8407SOL    HW136857   2.113   1.297   2.098  0.1302  1.1587 -2.2279
 8407SOL    HW236858   2.155   1.166   2.151 -1.5444 -0.5392  0.1447
 8408SOL     OW36859   0.979   0.795   8.917  0.3045 -0.2082 -0.2920
 8408SOL    HW136860   0.899   0.764   8.959  0.4060  2.3170  1.7260
 8408SOL    HW236861   0.980   0.887   8.943 -1.9376  0.8878 -4.0164
 8409SOL     OW36862   0.666   3.082   1.849  0.3804 -0.3109  0.2999
 8409SOL    HW136863   0.633   3.071   1.760 -1.4583 -4.2100  1.4956
 8409SOL    HW236864   0.757   3.054   1.842 -0.1367 -1.2351 -2.6801
 8410SOL     OW36865   1.893   0.783  11.927 -0.3807 -0.8302  0.3678
 8410SOL    HW136866   1.812   0.827  11.902  2.3304  3.3829 -0.9175
 8410SOL    HW236867   1.883   0.712  11.863 -0.9222  3.2223 -4.0549
 8411SOL     OW36868   4.581   2.922   1.176  0.0710 -0.2271 -0.0963
 8411SOL    HW136869   4.547   3.011   1.181 -0.9734 -0.5219 -1.7072
 8411SOL    HW236870   4.521   2.882   1.112  1.4623 -2.4494 -0.0126
 8412SOL     OW36871   3.411   4.263   7.336 -0.3972  0.0393  0.5625
 8412SOL    HW136872   3.348   4.329   7.310 -1.7610 -1.9614 -1.2202
 8412SOL    HW236873   3.407   4.278   7.431 -0.0825 -0.1327  0.6031
 8413SOL     OW36874   4.092   2.076   6.623 -0.3786 -0.6092  0.1252
 8413SOL    HW136875   4.058   2.055   6.535 -0.2958 -0.2474  0.0028
 8413SOL    HW236876   4.095   2.172   6.623  1.1212 -0.6701  1.1312
 8414SOL     OW36877   3.287   4.307   6.690 -0.2736 -0.3143 -0.2979
 8414SOL    HW136878   3.344   4.379   6.665 -0.8479  0.2344 -0.0395
 8414SOL    HW236879   3.349   4.254   6.739  0.4110  0.2739 -0.5279
 8415SOL     OW36880   1.382   2.048   9.045  0.1098 -0.1345 -0.4472
 8415SOL    HW136881   1.330   2.030   9.123 -1.9832  1.2596 -1.5219
 8415SOL    HW236882   1.400   2.141   9.058 -0.5300  0.2900 -2.5627
 8416SOL     OW36883   0.878   1.897   8.557 -0.0882  0.1879 -0.1011
 8416SOL    HW136884   0.824   1.973   8.576  1.2278  0.1650  3.8607
 8416SOL    HW236885   0.963   1.934   8.579 -1.1732  3.6093 -1.7679
 8417SOL     OW36886   0.416   3.750  10.568 -0.3051  0.1486  0.1221
 8417SOL    HW136887   0.359   3.826  10.574  0.7264  1.0870 -1.9318
 8417SOL    HW236888   0.503   3.780  10.596 -1.4065  1.5125  2.1068
 8418SOL     OW36889   3.346   3.608   1.701 -0.3816 -0.2512 -0.3265
 8418SOL    HW136890   3.362   3.688   1.751 -3.2283  0.1528 -0.0402
 8418SOL    HW236891   3.253   3.615   1.681  0.2925  1.7365 -2.6863
 8419SOL     OW36892   0.621   1.171   8.126  0.3808 -0.5146  0.1165
 8419SOL    HW136893   0.715   1.184   8.137  0.0595  0.2124  1.9581
 8419SOL    HW236894   0.584   1.246   8.173  3.1476  0.0610  1.3660
 8420SOL     OW36895   4.582   2.716   9.758 -0.2355 -0.0588 -0.2223
 8420SOL    HW136896   4.603   2.779   9.689  0.1369  0.5064  0.4180
 8420SOL    HW236897   4.621   2.637   9.721  0.7986 -0.6006  2.0078
 8421SOL     OW36898   1.211   1.843   8.065  0.4041 -0.0359  0.2618
 8421SOL    HW136899   1.188   1.750   8.069 -0.6836  0.2162 -0.1562
 8421SOL    HW236900   1.289   1.832   8.121 -1.5504 -0.8353  2.8270
 8422SOL     OW36901   1.720   1.463   1.802  0.4017 -0.6076  0.0499
 8422SOL    HW136902   1.684   1.513   1.729 -0.5905 -4.0187 -1.8137
 8422SOL    HW236903   1.673   1.500   1.876  1.8363  0.1639  0.5579
 8423SOL     OW36904   4.207   3.019   9.450  0.5995  0.3365 -0.4699
 8423SOL    HW136905   4.279   3.054   9.502 -0.9160  1.0264  1.1713
 8423SOL    HW236906   4.128   3.054   9.491  1.0063  1.3444 -0.5653
 8424SOL     OW36907   4.735   2.474   6.518  0.2195 -0.0375  1.0385
 8424SOL    HW136908   0.076   2.424   6.499 -0.8493 -0.7560 -1.4484
 8424SOL    HW236909   0.035   2.560   6.501  0.0950  0.2282  2.0766
 8425SOL     OW36910   1.652   3.109  17.218 -0.7362 -0.0088 -0.2678
 8425SOL    HW136911   1.660   3.023  17.177 -0.2048 -0.4498  0.7446
 8425SOL    HW236912   1.620   3.167  17.149 -0.5493  2.2866  1.5799
 8426SOL     OW36913   1.611   2.244  16.467  0.1319 -0.4051  0.2739
 8426SOL    HW136914   1.679   2.270  16.529  3.2593 -2.1024 -2.4243
 8426SOL    HW236915   1.549   2.197  16.524 -0.2321 -0.0887  0.1333
 8427SOL     OW36916   2.420   0.813   4.761 -0.1026  0.6849  0.1173
 8427SOL    HW136917   2.404   0.763   4.841 -0.7154 -2.3626 -1.9128
 8427SOL    HW236918   2.506   0.853   4.776 -0.7712  2.9309 -1.9978
 8428SOL     OW36919   3.013   0.675   1.697  0.8113 -0.4220 -0.3668
 8428SOL    HW136920   2.995   0.581   1.701 -0.1676 -0.2166  0.0952
 8428SOL    HW236921   3.057   0.679   1.782 -3.0845 -2.2798  1.7627
 8429SOL     OW36922   1.160   3.181   4.587  0.4475 -0.0035  0.5975
 8429SOL    HW136923   1.174   3.113   4.521 -0.3516 -0.0401  0.4602
 8429SOL    HW236924   1.133   3.123   4.658  1.1534 -1.4298 -0.2981
 8430SOL     OW36925   2.857   3.518   5.752 -0.0895 -0.2278  0.2151
 8430SOL    HW136926   2.785   3.566   5.711  0.4292 -1.9278 -2.6654
 8430SOL    HW236927   2.850   3.551   5.842 -1.5558  1.8340 -0.6652
 8431SOL     OW36928   4.729   2.407   9.188  0.0584 -0.4230  0.3153
 8431SOL    HW136929   4.736   2.353   9.110  0.8907 -0.1394  0.1983
 8431SOL    HW236930   4.671   2.474   9.152 -1.5361 -1.0178  1.7726
 8432SOL     OW36931   0.475   1.033   5.257 -0.4777 -0.1770  0.5251
 8432SOL    HW136932   0.535   0.993   5.320  0.4705  1.7139  0.8281
 8432SOL    HW236933   0.539   1.082   5.205 -1.6082  0.2211 -0.5077
 8433SOL     OW36934   1.174   1.626   5.754  0.0695 -0.3933  0.4313
 8433SOL    HW136935   1.086   1.593   5.737  0.1510  1.3401 -3.3009
 8433SOL    HW236936   1.154   1.676   5.833 -2.0821  2.7228 -2.0622
 8434SOL     OW36937   2.420   0.330   8.063  0.0813  0.0413  0.5672
 8434SOL    HW136938   2.509   0.306   8.088 -0.9342 -3.2764  1.0141
 8434SOL    HW236939   2.398   0.383   8.140  0.0874 -0.1507  0.7012
 8435SOL     OW36940   0.696   4.359   5.793 -0.0004  0.1507  0.4698
 8435SOL    HW136941   0.669   4.430   5.851 -1.5937  0.7268 -0.9813
 8435SOL    HW236942   0.730   4.301   5.861  1.3088  1.9224  1.3116
 8436SOL     OW36943   3.486   0.772   2.089 -0.2187  0.3770  0.2718
 8436SOL    HW136944   3.461   0.711   2.020 -0.9924  1.7335 -0.6461
 8436SOL    HW236945   3.438   0.737   2.165 -0.7104 -0.8266 -0.5963
 8437SOL     OW36946   1.093   2.314   3.519 -0.0990  0.0528 -0.2068
 8437SOL    HW136947   1.038   2.272   3.585  0.6264 -0.9200 -0.2280
 8437SOL    HW236948   1.141   2.237   3.489  0.8418 -0.5751  2.9212
 8438SOL     OW36949   2.263   3.114   6.284 -0.0683 -0.6016  1.0585
 8438SOL    HW136950   2.311   3.103   6.366  2.8495  0.9653 -0.4260
 8438SOL    HW236951   2.269   3.027   6.244 -2.7168 -0.6417  0.7451
 8439SOL     OW36952   0.255   2.453   3.070  0.1722  0.3149 -0.3484
 8439SOL    HW136953   0.279   2.415   3.155  0.3718  1.7250  0.2309
 8439SOL    HW236954   0.188   2.390   3.045 -0.6720  1.1237 -0.0988
 8440SOL     OW36955   3.902   0.556   5.646 -0.1945 -0.2324  0.2233
 8440SOL    HW136956   3.834   0.589   5.705 -1.4419  1.3394 -2.0865
 8440SOL    HW236957   3.918   0.623   5.579 -0.1417  1.6688  2.1152
 8441SOL     OW36958   3.780   0.025   4.181  0.3471 -0.0208 -0.0532
 8441SOL    HW136959   3.776   0.016   4.086 -1.2434  1.0645 -0.0917
 8441SOL    HW236960   3.716   0.096   4.190  0.5869  0.3114 -1.0055
 8442SOL     OW36961   0.859   2.054   6.855 -0.0582 -0.3344  0.1702
 8442SOL    HW136962   0.788   2.065   6.918  1.4561  3.1128  1.2897
 8442SOL    HW236963   0.890   1.963   6.861  0.2581 -0.4451 -2.8332
 8443SOL     OW36964   4.484   4.182   8.730  0.3206  0.6613  0.0279
 8443SOL    HW136965   4.556   4.121   8.715  0.0213  0.0757  1.0091
 8443SOL    HW236966   4.531   4.253   8.774 -1.8644  0.2804  2.9718
 8444SOL     OW36967   3.007   1.639   8.710 -0.0703  0.8535  0.2300
 8444SOL    HW136968   3.066   1.707   8.677  1.0092 -0.1402  0.1160
 8444SOL    HW236969   2.949   1.625   8.635  0.5349 -0.2847 -0.0312
 8445SOL     OW36970   3.026   4.070  11.197 -0.3061 -0.3876  0.4810
 8445SOL    HW136971   3.042   4.164  11.183 -1.8851 -0.0099  1.2203
 8445SOL    HW236972   3.070   4.064  11.282 -0.9855  1.8055  1.0002
 8446SOL     OW36973   2.741   2.669  13.854  0.3157 -0.2149 -0.2568
 8446SOL    HW136974   2.782   2.750  13.823 -1.4356  0.1960 -1.5045
 8446SOL    HW236975   2.680   2.691  13.924  0.5911  0.0320 -0.0961
 8447SOL     OW36976   2.374   3.372   2.675 -0.1697 -0.4064 -0.1280
 8447SOL    HW136977   2.451   3.418   2.705 -0.9711  1.7197 -1.3581
 8447SOL    HW236978   2.319   3.446   2.651  2.8526  2.0314  0.5417
 8448SOL     OW36979   2.945   0.623  17.189 -0.5879  0.0281  0.5773
 8448SOL    HW136980   2.917   0.666  17.108 -1.1331  0.6330  1.0842
 8448SOL    HW236981   2.911   0.534  17.184 -0.0695 -0.2148  1.5200
 8449SOL     OW36982   4.244   4.733   3.980  0.3250 -0.5644  0.1728
 8449SOL    HW136983   4.315   4.707   4.039 -0.1314 -0.2978  0.8485
 8449SOL    HW236984   4.285   0.056   3.919  0.8187  0.9869  2.0417
 8450SOL     OW36985   2.011   2.925   9.025 -0.4349  0.7050 -0.3244
 8450SOL    HW136986   1.917   2.939   9.042 -0.3892 -1.1130  1.4726
 8450SOL    HW236987   2.019   2.992   8.958  1.1316 -0.3716 -1.1841
 8451SOL     OW36988   0.022   1.747   6.975  0.3423  0.0142 -0.5468
 8451SOL    HW136989   0.101   1.708   7.013 -0.0411 -1.0918 -0.8769
 8451SOL    HW236990   4.714   1.665   6.955 -0.7427  0.7486 -1.0300
 8452SOL     OW36991   1.748   1.618   8.981 -0.0389  0.2373  0.1211
 8452SOL    HW136992   1.824   1.588   9.030  0.7150 -0.4362 -1.4650
 8452SOL    HW236993   1.695   1.539   8.989 -0.3560  0.2064 -2.3732
 8453SOL     OW36994   1.248   3.570   9.237 -0.3122 -0.1481  0.2768
 8453SOL    HW136995   1.298   3.603   9.162  1.8497 -0.6197  1.4933
 8453SOL    HW236996   1.191   3.500   9.206 -1.5848  1.0216 -0.0143
 8454SOL     OW36997   1.588   0.979   8.186 -0.0223 -0.0303  0.3370
 8454SOL    HW136998   1.546   0.998   8.270  0.0830  2.1708 -0.1078
 8454SOL    HW236999   1.526   0.918   8.144 -0.6244 -0.2132  1.4958
 8455SOL     OW37000   2.868   2.163   3.579  0.0391  0.1917  0.2424
 8455SOL    HW137001   2.895   2.176   3.488  0.9478  0.8737  0.6193
 8455SOL    HW237002   2.920   2.089   3.611 -0.3695 -0.6331 -0.9529
 8456SOL     OW37003   3.047   2.911   0.591  0.0329  0.2520  0.1466
 8456SOL    HW137004   3.052   2.999   0.627 -1.0512  0.4257 -0.1420
 8456SOL    HW237005   3.142   2.907   0.582  0.0885  0.5561  0.5939
 8457SOL     OW37006   1.832   1.724  16.612  0.2981 -0.3531  0.1000
 8457SOL    HW137007   1.754   1.773  16.587  0.4547 -0.8041 -1.2806
 8457SOL    HW237008   1.796   1.659  16.673 -2.8183  2.7640  1.6161
 8458SOL     OW37009   4.033   1.643   1.120  0.2000 -0.2336  0.0789
 8458SOL    HW137010   3.990   1.643   1.035  0.2792 -2.5457  0.0482
 8458SOL    HW237011   4.089   1.721   1.118  0.3834 -0.3622  0.1768
 8459SOL     OW37012   3.097   3.057   5.151  0.3752  0.7849  0.0930
 8459SOL    HW137013   3.010   3.019   5.156 -0.3755  2.7095  1.8365
 8459SOL    HW237014   3.149   2.978   5.167 -0.4576  0.3273  0.5195
 8460SOL     OW37015   4.050   2.825  13.170  0.0191  0.4405 -0.0274
 8460SOL    HW137016   4.031   2.904  13.221 -0.5528 -0.4238  1.1148
 8460SOL    HW237017   4.081   2.855  13.085  1.2220  0.7480  0.5150
 8461SOL     OW37018   0.712   3.735   7.626  1.0686 -0.3433  0.3938
 8461SOL    HW137019   0.706   3.827   7.602 -0.4040 -0.9213 -1.4252
 8461SOL    HW237020   0.698   3.691   7.542  0.1769  0.9868 -0.1447
 8462SOL     OW37021   2.450   0.569   6.807 -0.4412  0.7086 -0.1995
 8462SOL    HW137022   2.432   0.652   6.764 -2.1482  1.0816  1.2389
 8462SOL    HW237023   2.470   0.590   6.898 -0.1681 -2.6686  0.5397
 8463SOL     OW37024   1.846   2.591   2.114 -0.1417 -0.3937 -0.4716
 8463SOL    HW137025   1.802   2.568   2.196 -3.4411 -1.9511 -2.6704
 8463SOL    HW237026   1.905   2.660   2.145 -0.9082 -1.3527  3.0884
 8464SOL     OW37027   0.091   1.831   3.295 -0.3742  0.0665  0.1369
 8464SOL    HW137028   0.047   1.806   3.213 -3.5540  0.7732  1.6335
 8464SOL    HW237029   0.173   1.783   3.281  0.2876  0.8749  1.2422
 8465SOL     OW37030   1.579   0.212   8.115  0.3811 -0.1046  0.0251
 8465SOL    HW137031   1.548   0.171   8.196  0.1673  0.6343  0.3139
 8465SOL    HW237032   1.633   0.284   8.147 -2.4067  0.9979  2.2520
 8466SOL     OW37033   1.887   3.715  16.179 -0.0774 -0.3312  0.4141
 8466SOL    HW137034   1.926   3.654  16.241  0.6474 -2.1262 -1.8398
 8466SOL    HW237035   1.794   3.706  16.200 -1.0592  1.3620 -3.2778
 8467SOL     OW37036   1.457   1.495   3.805 -0.4602  0.5572  0.0526
 8467SOL    HW137037   1.491   1.512   3.893  0.9187 -0.1243 -0.3455
 8467SOL    HW237038   1.520   1.553   3.761 -2.2506  1.3569 -1.4676
 8468SOL     OW37039   3.708   4.124   7.929  0.6808  0.1380 -0.4598
 8468SOL    HW137040   3.754   4.157   8.006  0.1243  1.3080 -0.6304
 8468SOL    HW237041   3.622   4.125   7.972  0.0843 -1.4879 -1.6027
 8469SOL     OW37042   3.726   2.037  15.700 -0.4544  0.8124  0.4519
 8469SOL    HW137043   3.727   1.962  15.640 -2.4050  0.5240  0.7679
 8469SOL    HW237044   3.790   2.097  15.663  0.2276 -1.0125 -1.2954
 8470SOL     OW37045   3.145   4.234  10.316 -1.0276 -0.6881 -0.2536
 8470SOL    HW137046   3.159   4.140  10.330  0.7123 -0.7655 -2.6326
 8470SOL    HW237047   3.207   4.271  10.378 -0.9929 -1.4908  0.1937
 8471SOL     OW37048   0.007   3.596  14.831  0.1159  0.0361  0.7753
 8471SOL    HW137049   4.685   3.527  14.801 -0.8783  1.4727 -0.5830
 8471SOL    HW237050   0.027   3.627  14.742  0.1293 -1.6225  0.2096
 8472SOL     OW37051   4.404   2.569   2.050 -0.0763 -0.2669  0.2354
 8472SOL    HW137052   4.313   2.570   2.079 -0.3614  1.9614 -0.7797
 8472SOL    HW237053   4.398   2.634   1.980  1.0703 -0.1848  0.2202
 8473SOL     OW37054   4.647   2.820  10.428  0.1428  0.1492 -0.7204
 8473SOL    HW137055   4.609   2.839  10.342  0.0154  0.2164 -0.6508
 8473SOL    HW237056   4.573   2.821  10.490 -0.1167 -0.5069 -1.0293
 8474SOL     OW37057   4.497   2.766  12.872 -0.1940 -0.2189  0.2614
 8474SOL    HW137058   4.537   2.785  12.787 -1.3925 -1.7868 -0.6533
 8474SOL    HW237059   4.538   2.830  12.931 -1.3521  0.0396  0.7860
 8475SOL     OW37060   0.701   2.707  10.886  0.2296  0.4928 -0.2038
 8475SOL    HW137061   0.769   2.696  10.820 -1.6640  0.2380 -2.1101
 8475SOL    HW237062   0.622   2.710  10.833  0.7607  2.1647 -0.9009
 8476SOL     OW37063   1.272   2.349   4.639  0.4810 -0.3005 -0.3310
 8476SOL    HW137064   1.202   2.386   4.693  1.3508  0.1052  0.5284
 8476SOL    HW237065   1.280   2.414   4.569  0.7334 -0.8718 -0.8269
 8477SOL     OW37066   4.728   0.371   9.500  0.5787 -0.2672  0.2858
 8477SOL    HW137067   4.680   0.306   9.448  0.6935 -0.3249  0.2511
 8477SOL    HW237068   4.673   0.383   9.577 -0.0091  1.2215 -0.3858
 8478SOL     OW37069   1.978   2.037   5.096  0.8051  0.0431  0.7456
 8478SOL    HW137070   2.036   2.112   5.092  3.3663 -2.1264 -2.3220
 8478SOL    HW237071   1.890   2.074   5.106  0.8070 -0.0121  0.9662
 8479SOL     OW37072   0.831   4.388   8.672  0.0355 -0.1478  0.0318
 8479SOL    HW137073   0.763   4.371   8.737 -0.5451  0.2882 -0.4629
 8479SOL    HW237074   0.787   4.418   8.592 -0.0360  0.3709  0.2710
 8480SOL     OW37075   4.329   3.527   5.399 -0.5750  0.3641  0.1728
 8480SOL    HW137076   4.423   3.527   5.383 -0.3415  2.5158  1.4277
 8480SOL    HW237077   4.298   3.454   5.347  1.3152  0.2146 -0.7210
 8481SOL     OW37078   4.636   3.868   1.511 -0.4433 -0.0290  0.4168
 8481SOL    HW137079   4.604   3.957   1.498 -1.2117 -0.3626  0.0214
 8481SOL    HW237080   4.716   3.877   1.459  0.5515 -0.9631  1.7579
 8482SOL     OW37081   0.182   1.584  16.942 -0.3768 -0.1576  0.6663
 8482SOL    HW137082   0.209   1.667  16.981 -0.9771  0.9869 -1.3464
 8482SOL    HW237083   0.132   1.545  17.014 -1.5864 -1.4837 -0.8855
 8483SOL     OW37084   1.118   1.631  13.260 -0.6219  0.2496  0.0099
 8483SOL    HW137085   1.107   1.576  13.183 -1.4489 -2.4065  2.0165
 8483SOL    HW237086   1.147   1.712  13.218 -1.5734  0.1964 -0.7432
 8484SOL     OW37087   4.368   0.478   5.269 -0.9056 -0.0144  0.2770
 8484SOL    HW137088   4.361   0.385   5.290  0.4516 -0.5675 -1.7476
 8484SOL    HW237089   4.289   0.503   5.318 -2.0455  0.6519 -1.8849
 8485SOL     OW37090   4.579   4.335   7.021  0.0275  0.5407  0.0129
 8485SOL    HW137091   4.542   4.327   6.933 -2.6339 -0.2077  1.2036
 8485SOL    HW237092   4.628   4.415   7.001 -0.4637  0.4318 -1.6978
 8486SOL     OW37093   2.851   0.887   3.933  0.4254 -0.5489 -0.5285
 8486SOL    HW137094   2.944   0.894   3.912  0.5684  0.4887  0.4427
 8486SOL    HW237095   2.824   0.976   3.911  0.7661 -0.0111  1.2317
 8487SOL     OW37096   0.878   3.274   3.769  0.1969 -0.1572 -0.4008
 8487SOL    HW137097   0.927   3.298   3.847 -0.7805  1.1425 -0.1863
 8487SOL    HW237098   0.936   3.284   3.694  0.6106 -1.5812 -0.2779
 8488SOL     OW37099   1.890   2.978  12.293 -0.0282 -0.1837  0.5524
 8488SOL    HW137100   1.979   3.003  12.318 -0.8901  1.7118  1.6908
 8488SOL    HW237101   1.898   2.883  12.286 -0.7365 -0.0962 -1.3513
 8489SOL     OW37102   2.795   2.265   8.555 -0.0771  0.5569 -0.3581
 8489SOL    HW137103   2.786   2.174   8.528  2.6186 -0.9891  4.0028
 8489SOL    HW237104   2.865   2.253   8.619  0.2670 -0.7105 -0.9764
 8490SOL     OW37105   1.440   0.554   2.633  0.5363 -0.0801 -0.3635
 8490SOL    HW137106   1.443   0.462   2.661 -2.4692 -0.2962 -0.7357
 8490SOL    HW237107   1.395   0.564   2.549 -0.3651  0.0417  0.1281
 8491SOL     OW37108   0.987   3.775   2.522 -0.1689  0.0841 -0.0611
 8491SOL    HW137109   1.023   3.800   2.607  0.4926 -2.7359  0.4868
 8491SOL    HW237110   0.928   3.703   2.541  1.1286 -0.6484  1.2012
 8492SOL     OW37111   3.114   2.321   7.739 -0.0940  0.2499  0.4780
 8492SOL    HW137112   3.105   2.411   7.706 -2.7164 -0.4036 -0.6145
 8492SOL    HW237113   3.084   2.271   7.664  1.3129 -0.8198  0.6340
 8493SOL     OW37114   0.984   0.890   0.660  0.1387 -0.2437 -0.3167
 8493SOL    HW137115   1.022   0.975   0.640 -0.1079 -0.3159 -1.1087
 8493SOL    HW237116   1.043   0.848   0.598 -0.9870  0.0379 -1.6003
 8494SOL     OW37117   1.365   2.985   7.447 -0.1604 -0.0050 -0.2404
 8494SOL    HW137118   1.275   2.953   7.433  0.2341 -1.9881  1.6627
 8494SOL    HW237119   1.342   3.074   7.423  0.7178  0.0767 -0.7740
 8495SOL     OW37120   2.308   3.435   8.236  0.3571 -0.6346  0.0447
 8495SOL    HW137121   2.303   3.530   8.231 -1.3255 -0.7696 -0.7546
 8495SOL    HW237122   2.220   3.404   8.213 -0.4720  1.1741  0.7772
 8496SOL     OW37123   2.189   4.510   7.858 -0.2094  0.4472  0.2433
 8496SOL    HW137124   2.116   4.480   7.913  0.5759  0.4146  1.2630
 8496SOL    HW237125   2.148   4.577   7.803 -0.3409  0.8290  0.8077
 8497SOL     OW37126   3.911   1.774  13.855  0.1466 -0.1331  0.2458
 8497SOL    HW137127   3.831   1.723  13.869  1.2199 -2.2207 -1.1622
 8497SOL    HW237128   3.889   1.846  13.914 -2.1977 -0.6665  0.0234
 8498SOL     OW37129   4.236   1.422  13.699 -0.1446  0.0227  0.4898
 8498SOL    HW137130   4.308   1.378  13.744 -0.3859 -2.2231 -1.3299
 8498SOL    HW237131   4.194   1.476  13.767  0.5552  2.7981 -1.3016
 8499SOL     OW37132   4.289   4.470   8.675 -0.5335 -0.2282  0.1999
 8499SOL    HW137133   4.368   4.455   8.726 -1.6870 -1.7801  1.5120
 8499SOL    HW237134   4.290   4.563   8.652 -0.5971 -0.5643 -1.1637
 8500SOL     OW37135   2.939   1.359   5.818 -0.1026 -0.7827 -0.0251
 8500SOL    HW137136   2.905   1.346   5.729 -2.4566  1.1790  0.6041
 8500SOL    HW237137   2.860   1.339   5.869  0.4871 -1.9202  0.4563
 8501SOL     OW37138   1.064   4.076   7.104  0.1351  0.2298  0.4135
 8501SOL    HW137139   0.990   4.035   7.060 -2.3004  3.6843  1.3463
 8501SOL    HW237140   1.116   4.004   7.141 -0.1766 -0.1300  0.1533
 8502SOL     OW37141   2.195   2.495   8.622  0.0463  0.3765 -0.0534
 8502SOL    HW137142   2.152   2.442   8.555 -1.0750 -0.3842  1.2638
 8502SOL    HW237143   2.128   2.547   8.666 -0.1202  0.4898 -0.4439
 8503SOL     OW37144   4.635   0.689   5.492  0.0700  0.5842 -0.2799
 8503SOL    HW137145   4.581   0.704   5.414 -0.1457 -1.5423 -0.5258
 8503SOL    HW237146   4.721   0.670   5.456 -1.1218 -2.6266 -1.4247
 8504SOL     OW37147   4.595   2.494  13.922 -0.0154  0.4357  0.0003
 8504SOL    HW137148   4.528   2.556  13.895  0.7759  0.6207 -1.5531
 8504SOL    HW237149   4.535   2.423  13.945  1.8521 -1.4269 -0.7500
 8505SOL     OW37150   3.561   0.215   9.217 -0.1034 -0.2636 -0.0834
 8505SOL    HW137151   3.584   0.285   9.278  0.2961 -1.0039  0.6170
 8505SOL    HW237152   3.571   0.133   9.266  0.9398 -1.6620 -2.6436
 8506SOL     OW37153   2.240   2.492   7.598  0.6679  0.0858  0.0940
 8506SOL    HW137154   2.170   2.496   7.533  0.8882  2.2078 -0.0041
 8506SOL    HW237155   2.230   2.582   7.631 -0.9613  1.0917 -3.1928
 8507SOL     OW37156   1.611   3.743   5.003  0.1651  0.4391 -0.1323
 8507SOL    HW137157   1.528   3.764   4.961 -0.4520  1.0491  1.3951
 8507SOL    HW237158   1.663   3.785   4.935  0.9100  0.2394  0.3027
 8508SOL     OW37159   0.477   1.865   7.105 -0.0104 -0.1679 -0.0679
 8508SOL    HW137160   0.443   1.778   7.127 -2.2501  0.6094 -0.4339
 8508SOL    HW237161   0.562   1.854   7.147  1.3063  2.1419 -2.1065
 8509SOL     OW37162   0.798   0.970   0.360 -0.0893 -0.2877  0.2678
 8509SOL    HW137163   0.740   0.903   0.397  1.6527 -0.7726  2.1094
 8509SOL    HW237164   0.732   1.038   0.344  2.0237  1.4431 -0.9394
 8510SOL     OW37165   0.021   0.020   5.655 -0.1400  0.3931 -0.1525
 8510SOL    HW137166   4.718   0.003   5.570 -2.0041  0.0006  0.8226
 8510SOL    HW237167   4.707   4.705   5.715  0.3019  1.0318  0.7876
 8511SOL     OW37168   3.776   2.458  16.378  0.6364  0.1557  0.4888
 8511SOL    HW137169   3.785   2.548  16.347  1.0316 -0.6376 -1.7163
 8511SOL    HW237170   3.780   2.412  16.294  2.1355  3.2981 -1.1888
 8512SOL     OW37171   3.576   3.847   7.074  0.7270  0.2749 -0.0695
 8512SOL    HW137172   3.588   3.769   7.128 -1.5957  0.0307  0.1303
 8512SOL    HW237173   3.539   3.904   7.142  2.5194 -0.3779  1.4636
 8513SOL     OW37174   4.234   3.844   3.059  0.3348 -0.0015  0.5652
 8513SOL    HW137175   4.161   3.782   3.063 -0.6550  1.1821  1.0244
 8513SOL    HW237176   4.203   3.893   2.983  0.2733 -0.1673  0.4829
 8514SOL     OW37177   2.223   2.438   8.883  0.0726 -0.9801 -0.2332
 8514SOL    HW137178   2.200   2.429   8.791  0.2561  2.3729 -0.6003
 8514SOL    HW237179   2.215   2.533   8.886  0.8488 -0.8702 -1.6298
 8515SOL     OW37180   3.035   4.066  10.015  0.1253  0.2275 -0.1556
 8515SOL    HW137181   3.039   4.037  10.106 -1.6698  1.4520  0.3011
 8515SOL    HW237182   3.072   3.987   9.975  0.5961  1.1832 -1.5800
 8516SOL     OW37183   2.456   1.327  11.565 -0.1520  0.0110 -0.1139
 8516SOL    HW137184   2.372   1.287  11.586  1.5222 -3.1387  0.5251
 8516SOL    HW237185   2.514   1.280  11.624  2.1840  0.8015 -1.7803
 8517SOL     OW37186   3.616   0.148  12.339 -0.1711 -0.0365  0.2314
 8517SOL    HW137187   3.577   0.208  12.403 -2.3397  0.9773 -2.0929
 8517SOL    HW237188   3.533   0.111  12.310  0.6765 -1.5422 -0.2719
 8518SOL     OW37189   2.265   2.781   7.575  0.4271 -0.0875 -0.0480
 8518SOL    HW137190   2.269   2.858   7.517 -0.1357  0.3846  0.5393
 8518SOL    HW237191   2.247   2.823   7.659 -3.9700 -1.7995 -0.1071
 8519SOL     OW37192   3.069   0.770  11.290  0.3421 -0.3940 -0.1002
 8519SOL    HW137193   3.120   0.802  11.215 -0.6833  0.1653 -0.5530
 8519SOL    HW237194   3.136   0.709  11.323  0.8301  1.0137  1.5430
 8520SOL     OW37195   4.353   2.565  14.834 -0.2278 -0.1824  0.1887
 8520SOL    HW137196   4.324   2.487  14.880  0.1924  1.1544  2.7256
 8520SOL    HW237197   4.449   2.568  14.838 -0.2993  0.6677  1.3935
 8521SOL     OW37198   2.590   4.535   6.941 -0.1283  0.1826 -0.2608
 8521SOL    HW137199   2.631   4.501   6.862  2.2932  0.6307  0.7959
 8521SOL    HW237200   2.599   4.628   6.922  1.2915  0.0756 -0.1059
 8522SOL     OW37201   4.557   2.712   4.104 -0.2958  0.2241 -0.2103
 8522SOL    HW137202   4.608   2.708   4.023  0.8407 -1.9681  0.6310
 8522SOL    HW237203   4.475   2.759   4.085 -0.1203  0.7779  0.4432
 8523SOL     OW37204   2.128   2.831   4.361 -0.3737 -0.7011 -0.0879
 8523SOL    HW137205   2.148   2.879   4.281  0.0406  1.6327  1.4202
 8523SOL    HW237206   2.195   2.869   4.418 -3.3407  5.6810 -0.8118
 8524SOL     OW37207   3.182   0.695  13.166  0.2554 -0.3729 -0.0484
 8524SOL    HW137208   3.092   0.711  13.193 -0.4489 -0.2986 -2.4458
 8524SOL    HW237209   3.217   0.781  13.144 -2.0183  0.5573  0.0292
 8525SOL     OW37210   0.184   3.858   5.800 -0.0253 -0.0733  0.0544
 8525SOL    HW137211   0.222   3.784   5.751  0.3365  0.4925 -0.5207
 8525SOL    HW237212   0.092   3.831   5.788 -0.3258  0.4533  1.2191
 8526SOL     OW37213   0.233   2.285   3.584 -0.6346  0.2468  0.4513
 8526SOL    HW137214   0.222   2.354   3.519  0.7875  0.5510  0.5295
 8526SOL    HW237215   0.328   2.283   3.596 -0.4781  1.1145 -0.5966
 8527SOL     OW37216   3.428   0.726   5.094  0.4638 -0.0327  0.0598
 8527SOL    HW137217   3.423   0.655   5.158  2.0412  0.4606  0.7241
 8527SOL    HW237218   3.500   0.691   5.041  0.7699  1.6519 -0.6421
 8528SOL     OW37219   2.862   1.870   2.096 -0.0630  0.5481 -0.2730
 8528SOL    HW137220   2.787   1.886   2.153  0.9777 -2.8756  2.0501
 8528SOL    HW237221   2.864   1.950   2.044  0.7296  1.5394  1.2771
 8529SOL     OW37222   0.149   1.305   9.725  0.1323 -0.0910 -0.0348
 8529SOL    HW137223   0.084   1.374   9.715 -0.8196 -1.2255 -1.7300
 8529SOL    HW237224   0.217   1.348   9.777 -1.2622 -0.7188  2.2633
 8530SOL     OW37225   3.319   2.433   0.063 -0.2009  0.3476  0.3633
 8530SOL    HW137226   3.397   2.393   0.101 -0.0478  1.4181  1.1509
 8530SOL    HW237227   3.364   2.500   0.013  0.8634 -1.7334 -1.5051
 8531SOL     OW37228   3.484   2.029   3.587  0.1287  0.1198 -0.7965
 8531SOL    HW137229   3.524   2.109   3.622  2.4030 -1.8936  1.2288
 8531SOL    HW237230   3.560   1.984   3.549 -0.4059 -0.6015 -1.0176
 8532SOL     OW37231   2.429   3.526  12.057 -0.0628 -0.1495 -0.3103
 8532SOL    HW137232   2.441   3.603  12.113  1.3714  0.4006 -1.3769
 8532SOL    HW237233   2.518   3.510  12.027  0.1301  0.4608 -0.0584
 8533SOL     OW37234   0.904   0.572   6.368  0.3032  0.4543 -0.3576
 8533SOL    HW137235   0.917   0.483   6.401 -0.1536 -0.4040 -2.5101
 8533SOL    HW237236   0.947   0.575   6.283 -0.2412  2.8500 -0.5469
 8534SOL     OW37237   3.141   0.177   4.861  0.4094  0.0057  0.5583
 8534SOL    HW137238   3.071   0.121   4.826 -0.2055 -0.4637  2.5570
 8534SOL    HW237239   3.205   0.175   4.789  0.5490  1.0253  0.6606
 8535SOL     OW37240   0.185   4.191   8.891  0.4580 -0.0129  0.1799
 8535SOL    HW137241   0.156   4.282   8.879  4.3428  1.3501  1.0534
 8535SOL    HW237242   0.278   4.193   8.865  0.7348  2.6478  1.3306
 8536SOL     OW37243   2.567   2.263   1.046 -0.5927  0.4272  0.0072
 8536SOL    HW137244   2.657   2.295   1.040 -0.2299 -0.3296  1.6676
 8536SOL    HW237245   2.553   2.258   0.951 -1.9038 -0.8885  0.2788
 8537SOL     OW37246   1.390   0.121   2.986 -1.0401  0.3763  0.2854
 8537SOL    HW137247   1.434   0.206   2.988 -0.7980  0.2214  1.4607
 8537SOL    HW237248   1.435   0.083   3.061 -0.5342  0.5629  0.0791
 8538SOL     OW37249   0.389   0.152   7.763  0.2260 -0.1545  0.8496
 8538SOL    HW137250   0.414   0.060   7.756 -1.3684 -0.3345 -2.6467
 8538SOL    HW237251   0.303   0.148   7.722  1.6586 -2.2449 -1.9940
 8539SOL     OW37252   1.886   3.241   7.640 -0.2001  0.3621  0.0977
 8539SOL    HW137253   1.803   3.275   7.606  0.9906  1.3405 -1.8443
 8539SOL    HW237254   1.890   3.279   7.728 -1.3986 -0.4312  0.4887
 8540SOL     OW37255   1.301   1.303   6.599 -0.5243 -0.6318 -0.5377
 8540SOL    HW137256   1.217   1.283   6.641 -0.0528  0.5780  0.9721
 8540SOL    HW237257   1.294   1.230   6.537  4.2731  0.0542 -1.9148
 8541SOL     OW37258   2.180   4.052   6.145  0.0330  0.2315  0.4225
 8541SOL    HW137259   2.163   4.028   6.236  0.1957  0.8613  0.6183
 8541SOL    HW237260   2.090   4.061   6.114 -0.8956  0.7079  3.2573
 8542SOL     OW37261   1.590   3.532   5.173 -0.2032  0.0323 -0.3519
 8542SOL    HW137262   1.610   3.445   5.137  0.5811 -0.3014  0.9027
 8542SOL    HW237263   1.602   3.590   5.097 -0.4130 -0.9896 -1.1717
 8543SOL     OW37264   3.737   0.598  12.114 -0.2250 -0.4206  0.3664
 8543SOL    HW137265   3.688   0.560  12.041 -1.1529  0.2703  0.6257
 8543SOL    HW237266   3.752   0.522  12.170 -0.4900 -1.4752 -1.0004
 8544SOL     OW37267   0.036   3.480  13.292  0.3715  0.2073 -0.4909
 8544SOL    HW137268   0.096   3.527  13.234  0.5695 -0.1516 -0.5715
 8544SOL    HW237269   0.066   3.508  13.379  0.8164 -0.9535 -0.2727
 8545SOL     OW37270   1.660   1.313   3.042 -0.2864  0.1647  0.1267
 8545SOL    HW137271   1.680   1.309   3.135 -0.4015 -0.1593  0.1378
 8545SOL    HW237272   1.579   1.365   3.044 -0.6465 -0.3789 -0.1878
 8546SOL     OW37273   3.693   0.215   9.847 -0.3538  0.4974  0.9657
 8546SOL    HW137274   3.611   0.265   9.846  0.3305  1.6173  0.5171
 8546SOL    HW237275   3.735   0.237   9.931  1.4567 -0.5050  0.3071
 8547SOL     OW37276   1.456   2.349   3.478 -0.4407  0.1787  0.5176
 8547SOL    HW137277   1.551   2.352   3.492 -0.3949 -0.7328  0.3966
 8547SOL    HW237278   1.450   2.264   3.434 -0.2757 -0.2059  1.2320
 8548SOL     OW37279   1.712   0.383   0.460  0.6507 -0.8098 -0.0867
 8548SOL    HW137280   1.757   0.298   0.461 -1.6769 -1.9605  4.1303
 8548SOL    HW237281   1.760   0.429   0.529  1.8254 -2.4466  0.1745
 8549SOL     OW37282   0.525   0.918   6.224  0.0167 -0.2766  0.0195
 8549SOL    HW137283   0.547   0.875   6.306  0.3033 -0.7439 -0.3020
 8549SOL    HW237284   0.430   0.904   6.228  0.0881 -0.8708 -0.3609
 8550SOL     OW37285   0.625   2.783   7.608 -0.4106 -0.5021  0.2860
 8550SOL    HW137286   0.531   2.790   7.587 -0.4173 -1.8628 -0.1241
 8550SOL    HW237287   0.632   2.687   7.603  0.2198 -0.3839 -1.0016
 8551SOL     OW37288   0.872   2.277   7.613 -0.1283  0.3453  0.3607
 8551SOL    HW137289   0.932   2.292   7.686  0.1876 -0.2226  0.2232
 8551SOL    HW237290   0.916   2.321   7.539  1.2470 -0.6940  0.5513
 8552SOL     OW37291   0.205   2.172  14.944  0.7138 -0.5312  0.4531
 8552SOL    HW137292   0.264   2.215  15.006 -0.0739 -0.0459  0.8721
 8552SOL    HW237293   0.122   2.219  14.945  0.4127 -1.0444 -0.6014
 8553SOL     OW37294   1.613   4.563   8.489 -0.1168 -0.3220  0.2784
 8553SOL    HW137295   1.702   4.582   8.460  0.9226 -3.2521  1.5234
 8553SOL    HW237296   1.629   4.577   8.582  1.4737  0.5721 -0.1345
 8554SOL     OW37297   0.013   1.386  11.883 -0.2501  0.5401  0.4548
 8554SOL    HW137298   0.067   1.307  11.881 -0.9720  0.0609 -0.2218
 8554SOL    HW237299   4.664   1.362  11.852  0.0700 -0.0805  0.0385
 8555SOL     OW37300   0.474   4.622   6.984 -0.1737 -0.0407  0.1423
 8555SOL    HW137301   0.549   4.579   6.941  1.0066  0.2766  1.9262
 8555SOL    HW237302   0.508   4.708   7.005  1.3100 -0.4907 -0.4405
 8556SOL     OW37303   1.663   0.290   5.619 -0.0378  0.1928 -0.1731
 8556SOL    HW137304   1.710   0.372   5.631 -1.2737  1.1016 -1.5352
 8556SOL    HW237305   1.592   0.299   5.682 -1.2388 -0.4228 -1.4271
 8557SOL     OW37306   0.729   3.354   7.350 -0.3745  0.0634 -0.5924
 8557SOL    HW137307   0.823   3.365   7.362  0.0843 -1.4987 -2.7579
 8557SOL    HW237308   0.729   3.273   7.298 -3.4197 -0.2235 -0.1913
 8558SOL     OW37309   1.565   1.020   3.713 -0.1738 -0.2790 -0.1702
 8558SOL    HW137310   1.639   1.066   3.751 -1.7627 -0.3217  3.0178
 8558SOL    HW237311   1.490   1.069   3.750 -0.7939 -0.9757 -0.5121
 8559SOL     OW37312   2.809   1.415   4.525 -0.3026  0.3874 -0.0618
 8559SOL    HW137313   2.773   1.331   4.556 -0.7859  0.8822  0.7069
 8559SOL    HW237314   2.727   1.460   4.507  0.7096  2.1541 -0.1981
 8560SOL     OW37315   2.023   0.935   2.293  0.2523 -0.7976  0.5286
 8560SOL    HW137316   2.025   0.911   2.200 -0.9073  0.8441  0.0564
 8560SOL    HW237317   1.933   0.970   2.296  1.0904  1.3671  0.3512
 8561SOL     OW37318   0.288   0.272   5.211 -0.2082  0.2458 -0.0481
 8561SOL    HW137319   0.308   0.308   5.297 -2.2394  0.2294  0.4204
 8561SOL    HW237320   0.232   0.197   5.229  1.5123 -1.4266 -1.6297
 8562SOL     OW37321   2.438   1.545   4.308  0.0472 -0.6654 -0.7467
 8562SOL    HW137322   2.429   1.501   4.224  4.0500 -0.7804 -1.1378
 8562SOL    HW237323   2.352   1.523   4.343  0.4734 -1.2934 -0.0732
 8563SOL     OW37324   3.739   2.327  11.089  0.0646  0.3739  0.1597
 8563SOL    HW137325   3.800   2.334  11.162 -1.1387  0.2972  1.1656
 8563SOL    HW237326   3.806   2.347  11.023 -1.5634  0.4394 -1.4802
 8564SOL     OW37327   3.386   4.351   3.192 -0.2081  0.3883 -0.5664
 8564SOL    HW137328   3.435   4.269   3.205 -0.7482 -0.0109 -1.0785
 8564SOL    HW237329   3.296   4.326   3.173  0.0953 -0.8279 -0.3933
 8565SOL     OW37330   1.173   3.549   1.733  0.5245 -0.8613  0.2081
 8565SOL    HW137331   1.245   3.582   1.786 -0.1102  1.6673 -0.4989
 8565SOL    HW237332   1.218   3.484   1.679  1.9103  0.2128  0.0738
 8566SOL     OW37333   1.470   3.536  10.313 -0.0200  0.2461  0.3015
 8566SOL    HW137334   1.538   3.603  10.324 -0.1728  0.7671 -1.9889
 8566SOL    HW237335   1.504   3.485  10.240 -2.1198  0.2777 -0.6814
 8567SOL     OW37336   2.215   0.204  15.149 -0.2435  0.2220 -0.1507
 8567SOL    HW137337   2.295   0.249  15.122 -0.6041  1.7077  1.2863
 8567SOL    HW237338   2.176   0.196  15.063 -0.2286  0.1776 -0.1534
 8568SOL     OW37339   4.697   1.871  10.767 -0.2974 -0.3320  0.3243
 8568SOL    HW137340   4.649   1.935  10.716  1.1239  0.8512  0.4743
 8568SOL    HW237341   0.023   1.931  10.805  0.5085  0.2335 -1.9133
 8569SOL     OW37342   1.759   2.553   8.875  0.0789 -0.5160  0.0191
 8569SOL    HW137343   1.670   2.575   8.847  0.4194  0.4248 -0.3260
 8569SOL    HW237344   1.750   2.547   8.970 -3.2227  0.1622 -0.2339
 8570SOL     OW37345   0.172   1.768   8.675 -0.1831 -0.2969  0.1919
 8570SOL    HW137346   0.137   1.824   8.745 -0.2205 -1.0434  0.7703
 8570SOL    HW237347   0.095   1.725   8.639 -0.2260  0.8089 -1.0494
 8571SOL     OW37348   0.167   1.326  16.657 -0.6497 -0.2432  0.5055
 8571SOL    HW137349   0.075   1.349  16.640 -0.4930  0.5705  0.7597
 8571SOL    HW237350   0.217   1.402  16.630 -1.2181 -1.1048 -2.9685
 8572SOL     OW37351   0.935   0.521   0.748  0.1191  0.5095 -0.0139
 8572SOL    HW137352   0.970   0.499   0.662  1.5750  0.7405  0.5123
 8572SOL    HW237353   0.894   0.438   0.770  1.5780 -0.6048 -1.4995
 8573SOL     OW37354   0.430   4.677   3.800  0.2158 -0.3678  0.0484
 8573SOL    HW137355   0.375   4.666   3.877 -0.6644  2.2217 -0.2014
 8573SOL    HW237356   0.512   4.648   3.840  0.2138  0.1101  0.3932
 8574SOL     OW37357   1.965   3.331   8.513  0.4768 -0.4092 -0.4868
 8574SOL    HW137358   1.927   3.414   8.485 -2.6823 -1.2886  1.0749
 8574SOL    HW237359   2.025   3.360   8.581 -1.0880 -3.1879  2.1172
 8575SOL     OW37360   3.250   2.624  14.394 -0.2832  0.1504  0.6756
 8575SOL    HW137361   3.256   2.624  14.490 -1.2763 -0.9428  0.7375
 8575SOL    HW237362   3.308   2.552  14.368  1.4850  1.6146  0.5800
 8576SOL     OW37363   3.390   3.852   5.371 -0.3810 -0.3437  0.2591
 8576SOL    HW137364   3.340   3.878   5.449 -2.2433  0.0486 -1.0715
 8576SOL    HW237365   3.369   3.924   5.312 -0.8175 -1.6215 -1.1215
 8577SOL     OW37366   1.403   1.468   3.521  0.0268 -0.3888  0.5989
 8577SOL    HW137367   1.487   1.429   3.496  0.4483  0.9084 -0.0281
 8577SOL    HW237368   1.415   1.482   3.615  1.6848 -1.0549  0.5032
 8578SOL     OW37369   4.606   1.849   2.748  0.0125 -0.0501 -0.0531
 8578SOL    HW137370   4.550   1.853   2.671 -0.2334  4.0031  0.3198
 8578SOL    HW237371   4.554   1.899   2.811  0.8424  0.1266  0.4943
 8579SOL     OW37372   3.309   4.323   5.168  0.4023 -0.3679 -0.4602
 8579SOL    HW137373   3.252   4.351   5.096  2.0612  3.9452 -0.0571
 8579SOL    HW237374   3.373   4.393   5.181 -0.3363  0.4814 -1.3497
 8580SOL     OW37375   4.050   1.536   3.013  0.4266  0.4983  0.2055
 8580SOL    HW137376   4.130   1.556   3.061  0.1656  4.9043 -1.2302
 8580SOL    HW237377   3.982   1.520   3.079  1.2115 -1.4730  0.5233
 8581SOL     OW37378   2.477   0.586  12.395 -0.4160  0.2452  0.0738
 8581SOL    HW137379   2.462   0.500  12.354  1.4696 -0.0277 -0.0185
 8581SOL    HW237380   2.418   0.587  12.471  1.8670 -0.8008  1.8616
 8582SOL     OW37381   2.027   2.648  14.284  0.0243  0.2955 -0.2173
 8582SOL    HW137382   2.066   2.702  14.353 -0.6375 -0.2989  0.6215
 8582SOL    HW237383   2.059   2.702  14.213 -0.4595 -0.1357 -0.7657
 8583SOL     OW37384   4.381   3.246  15.347 -0.0970 -0.1000 -0.4531
 8583SOL    HW137385   4.363   3.156  15.321 -0.6321 -0.2831  0.5347
 8583SOL    HW237386   4.361   3.294  15.267  0.3708 -0.2184 -0.6411
 8584SOL     OW37387   4.394   1.674   3.927  0.0929  0.1056 -0.2764
 8584SOL    HW137388   4.447   1.631   3.994  0.7242 -0.9711 -1.4642
 8584SOL    HW237389   4.432   1.761   3.943 -0.0142  0.1537 -0.2852
 8585SOL     OW37390   0.800   4.479   9.476  0.1754 -0.1850  0.2556
 8585SOL    HW137391   0.735   4.477   9.405 -1.2470  0.4508  1.5396
 8585SOL    HW237392   0.862   4.545   9.448  0.3909  0.4546  2.2679
 8586SOL     OW37393   0.732   4.132   2.378  0.1569 -0.5094 -0.6090
 8586SOL    HW137394   0.764   4.101   2.293  0.6839  0.5506 -0.8040
 8586SOL    HW237395   0.754   4.059   2.436 -0.6247 -0.6924 -0.5438
 8587SOL     OW37396   2.002   0.904   8.973  0.9787 -0.7621 -0.3068
 8587SOL    HW137397   2.084   0.861   8.999  1.5386 -0.3838 -1.4485
 8587SOL    HW237398   2.012   0.993   9.006 -0.3660 -0.7017 -0.0691
 8588SOL     OW37399   1.724   3.404   5.719 -0.2214  0.6323  0.6045
 8588SOL    HW137400   1.639   3.448   5.717 -0.4830  0.0927 -0.2218
 8588SOL    HW237401   1.715   3.353   5.638 -2.6508  3.1690 -0.7036
 8589SOL     OW37402   0.790   3.942  13.253 -0.0769  0.2321  0.5516
 8589SOL    HW137403   0.698   3.941  13.278  0.1885  0.6390  1.5675
 8589SOL    HW237404   0.807   4.034  13.233 -0.5856  0.9769  3.4500
 8590SOL     OW37405   0.665   1.718   9.102 -0.4822  0.4586 -0.0985
 8590SOL    HW137406   0.651   1.681   9.189 -2.2771  1.7341  0.1520
 8590SOL    HW237407   0.690   1.633   9.064  1.4864  0.5221  1.0587
 8591SOL     OW37408   2.100   1.683   7.262  0.3607 -0.3974 -0.3195
 8591SOL    HW137409   2.023   1.652   7.310  1.6569 -0.3915  1.7448
 8591SOL    HW237410   2.115   1.767   7.307 -2.2814 -0.4725  0.7185
 8592SOL     OW37411   1.118   2.055  10.501 -0.2547  0.1922 -0.1608
 8592SOL    HW137412   1.125   2.120  10.570  2.8139 -0.9073  0.6146
 8592SOL    HW237413   1.033   2.079  10.467 -0.4212  3.0242  2.2653
 8593SOL     OW37414   1.271   1.878  14.851 -0.5187  0.2835  0.2525
 8593SOL    HW137415   1.270   1.972  14.835 -0.5553  0.4502  1.2008
 8593SOL    HW237416   1.359   1.859  14.819 -0.4685  2.0525 -0.6156
 8594SOL     OW37417   3.728   3.733   5.640  0.3569 -0.6386  0.0883
 8594SOL    HW137418   3.690   3.648   5.617 -2.1375  0.6479 -0.5759
 8594SOL    HW237419   3.664   3.793   5.600 -0.5280 -1.7153 -0.1223
 8595SOL     OW37420   1.969   2.083   2.024  0.4045  0.1799 -0.6477
 8595SOL    HW137421   2.029   2.076   1.949  0.5994  3.6810 -0.8057
 8595SOL    HW237422   1.942   1.996   2.055  1.0063 -0.1260 -0.9760
 8596SOL     OW37423   1.860   0.761   3.197  0.2105 -0.2272  0.4065
 8596SOL    HW137424   1.927   0.784   3.132 -0.3411  1.1669  0.3265
 8596SOL    HW237425   1.779   0.757   3.147  0.7869 -0.2068 -0.5212
 8597SOL     OW37426   4.734   2.926   4.542 -0.7577  0.0994 -0.1093
 8597SOL    HW137427   4.729   2.991   4.472  3.2642  0.7468  0.1840
 8597SOL    HW237428   4.718   2.848   4.488 -0.0847  0.2408 -0.5198
 8598SOL     OW37429   2.909   1.320   0.423  0.1814 -0.6653 -0.4653
 8598SOL    HW137430   2.956   1.288   0.500 -0.8891 -0.7605  0.1455
 8598SOL    HW237431   2.848   1.249   0.401 -0.0399 -1.1623  1.7227
 8599SOL     OW37432   1.624   3.235  13.571 -0.2756  0.0886 -0.1654
 8599SOL    HW137433   1.594   3.325  13.557 -1.7329 -0.6305 -1.7585
 8599SOL    HW237434   1.573   3.188  13.505 -0.7139 -1.0176  0.9759
 8600SOL     OW37435   1.156   1.948   2.088 -0.3912 -0.3496  0.1756
 8600SOL    HW137436   1.066   1.921   2.105 -1.2856  1.6391 -1.3530
 8600SOL    HW237437   1.167   1.951   1.992  0.4452 -1.8174  0.2263
 8601SOL     OW37438   2.219   3.194   7.081  0.2697 -0.0178 -0.4598
 8601SOL    HW137439   2.133   3.158   7.102 -0.2587  1.3810 -0.2577
 8601SOL    HW237440   2.269   3.163   7.157 -0.0613 -1.1428 -0.6937
 8602SOL     OW37441   2.726   0.012   2.871 -0.0282  0.2440  0.5943
 8602SOL    HW137442   2.658   0.064   2.828  1.8436  1.4633 -0.8780
 8602SOL    HW237443   2.671   4.726   2.946 -1.6699 -0.0678 -0.6978
 8603SOL     OW37444   2.153   2.609   5.550 -0.0913 -0.2489 -0.3693
 8603SOL    HW137445   2.207   2.568   5.618  0.4774 -1.8285 -1.7791
 8603SOL    HW237446   2.065   2.592   5.584 -0.5676  0.3280 -1.3200
 8604SOL     OW37447   0.817   2.162  12.972  0.2416 -0.8091  0.3383
 8604SOL    HW137448   0.738   2.201  12.933  0.9853 -0.2811 -0.6359
 8604SOL    HW237449   0.815   2.087  12.913  0.9695 -0.3595 -0.2470
 8605SOL     OW37450   0.243   4.035   6.894 -0.7013  0.5366  0.2852
 8605SOL    HW137451   0.275   3.995   6.975  0.3478  1.0413  0.1147
 8605SOL    HW237452   0.152   4.006   6.886  1.0418 -4.9244 -0.0490
 8606SOL     OW37453   0.763   0.622   0.377 -0.3718 -0.3066 -0.1037
 8606SOL    HW137454   0.830   0.574   0.426 -1.5115  1.8476  3.5886
 8606SOL    HW237455   0.723   0.550   0.327  0.1991 -2.1846  2.1261
 8607SOL     OW37456   1.856   3.350  16.470  0.6264 -0.0337 -0.3482
 8607SOL    HW137457   1.936   3.299  16.479  0.3162 -0.1428  1.9139
 8607SOL    HW237458   1.805   3.298  16.409 -0.3718  1.2409 -0.5991
 8608SOL     OW37459   2.169   4.711   5.565 -0.2199 -0.1961  0.4737
 8608SOL    HW137460   2.115   4.689   5.642 -0.4994  1.6888  0.8195
 8608SOL    HW237461   2.111   4.689   5.492 -1.3541 -0.0561  1.3210
 8609SOL     OW37462   3.624   1.061   4.015  0.5465 -0.2366 -0.0578
 8609SOL    HW137463   3.654   1.075   4.105 -0.0036 -0.1093  0.1059
 8609SOL    HW237464   3.705   1.048   3.966 -0.0024 -1.2531 -0.6998
 8610SOL     OW37465   2.178   0.952   7.570 -0.0286  0.0910  0.3234
 8610SOL    HW137466   2.222   0.993   7.495 -1.1047  0.9129  0.1355
 8610SOL    HW237467   2.174   1.020   7.638 -1.7237 -0.3385  0.6516
 8611SOL     OW37468   4.012   2.005  16.337 -0.0278 -0.3042  0.5914
 8611SOL    HW137469   4.003   2.004  16.432 -0.6624  0.1876  0.5356
 8611SOL    HW237470   4.076   2.071  16.310  0.7696 -0.7614  1.3810
 8612SOL     OW37471   3.542   3.607  16.877  0.0709 -0.0618 -0.4997
 8612SOL    HW137472   3.542   3.696  16.842 -0.8084  0.5456  1.0502
 8612SOL    HW237473   3.632   3.579  16.862  0.9334  1.8696  1.1762
 8613SOL     OW37474   1.504   3.653   2.864  0.2663  0.5177 -0.1916
 8613SOL    HW137475   1.492   3.567   2.902  2.4438  0.3360  0.1036
 8613SOL    HW237476   1.525   3.709   2.938  1.5075  1.3341 -1.1512
 8614SOL     OW37477   3.853   0.571   4.072  0.0091  0.1687  0.2559
 8614SOL    HW137478   3.857   0.523   4.155 -2.5900  0.1671  0.3764
 8614SOL    HW237479   3.764   0.566   4.036 -0.3014 -0.6782  1.1209
 8615SOL     OW37480   1.284   3.786   3.693 -0.2748  0.4807  0.0155
 8615SOL    HW137481   1.260   3.763   3.604  0.7529 -0.4138 -0.0259
 8615SOL    HW237482   1.305   3.878   3.677  0.8990 -0.0620 -1.5534
 8616SOL     OW37483   0.530   2.089   3.458 -0.4493  0.1544 -0.2997
 8616SOL    HW137484   0.495   2.130   3.379  0.7064  0.7736 -0.4885
 8616SOL    HW237485   0.559   2.002   3.430 -2.5670 -0.6048 -0.1664
 8617SOL     OW37486   0.719   3.918   2.583 -0.1509  0.0531 -0.8168
 8617SOL    HW137487   0.631   3.915   2.621  0.0017  0.2240 -0.4600
 8617SOL    HW237488   0.758   3.835   2.611  0.9833  0.6152 -0.7388
 8618SOL     OW37489   4.735   1.565  16.401 -0.0855  1.0070 -0.1296
 8618SOL    HW137490   4.723   1.618  16.322  0.9866  1.3260 -0.0719
 8618SOL    HW237491   0.068   1.504  16.383  1.6216  2.7190  0.8872
 8619SOL     OW37492   3.943   0.353   6.048 -0.4057 -0.2790  0.4285
 8619SOL    HW137493   3.896   0.271   6.033 -2.0659  0.6042  0.7024
 8619SOL    HW237494   3.906   0.400   5.974  0.5479 -0.0901  0.0835
 8620SOL     OW37495   3.690   3.000   8.061  0.0374 -0.3421 -0.6979
 8620SOL    HW137496   3.749   2.979   7.989 -0.2578 -1.2436 -0.6664
 8620SOL    HW237497   3.738   3.079   8.086 -2.7227  1.5864 -1.4904
 8621SOL     OW37498   1.195   2.465   8.080 -0.1404 -0.0718  0.5609
 8621SOL    HW137499   1.247   2.545   8.073  0.2822 -0.4059 -0.0619
 8621SOL    HW237500   1.122   2.493   8.025 -0.9083  1.8596  2.5467
 8622SOL     OW37501   4.255   1.941  14.203 -0.3982  0.3392 -0.0696
 8622SOL    HW137502   4.234   2.024  14.160 -0.2015  0.2162 -0.4034
 8622SOL    HW237503   4.306   1.886  14.143 -1.7500 -0.2276 -0.7000
 8623SOL     OW37504   4.604   1.584   4.859  0.3746 -0.2620  0.2478
 8623SOL    HW137505   4.541   1.528   4.815  0.6201 -0.0675 -0.3514
 8623SOL    HW237506   4.552   1.664   4.858 -0.0857 -0.5788 -0.9478
 8624SOL     OW37507   1.182   2.960   8.033  0.0182 -0.4044  1.1484
 8624SOL    HW137508   1.088   2.967   8.049 -0.5011 -2.7999 -0.9146
 8624SOL    HW237509   1.212   3.039   7.987 -2.0857  0.2690  0.9290
 8625SOL     OW37510   0.764   4.455  14.514 -0.6193 -0.3330  0.4868
 8625SOL    HW137511   0.820   4.510  14.460  0.5103 -0.1620  1.8367
 8625SOL    HW237512   0.684   4.508  14.510  0.6762  1.5744 -0.0669
 8626SOL     OW37513   4.173   2.174   3.567  0.7174 -0.1243 -0.2025
 8626SOL    HW137514   4.251   2.119   3.563 -0.0100 -0.9369 -2.7479
 8626SOL    HW237515   4.149   2.182   3.660 -1.6464 -1.2077 -0.7234
 8627SOL     OW37516   2.387   3.446   7.500 -0.0367  0.3457 -0.7520
 8627SOL    HW137517   2.422   3.357   7.508  2.0191  1.0551 -2.0172
 8627SOL    HW237518   2.318   3.433   7.566 -0.6120 -0.4897 -1.5122
 8628SOL     OW37519   0.778   2.946  12.949  0.3037  0.1171  0.1213
 8628SOL    HW137520   0.746   2.872  13.001  0.0198  0.2397  0.1214
 8628SOL    HW237521   0.872   2.928  12.955  0.2221  0.0374  1.0745
 8629SOL     OW37522   0.890   0.417   8.955  0.2787  0.2563 -0.0187
 8629SOL    HW137523   0.888   0.462   9.040 -0.7876  3.7183 -1.8568
 8629SOL    HW237524   0.959   0.354   8.977 -0.8952 -1.6613 -1.8731
 8630SOL     OW37525   2.605   0.622   8.450  0.2084 -0.3949 -1.0031
 8630SOL    HW137526   2.667   0.609   8.378 -0.0407  2.8502 -1.8114
 8630SOL    HW237527   2.632   0.705   8.491 -2.0355  0.0312 -0.3881
 8631SOL     OW37528   3.749   3.663   6.213 -0.2407  0.7162  0.1193
 8631SOL    HW137529   3.796   3.614   6.281 -3.2204 -1.8914  0.2814
 8631SOL    HW237530   3.821   3.700   6.161 -1.1822 -0.8732 -2.3199
 8632SOL     OW37531   0.114   2.060   2.775 -0.3603 -0.3271  0.0651
 8632SOL    HW137532   0.188   2.026   2.824  1.5638  0.1773 -2.5205
 8632SOL    HW237533   0.046   2.049   2.841  0.2396  0.4905  0.8232
 8633SOL     OW37534   3.559   1.037   6.018 -0.3371  0.2717  0.2067
 8633SOL    HW137535   3.468   1.053   6.043 -0.4200 -0.2813  0.2520
 8633SOL    HW237536   3.604   1.110   6.060 -0.7259  0.2158  0.7264
 8634SOL     OW37537   4.558   1.922   4.049  0.0672 -0.0740  0.2406
 8634SOL    HW137538   4.471   1.961   4.059  0.2965  0.5274 -0.1223
 8634SOL    HW237539   4.601   1.989   3.996  4.4033 -1.8765  1.4677
 8635SOL     OW37540   1.088   4.106   3.586 -0.0638  0.2711  0.0322
 8635SOL    HW137541   1.026   4.110   3.659  1.6920 -1.4645  1.6136
 8635SOL    HW237542   1.035   4.077   3.511  2.2778 -1.3055 -1.0041
 8636SOL     OW37543   4.402   0.904   5.843  0.4917  0.0886 -0.3860
 8636SOL    HW137544   4.438   0.846   5.910  0.6643  0.4760 -0.1422
 8636SOL    HW237545   4.488   0.906   5.801  0.1640 -0.7283 -1.1010
 8637SOL     OW37546   2.793   1.669  15.485 -0.7959  0.2449 -0.0918
 8637SOL    HW137547   2.863   1.603  15.484 -0.6502  0.4734 -2.6813
 8637SOL    HW237548   2.808   1.714  15.403 -0.0258  1.9447  0.9795
 8638SOL     OW37549   0.012   4.318   8.514 -0.3645  0.1635  0.5640
 8638SOL    HW137550   4.684   4.387   8.524 -1.7038 -1.0341 -0.1155
 8638SOL    HW237551   0.029   4.346   8.424 -2.2851  0.3303  0.2597
 8639SOL     OW37552   2.370   2.785   8.612  0.2115 -1.0378 -0.2461
 8639SOL    HW137553   2.455   2.818   8.641 -0.7280  1.0529  0.0529
 8639SOL    HW237554   2.347   2.719   8.677  2.0490 -2.2047 -0.7810
 8640SOL     OW37555   4.193   4.656   7.515 -0.1141  0.3310  0.0745
 8640SOL    HW137556   4.143   4.606   7.451 -1.3308 -0.6176  1.7724
 8640SOL    HW237557   4.152   4.621   7.593 -0.7428  2.7795  0.8394
 8641SOL     OW37558   4.548   0.724   5.966 -0.0493  0.0398 -0.0136
 8641SOL    HW137559   4.586   0.664   5.902  4.3305  2.7692  0.0229
 8641SOL    HW237560   4.592   0.689   6.044  0.8273  0.3934 -0.3526
 8642SOL     OW37561   0.949   1.880   4.846  0.1121 -0.1143  0.0511
 8642SOL    HW137562   1.012   1.912   4.910  0.1513 -2.5382  1.2169
 8642SOL    HW237563   0.949   1.952   4.783  0.4979 -0.2452 -0.1008
 8643SOL     OW37564   0.406   1.987   7.921  0.4017 -0.0645  0.4829
 8643SOL    HW137565   0.429   1.915   7.863  0.8122  2.8079 -2.8501
 8643SOL    HW237566   0.431   1.939   8.001  1.3159  1.6224  1.2062
 8644SOL     OW37567   2.827   1.451   8.335 -0.5619  0.5720  0.3959
 8644SOL    HW137568   2.841   1.515   8.265 -0.2072  1.6242  1.4288
 8644SOL    HW237569   2.742   1.411   8.316  0.2076 -0.8130 -0.1287
 8645SOL     OW37570   3.338   0.915   8.765  0.5080  1.0088  0.1114
 8645SOL    HW137571   3.319   1.008   8.756 -0.1777  0.9204  0.6811
 8645SOL    HW237572   3.401   0.907   8.693 -0.3572  0.1239 -0.5571
 8646SOL     OW37573   0.816   1.769   7.871  0.2934 -0.1144  0.0293
 8646SOL    HW137574   0.830   1.839   7.807  0.5449  0.0588  0.2811
 8646SOL    HW237575   0.806   1.692   7.814  0.3248  0.3919 -0.6639
 8647SOL     OW37576   4.368   1.152   1.382 -0.1198  0.7375  0.3253
 8647SOL    HW137577   4.286   1.194   1.406 -0.0365 -1.3247  4.1715
 8647SOL    HW237578   4.401   1.112   1.462 -0.2323  2.4153  1.1982
 8648SOL     OW37579   0.150   2.124  11.058 -0.2739 -0.5313  0.0897
 8648SOL    HW137580   0.105   2.041  11.077 -1.4909 -0.2678 -1.6039
 8648SOL    HW237581   0.150   2.105  10.964 -1.6772 -0.8257  0.1414
 8649SOL     OW37582   2.209   1.695   3.031 -0.2426  0.0690 -0.0228
 8649SOL    HW137583   2.117   1.669   3.039  0.1688 -1.5076 -0.3247
 8649SOL    HW237584   2.204   1.785   3.063  2.5895 -0.1139  0.9284
 8650SOL     OW37585   3.814   1.651   6.458  0.2661  0.3166  0.0358
 8650SOL    HW137586   3.886   1.597   6.426  1.4339  1.4199  0.8132
 8650SOL    HW237587   3.757   1.648   6.381 -0.7544 -0.0473  0.7960
 8651SOL     OW37588   1.901   1.935   3.417 -0.1753  0.0548 -0.1156
 8651SOL    HW137589   1.942   1.901   3.496  0.2560  3.4768  1.1364
 8651SOL    HW237590   1.977   1.986   3.387  0.5813 -0.5031  0.8707
 8652SOL     OW37591   3.798   0.263   2.818 -0.3614 -0.6872  0.0099
 8652SOL    HW137592   3.818   0.171   2.832  0.9726  0.1721  3.7212
 8652SOL    HW237593   3.876   0.296   2.862  1.6972 -1.0245 -3.3276
 8653SOL     OW37594   0.015   2.567   2.021 -0.2955 -0.3472 -0.1567
 8653SOL    HW137595   4.661   2.556   2.042  0.1115 -0.0287  1.8340
 8653SOL    HW237596   0.012   2.657   1.989  0.1811  0.6735  2.6233
 8654SOL     OW37597   2.372   0.878  13.298 -0.1870 -0.2198 -0.0352
 8654SOL    HW137598   2.318   0.943  13.253 -2.5463  0.2958  3.5571
 8654SOL    HW237599   2.358   0.905  13.388 -0.1138  0.2816 -0.1727
 8655SOL     OW37600   3.567   1.809   1.926  0.5086  0.8708 -0.1843
 8655SOL    HW137601   3.639   1.780   1.982 -0.5997  0.9953  1.3022
 8655SOL    HW237602   3.491   1.766   1.965  0.5268  0.2210 -0.8636
 8656SOL     OW37603   2.660   2.572   3.128 -0.4425  0.1781  0.5966
 8656SOL    HW137604   2.627   2.573   3.217  1.2099 -2.8555  1.2526
 8656SOL    HW237605   2.623   2.655   3.099 -0.8923 -0.2927 -0.1838
 8657SOL     OW37606   1.462   4.505   8.044  0.1200  0.1701 -0.4437
 8657SOL    HW137607   1.459   4.567   8.117 -3.2529 -2.8715  2.0351
 8657SOL    HW237608   1.550   4.469   8.056  0.7987  1.1129 -2.5682
 8658SOL     OW37609   4.282   3.334   8.620 -0.5831 -0.2075  0.3109
 8658SOL    HW137610   4.232   3.344   8.701 -0.9307  0.6623 -0.0141
 8658SOL    HW237611   4.228   3.267   8.578 -2.1612  0.6255  1.0256
 8659SOL     OW37612   4.284   3.788   9.561  0.4296 -0.4721 -0.1831
 8659SOL    HW137613   4.368   3.754   9.593 -1.3246 -3.3808  1.3845
 8659SOL    HW237614   4.276   3.875   9.601  1.8759 -0.7311  0.6629
 8660SOL     OW37615   2.583   2.284   6.083  0.2093 -0.2876 -0.0239
 8660SOL    HW137616   2.597   2.355   6.145  0.0109 -1.6219  1.5322
 8660SOL    HW237617   2.626   2.212   6.130  2.5624  0.0077 -1.6835
 8661SOL     OW37618   1.212   0.176  17.228  0.0449  0.3126 -0.7783
 8661SOL    HW137619   1.201   0.214  17.140  2.0662 -1.0879 -1.6351
 8661SOL    HW237620   1.287   0.221  17.266 -1.4607  0.7085  1.6780
 8662SOL     OW37621   4.562   2.921   5.216  0.7097 -0.8118 -0.6077
 8662SOL    HW137622   4.513   2.886   5.142  1.2409 -2.0589 -0.3723
 8662SOL    HW237623   4.549   2.848   5.277 -1.0524 -1.3000 -1.5926
 8663SOL     OW37624   2.735   4.290   5.792 -0.0855 -0.2762 -0.3849
 8663SOL    HW137625   2.734   4.194   5.785 -0.8905 -0.2600 -0.4506
 8663SOL    HW237626   2.686   4.316   5.714  1.9091  1.0388 -1.2093
 8664SOL     OW37627   2.247   0.481   7.246 -0.0832 -0.0009  0.7302
 8664SOL    HW137628   2.340   0.458   7.254 -0.0397 -0.2358 -0.3998
 8664SOL    HW237629   2.239   0.556   7.305  1.1454  1.8118 -1.4292
 8665SOL     OW37630   3.774   4.538   8.273 -0.1774  0.2657  0.4701
 8665SOL    HW137631   3.763   4.443   8.280  0.3891  0.0880 -0.9772
 8665SOL    HW237632   3.803   4.558   8.362  0.3932  0.5144  0.2254
 8666SOL     OW37633   2.752   3.622  16.592 -0.6549 -0.7742  0.8629
 8666SOL    HW137634   2.808   3.619  16.514 -2.1416 -1.6468 -0.1541
 8666SOL    HW237635   2.730   3.529  16.595 -2.1579 -0.4685 -0.7799
 8667SOL     OW37636   2.943   2.228  15.914  0.4362 -0.2808  0.0463
 8667SOL    HW137637   3.021   2.239  15.859  0.8005  0.0941  0.6353
 8667SOL    HW237638   2.919   2.316  15.942 -0.5720 -0.1236 -1.2795
 8668SOL     OW37639   4.712   2.028   3.431 -0.0852  0.1224 -0.3470
 8668SOL    HW137640   0.011   2.026   3.520 -0.1926 -0.3854 -0.3131
 8668SOL    HW237641   0.017   1.957   3.384 -0.1278  0.8608 -1.4827
 8669SOL     OW37642   4.417   3.479   0.780 -0.8183  0.3840  0.0677
 8669SOL    HW137643   4.407   3.571   0.803  1.3835  0.6659 -0.0674
 8669SOL    HW237644   4.343   3.459   0.722 -0.5016 -0.7528  0.0631
 8670SOL     OW37645   2.903   0.151   7.328  0.0252  0.0851 -0.2327
 8670SOL    HW137646   2.997   0.139   7.341  0.0585  0.1978 -0.3667
 8670SOL    HW237647   2.876   0.069   7.369 -0.0719  0.6890  0.8979
 8671SOL     OW37648   4.478   2.706   2.388  0.3427 -0.1333  0.3126
 8671SOL    HW137649   4.411   2.742   2.446 -1.0894  0.6650 -1.8616
 8671SOL    HW237650   4.416   2.657   2.333  1.0225 -3.1337  2.1869
 8672SOL     OW37651   1.391   2.737   4.024 -0.0846 -0.4640 -0.0408
 8672SOL    HW137652   1.351   2.651   4.015 -1.1309 -0.1788  1.8741
 8672SOL    HW237653   1.440   2.741   3.942  0.5527  0.4646  0.3870
 8673SOL     OW37654   4.229   4.583   3.333  0.0841 -0.3866 -0.0161
 8673SOL    HW137655   4.290   4.643   3.289 -2.2611  1.6145 -0.5674
 8673SOL    HW237656   4.240   4.606   3.425  1.3542 -1.5767  0.1305
 8674SOL     OW37657   1.169   2.895   3.404  0.1659  0.0070  0.3533
 8674SOL    HW137658   1.145   2.804   3.419  0.5279  0.1365  1.6948
 8674SOL    HW237659   1.128   2.930   3.483 -1.5232 -1.9068  0.3233
 8675SOL     OW37660   3.081   3.430  16.478  0.4889 -0.1724 -0.1761
 8675SOL    HW137661   3.008   3.491  16.468 -0.3587 -1.4473 -1.8121
 8675SOL    HW237662   3.104   3.419  16.386  1.2627 -0.2665  0.0236
 8676SOL     OW37663   1.313   3.538  14.156  0.2322  0.1141  0.1135
 8676SOL    HW137664   1.257   3.614  14.143  1.9874  1.3045 -0.5147
 8676SOL    HW237665   1.391   3.549  14.101  1.3438  0.2561  1.6853
 8677SOL     OW37666   0.249   3.876  14.117  0.0065 -0.0994 -0.5716
 8677SOL    HW137667   0.173   3.850  14.168  0.3012  1.2343  0.5618
 8677SOL    HW237668   0.315   3.857  14.184 -1.3749  1.4417  1.2236
 8678SOL     OW37669   3.012   0.298   4.521 -0.3262 -0.1515 -0.0684
 8678SOL    HW137670   2.920   0.298   4.493 -0.3481  2.1284  0.0254
 8678SOL    HW237671   3.047   0.355   4.452  1.8991 -1.9624 -0.4265
 8679SOL     OW37672   3.194   2.970   8.252  0.7510 -0.1289 -0.0424
 8679SOL    HW137673   3.282   2.938   8.235  0.7624 -1.1005  1.8281
 8679SOL    HW237674   3.174   2.905   8.320 -0.5303 -0.8562 -1.1038
 8680SOL     OW37675   1.791   4.289   7.186 -0.2761 -0.3637  0.0042
 8680SOL    HW137676   1.862   4.288   7.121 -0.0520 -0.9362  0.2616
 8680SOL    HW237677   1.828   4.235   7.255 -0.3597 -0.5290 -0.0822
 8681SOL     OW37678   2.854   4.224   7.972 -0.0131  0.4516  0.4895
 8681SOL    HW137679   2.859   4.174   7.890 -0.9526  0.6703  0.2975
 8681SOL    HW237680   2.802   4.300   7.944 -0.5692 -0.8823 -2.1127
 8682SOL     OW37681   3.024   2.682  15.717  0.1966 -0.1663  0.0192
 8682SOL    HW137682   3.085   2.755  15.726  0.4833 -0.4752  0.5637
 8682SOL    HW237683   3.018   2.675  15.621  1.1196  0.7468 -0.1076
 8683SOL     OW37684   3.066   4.375   8.402  0.4286  0.8323 -0.4517
 8683SOL    HW137685   3.011   4.371   8.324 -0.6133 -3.2295  0.5062
 8683SOL    HW237686   3.114   4.456   8.382 -0.0901  1.4455  0.8086
 8684SOL     OW37687   1.813   3.588   7.602  0.0373 -0.0552  0.7433
 8684SOL    HW137688   1.826   3.606   7.695 -0.0941  1.7681  0.3974
 8684SOL    HW237689   1.794   3.676   7.572  1.5097  0.6931  1.9927
 8685SOL     OW37690   0.203   4.664   1.127  0.1186 -0.1567  0.5623
 8685SOL    HW137691   0.160   4.667   1.212  0.9812 -0.5523  1.0146
 8685SOL    HW237692   0.287   4.626   1.153 -1.6311 -3.8211  0.9153
 8686SOL     OW37693   1.007   3.871  13.465 -0.1413  0.4105 -0.7406
 8686SOL    HW137694   0.947   3.887  13.392 -1.9262  0.7933  0.8156
 8686SOL    HW237695   1.051   3.955  13.474  3.1652 -1.4934  0.8601
 8687SOL     OW37696   0.425   1.068  15.897 -0.0149 -0.3591 -0.0133
 8687SOL    HW137697   0.373   1.146  15.914  0.0634 -0.7800  2.2110
 8687SOL    HW237698   0.517   1.088  15.914  0.1006  0.0215 -1.0926
 8688SOL     OW37699   0.153   4.101   4.721  0.1597  0.1012  0.7595
 8688SOL    HW137700   0.142   4.039   4.649  1.1002  0.1170  0.6080
 8688SOL    HW237701   0.247   4.116   4.721 -0.0816  1.6148 -1.7821
 8689SOL     OW37702   3.124   1.308   1.312  0.5913 -0.0650 -0.4075
 8689SOL    HW137703   3.040   1.310   1.357  0.5903 -0.3097 -0.3970
 8689SOL    HW237704   3.100   1.341   1.225 -0.7077 -1.1956 -0.4833
 8690SOL     OW37705   3.723   4.560   8.694 -0.1096 -0.9204 -0.1340
 8690SOL    HW137706   3.745   4.472   8.726  1.6005 -0.1954  0.7168
 8690SOL    HW237707   3.782   4.578   8.621 -1.6241  2.5293 -0.4752
 8691SOL     OW37708   2.663   1.441   3.955  0.0064 -0.1827 -0.1276
 8691SOL    HW137709   2.706   1.525   3.972 -0.5532  0.2852 -0.9907
 8691SOL    HW237710   2.715   1.382   4.009 -1.5889 -0.0016  1.6172
 8692SOL     OW37711   0.662   2.920   3.978 -0.1292 -0.4229 -0.3035
 8692SOL    HW137712   0.679   2.945   3.887  1.5088 -1.1200 -0.1826
 8692SOL    HW237713   0.686   3.002   4.021  2.0298  0.0449 -2.3840
 8693SOL     OW37714   3.493   3.062   7.775  0.5797 -0.2575 -0.0758
 8693SOL    HW137715   3.511   3.129   7.708  0.9334 -1.3021 -1.0254
 8693SOL    HW237716   3.558   2.994   7.757  0.6463 -0.7896  2.1796
 8694SOL     OW37717   3.930   1.006   8.848  0.0645  0.8060 -0.0033
 8694SOL    HW137718   3.860   0.955   8.889 -0.8844  3.2006  1.3477
 8694SOL    HW237719   3.981   1.022   8.928 -0.3815  1.5438  0.1292
 8695SOL     OW37720   1.838   0.544   3.385 -0.4394 -0.4615 -0.3717
 8695SOL    HW137721   1.863   0.634   3.364  2.4503 -1.4712 -1.2001
 8695SOL    HW237722   1.792   0.516   3.306 -0.7463  0.3192 -0.4745
 8696SOL     OW37723   4.128   3.549   6.233  0.2951 -0.4953  0.6286
 8696SOL    HW137724   4.119   3.526   6.141  2.9465  0.1009  0.2041
 8696SOL    HW237725   4.121   3.645   6.227 -1.6644 -0.8082 -2.0575
 8697SOL     OW37726   1.970   1.158   1.845 -0.2546 -0.6579  0.0699
 8697SOL    HW137727   2.006   1.143   1.933 -0.4157 -1.4764  0.0003
 8697SOL    HW237728   2.043   1.114   1.801 -0.9098 -1.4820 -0.1993
 8698SOL     OW37729   2.623   3.431   5.381  0.3997 -0.1067  0.2813
 8698SOL    HW137730   2.715   3.435   5.409 -0.2247 -0.1527  2.3212
 8698SOL    HW237731   2.585   3.366   5.439  0.6532 -0.2891  0.2425
 8699SOL     OW37732   0.539   3.371   3.377 -0.4303 -0.4158 -0.6753
 8699SOL    HW137733   0.521   3.365   3.283  0.9221  0.2762 -0.9718
 8699SOL    HW237734   0.452   3.343   3.407 -0.8024 -0.8159 -2.1273
 8700SOL     OW37735   2.471   4.096   7.189 -0.1226 -0.6095  0.2987
 8700SOL    HW137736   2.554   4.124   7.151  0.1344  0.7573  1.8881
 8700SOL    HW237737   2.502   4.008   7.213  0.4106 -0.8368 -1.2648
 8701SOL     OW37738   0.769   4.028   6.281  0.4116 -0.5764  0.6061
 8701SOL    HW137739   0.812   4.114   6.281 -0.7952  0.0278  0.2905
 8701SOL    HW237740   0.759   4.005   6.374  2.1839 -1.0120  0.6774
 8702SOL     OW37741   1.953   2.347   7.641  0.0730 -0.1339  0.3909
 8702SOL    HW137742   2.022   2.340   7.708 -0.1896 -0.5301  0.6197
 8702SOL    HW237743   1.984   2.419   7.586 -0.3261 -1.4784 -1.6118
 8703SOL     OW37744   0.283   0.449   4.460  0.5260  0.1826 -0.0838
 8703SOL    HW137745   0.205   0.394   4.452 -0.1428  1.0809  0.2545
 8703SOL    HW237746   0.339   0.382   4.498 -1.4196 -0.8332  1.0016
 8704SOL     OW37747   2.282   3.603   6.868  0.7360 -0.8277  0.6436
 8704SOL    HW137748   2.249   3.513   6.874  0.8453 -0.8126  1.3662
 8704SOL    HW237749   2.354   3.610   6.931  0.1110  1.4369  1.0891
 8705SOL     OW37750   4.577   2.492   4.231  0.4458 -0.1004  1.0424
 8705SOL    HW137751   4.560   2.556   4.163 -0.9399 -2.3414 -0.7032
 8705SOL    HW237752   4.495   2.442   4.227  0.9399 -0.8093 -0.0803
 8706SOL     OW37753   0.032   2.302   8.372  0.6350 -0.7897  0.1392
 8706SOL    HW137754   0.013   2.326   8.281 -1.8429  0.6831  1.0356
 8706SOL    HW237755   4.702   2.236   8.388  0.8891 -0.9404  0.5880
 8707SOL     OW37756   3.613   0.238   7.451  0.0851  0.0566  0.0580
 8707SOL    HW137757   3.635   0.330   7.437  1.1528 -0.3109 -0.7334
 8707SOL    HW237758   3.572   0.249   7.536  1.2107 -2.4478  0.9204
 8708SOL     OW37759   1.774   4.104   8.106  0.4595 -0.2288 -0.1160
 8708SOL    HW137760   1.724   4.065   8.178  0.8616 -1.1978 -0.3668
 8708SOL    HW237761   1.758   4.040   8.036 -1.7543 -2.1202  2.1373
 8709SOL     OW37762   3.553   1.722   6.806  0.2653  0.2268  0.3948
 8709SOL    HW137763   3.588   1.699   6.892  0.8152 -0.3422  0.0181
 8709SOL    HW237764   3.589   1.646   6.761 -1.6956  0.2871 -1.2446
 8710SOL     OW37765   3.422   2.715  11.713 -0.6369  0.4896 -0.7265
 8710SOL    HW137766   3.363   2.696  11.785 -1.6676  0.0862 -1.6788
 8710SOL    HW237767   3.434   2.808  11.730 -1.6171  0.7435 -1.4294
 8711SOL     OW37768   0.279   1.487   4.620  0.3082  0.0201  0.7318
 8711SOL    HW137769   0.366   1.527   4.628  0.4250 -0.8658  3.8198
 8711SOL    HW237770   0.295   1.452   4.532 -1.3326 -0.1183  0.4861
 8712SOL     OW37771   1.209   1.221   0.225 -0.2076 -0.0197 -0.1197
 8712SOL    HW137772   1.249   1.135   0.237  1.9325  0.9921 -0.0283
 8712SOL    HW237773   1.137   1.206   0.287 -1.0857 -3.2975 -1.8900
 8713SOL     OW37774   1.157   3.018   6.277 -0.4093 -0.1189  0.1532
 8713SOL    HW137775   1.219   3.092   6.276 -0.2261 -0.2634  0.6495
 8713SOL    HW237776   1.138   2.999   6.185  0.9872 -0.5718 -0.0463
 8714SOL     OW37777   0.479   2.722   4.126 -0.7976 -0.5030  0.3890
 8714SOL    HW137778   0.464   2.630   4.146  2.4001 -0.7463  1.5312
 8714SOL    HW237779   0.562   2.738   4.170 -1.0694  1.8482  0.0481
 8715SOL     OW37780   0.276   1.809  15.827  0.1729 -0.3190  0.0697
 8715SOL    HW137781   0.201   1.812  15.888 -2.4715  0.1933 -3.2262
 8715SOL    HW237782   0.345   1.772  15.883  0.3978  1.1448  0.7697
 8716SOL     OW37783   2.352   3.965   3.870 -0.3269  0.1055 -0.1719
 8716SOL    HW137784   2.347   3.895   3.935 -1.6071  0.5901  0.2355
 8716SOL    HW237785   2.393   4.035   3.921  0.3363  0.2562 -0.8927
 8717SOL     OW37786   3.763   0.378  12.244 -0.1692  0.4225  0.3844
 8717SOL    HW137787   3.829   0.382  12.312 -2.9488  0.2975  3.1131
 8717SOL    HW237788   3.713   0.302  12.276 -0.4550  0.9333  1.1412
 8718SOL     OW37789   0.229   0.676   6.035  0.6560  0.2500 -0.1466
 8718SOL    HW137790   0.193   0.765   6.040  0.9442  0.3774 -0.3509
 8718SOL    HW237791   0.205   0.639   6.120  2.1876  0.7610  0.5152
 8719SOL     OW37792   1.063   4.089  11.693  0.0006 -0.1155  0.2253
 8719SOL    HW137793   0.983   4.039  11.709  0.2080 -0.2056  0.9639
 8719SOL    HW237794   1.130   4.026  11.721  0.8802  0.5211 -0.4485
 8720SOL     OW37795   3.272   3.980   7.958  0.1162 -0.0553  0.0933
 8720SOL    HW137796   3.195   3.946   8.005 -0.2408 -1.8672 -1.7899
 8720SOL    HW237797   3.250   3.975   7.865  1.1136 -1.0752 -0.0965
 8721SOL     OW37798   4.736   4.211   3.868 -0.1528  0.0410  0.2765
 8721SOL    HW137799   4.654   4.195   3.914 -0.1116 -1.0000 -0.0068
 8721SOL    HW237800   0.012   4.124   3.829 -1.3011  0.4516 -1.0455
 8722SOL     OW37801   2.930   0.980   8.485  0.0798 -0.2636  0.3113
 8722SOL    HW137802   2.968   0.946   8.405  0.7115 -0.6220  0.7675
 8722SOL    HW237803   2.941   1.074   8.473 -0.5920 -0.3229 -0.8294
 8723SOL     OW37804   2.846   3.883  11.006 -0.1658 -0.2098  0.2283
 8723SOL    HW137805   2.910   3.954  11.018  0.0381 -0.4113  0.3245
 8723SOL    HW237806   2.862   3.823  11.078  0.2810  0.5981  0.8006
 8724SOL     OW37807   0.121   3.352  12.280 -0.3042  0.3820 -0.2263
 8724SOL    HW137808   0.095   3.306  12.360 -0.6251  2.1857  0.6972
 8724SOL    HW237809   0.215   3.336  12.276 -0.1144  1.1208  1.5165
 8725SOL     OW37810   4.215   2.148   8.329 -0.5408 -0.2037 -0.5829
 8725SOL    HW137811   4.205   2.213   8.399 -0.8543 -0.9673  0.0824
 8725SOL    HW237812   4.126   2.113   8.339 -0.7574  0.3446 -0.5795
 8726SOL     OW37813   3.993   2.428   4.747  0.1392 -0.0279  0.1026
 8726SOL    HW137814   3.928   2.485   4.705  0.5423  1.1225  1.0572
 8726SOL    HW237815   3.986   2.455   4.838 -0.5351 -1.3949  0.4628
 8727SOL     OW37816   0.357   3.980  11.525 -0.3703  0.3376  1.0114
 8727SOL    HW137817   0.352   4.062  11.574 -1.4556  0.3963  0.8158
 8727SOL    HW237818   0.266   3.950  11.533 -0.9801  1.6489 -0.8268
 8728SOL     OW37819   3.617   0.870   3.271  0.1795  0.0420  0.1377
 8728SOL    HW137820   3.704   0.829   3.271 -0.9871 -2.4655  1.7059
 8728SOL    HW237821   3.649   0.957   3.247 -0.6418  0.1179 -0.6807
 8729SOL     OW37822   0.197   1.341   9.152  0.1339 -0.1101 -0.5451
 8729SOL    HW137823   0.210   1.364   9.244 -0.5355 -0.5420 -0.3449
 8729SOL    HW237824   0.269   1.391   9.114  0.6794 -1.4195 -1.2482
 8730SOL     OW37825   3.461   0.588   4.601 -0.2188  0.3751  0.2395
 8730SOL    HW137826   3.534   0.546   4.647 -1.0167 -1.6389 -0.3365
 8730SOL    HW237827   3.398   0.519   4.622 -0.7565  0.9334  0.4699
 8731SOL     OW37828   0.542   0.809   5.714  0.1612 -0.0022 -0.6183
 8731SOL    HW137829   0.567   0.875   5.778 -1.0760  0.0012 -0.1518
 8731SOL    HW237830   0.625   0.797   5.668 -0.4798 -0.2970 -1.6985
 8732SOL     OW37831   4.066   1.790   9.835 -0.0417  0.1888 -0.3672
 8732SOL    HW137832   4.003   1.785   9.907  0.6282 -1.6269  0.0769
 8732SOL    HW237833   4.040   1.730   9.765  0.5046 -0.8560  0.3340
 8733SOL     OW37834   3.392   2.701   1.792  0.4649  0.5502 -0.1511
 8733SOL    HW137835   3.334   2.772   1.821  0.9507  0.3991  1.2090
 8733SOL    HW237836   3.417   2.743   1.710 -1.8037 -2.4218 -2.3596
 8734SOL     OW37837   3.734   3.138   2.484  0.3139  0.4211  0.1837
 8734SOL    HW137838   3.777   3.195   2.548 -0.7201  0.9422  0.4139
 8734SOL    HW237839   3.794   3.064   2.481 -1.4416 -0.9401 -1.3029
 8735SOL     OW37840   4.163   4.536   3.728  0.7545 -0.4331  0.4568
 8735SOL    HW137841   4.249   4.559   3.695 -0.5062  1.6626 -1.3771
 8735SOL    HW237842   4.100   4.608   3.727  0.1395 -0.9644  0.7046
 8736SOL     OW37843   0.724   0.637   2.896 -0.0242 -0.0470 -0.6481
 8736SOL    HW137844   0.820   0.631   2.901  0.1726  2.5508 -1.3680
 8736SOL    HW237845   0.712   0.543   2.887  0.2298 -0.1964  0.5544
 8737SOL     OW37846   2.483   2.773  14.725  0.3157 -0.0313 -0.4566
 8737SOL    HW137847   2.495   2.865  14.698  0.4065 -0.4844 -1.9398
 8737SOL    HW237848   2.543   2.739  14.659 -1.0753 -0.5305 -1.4517
 8738SOL     OW37849   2.773   0.849   4.783  0.2360 -0.3662  0.3153
 8738SOL    HW137850   2.792   0.756   4.787  1.3133 -0.2514 -2.0400
 8738SOL    HW237851   2.843   0.887   4.729 -0.2382  0.6593  0.4154
 8739SOL     OW37852   2.566   3.228   8.965 -0.1276 -0.1165  0.0206
 8739SOL    HW137853   2.540   3.150   9.014  0.9469  0.7786  1.9928
 8739SOL    HW237854   2.655   3.243   8.999 -0.4156  0.4333  0.5112
 8740SOL     OW37855   1.427   3.857   2.157 -0.5538  0.0078  0.4380
 8740SOL    HW137856   1.510   3.850   2.109 -2.3095 -1.0541 -2.4741
 8740SOL    HW237857   1.391   3.932   2.109 -0.6966 -0.0567  0.4424
 8741SOL     OW37858   0.561   2.815   9.071 -0.4351 -0.1757  0.0875
 8741SOL    HW137859   0.630   2.855   9.018 -0.4658 -1.5725 -1.0045
 8741SOL    HW237860   0.497   2.809   9.000 -2.0165  0.1146  1.4798
 8742SOL     OW37861   1.199   2.060  12.248  0.4357  0.1985 -0.2862
 8742SOL    HW137862   1.127   1.999  12.263  1.1819 -1.2069 -2.3853
 8742SOL    HW237863   1.172   2.111  12.172  0.1064 -1.2547 -1.1398
 8743SOL     OW37864   3.378   0.618   8.212  0.0965  0.6213 -0.3307
 8743SOL    HW137865   3.467   0.598   8.182 -0.1850 -0.7661 -0.2421
 8743SOL    HW237866   3.327   0.641   8.135  1.3990  0.7734 -1.1458
 8744SOL     OW37867   4.391   0.045   9.464  0.3710 -0.0789 -0.3480
 8744SOL    HW137868   4.347   4.719   9.521  0.2944  0.9043  0.6941
 8744SOL    HW237869   4.366   0.021   9.375 -1.3443  0.1711  0.0596
 8745SOL     OW37870   1.507   2.935   6.851  0.0632 -0.1408  0.1920
 8745SOL    HW137871   1.538   3.000   6.787 -0.1167  0.6590  0.9200
 8745SOL    HW237872   1.444   2.888   6.797 -0.9756  1.8930 -0.3665
 8746SOL     OW37873   2.089   3.535   1.035  0.4934 -0.3687 -0.6298
 8746SOL    HW137874   2.086   3.466   1.102  2.2021  1.0466  0.8879
 8746SOL    HW237875   2.001   3.520   1.000 -0.2709  1.1958  0.6453
 8747SOL     OW37876   2.670   3.353   8.634 -0.0468  0.1019 -0.3541
 8747SOL    HW137877   2.662   3.276   8.578 -2.4435  0.4712 -0.5352
 8747SOL    HW237878   2.674   3.319   8.724 -0.4261  0.8623 -0.0468
 8748SOL     OW37879   0.076   4.107  10.738  0.2534  0.0262 -0.0675
 8748SOL    HW137880   0.041   4.151  10.816 -1.0621  1.0731 -1.2593
 8748SOL    HW237881   0.166   4.124  10.766 -0.1558  2.4859 -0.2716
 8749SOL     OW37882   2.695   1.333   5.927  0.2957  0.3797 -0.1509
 8749SOL    HW137883   2.689   1.240   5.950  1.0879  0.5002  0.5715
 8749SOL    HW237884   2.603   1.355   5.937  0.0571 -1.5796  1.9890
 8750SOL     OW37885   2.530   0.464   3.103  0.1529  0.3274 -0.2251
 8750SOL    HW137886   2.599   0.431   3.046 -0.6016 -1.3956 -0.1489
 8750SOL    HW237887   2.559   0.551   3.130 -1.5443  0.7774  0.1936
 8751SOL     OW37888   0.955   4.725  13.826  0.3834 -0.2041 -0.0034
 8751SOL    HW137889   1.017   0.059  13.809 -3.2832  2.9341 -0.0613
 8751SOL    HW237890   0.896   0.031  13.888  1.2285 -0.1995  0.8019
 8752SOL     OW37891   2.504   3.793   3.529 -0.2124  0.6949 -0.8794
 8752SOL    HW137892   2.472   3.703   3.533  1.9415  0.0977  3.0021
 8752SOL    HW237893   2.518   3.818   3.621 -0.5822 -2.8555  0.1516
 8753SOL     OW37894   2.269   3.722   7.705  0.4764  0.5444  0.0393
 8753SOL    HW137895   2.251   3.740   7.613 -1.6697 -3.1476 -0.2681
 8753SOL    HW237896   2.236   3.633   7.711 -0.4723  1.1560  4.4928
 8754SOL     OW37897   2.665   2.124   3.029 -0.8537 -0.2100 -0.6501
 8754SOL    HW137898   2.627   2.053   2.977  0.1353 -1.3197  0.1506
 8754SOL    HW237899   2.749   2.134   2.985 -0.7662  1.6754 -0.0288
 8755SOL     OW37900   3.394   2.801   4.160 -0.1387 -0.0174 -0.3974
 8755SOL    HW137901   3.320   2.828   4.216 -0.3119 -0.5973 -0.3472
 8755SOL    HW237902   3.358   2.821   4.074 -0.7309  0.6910  0.0062
 8756SOL     OW37903   4.156   0.142   8.348 -0.2924  0.6617 -0.4182
 8756SOL    HW137904   4.177   0.049   8.346  0.7525  0.8682  1.2458
 8756SOL    HW237905   4.060   0.137   8.353 -0.3767  3.0951  0.4696
 8757SOL     OW37906   4.698   3.464   8.323  0.3377  0.3966 -0.1028
 8757SOL    HW137907   4.712   3.398   8.390 -1.6275  0.8967  0.7991
 8757SOL    HW237908   4.672   3.545   8.367 -0.6100  0.5517 -0.9248
 8758SOL     OW37909   2.519   1.298   0.609 -0.5991  0.0580  0.1530
 8758SOL    HW137910   2.544   1.341   0.527  1.4568 -0.1799  0.6410
 8758SOL    HW237911   2.425   1.296   0.595  0.0932 -0.0456 -4.7719
 8759SOL     OW37912   3.283   1.139   7.780 -0.2197 -0.0047 -0.2110
 8759SOL    HW137913   3.278   1.143   7.875 -2.3386  0.0945 -0.3239
 8759SOL    HW237914   3.303   1.230   7.758 -0.5203  0.0278 -0.3587
 8760SOL     OW37915   4.198   4.655  14.711  0.4291  0.2898  0.8866
 8760SOL    HW137916   4.204   0.008  14.740 -0.3531  0.4274  0.6170
 8760SOL    HW237917   4.122   4.617  14.755  1.6129 -1.1769  1.6937
 8761SOL     OW37918   3.461   3.515  16.483 -0.2383  0.0219  0.0386
 8761SOL    HW137919   3.484   3.422  16.477 -0.1953  0.0200  0.2377
 8761SOL    HW237920   3.410   3.519  16.564 -0.1721  1.7739 -0.0137
 8762SOL     OW37921   3.875   3.144  10.036  0.5213 -0.1492 -0.5305
 8762SOL    HW137922   3.829   3.152   9.952 -1.7588 -2.5648  0.5060
 8762SOL    HW237923   3.965   3.118  10.019  0.6772  1.3410 -2.0322
 8763SOL     OW37924   0.503   2.164  12.447 -0.0168  0.1650 -0.1653
 8763SOL    HW137925   0.591   2.134  12.466  1.1664  2.8291 -1.4746
 8763SOL    HW237926   0.479   2.191  12.535 -1.0613  2.7623 -1.2412
 8764SOL     OW37927   0.739   0.864   9.398  0.0116 -0.0130 -0.3513
 8764SOL    HW137928   0.762   0.934   9.337 -2.8711 -0.6539 -2.1796
 8764SOL    HW237929   0.647   0.844   9.381 -0.0033 -2.8110  2.9286
 8765SOL     OW37930   3.162   3.521  10.418 -0.6146 -0.1048  0.4772
 8765SOL    HW137931   3.094   3.455  10.401 -0.9703  0.4001 -0.0347
 8765SOL    HW237932   3.187   3.502  10.509 -0.6813  1.5105  0.8368
 8766SOL     OW37933   4.095   1.531   1.712  0.0162  0.3413  0.2777
 8766SOL    HW137934   4.034   1.477   1.763  1.8930 -0.3485  1.7830
 8766SOL    HW237935   4.053   1.511   1.629 -0.4512  0.9319  0.3687
 8767SOL     OW37936   4.263   1.090   1.793  0.3177 -0.7756  0.3614
 8767SOL    HW137937   4.316   1.142   1.733 -0.7176 -1.6030 -1.2573
 8767SOL    HW237938   4.273   1.138   1.875  0.6123  0.7815 -0.5845
 8768SOL     OW37939   4.696   2.403  14.383  0.0937  0.0010 -0.1546
 8768SOL    HW137940   0.002   2.338  14.437  0.9199  1.8479  1.4138
 8768SOL    HW237941   4.636   2.357  14.325  0.3519 -0.0163 -0.4063
 8769SOL     OW37942   1.127   3.263   9.494  0.1990  0.7102  0.1105
 8769SOL    HW137943   1.042   3.246   9.534  0.9772 -1.7104  0.7220
 8769SOL    HW237944   1.117   3.204   9.419 -1.8430 -0.0899  1.0338
 8770SOL     OW37945   4.042   3.025  14.948  0.3130 -0.0204  0.0451
 8770SOL    HW137946   4.057   2.933  14.926 -3.9100 -1.1221  1.9515
 8770SOL    HW237947   3.960   3.037  14.901 -0.4926 -0.7112  1.3085
 8771SOL     OW37948   1.938   4.674   3.099  0.0941 -0.7401  0.3126
 8771SOL    HW137949   2.026   4.709   3.111  0.2083 -0.5518 -1.0116
 8771SOL    HW237950   1.894   0.003   3.046  2.9772  1.0327  0.1721
 8772SOL     OW37951   0.972   0.157   1.585 -0.3023 -1.0253  0.0012
 8772SOL    HW137952   0.897   0.177   1.641 -0.7660 -1.3819 -0.4917
 8772SOL    HW237953   1.027   0.236   1.588  0.4736 -1.6269  1.7313
 8773SOL     OW37954   3.306   2.496  12.100 -0.2342  0.2820  0.3204
 8773SOL    HW137955   3.307   2.565  12.035  1.2804 -0.2334 -0.2082
 8773SOL    HW237956   3.225   2.517  12.146  0.6482  2.3368  0.9474
 8774SOL     OW37957   4.115   3.297   4.585  0.3278 -0.6343 -0.7796
 8774SOL    HW137958   4.090   3.388   4.601  0.6296 -0.7693  0.4255
 8774SOL    HW237959   4.194   3.304   4.532  0.4158 -1.0363 -0.7020
 8775SOL     OW37960   1.439   2.670   9.178  0.2899 -0.1390 -0.0934
 8775SOL    HW137961   1.501   2.719   9.232  0.5854  0.3424 -0.8657
 8775SOL    HW237962   1.500   2.636   9.113  0.2098  1.5325 -1.0746
 8776SOL     OW37963   0.563   1.043   4.580 -0.8348  0.3487  0.6872
 8776SOL    HW137964   0.548   1.034   4.674 -0.6401 -0.9077  0.6013
 8776SOL    HW237965   0.561   1.138   4.570 -0.1351  0.2951  0.0351
 8777SOL     OW37966   0.879   0.986   6.581  0.5901  0.4798 -0.1553
 8777SOL    HW137967   0.883   0.891   6.565  3.1622  0.6382 -0.5015
 8777SOL    HW237968   0.921   0.991   6.667  1.8444  2.7949 -0.8993
 8778SOL     OW37969   0.412   0.437   9.702  0.1042  0.4386  0.1138
 8778SOL    HW137970   0.448   0.435   9.613  2.3467 -1.0206  1.0461
 8778SOL    HW237971   0.488   0.454   9.758 -0.8960  1.4670  1.1698
 8779SOL     OW37972   4.681   4.715  13.862  0.5778 -0.2138  0.1278
 8779SOL    HW137973   0.028   4.679  13.888  0.8877  1.6624  1.6542
 8779SOL    HW237974   4.692   4.709  13.767  2.1647 -0.0063  0.2946
 8780SOL     OW37975   2.154   1.733   1.999 -0.2708 -0.3371 -0.5219
 8780SOL    HW137976   2.197   1.813   1.969  0.0227  0.1642  1.2427
 8780SOL    HW237977   2.124   1.693   1.917  2.0885 -2.0097 -0.5750
 8781SOL     OW37978   2.586   3.750   0.251 -0.4365  0.2446 -0.0683
 8781SOL    HW137979   2.675   3.721   0.233 -1.0357 -1.8029  0.2401
 8781SOL    HW237980   2.533   3.675   0.223 -0.9351  2.0765 -3.9913
 8782SOL     OW37981   4.120   2.913   8.904  0.0631 -0.0574 -0.5269
 8782SOL    HW137982   4.038   2.956   8.878 -0.6766 -1.8814 -1.2338
 8782SOL    HW237983   4.174   2.949   8.834 -1.7250  2.2716 -0.7204
 8783SOL     OW37984   3.950   0.103   5.070  0.0688  0.4014 -0.2566
 8783SOL    HW137985   3.939   0.196   5.089  0.9598  0.7212 -1.2986
 8783SOL    HW237986   4.044   0.090   5.081  0.0055 -1.1330 -1.4135
 8784SOL     OW37987   0.589   2.547   8.311  0.1746 -0.4284 -0.2848
 8784SOL    HW137988   0.517   2.487   8.328  0.8217 -0.9173  0.6479
 8784SOL    HW237989   0.617   2.509   8.228  0.3715  1.5367 -1.1368
 8785SOL     OW37990   3.282   4.140  16.711  0.4575 -0.0173 -0.4168
 8785SOL    HW137991   3.205   4.193  16.735  0.9487  0.7487 -0.5469
 8785SOL    HW237992   3.284   4.163  16.618  0.5044  1.3726 -0.0808
 8786SOL     OW37993   1.685   3.458  12.597 -0.4987 -0.5621 -0.5781
 8786SOL    HW137994   1.752   3.414  12.545  2.0421  2.4681  0.0579
 8786SOL    HW237995   1.632   3.385  12.630 -1.0188  0.4522  0.8652
 8787SOL     OW37996   2.060   2.952  11.350  0.2643  0.5425 -0.7324
 8787SOL    HW137997   2.066   2.870  11.398  1.0494  0.2223 -1.3858
 8787SOL    HW237998   2.117   2.997  11.412 -0.9258  1.2672 -0.1592
 8788SOL     OW37999   0.033   0.303   7.696 -0.3779  0.0924  0.4062
 8788SOL    HW138000   0.073   0.220   7.671  0.1907  1.0331 -1.8554
 8788SOL    HW238001   0.043   0.315   7.790  1.0675 -1.5100  0.4555
 8789SOL     OW38002   2.171   3.757   0.891  0.0162 -0.3302  0.2226
 8789SOL    HW138003   2.241   3.722   0.837  0.5541  0.5762  0.3364
 8789SOL    HW238004   2.123   3.682   0.928  1.4896 -0.6027  1.5518
 8790SOL     OW38005   1.010   3.856  11.361  0.6373  0.0863 -0.5520
 8790SOL    HW138006   1.024   3.856  11.266 -0.8963 -1.4571 -0.7811
 8790SOL    HW238007   1.100   3.840  11.389  1.3261  3.6967 -0.6462
 8791SOL     OW38008   3.112   0.940   5.993 -0.8418 -0.0065 -0.3583
 8791SOL    HW138009   3.153   0.854   5.985 -1.0968  0.0581 -2.2604
 8791SOL    HW238010   3.089   0.935   6.086  1.5693 -1.2099  0.1980
 8792SOL     OW38011   2.182   3.060   3.891  0.0787 -0.6485  0.0965
 8792SOL    HW138012   2.146   3.021   3.812 -0.4820  0.0400  0.0100
 8792SOL    HW238013   2.271   3.026   3.891 -1.4507 -4.6367  1.1868
 8793SOL     OW38014   3.028   0.792   7.788  0.5576 -0.6691 -0.0750
 8793SOL    HW138015   2.959   0.818   7.727 -1.1089 -1.5893  1.4365
 8793SOL    HW238016   3.106   0.828   7.745 -0.2845  0.8945 -0.2706
 8794SOL     OW38017   3.079   3.312   8.898 -0.1060  0.3966  0.4251
 8794SOL    HW138018   3.056   3.361   8.819  0.3871  0.6985  0.4738
 8794SOL    HW238019   3.138   3.372   8.943 -0.8229  0.7801  0.8586
 8795SOL     OW38020   1.065   3.031   5.447 -0.0877 -0.1828 -0.5230
 8795SOL    HW138021   1.090   2.944   5.476 -0.8695 -0.5561 -0.9692
 8795SOL    HW238022   1.037   3.079   5.526  0.2315 -1.3283  0.2829
 8796SOL     OW38023   0.242   4.419   6.601  0.3912  0.0795 -0.4532
 8796SOL    HW138024   0.264   4.339   6.554  1.0787 -0.6922  1.1987
 8796SOL    HW238025   0.246   4.391   6.692 -3.5639 -0.1893 -0.3647
 8797SOL     OW38026   3.519   2.909   3.274  0.1123 -0.2851 -0.1077
 8797SOL    HW138027   3.551   2.907   3.184 -0.9557 -0.0535 -0.4840
 8797SOL    HW238028   3.449   2.844   3.279  0.3724 -0.6525 -1.1473
 8798SOL     OW38029   3.864   0.679   4.825  0.6233 -0.3416 -0.3842
 8798SOL    HW138030   3.949   0.689   4.867  2.0167  0.6872 -3.4468
 8798SOL    HW238031   3.806   0.637   4.889 -1.1308 -0.5431 -2.1242
 8799SOL     OW38032   2.664   0.084   5.517 -0.0203 -0.2613  0.2931
 8799SOL    HW138033   2.726   0.079   5.445 -1.3397 -0.4023 -0.8291
 8799SOL    HW238034   2.584   0.049   5.478  0.4318  1.4683 -2.1754
 8800SOL     OW38035   4.585   0.089   3.223 -0.5590  0.1124 -0.5199
 8800SOL    HW138036   4.653   0.024   3.206  0.5875  1.1982 -0.0493
 8800SOL    HW238037   4.505   0.046   3.193  0.9836 -1.7732 -1.9392
 8801SOL     OW38038   1.966   1.446   5.796  0.0215  0.3368 -0.2398
 8801SOL    HW138039   2.027   1.373   5.790 -1.0073 -0.3700 -2.1742
 8801SOL    HW238040   1.957   1.456   5.891  1.2119 -0.0055 -0.0919
 8802SOL     OW38041   3.685   3.978   4.503 -0.0072 -0.5594 -0.3362
 8802SOL    HW138042   3.652   4.035   4.434  1.1344  0.2796 -0.1978
 8802SOL    HW238043   3.717   4.050   4.558 -0.1096 -1.5174  0.9755
 8803SOL     OW38044   3.916   3.694   6.940 -0.7941  0.0596 -0.0917
 8803SOL    HW138045   3.860   3.771   6.949 -1.4742 -0.6262  1.5807
 8803SOL    HW238046   3.931   3.673   7.032 -0.8622 -0.5938 -0.2243
 8804SOL     OW38047   0.522   1.822   3.369 -0.0959 -0.2888  0.0290
 8804SOL    HW138048   0.450   1.842   3.309  2.0528  4.6223 -0.9214
 8804SOL    HW238049   0.558   1.742   3.332  1.6714  1.2537 -1.5337
 8805SOL     OW38050   2.338   1.036   8.110  0.4009 -0.1620 -0.3640
 8805SOL    HW138051   2.244   1.031   8.094  0.4570  0.3489 -0.8428
 8805SOL    HW238052   2.377   1.112   8.067  1.4346 -0.4509  0.0771
 8806SOL     OW38053   2.052   4.333   9.614  0.2158  0.2876 -0.0668
 8806SOL    HW138054   2.017   4.295   9.533  0.6615  2.5994 -1.3167
 8806SOL    HW238055   2.062   4.261   9.678  1.7511  1.3720  0.9055
 8807SOL     OW38056   4.030   0.958   1.954 -0.7908 -0.1108  0.6309
 8807SOL    HW138057   4.083   0.879   1.946 -0.3760  0.4430 -2.2029
 8807SOL    HW238058   3.955   0.925   2.003 -2.5485 -0.6466 -2.3875
 8808SOL     OW38059   0.169   2.418   3.368  0.3611  0.2357  0.2036
 8808SOL    HW138060   0.100   2.358   3.339  2.1534 -1.3525 -0.8208
 8808SOL    HW238061   0.147   2.504   3.333  1.3983  0.7392  0.8101
 8809SOL     OW38062   3.572   1.398   3.206  0.0730 -0.3153 -0.0170
 8809SOL    HW138063   3.542   1.414   3.117 -1.4853  0.6745  0.6873
 8809SOL    HW238064   3.574   1.303   3.205  0.9327 -0.3137  0.6113
 8810SOL     OW38065   3.256   3.605   6.717  0.2623 -0.0226  0.0906
 8810SOL    HW138066   3.301   3.564   6.643  0.0960 -3.0008  1.6532
 8810SOL    HW238067   3.252   3.536   6.783  0.1124  0.7179  0.8688
 8811SOL     OW38068   2.905   2.452   5.155 -0.4297 -0.3983  0.4040
 8811SOL    HW138069   2.917   2.516   5.085 -0.0844  0.4050  1.2075
 8811SOL    HW238070   2.810   2.453   5.169 -0.6482  1.0500 -1.1582
 8812SOL     OW38071   2.929   2.060   8.092  0.5274  0.1002 -0.2066
 8812SOL    HW138072   3.016   2.084   8.059  0.3332  0.0544 -0.7581
 8812SOL    HW238073   2.885   2.117   8.028  0.1531  0.6286  0.5227
 8813SOL     OW38074   0.526   2.126   1.576 -0.6744 -0.1612  0.1459
 8813SOL    HW138075   0.470   2.193   1.615  1.7042  0.6977  2.1063
 8813SOL    HW238076   0.590   2.178   1.528 -2.2269  0.6713 -1.0204
 8814SOL     OW38077   4.249   4.327   2.837 -0.1467 -0.1342 -0.0380
 8814SOL    HW138078   4.281   4.406   2.793  0.2617  1.1203  2.5689
 8814SOL    HW238079   4.329   4.301   2.881  0.8004 -0.2935 -1.8294
 8815SOL     OW38080   0.901   4.103   4.727  0.1780 -0.2308 -0.2501
 8815SOL    HW138081   0.899   4.151   4.810  0.4921  1.0658 -0.9880
 8815SOL    HW238082   0.844   4.157   4.673  0.9370  1.7848  0.9477
 8816SOL     OW38083   0.745   1.052  14.030 -0.0865 -0.2619  0.2042
 8816SOL    HW138084   0.693   1.132  14.020  0.7851  0.7453  3.7162
 8816SOL    HW238085   0.798   1.054  13.951 -0.5247 -2.2053 -0.1461
 8817SOL     OW38086   0.186   2.483   5.966 -0.9408  0.0140 -0.1547
 8817SOL    HW138087   0.138   2.433   6.031  1.3505 -1.3531  0.4806
 8817SOL    HW238088   0.262   2.431   5.940 -0.3399  0.0403  1.5759
 8818SOL     OW38089   2.415   3.011   8.391  0.6416  0.2118  0.2116
 8818SOL    HW138090   2.393   2.918   8.385  3.6094 -0.4167 -0.8302
 8818SOL    HW238091   2.338   3.051   8.432  1.0591  0.1000  1.0975
 8819SOL     OW38092   2.882   3.402   5.456 -0.2424  0.0320  0.0766
 8819SOL    HW138093   2.959   3.459   5.453  0.7071 -1.1416  1.7873
 8819SOL    HW238094   2.915   3.318   5.487 -0.8094 -0.6831 -1.2570
 8820SOL     OW38095   1.694   2.506   9.160  0.5051  0.1028  0.4167
 8820SOL    HW138096   1.695   2.413   9.179  1.1995 -0.3014 -1.5596
 8820SOL    HW238097   1.738   2.548   9.234  4.3029  0.9300 -2.2748
 8821SOL     OW38098   2.672   0.669   1.878  0.4341 -0.1426  0.0075
 8821SOL    HW138099   2.621   0.589   1.868 -1.7801  1.3605 -0.7804
 8821SOL    HW238100   2.700   0.669   1.970 -2.6744 -2.8673  0.9740
 8822SOL     OW38101   4.722   2.023   5.408  0.2211  0.4148  0.1009
 8822SOL    HW138102   4.715   1.930   5.429  1.0567  0.4395  0.4625
 8822SOL    HW238103   4.725   2.023   5.312 -0.3449  0.8443  0.0829
 8823SOL     OW38104   2.718   4.002   5.810  0.3306  0.0276 -0.0017
 8823SOL    HW138105   2.713   3.936   5.740 -1.6530  1.0152 -0.7657
 8823SOL    HW238106   2.764   3.950   5.876 -1.5623 -0.8136  0.6576
 8824SOL     OW38107   1.457   0.607   9.184 -0.6451 -0.1078 -0.2473
 8824SOL    HW138108   1.395   0.607   9.257 -0.5034  0.7523 -0.1323
 8824SOL    HW238109   1.422   0.530   9.138 -0.6969  1.0366 -2.1180
 8825SOL     OW38110   1.170   3.803   8.691 -0.3764  0.4167  0.1253
 8825SOL    HW138111   1.139   3.756   8.768  1.4672  0.1935  0.7265
 8825SOL    HW238112   1.105   3.779   8.624  2.9421  1.4362 -3.4617
 8826SOL     OW38113   1.891   4.448  15.984  0.6302 -0.1637  0.5303
 8826SOL    HW138114   1.963   4.478  15.928 -0.5507  1.5036 -0.0944
 8826SOL    HW238115   1.901   4.504  16.061  1.2366  1.0380 -0.4102
 8827SOL     OW38116   3.467   3.373  17.177 -0.3028  0.0321  0.2396
 8827SOL    HW138117   3.407   3.365  17.103  2.5234  0.5474 -2.1105
 8827SOL    HW238118   3.488   3.281  17.193  0.2694  0.2501  0.7749
 8828SOL     OW38119   0.076   2.921   6.324 -0.1432  0.2369 -0.0016
 8828SOL    HW138120   4.725   2.956   6.318 -0.0842  0.2127 -1.0585
 8828SOL    HW238121   0.067   2.860   6.250 -0.8110  3.1013 -2.2930
 8829SOL     OW38122   2.775   4.254  15.520  0.0975  0.3163 -0.0749
 8829SOL    HW138123   2.831   4.311  15.573  1.3723 -0.8989 -0.1131
 8829SOL    HW238124   2.719   4.222  15.591  0.2088 -0.9670 -0.5673
 8830SOL     OW38125   1.574   3.607   0.776  0.2966 -0.7809  0.2359
 8830SOL    HW138126   1.559   3.690   0.820 -5.2875 -0.6706 -1.8540
 8830SOL    HW238127   1.547   3.543   0.842 -2.9166  0.9645  0.6115
 8831SOL     OW38128   4.602   2.940   1.686  0.2241  0.3921 -0.4477
 8831SOL    HW138129   4.528   2.897   1.645 -1.1349  3.7250 -1.5047
 8831SOL    HW238130   4.605   3.019   1.631  0.0355  1.0235  0.4568
 8832SOL     OW38131   2.808   2.625   5.953 -0.1464 -0.6667 -0.0838
 8832SOL    HW138132   2.872   2.691   5.979  0.6754 -1.7134  0.5852
 8832SOL    HW238133   2.828   2.544   6.002 -1.7046 -0.7546  0.3987
 8833SOL     OW38134   0.532   2.126   5.501 -0.3435 -0.2627 -0.1764
 8833SOL    HW138135   0.549   2.214   5.467  0.7229 -0.4417 -0.1025
 8833SOL    HW238136   0.486   2.081   5.430  1.1734 -0.3017 -1.1460
 8834SOL     OW38137   3.974   1.997   8.321  0.3228 -0.2256 -0.5183
 8834SOL    HW138138   3.955   2.013   8.228  1.9846  0.4220 -0.7391
 8834SOL    HW238139   3.887   2.019   8.356  0.5805  1.4030 -0.9014
 8835SOL     OW38140   1.382   3.515   1.473 -0.0961 -0.8607  0.2832
 8835SOL    HW138141   1.341   3.457   1.536 -3.0665  0.6181 -0.2817
 8835SOL    HW238142   1.310   3.509   1.409 -1.4079  0.4991  1.6446
 8836SOL     OW38143   0.707   3.536  12.072 -0.5359  0.7068 -0.3859
 8836SOL    HW138144   0.723   3.469  12.138  2.8111  1.3475 -0.5496
 8836SOL    HW238145   0.779   3.508  12.015  0.0595  0.8877  0.2872
 8837SOL     OW38146   4.174   3.579   2.614  0.5902 -0.0412  0.3104
 8837SOL    HW138147   4.257   3.537   2.635  1.0044  0.8976  0.5412
 8837SOL    HW238148   4.136   3.518   2.551 -2.3990  0.5131  1.5610
 8838SOL     OW38149   0.755   3.647  10.871  0.4323  0.3245 -0.1583
 8838SOL    HW138150   0.688   3.698  10.827  0.1115 -0.5096 -0.6371
 8838SOL    HW238151   0.822   3.713  10.886  0.9436 -0.0366 -0.8357
 8839SOL     OW38152   3.828   2.461   6.558  0.4623  0.4213 -0.2121
 8839SOL    HW138153   3.917   2.433   6.582  0.4521  0.8889  0.3591
 8839SOL    HW238154   3.839   2.552   6.587  2.9459  0.3584 -0.9269
 8840SOL     OW38155   1.973   2.225   6.830 -0.3381  0.9507  0.2822
 8840SOL    HW138156   1.995   2.318   6.836 -0.0210  0.8818  0.1842
 8840SOL    HW238157   1.899   2.220   6.891 -0.6062 -1.7333 -0.2832
 8841SOL     OW38158   4.022   2.221   7.174  0.4516 -0.2202  0.5884
 8841SOL    HW138159   4.057   2.152   7.231  0.7358 -1.2330 -0.8023
 8841SOL    HW238160   4.103   2.268   7.152 -0.3294  0.3632 -1.0774
 8842SOL     OW38161   0.097   0.271   4.371 -0.5336 -0.0331 -0.2636
 8842SOL    HW138162   0.054   0.243   4.290 -1.3522  0.4937 -0.0028
 8842SOL    HW238163   0.146   0.192   4.397 -0.4504  0.0400 -0.2004
 8843SOL     OW38164   3.342   2.576   4.637 -0.2387 -0.0684  0.0716
 8843SOL    HW138165   3.414   2.526   4.675  0.6052  0.8362 -0.3330
 8843SOL    HW238166   3.269   2.517   4.655 -0.5590  0.5805  0.9168
 8844SOL     OW38167   0.935   4.047  14.650 -0.6953  0.4155 -0.1983
 8844SOL    HW138168   0.951   3.974  14.710 -0.3031  1.0403  0.4581
 8844SOL    HW238169   1.022   4.054  14.610 -0.3259 -0.3913  0.4468
 8845SOL     OW38170   3.274   2.952  12.341  0.1709  0.0036  0.1176
 8845SOL    HW138171   3.369   2.939  12.338 -0.0687 -1.9476  1.2577
 8845SOL    HW238172   3.244   2.894  12.411 -1.9240  2.4785  1.2701
 8846SOL     OW38173   1.761   3.774  10.440 -0.4845  0.4828  0.2191
 8846SOL    HW138174   1.761   3.733  10.526  0.9178 -1.3477 -0.6539
 8846SOL    HW238175   1.850   3.809  10.446  0.2730 -1.2323 -0.8966
 8847SOL     OW38176   0.863   0.073  11.877  0.4586 -0.8641 -0.1066
 8847SOL    HW138177   0.917   0.094  11.801  1.0690  2.0819  1.1571
 8847SOL    HW238178   0.914   4.734  11.903 -0.4910 -0.7100  2.1609
 8848SOL     OW38179   1.069   1.550   0.057 -0.1256 -0.3943 -0.5154
 8848SOL    HW138180   1.071   1.645   0.043  4.0080 -0.3528  0.2082
 8848SOL    HW238181   1.161   1.525   0.049 -0.7512 -1.5204 -3.9875
 8849SOL     OW38182   0.338   0.491   7.475 -0.0960 -0.1048 -0.2966
 8849SOL    HW138183   0.255   0.445   7.462  0.4044 -1.2343  0.4399
 8849SOL    HW238184   0.389   0.428   7.424 -1.3063 -0.6923 -0.7778
 8850SOL     OW38185   4.276   2.963   7.181  0.0839 -0.6646 -0.2458
 8850SOL    HW138186   4.361   2.966   7.225 -0.2204 -1.8197  0.4163
 8850SOL    HW238187   4.289   2.885   7.128  2.5736 -0.7793  0.5517
 8851SOL     OW38188   0.302   0.393   7.110  0.2972  0.0873  0.6159
 8851SOL    HW138189   0.346   0.471   7.074  2.2812 -1.6342 -0.7115
 8851SOL    HW238190   0.365   0.368   7.177 -0.2021  0.7205  1.3242
 8852SOL     OW38191   3.756   2.108   5.573  1.1432  0.1946 -0.2725
 8852SOL    HW138192   3.817   2.140   5.506  0.9333  0.7964 -0.1711
 8852SOL    HW238193   3.673   2.133   5.534  0.2948  0.9164  2.0449
 8853SOL     OW38194   2.203   3.967   8.414  0.3387 -0.5568  0.5839
 8853SOL    HW138195   2.251   4.034   8.365 -0.1524 -1.0485 -0.5738
 8853SOL    HW238196   2.272   3.928   8.467 -0.9552 -0.2687  2.4817
 8854SOL     OW38197   3.855   0.222   9.221  0.2899 -0.0354 -0.1119
 8854SOL    HW138198   3.773   0.232   9.172  1.6986  2.3618 -1.9867
 8854SOL    HW238199   3.836   0.262   9.305 -1.4449 -0.3954 -0.3279
 8855SOL     OW38200   2.852   3.958   6.787  0.7909  0.2472  0.5038
 8855SOL    HW138201   2.889   3.898   6.852  0.9728 -1.1003 -0.8454
 8855SOL    HW238202   2.925   4.012   6.755  0.7139 -0.1328 -0.3057
 8856SOL     OW38203   2.737   0.416  17.158 -0.2064  0.5410  0.2027
 8856SOL    HW138204   2.681   0.340  17.171 -1.3876  0.5777 -4.4185
 8856SOL    HW238205   2.672   0.482  17.182  1.2358  2.6476 -1.6660
 8857SOL     OW38206   1.541   3.497   8.803 -0.4940 -0.1784  0.0054
 8857SOL    HW138207   1.477   3.445   8.851  0.0465 -0.2270  0.6723
 8857SOL    HW238208   1.594   3.551   8.862 -0.3680  0.8682 -1.0524
 8858SOL     OW38209   4.328   1.134   5.134 -0.1373  0.1219  0.4401
 8858SOL    HW138210   4.344   1.141   5.040 -0.9018 -0.0797  0.2957
 8858SOL    HW238211   4.401   1.080   5.163 -1.1632 -0.3851  2.0575
 8859SOL     OW38212   0.429   1.761   4.020  0.1545 -0.0723  0.3151
 8859SOL    HW138213   0.394   1.842   3.981 -0.4067  0.7480  2.4944
 8859SOL    HW238214   0.393   1.703   3.953 -0.4788  0.8018 -0.1153
 8860SOL     OW38215   3.565   1.722  11.970 -0.1263 -0.5055 -0.0901
 8860SOL    HW138216   3.534   1.703  11.881 -2.0719  0.4431  0.3753
 8860SOL    HW238217   3.616   1.801  11.952 -1.8166  0.3298 -1.2353
 8861SOL     OW38218   3.318   0.178   9.093  0.5556 -0.5546  0.0088
 8861SOL    HW138219   3.267   0.151   9.169 -0.1866 -0.9277 -0.6215
 8861SOL    HW238220   3.404   0.195   9.131  0.7589  0.2540 -0.8133
 8862SOL     OW38221   4.607   1.946  14.918 -0.5406 -0.0542  0.3719
 8862SOL    HW138222   4.676   1.889  14.884 -1.0119  0.5687 -1.5919
 8862SOL    HW238223   4.609   2.014  14.851 -0.6762 -0.5442 -0.1275
 8863SOL     OW38224   1.994   2.188  17.570  0.6427 -0.1816 -0.0943
 8863SOL    HW138225   1.944   2.256  17.525  0.0959 -0.6989 -0.2605
 8863SOL    HW238226   1.933   2.116  17.561  0.0468  0.4866 -1.5431
 8864SOL     OW38227   1.476   1.927   4.564  0.3513 -0.8085  0.2024
 8864SOL    HW138228   1.472   1.833   4.581  0.2990 -1.0599 -1.1748
 8864SOL    HW238229   1.411   1.948   4.497 -1.0504 -0.5345  1.6455
 8865SOL     OW38230   0.663   3.076   2.573 -0.8565  0.0891 -0.3237
 8865SOL    HW138231   0.639   3.025   2.495  0.0185 -1.0349  0.1400
 8865SOL    HW238232   0.597   3.043   2.635 -0.3101 -3.1901 -1.4587
 8866SOL     OW38233   1.433   4.604  11.969  0.2387 -0.4725  0.0161
 8866SOL    HW138234   1.371   4.604  11.896  1.7069 -0.5644 -1.2150
 8866SOL    HW238235   1.423   4.697  11.987 -2.0750 -0.7697  0.2833
 8867SOL     OW38236   1.505   1.543   5.880  0.0054  0.1072  0.3719
 8867SOL    HW138237   1.549   1.583   5.805 -1.5321  0.6668 -0.2367
 8867SOL    HW238238   1.567   1.485   5.924  1.5588  0.9651 -0.7073
 8868SOL     OW38239   3.249   1.193  14.860 -0.2205 -0.4383 -0.2027
 8868SOL    HW138240   3.202   1.235  14.789 -0.3968  0.8531  0.6790
 8868SOL    HW238241   3.328   1.247  14.871  1.1112 -2.7976  1.9027
 8869SOL     OW38242   1.330   3.299   4.003 -0.0834 -0.6389  0.0452
 8869SOL    HW138243   1.381   3.364   4.051  0.2225 -0.4347 -0.5618
 8869SOL    HW238244   1.354   3.213   4.036  1.0258 -2.0351 -4.4731
 8870SOL     OW38245   0.782   1.531  16.501 -0.3216  0.5961  0.2583
 8870SOL    HW138246   0.783   1.620  16.466 -3.0310  0.3638 -0.3904
 8870SOL    HW238247   0.809   1.554  16.590  1.0938 -0.4360  0.0999
 8871SOL     OW38248   0.805   0.239   8.572 -0.0597 -0.1595 -0.2878
 8871SOL    HW138249   0.863   0.302   8.615 -1.2727  0.7838 -0.0645
 8871SOL    HW238250   0.730   0.251   8.630 -0.5203 -0.1088 -0.9001
 8872SOL     OW38251   0.537   3.060   3.517 -0.3629 -0.0646 -0.4897
 8872SOL    HW138252   0.570   3.095   3.600  1.0961 -2.4277 -0.0994
 8872SOL    HW238253   0.530   2.970   3.547 -0.1031 -0.6232 -2.0955
 8873SOL     OW38254   0.674   0.573   6.623 -0.0031 -0.5931 -0.0999
 8873SOL    HW138255   0.749   0.523   6.654  1.3885  3.0311  2.3112
 8873SOL    HW238256   0.614   0.512   6.580  0.7611  0.1191 -2.2243
 8874SOL     OW38257   2.086   1.666   7.855 -0.1101  0.5865  0.2563
 8874SOL    HW138258   2.136   1.748   7.861  0.7959  0.0827 -0.4451
 8874SOL    HW238259   1.997   1.693   7.877  0.1544  1.0721  0.7410
 8875SOL     OW38260   0.840   4.247   4.365 -0.0443  0.7809  0.0186
 8875SOL    HW138261   0.848   4.155   4.341 -0.9353  0.3824  1.2164
 8875SOL    HW238262   0.907   4.290   4.312  1.6413 -0.3563  1.2245
 8876SOL     OW38263   0.294   0.191  14.647 -0.1670 -0.1657  0.1574
 8876SOL    HW138264   0.280   0.200  14.553  1.9890 -1.3107 -0.2693
 8876SOL    HW238265   0.216   0.142  14.675 -1.0612  1.1736  0.0491
 8877SOL     OW38266   2.689   4.340   8.860  0.3165  0.2494  0.1316
 8877SOL    HW138267   2.765   4.284   8.874 -0.0840 -0.0699  1.0051
 8877SOL    HW238268   2.730   4.426   8.858  1.2678 -0.1785  1.7075
 8878SOL     OW38269   3.657   2.532   6.363  0.5337 -0.7293 -0.1278
 8878SOL    HW138270   3.701   2.514   6.446  1.6614  2.5634  0.0022
 8878SOL    HW238271   3.607   2.454   6.341 -0.8237  0.2675 -0.5980
 8879SOL     OW38272   2.243   0.513   4.430  0.3709  0.4136 -0.1416
 8879SOL    HW138273   2.312   0.538   4.492 -0.4285  1.5404  0.2987
 8879SOL    HW238274   2.268   0.558   4.350  2.4622 -1.2568 -0.4117
 8880SOL     OW38275   4.694   0.021   7.963  0.4808  0.4846 -0.0560
 8880SOL    HW138276   0.031   0.080   7.957  0.4626  0.3956 -1.2151
 8880SOL    HW238277   4.651   0.030   7.878 -1.2374 -4.2125  0.2941
 8881SOL     OW38278   0.049   1.003   7.818 -0.3280 -0.0909  0.2788
 8881SOL    HW138279   0.048   1.046   7.733 -1.9647  0.2108  0.4535
 8881SOL    HW238280   0.132   1.040   7.848 -0.0708 -0.0396 -0.4810
 8882SOL     OW38281   3.643   3.260   0.951 -0.2096  0.9091  0.3310
 8882SOL    HW138282   3.624   3.332   1.011  1.0181  1.0661  0.5136
 8882SOL    HW238283   3.715   3.297   0.900  0.3782  0.2590  0.6885
 8883SOL     OW38284   2.420   3.748   8.530  0.1186 -0.3374  0.0819
 8883SOL    HW138285   2.470   3.829   8.533  0.2403 -0.4015 -0.2029
 8883SOL    HW238286   2.447   3.723   8.441 -2.6706  0.4228 -0.9788
 8884SOL     OW38287   1.945   2.519   5.682 -0.1043 -0.1349 -0.0085
 8884SOL    HW138288   1.912   2.552   5.766  0.6182 -2.5928  1.2343
 8884SOL    HW238289   1.985   2.440   5.718  0.0062 -0.6535 -1.2570
 8885SOL     OW38290   3.461   0.491  12.120 -0.6483 -0.3394 -0.2789
 8885SOL    HW138291   3.440   0.573  12.074  0.1978 -0.0082 -0.0836
 8885SOL    HW238292   3.450   0.516  12.212 -3.2447  0.7826 -0.9052
 8886SOL     OW38293   1.381   2.210   6.582  0.0013 -0.0046  0.5339
 8886SOL    HW138294   1.425   2.237   6.663  0.1974  1.8338 -0.1803
 8886SOL    HW238295   1.297   2.202   6.627 -0.0092  0.5881  0.6203
 8887SOL     OW38296   0.533   0.356   7.635  0.0764  0.4666  0.7629
 8887SOL    HW138297   0.476   0.425   7.602 -2.4361 -2.3812 -0.8224
 8887SOL    HW238298   0.467   0.293   7.664  0.8125 -1.4715 -1.7727
 8888SOL     OW38299   0.758   2.805   4.216  0.3802  0.4883  0.2599
 8888SOL    HW138300   0.847   2.806   4.250 -0.1187  0.1963  1.5495
 8888SOL    HW238301   0.782   2.821   4.124 -2.4081 -3.0645 -1.0505
 8889SOL     OW38302   1.929   0.538   7.657 -0.2866  0.3105 -0.1024
 8889SOL    HW138303   1.966   0.528   7.570  0.2873  0.7116  0.0907
 8889SOL    HW238304   2.007   0.520   7.709 -1.2941  0.8028  1.5930
 8890SOL     OW38305   3.018   0.060   3.543 -0.0223 -0.1219  0.0767
 8890SOL    HW138306   3.049   0.055   3.453  1.6508  0.6435  0.6153
 8890SOL    HW238307   2.923   0.049   3.544  0.0077 -0.2257  1.7661
 8891SOL     OW38308   0.475   4.729   8.821 -0.5160  0.3170 -0.7211
 8891SOL    HW138309   0.461   4.662   8.753  3.0040 -2.5510  1.3770
 8891SOL    HW238310   0.516   0.061   8.770  2.1306  0.8340  2.0960
 8892SOL     OW38311   0.523   1.242  14.261  0.0742 -0.3532  0.9085
 8892SOL    HW138312   0.567   1.166  14.299  4.3207  1.2780 -0.7500
 8892SOL    HW238313   0.432   1.212  14.257  0.3672 -1.1232  0.0627
 8893SOL     OW38314   2.747   1.470   8.609  0.0639  0.2558  0.4167
 8893SOL    HW138315   2.699   1.388   8.619 -1.2550  1.2081  1.9013
 8893SOL    HW238316   2.780   1.458   8.520  1.3759 -0.7209  1.0395
 8894SOL     OW38317   3.094   3.719   1.626  0.2377 -0.6124 -0.2547
 8894SOL    HW138318   3.035   3.759   1.561  3.0115  3.1305 -0.4886
 8894SOL    HW238319   3.121   3.641   1.577 -0.2740 -0.9102 -0.0677
 8895SOL     OW38320   2.079   3.191   6.535  0.6615  0.1127  0.0452
 8895SOL    HW138321   2.115   3.106   6.511 -1.3192 -0.7844  0.2871
 8895SOL    HW238322   2.007   3.165   6.593  1.5367  3.1584  2.5000
 8896SOL     OW38323   1.251   1.149   6.359  0.3102 -0.0744  0.0906
 8896SOL    HW138324   1.259   1.213   6.289 -0.0810  1.6265  1.5969
 8896SOL    HW238325   1.313   1.084   6.324  0.2739 -0.5330  0.8676
 8897SOL     OW38326   1.151   2.223  13.861 -0.1719 -0.4326  0.5722
 8897SOL    HW138327   1.180   2.232  13.770 -1.4388 -2.5325 -0.0367
 8897SOL    HW238328   1.161   2.128  13.867 -1.3338 -0.5908  0.0149
 8898SOL     OW38329   2.853   2.765   2.129  0.4346 -0.0105  0.5454
 8898SOL    HW138330   2.889   2.725   2.050  0.2668  0.8750  0.0252
 8898SOL    HW238331   2.892   2.716   2.202  0.4243 -1.8243 -0.6830
 8899SOL     OW38332   4.318   3.441   4.075  0.0092  0.5086 -0.1706
 8899SOL    HW138333   4.367   3.426   3.994  1.1903 -0.4309  0.7066
 8899SOL    HW238334   4.239   3.387   4.067 -0.4497  1.3942 -1.5168
 8900SOL     OW38335   0.644   0.490   5.521 -0.2316  0.6541  0.7079
 8900SOL    HW138336   0.551   0.508   5.511  0.3875  3.1250 -0.7755
 8900SOL    HW238337   0.648   0.461   5.612 -2.1291 -1.5384  0.0879
 8901SOL     OW38338   1.687   3.728   1.618 -0.2118  0.2559 -0.2469
 8901SOL    HW138339   1.713   3.809   1.574 -2.0342  0.6079 -0.6666
 8901SOL    HW238340   1.757   3.722   1.683  1.6257 -2.5872 -2.5034
 8902SOL     OW38341   4.240   3.437   0.586 -0.3479 -0.5674  0.3977
 8902SOL    HW138342   4.177   3.477   0.526  0.3740  0.4113  0.2841
 8902SOL    HW238343   4.267   3.364   0.531 -1.9548 -0.8884  0.0370
 8903SOL     OW38344   0.844   4.269  15.312  0.4709  0.8878 -0.3715
 8903SOL    HW138345   0.810   4.189  15.352 -2.4087  2.0619 -0.5134
 8903SOL    HW238346   0.866   4.315  15.393 -1.7778 -0.8322  1.2031
 8904SOL     OW38347   1.057   0.773   1.784 -1.0161  0.2553 -0.0949
 8904SOL    HW138348   0.970   0.744   1.756 -0.2053 -0.0923 -2.2834
 8904SOL    HW238349   1.102   0.704   1.734  1.7011  2.2109 -0.3804
 8905SOL     OW38350   3.228   3.672   5.884 -0.0943 -0.3416  0.2392
 8905SOL    HW138351   3.214   3.764   5.903  1.8795  0.2925 -1.3351
 8905SOL    HW238352   3.205   3.635   5.969  0.1348  0.8337  0.8131
 8906SOL     OW38353   4.572   1.381   8.608 -0.2982 -0.6898  0.0548
 8906SOL    HW138354   4.641   1.438   8.641  0.6199 -1.7532 -0.0060
 8906SOL    HW238355   4.606   1.361   8.521 -0.3481  2.4349 -0.6672
 8907SOL     OW38356   1.717   3.473   2.546 -0.4514 -0.1850  0.1017
 8907SOL    HW138357   1.789   3.534   2.528  0.8743 -1.9362 -0.5780
 8907SOL    HW238358   1.717   3.458   2.640 -1.0879 -2.1892 -0.2130
 8908SOL     OW38359   0.143   4.170   8.142  0.0277  0.0999  0.3187
 8908SOL    HW138360   0.221   4.195   8.092 -2.6580 -0.0637 -4.0013
 8908SOL    HW238361   0.180   4.094   8.186  0.6576 -0.0588 -0.4936
 8909SOL     OW38362   4.555   2.584   9.065  0.2163 -0.7185  0.0109
 8909SOL    HW138363   4.465   2.616   9.073  0.5568  0.0123  0.9449
 8909SOL    HW238364   4.578   2.637   8.988  0.7105 -1.2446 -0.2030
 8910SOL     OW38365   2.851   0.726   6.371  0.2703 -0.8479  0.4233
 8910SOL    HW138366   2.894   0.647   6.404 -0.7664 -1.4336  0.3525
 8910SOL    HW238367   2.760   0.699   6.382 -0.1847  0.3797 -0.3117
 8911SOL     OW38368   3.934   1.137  17.606 -0.2328  0.5149 -0.6329
 8911SOL    HW138369   3.966   1.047  17.601  0.7194  0.8597 -0.8406
 8911SOL    HW238370   3.863   1.134  17.541  0.4371  0.2918 -1.3645
 8912SOL     OW38371   1.641   1.112   6.165  0.1900  0.2021 -0.1429
 8912SOL    HW138372   1.705   1.049   6.134  1.3694  1.4085 -0.1682
 8912SOL    HW238373   1.556   1.087   6.128  0.0090  0.2551  0.2367
 8913SOL     OW38374   0.984   3.836   5.223  0.0994 -0.0860  0.3553
 8913SOL    HW138375   0.893   3.810   5.212  0.5727 -0.9191 -1.6080
 8913SOL    HW238376   0.968   3.925   5.256  0.2383  0.2930 -0.5679
 8914SOL     OW38377   2.473   2.570   7.276  0.4504  0.1253  0.1622
 8914SOL    HW138378   2.506   2.614   7.197  4.2870 -1.8758  0.6377
 8914SOL    HW238379   2.486   2.643   7.337  3.6594  0.4961 -0.9170
 8915SOL     OW38380   1.779   3.154   7.242 -0.2950 -0.0290  0.6020
 8915SOL    HW138381   1.746   3.073   7.280 -1.3413  0.9084  1.7134
 8915SOL    HW238382   1.814   3.132   7.156  2.0247 -0.5433  1.6838
 8916SOL     OW38383   0.566   2.062  14.692  0.0558  0.6033 -0.8293
 8916SOL    HW138384   0.590   1.978  14.651  0.6877  0.5708 -0.3791
 8916SOL    HW238385   0.554   2.030  14.781 -0.5003  0.3663 -0.9918
 8917SOL     OW38386   2.522   0.221   2.784  0.1815  0.8065 -0.2616
 8917SOL    HW138387   2.458   0.291   2.799 -0.7417 -0.7006  2.6442
 8917SOL    HW238388   2.586   0.242   2.852  1.2471 -1.9453 -0.4514
 8918SOL     OW38389   3.172   2.738   4.977  0.1821 -0.1678 -0.0995
 8918SOL    HW138390   3.265   2.734   4.998 -0.0429  0.2057  0.9567
 8918SOL    HW238391   3.144   2.763   5.065  1.2415 -0.4214  0.3078
 8919SOL     OW38392   3.272   1.777  12.038 -0.5590  0.6518  0.2275
 8919SOL    HW138393   3.270   1.871  12.053 -1.6276  0.8872 -1.4489
 8919SOL    HW238394   3.367   1.776  12.026 -0.3589  1.9798  1.6939
 8920SOL     OW38395   4.601   1.240   5.389  0.3333 -0.4374 -0.1354
 8920SOL    HW138396   4.565   1.275   5.307  0.8515 -0.0659 -0.2038
 8920SOL    HW238397   4.693   1.259   5.374  0.4692 -0.0832  1.1308
 8921SOL     OW38398   3.571   2.167  10.943  0.1470  0.0368  0.0567
 8921SOL    HW138399   3.629   2.211  11.004 -0.1193 -0.0857  0.3968
 8921SOL    HW238400   3.540   2.242  10.892 -1.5949  0.2941  1.4993
 8922SOL     OW38401   4.240   4.424   7.863 -0.0919  0.2357  0.8481
 8922SOL    HW138402   4.208   4.452   7.948  1.5077  3.2548  0.4436
 8922SOL    HW238403   4.179   4.471   7.805  2.5413 -1.1602 -3.0654
 8923SOL     OW38404   1.133   4.540   3.435  0.5680  0.1493 -0.5694
 8923SOL    HW138405   1.183   4.459   3.444 -0.4033 -0.4346 -0.4967
 8923SOL    HW238406   1.169   4.589   3.510 -0.5614  0.0089  0.0546
 8924SOL     OW38407   0.453   3.195   2.130  0.8162 -0.3450 -0.1586
 8924SOL    HW138408   0.542   3.199   2.167  1.4049 -2.4427 -1.3936
 8924SOL    HW238409   0.397   3.160   2.199  1.8985  0.6963  1.2641
 8925SOL     OW38410   3.743   2.508   3.582  0.0299  0.1888  0.2630
 8925SOL    HW138411   3.822   2.559   3.600  1.5362 -2.2415  0.5382
 8925SOL    HW238412   3.684   2.567   3.536 -0.1128  0.4685  0.8053
 8926SOL     OW38413   0.522   0.093   9.462 -0.6633 -0.3006  0.2579
 8926SOL    HW138414   0.466   0.167   9.443  0.1337  1.0430  3.0455
 8926SOL    HW238415   0.587   0.133   9.520 -1.5636  0.7515  0.5197
 8927SOL     OW38416   1.035   1.984   2.518  0.2645  0.0609  0.1118
 8927SOL    HW138417   1.104   2.002   2.454 -1.9068 -1.0133 -2.5160
 8927SOL    HW238418   0.996   1.900   2.491  1.2027 -0.6444  0.9664
 8928SOL     OW38419   3.949   4.544  12.163  0.1551 -0.2963  0.2737
 8928SOL    HW138420   4.044   4.539  12.171  0.1769  0.9453  0.8780
 8928SOL    HW238421   3.916   4.618  12.215 -3.1359 -0.3410 -1.7072
 8929SOL     OW38422   2.111   1.280   9.255 -0.0597 -0.1754 -0.0792
 8929SOL    HW138423   2.179   1.213   9.262 -0.5876 -0.5084  1.6291
 8929SOL    HW238424   2.084   1.292   9.346 -2.6952 -0.7256 -0.7900
 8930SOL     OW38425   2.723   3.538   1.732  0.0608  0.0740  0.1270
 8930SOL    HW138426   2.694   3.481   1.802 -1.1453  0.4948 -0.0112
 8930SOL    HW238427   2.780   3.599   1.779  0.6917  1.1610 -2.0270
 8931SOL     OW38428   3.589   2.338   4.421 -0.0178 -0.1013 -0.1208
 8931SOL    HW138429   3.515   2.306   4.472 -0.8383  2.0506  0.0509
 8931SOL    HW238430   3.648   2.367   4.490  1.0084  0.3911 -1.1950
 8932SOL     OW38431   0.255   2.741   1.744 -0.1919  0.7736  0.0631
 8932SOL    HW138432   0.330   2.698   1.704 -0.1772  0.6697  0.1999
 8932SOL    HW238433   0.198   2.748   1.667 -0.3885 -0.8317  0.0744
 8933SOL     OW38434   4.156   1.114   5.601  0.3638 -0.3109  0.0237
 8933SOL    HW138435   4.112   1.199   5.606 -1.2343 -1.1125 -0.3039
 8933SOL    HW238436   4.129   1.100   5.510  3.3387  0.4231 -0.9641
 8934SOL     OW38437   3.612   3.600   0.881  0.6261  0.3550  0.1111
 8934SOL    HW138438   3.645   3.678   0.925 -2.2336  2.3469 -1.3214
 8934SOL    HW238439   3.519   3.620   0.874  0.1577 -0.5337  3.4490
 8935SOL     OW38440   2.707   2.519  12.458  0.1177 -0.6559 -0.2359
 8935SOL    HW138441   2.800   2.526  12.481  0.1873 -0.2707 -0.6394
 8935SOL    HW238442   2.716   2.466  12.378  1.4635  0.8952 -1.1138
 8936SOL     OW38443   0.398   2.582   6.304  0.3490  0.5563  0.3990
 8936SOL    HW138444   0.441   2.645   6.362  0.9578 -0.9196  1.5687
 8936SOL    HW238445   0.358   2.641   6.241  1.3106 -1.1845 -1.8920
 8937SOL     OW38446   4.639   0.231   9.006 -0.4580  0.2862 -0.0042
 8937SOL    HW138447   4.721   0.270   8.975 -0.2704  0.0038  0.1316
 8937SOL    HW238448   4.593   0.232   8.923  0.8421 -0.4476 -0.7420
 8938SOL     OW38449   0.516   0.015   4.361  0.5796  0.1796 -0.1301
 8938SOL    HW138450   0.605   0.049   4.362  0.1890  1.2162 -1.5836
 8938SOL    HW238451   0.531   4.679   4.301 -0.3547 -0.5712  0.5500
 8939SOL     OW38452   3.983   0.263   7.996 -0.1626  0.0957 -0.5525
 8939SOL    HW138453   3.920   0.329   7.968 -0.1535  0.1641 -0.4087
 8939SOL    HW238454   4.055   0.289   7.938 -0.6448  2.5431 -0.0255
 8940SOL     OW38455   1.806   0.811   1.270 -0.4708  0.3716 -0.1111
 8940SOL    HW138456   1.889   0.856   1.283  0.3477 -0.8538 -1.0845
 8940SOL    HW238457   1.813   0.763   1.352  0.6416 -0.2158 -0.5478
 8941SOL     OW38458   1.168   0.113   9.437  0.0073 -0.2368 -0.0221
 8941SOL    HW138459   1.074   0.117   9.452  0.2447  0.8763  1.2374
 8941SOL    HW238460   1.173   0.050   9.365 -0.7753  0.8535 -1.0450
 8942SOL     OW38461   3.168   1.911   0.076  0.2563  0.2199 -0.4441
 8942SOL    HW138462   3.188   1.868   0.160 -2.0268 -1.8096 -0.9277
 8942SOL    HW238463   3.206   1.998   0.084 -1.8935  0.9380  1.8396
 8943SOL     OW38464   4.072   0.692   7.542  0.4148  0.2864 -0.0583
 8943SOL    HW138465   4.033   0.620   7.591 -0.2999 -0.1572 -1.2690
 8943SOL    HW238466   4.093   0.751   7.614  0.9393 -1.1822  0.9904
 8944SOL     OW38467   4.030   1.561   6.312  0.1807  0.3545 -0.3887
 8944SOL    HW138468   3.983   1.513   6.244 -1.7285 -0.2221  1.3610
 8944SOL    HW238469   4.040   1.646   6.269 -0.2581  0.2358 -0.7191
 8945SOL     OW38470   1.207   0.308  12.195 -0.1399 -0.2679 -0.2109
 8945SOL    HW138471   1.221   0.263  12.278  1.6698  2.6116  1.0338
 8945SOL    HW238472   1.154   0.383  12.223 -3.1848 -2.3857 -0.3551
 8946SOL     OW38473   2.013   3.875   4.738 -0.0091  0.2431  0.1310
 8946SOL    HW138474   2.012   3.896   4.644 -0.7429 -0.4351 -0.0172
 8946SOL    HW238475   2.107   3.862   4.754 -0.7715 -1.3608  3.2118
 8947SOL     OW38476   0.007   3.672  10.504  0.2717 -0.0380  0.0819
 8947SOL    HW138477   4.732   3.602  10.441 -0.0359  0.3504 -0.2877
 8947SOL    HW238478   0.051   3.628  10.577 -0.7739  0.3302  0.9339
 8948SOL     OW38479   3.272   0.473   6.829 -0.2079 -0.9077 -0.7976
 8948SOL    HW138480   3.349   0.526   6.810 -0.6856  0.5292  1.3296
 8948SOL    HW238481   3.296   0.380   6.822 -1.3854 -1.3060  0.4859
 8949SOL     OW38482   0.312   1.593   1.853  0.3213  0.1903 -0.1317
 8949SOL    HW138483   0.233   1.611   1.905  1.9822 -0.0739  2.4564
 8949SOL    HW238484   0.375   1.660   1.880 -0.7805  0.1454  2.6036
 8950SOL     OW38485   4.004   3.542   5.163 -0.0801  0.6053  0.3762
 8950SOL    HW138486   3.977   3.460   5.204  1.0697 -0.5922 -1.2573
 8950SOL    HW238487   3.931   3.603   5.172 -0.3025  0.3700  0.1685
 8951SOL     OW38488   3.637   2.211   0.632 -0.0926 -0.0794  0.2088
 8951SOL    HW138489   3.574   2.280   0.612 -0.8418 -0.7730  0.1928
 8951SOL    HW238490   3.627   2.144   0.563  0.1013  0.3709 -0.2596
 8952SOL     OW38491   0.032   2.676  15.215  0.2229  0.1034 -0.4402
 8952SOL    HW138492   0.107   2.716  15.260 -1.5388  1.3430  1.3655
 8952SOL    HW238493   4.696   2.736  15.215  1.0112  1.0902  0.1211
 8953SOL     OW38494   0.869   3.406  11.107 -0.2496  0.1493 -0.1360
 8953SOL    HW138495   0.930   3.464  11.062  0.7192  1.1611  2.4441
 8953SOL    HW238496   0.926   3.384  11.182  1.2561 -1.4867 -1.7645
 8954SOL     OW38497   1.941   4.438   7.978  0.0367  0.0909  0.0402
 8954SOL    HW138498   1.870   4.415   8.037 -0.2829  0.5261 -0.1815
 8954SOL    HW238499   1.975   4.348   7.972 -1.7235 -0.6371  1.2931
 8955SOL     OW38500   4.698   2.398   4.556  0.0202  0.0875 -0.2543
 8955SOL    HW138501   4.628   2.343   4.590  1.2323 -1.1332  0.2500
 8955SOL    HW238502   0.037   2.341   4.559 -3.0387 -4.0297 -0.2882
 8956SOL     OW38503   2.812   2.980  10.622 -0.1231 -0.8955 -0.6737
 8956SOL    HW138504   2.733   2.942  10.660  1.0618 -0.4667  2.1685
 8956SOL    HW238505   2.870   2.985  10.697  0.7283 -0.1110 -1.3860
 8957SOL     OW38506   4.294   0.283   8.534 -0.2473 -0.2503  0.1079
 8957SOL    HW138507   4.225   0.232   8.493  0.2713 -0.6239 -0.3057
 8957SOL    HW238508   4.365   0.255   8.477  0.1841 -2.7628  1.8652
 8958SOL     OW38509   0.115   1.413  17.732 -0.1817  0.1417 -0.3890
 8958SOL    HW138510   0.039   1.397   0.037  0.4169  1.6545  0.8727
 8958SOL    HW238511   0.179   1.421   0.053  1.4726  1.0709 -1.9833
 8959SOL     OW38512   1.069   0.324  17.034  0.0424  0.0148 -0.1060
 8959SOL    HW138513   1.052   0.258  16.967 -2.3295  0.4742  0.0342
 8959SOL    HW238514   1.123   0.391  16.992  1.3204  0.3169  1.9975
 8960SOL     OW38515   1.649   2.941   8.169  0.4480 -0.0449 -0.5942
 8960SOL    HW138516   1.634   2.927   8.075 -1.2447  0.8401 -0.4529
 8960SOL    HW238517   1.577   2.891   8.208  0.8970 -0.4846 -0.3269
 8961SOL     OW38518   0.863   3.993   4.239  0.0256 -0.0550 -0.2655
 8961SOL    HW138519   0.946   3.948   4.253 -0.4658  0.0463  3.0503
 8961SOL    HW238520   0.874   4.008   4.145 -2.3651  1.3883 -0.3139
 8962SOL     OW38521   0.842   1.629  13.717 -0.0734 -0.4861 -0.2124
 8962SOL    HW138522   0.909   1.644  13.651  1.4734 -1.1770  1.2022
 8962SOL    HW238523   0.870   1.690  13.785  0.2157 -1.0171  0.1420
 8963SOL     OW38524   1.782   4.172   4.701  0.0021  0.7121  0.2592
 8963SOL    HW138525   1.751   4.128   4.621 -3.0180 -0.3366  2.0075
 8963SOL    HW238526   1.713   4.237   4.716 -0.6141 -0.0165  0.5889
 8964SOL     OW38527   2.348   3.686   4.621  0.6578  0.4433  0.0523
 8964SOL    HW138528   2.267   3.636   4.608  0.5032  0.3967  1.1855
 8964SOL    HW238529   2.423   3.641   4.581 -0.3723  0.3742 -1.8260
 8965SOL     OW38530   3.073   4.323  16.237  0.2317 -0.2145  0.4614
 8965SOL    HW138531   2.998   4.277  16.199  2.4723 -1.2663 -2.7459
 8965SOL    HW238532   3.027   4.407  16.244  0.8370  0.1475  0.1005
 8966SOL     OW38533   2.996   3.676   8.037  0.3931 -0.4342  0.4803
 8966SOL    HW138534   3.028   3.752   8.085 -0.9436  1.0308 -0.9490
 8966SOL    HW238535   3.021   3.605   8.096 -0.9597 -3.1703 -2.2079
 8967SOL     OW38536   0.092   4.261   2.651  0.2415  0.0491 -0.2326
 8967SOL    HW138537   0.099   4.330   2.717  0.0942  0.4417 -0.6234
 8967SOL    HW238538   0.182   4.235   2.632  1.1544  2.5326  0.7525
 8968SOL     OW38539   1.054   2.727   7.262  0.1720  0.6955 -0.1823
 8968SOL    HW138540   1.114   2.764   7.197 -0.6104  0.2424 -1.1593
 8968SOL    HW238541   1.010   2.659   7.212  2.7029 -1.5027  0.5674
 8969SOL     OW38542   0.915   3.033   1.618 -0.0272  0.0575  0.3152
 8969SOL    HW138543   0.961   2.975   1.680  0.8049  1.0517  0.6284
 8969SOL    HW238544   0.956   3.114   1.648  1.3604 -0.2062 -0.8551
 8970SOL     OW38545   0.238   4.215   2.999  0.0053  0.2802 -0.2411
 8970SOL    HW138546   0.148   4.247   2.994 -0.1391  0.1411  1.3142
 8970SOL    HW238547   0.277   4.281   2.943  0.1633  1.4992  1.2906
 8971SOL     OW38548   3.076   3.865   4.326 -0.2487  0.0416  0.5715
 8971SOL    HW138549   3.017   3.884   4.254 -2.1568 -0.7897  1.9213
 8971SOL    HW238550   3.020   3.819   4.388  1.1488 -0.7667  1.2314
 8972SOL     OW38551   0.183   3.785   2.381  0.0183 -0.3936  0.4226
 8972SOL    HW138552   0.141   3.720   2.437  2.8859 -1.4305  1.4026
 8972SOL    HW238553   0.128   3.863   2.386 -0.2139 -0.3809 -2.1932
 8973SOL     OW38554   4.022   1.872   3.000 -0.1928  0.3088  0.0971
 8973SOL    HW138555   4.114   1.896   2.989  0.0416 -0.1178  1.1732
 8973SOL    HW238556   4.034   1.784   3.034 -0.3859  0.4031  0.4064
 8974SOL     OW38557   1.770   0.856  15.685  0.4459  0.5642  0.4092
 8974SOL    HW138558   1.739   0.892  15.769  1.1620  1.6666  0.1905
 8974SOL    HW238559   1.694   0.803  15.662  0.7115  0.4295 -0.1339
 8975SOL     OW38560   2.731   0.069   7.765 -0.1707 -0.1922 -0.3039
 8975SOL    HW138561   2.651   0.113   7.739  0.6104  1.1595 -0.4367
 8975SOL    HW238562   2.718   0.063   7.859  0.7085  0.5047 -0.1378
 8976SOL     OW38563   0.131   3.771   7.862 -0.4010  0.0241  0.2760
 8976SOL    HW138564   0.076   3.698   7.834 -2.0247  0.7238  1.7066
 8976SOL    HW238565   0.096   3.799   7.946  0.6619  0.0102  0.7339
 8977SOL     OW38566   1.933   4.115  11.296  0.3473 -0.1618  0.2715
 8977SOL    HW138567   1.895   4.036  11.258 -2.0306  0.8188  0.6595
 8977SOL    HW238568   1.862   4.161  11.340  3.6935  2.0245  3.3701
 8978SOL     OW38569   0.824   2.007  14.432 -0.2096 -0.2546  0.1881
 8978SOL    HW138570   0.732   1.981  14.443  0.6449 -2.0086  3.0127
 8978SOL    HW238571   0.826   2.026  14.338  0.4027  0.2857  0.3136
 8979SOL     OW38572   1.052   3.738  15.607 -0.2017  0.3068 -0.4598
 8979SOL    HW138573   1.059   3.829  15.580 -0.4539  1.1096  2.1277
 8979SOL    HW238574   1.006   3.758  15.689  0.0532  1.6687 -0.6456
 8980SOL     OW38575   3.566   0.760  15.036 -0.5351  0.0752  0.5476
 8980SOL    HW138576   3.547   0.823  14.966  0.3209 -0.7239 -0.4165
 8980SOL    HW238577   3.562   0.814  15.115  1.4697  1.8142 -0.5575
 8981SOL     OW38578   4.088   4.401   8.482  0.3419 -0.1475 -0.4068
 8981SOL    HW138579   4.145   4.380   8.556  0.7058  2.2494 -0.0083
 8981SOL    HW238580   4.006   4.371   8.521  0.1360 -0.1331 -0.8220
 8982SOL     OW38581   4.424   4.616  11.565 -0.2901  0.1106  0.1676
 8982SOL    HW138582   4.454   4.566  11.641 -1.9429 -3.0004 -1.2215
 8982SOL    HW238583   4.450   4.704  11.592 -1.8513  0.5813  0.1210
 8983SOL     OW38584   3.738   3.263   8.170  0.3248 -0.1278 -0.1678
 8983SOL    HW138585   3.799   3.322   8.214  0.1756 -0.2459  0.1984
 8983SOL    HW238586   3.705   3.317   8.098 -0.3209  0.4923  0.5854
 8984SOL     OW38587   1.563   0.098   8.722 -0.1881  0.0736 -0.1434
 8984SOL    HW138588   1.628   0.151   8.675  1.6458 -1.0003  1.1377
 8984SOL    HW238589   1.482   0.132   8.685 -0.3232 -0.5958 -0.4646
 8985SOL     OW38590   0.505   1.213   5.604 -0.3646  0.2653  0.0303
 8985SOL    HW138591   0.410   1.206   5.594 -0.6360  2.3265  1.0743
 8985SOL    HW238592   0.503   1.219   5.700 -0.6621 -2.3536  0.1919
 8986SOL     OW38593   3.433   3.884   6.710 -0.4147  0.3175 -0.5578
 8986SOL    HW138594   3.399   3.798   6.685 -0.5556  0.3210 -0.3777
 8986SOL    HW238595   3.523   3.858   6.728 -1.9798 -2.5590  3.1345
 8987SOL     OW38596   3.302   0.119   4.367 -0.5559 -0.4458 -0.5725
 8987SOL    HW138597   3.343   0.045   4.323  2.4038  0.2223  1.0440
 8987SOL    HW238598   3.213   0.085   4.366 -0.4370 -0.8201  1.0781
 8988SOL     OW38599   3.086   4.084   6.688  0.4907  0.1375  0.1252
 8988SOL    HW138600   3.153   4.147   6.715 -0.5170  0.6799  1.3870
 8988SOL    HW238601   3.110   4.062   6.598 -0.6354  0.5294 -0.2748
 8989SOL     OW38602   0.111   4.552  15.249 -0.0258  0.3774  0.4294
 8989SOL    HW138603   0.065   4.474  15.219 -0.7834  0.2371  1.9854
 8989SOL    HW238604   0.201   4.521  15.254 -0.5672 -1.4481 -1.2312
 8990SOL     OW38605   4.343   3.396   6.327  0.3993 -0.0393  0.4598
 8990SOL    HW138606   4.264   3.446   6.304 -0.2350 -0.3318  1.9769
 8990SOL    HW238607   4.338   3.385   6.422 -0.6217  0.2250  0.4449
 8991SOL     OW38608   2.607   2.708   1.344 -0.0126  0.3911  0.0047
 8991SOL    HW138609   2.570   2.720   1.431 -1.4345  1.3290 -0.7189
 8991SOL    HW238610   2.532   2.701   1.284  1.6031 -0.4107 -1.9405
 8992SOL     OW38611   0.245   0.484   3.860 -0.2367  0.3859  0.0362
 8992SOL    HW138612   0.154   0.471   3.835 -0.0588  0.3261 -0.5893
 8992SOL    HW238613   0.245   0.529   3.945  1.3667  1.4968 -0.5361
 8993SOL     OW38614   1.341   3.265   8.542  0.2386  0.3117 -0.5196
 8993SOL    HW138615   1.334   3.359   8.554  0.6948  0.2905 -0.0635
 8993SOL    HW238616   1.412   3.255   8.478 -1.0554  0.2755 -1.9192
 8994SOL     OW38617   3.197   3.228   4.320 -0.0034  1.3659  0.3687
 8994SOL    HW138618   3.183   3.287   4.246 -3.1856 -0.2452 -0.3349
 8994SOL    HW238619   3.187   3.291   4.392  2.1877  0.1055  1.7622
 8995SOL     OW38620   4.643   0.541  12.272 -0.2397 -0.6482 -0.8244
 8995SOL    HW138621   4.662   0.471  12.334 -1.1302 -1.6479 -1.6853
 8995SOL    HW238622   4.720   0.591  12.299 -0.8366 -0.4551  0.5323
 8996SOL     OW38623   3.883   2.268   2.823 -0.2291  0.3400  0.1108
 8996SOL    HW138624   3.861   2.207   2.893  1.4470 -0.7703 -0.3252
 8996SOL    HW238625   3.880   2.208   2.749 -1.9278  0.9677 -0.3495
 8997SOL     OW38626   3.898   2.506   8.339  0.3658 -0.3463  0.1847
 8997SOL    HW138627   3.962   2.442   8.371 -0.1891 -0.9090  0.1765
 8997SOL    HW238628   3.945   2.560   8.275 -1.8210  0.2012 -0.9476
 8998SOL     OW38629   2.440   0.830  13.582  0.3042  0.3478 -1.2551
 8998SOL    HW138630   2.395   0.767  13.639  2.0409  1.9196  1.8209
 8998SOL    HW238631   2.498   0.770  13.536  1.3239  1.3494 -1.2609
 8999SOL     OW38632   4.570   1.444   2.989 -0.6385 -0.5599  0.0990
 8999SOL    HW138633   4.665   1.455   2.982 -0.6511 -1.0896 -0.8684
 8999SOL    HW238634   4.566   1.478   3.079 -1.6554  2.2136 -0.9896
 9000SOL     OW38635   2.411   4.256  14.743 -0.1052 -0.0030 -1.1568
 9000SOL    HW138636   2.486   4.279  14.687  1.2709  1.7752  1.4196
 9000SOL    HW238637   2.377   4.178  14.698 -0.1684 -0.3833 -0.4449
 9001SOL     OW38638   2.664   3.481   3.611  0.3130  0.0715  0.4209
 9001SOL    HW138639   2.746   3.528   3.594  1.0794 -0.8847  1.4607
 9001SOL    HW238640   2.608   3.533   3.670  0.9784  1.3702 -0.0972
 9002SOL     OW38641   4.429   4.060   1.639 -0.8139 -0.4024  0.0094
 9002SOL    HW138642   4.404   4.086   1.550 -1.4627 -1.5880 -0.1578
 9002SOL    HW238643   4.504   4.117   1.650 -0.8921 -0.0406 -1.2892
 9003SOL     OW38644   4.253   0.082   4.817 -0.2693 -0.0944  0.8458
 9003SOL    HW138645   4.258   0.154   4.879  3.6169  2.8305 -2.8271
 9003SOL    HW238646   4.344   0.074   4.787 -0.4645 -1.1535  0.5442
 9004SOL     OW38647   1.963   4.571   9.675 -0.0587  0.1870 -0.1769
 9004SOL    HW138648   2.022   4.629   9.628 -0.4057 -0.4583 -1.4151
 9004SOL    HW238649   2.007   4.487   9.659  0.5342  0.4895 -0.1232
 9005SOL     OW38650   2.325   4.711   6.993 -0.1379  0.2520 -0.1462
 9005SOL    HW138651   2.411   0.015   6.984 -0.3084  0.3709 -1.2207
 9005SOL    HW238652   2.309   4.699   6.899  0.3859  1.7989 -0.4433
 9006SOL     OW38653   0.534   2.533   3.099 -0.6598  0.4069 -0.2128
 9006SOL    HW138654   0.502   2.496   3.016  1.2379 -1.3809 -0.1545
 9006SOL    HW238655   0.522   2.626   3.083 -1.0329  0.3404 -0.3101
 9007SOL     OW38656   3.128   0.866  14.005  0.4407 -0.1742 -0.2280
 9007SOL    HW138657   3.160   0.802  14.069 -1.5776  0.4622  1.4396
 9007SOL    HW238658   3.209   0.885  13.959  0.7309 -1.8975 -0.4593
 9008SOL     OW38659   4.187   1.428   6.476  0.2119  0.4044 -0.0727
 9008SOL    HW138660   4.099   1.456   6.450 -0.3214 -2.2357 -1.0958
 9008SOL    HW238661   4.234   1.492   6.423  0.6048  0.4653  0.3485
 9009SOL     OW38662   3.869   2.158   4.333  0.1742  0.0455 -0.4752
 9009SOL    HW138663   3.885   2.224   4.400 -0.3442 -0.8226  0.5095
 9009SOL    HW238664   3.956   2.167   4.295  0.0651  0.3029 -0.6588
 9010SOL     OW38665   0.102   3.195   8.069 -0.0544  0.0804 -0.0745
 9010SOL    HW138666   0.031   3.180   8.131 -0.9226 -0.7512 -1.2725
 9010SOL    HW238667   0.163   3.245   8.124 -1.3343 -0.2511  1.6661
 9011SOL     OW38668   4.273   2.724  17.688 -0.7980 -0.1785 -0.2737
 9011SOL    HW138669   4.361   2.739  17.653 -0.0865  0.6530  1.9074
 9011SOL    HW238670   4.286   2.704   0.030 -1.7634 -0.2459 -0.1521
 9012SOL     OW38671   2.762   1.935   1.371 -0.2522 -0.3102  0.0124
 9012SOL    HW138672   2.712   1.995   1.315 -0.0676 -3.1402 -3.1633
 9012SOL    HW238673   2.741   1.847   1.339 -1.4153 -0.3488  0.8903
 9013SOL     OW38674   1.348   2.147  11.456 -0.0525  0.3471 -0.4014
 9013SOL    HW138675   1.337   2.241  11.466 -1.6173  0.2388 -1.0769
 9013SOL    HW238676   1.263   2.109  11.480  0.1681 -0.0649 -0.2607
 9014SOL     OW38677   1.042   2.333   5.551 -0.7674 -0.4837  0.5061
 9014SOL    HW138678   1.084   2.402   5.499 -0.1821  0.3922  2.1386
 9014SOL    HW238679   1.045   2.370   5.639  2.1411 -2.2110  1.1126
 9015SOL     OW38680   3.623   0.846   5.347 -0.6428 -0.0827 -0.3141
 9015SOL    HW138681   3.668   0.877   5.426 -1.0638  0.6746 -0.3780
 9015SOL    HW238682   3.635   0.917   5.284 -2.1676  0.6174  0.1892
 9016SOL     OW38683   2.376   2.093   5.289  0.0624  0.6082  0.0272
 9016SOL    HW138684   2.388   2.080   5.195 -0.8704  0.0564 -0.0199
 9016SOL    HW238685   2.372   2.188   5.295  0.1134  0.6401 -0.4247
 9017SOL     OW38686   3.774   0.367   8.470 -0.3255 -0.1010  0.1019
 9017SOL    HW138687   3.839   0.400   8.532 -1.4815 -2.4840  2.5916
 9017SOL    HW238688   3.788   0.428   8.397 -2.5775  1.0501  0.6246
 9018SOL     OW38689   0.810   1.274   5.551  0.1685 -0.5839  0.3566
 9018SOL    HW138690   0.718   1.262   5.576  0.0669  0.2720  0.3798
 9018SOL    HW238691   0.854   1.190   5.565  1.2455  0.3075  2.3937
 9019SOL     OW38692   2.390   1.876   6.882  0.5757 -0.4032  0.2876
 9019SOL    HW138693   2.335   1.798   6.885  1.5953 -1.1172  0.1893
 9019SOL    HW238694   2.335   1.948   6.852  0.5632  0.2101  1.7824
 9020SOL     OW38695   3.617   0.092  14.083 -0.2293  0.1201  0.3569
 9020SOL    HW138696   3.699   0.110  14.036 -1.1981  1.3818 -0.8587
 9020SOL    HW238697   3.568   0.167  14.049 -1.8226 -0.6208  1.0309
 9021SOL     OW38698   4.733   3.824  14.227  0.5208 -0.3180  0.0017
 9021SOL    HW138699   4.683   3.831  14.309  0.8294  0.2794  0.1397
 9021SOL    HW238700   4.709   3.737  14.195 -1.8637  0.5592 -0.5923
 9022SOL     OW38701   4.579   3.831  15.166 -0.5034  1.0167 -0.6922
 9022SOL    HW138702   4.556   3.795  15.251  0.2207  0.3066 -0.8093
 9022SOL    HW238703   4.537   3.765  15.111 -1.7130  1.1147  0.1117
 9023SOL     OW38704   4.612   2.082   9.044  0.3109  0.0159  0.3984
 9023SOL    HW138705   4.519   2.087   9.067 -0.0294 -1.0016 -0.7649
 9023SOL    HW238706   4.649   2.039   9.121 -1.1250  0.6072  1.4272
 9024SOL     OW38707   1.946   1.127   6.620  0.0105  0.1567  0.0801
 9024SOL    HW138708   1.855   1.153   6.600  0.2176  0.2822 -0.7224
 9024SOL    HW238709   1.926   1.113   6.712  0.0103 -2.2049 -0.2816
 9025SOL     OW38710   1.914   2.769   7.596 -0.6508  0.0694  0.6827
 9025SOL    HW138711   1.942   2.819   7.519 -0.1389  2.0359  2.1397
 9025SOL    HW238712   1.951   2.813   7.673 -2.5884 -1.5736  2.5549
 9026SOL     OW38713   2.842   4.354  11.062 -0.0493 -0.2643 -0.3808
 9026SOL    HW138714   2.891   4.274  11.044  0.4148 -0.4642  1.7400
 9026SOL    HW238715   2.903   4.411  11.015 -3.1609  1.2053 -2.6001
 9027SOL     OW38716   2.410   0.322   4.956 -0.1362 -0.1533  0.0136
 9027SOL    HW138717   2.494   0.350   4.920  0.8302 -0.7374  1.7827
 9027SOL    HW238718   2.360   0.403   4.953 -1.1015 -0.8042 -1.5581
 9028SOL     OW38719   2.463   2.513   5.954  0.8554 -0.7471 -0.1442
 9028SOL    HW138720   2.487   2.426   5.984 -2.5461 -1.3900  0.6796
 9028SOL    HW238721   2.433   2.490   5.866 -0.8638 -0.6120  0.3984
 9029SOL     OW38722   0.110   0.297   1.715 -0.2419 -0.0041  0.5112
 9029SOL    HW138723   0.195   0.340   1.733 -0.5378 -0.6443  3.4977
 9029SOL    HW238724   0.100   0.325   1.624  2.0554 -0.6964  0.0474
 9030SOL     OW38725   0.367   1.389   3.389  0.4042 -0.6184 -0.1718
 9030SOL    HW138726   0.392   1.351   3.474 -0.9173 -0.4585  0.2979
 9030SOL    HW238727   0.273   1.403   3.399  0.8506  1.0048  1.8413
 9031SOL     OW38728   1.586   3.042   3.137 -0.1613 -0.1588 -0.3815
 9031SOL    HW138729   1.604   3.131   3.106 -0.4954  0.3440  0.8737
 9031SOL    HW238730   1.664   3.017   3.186 -0.7341  0.0133  0.6179
 9032SOL     OW38731   3.691   0.527   1.443 -0.2745  0.4782  0.7510
 9032SOL    HW138732   3.641   0.473   1.383 -2.9749  1.5007  2.0900
 9032SOL    HW238733   3.637   0.605   1.456 -0.8504 -0.1378  2.0717
 9033SOL     OW38734   3.458   3.527   9.053  0.5333  0.1818  0.4058
 9033SOL    HW138735   3.400   3.455   9.026  1.5301 -0.4813  0.0154
 9033SOL    HW238736   3.398   3.599   9.067  0.5745  0.5441 -1.2644
 9034SOL     OW38737   1.155   2.663   9.143 -0.2079 -0.2612 -0.5402
 9034SOL    HW138738   1.158   2.598   9.072  0.3053 -0.8311  0.0029
 9034SOL    HW238739   1.250   2.676   9.144 -0.5249  2.1734 -1.6558
 9035SOL     OW38740   2.378   4.311   7.325  0.0830  0.2079 -0.0563
 9035SOL    HW138741   2.344   4.262   7.400 -1.4908  0.8774 -0.3388
 9035SOL    HW238742   2.418   4.242   7.271 -0.9811  0.8465 -1.6811
 9036SOL     OW38743   2.174   3.751   3.108 -0.0411  0.0531  0.4470
 9036SOL    HW138744   2.248   3.800   3.142  1.1684 -1.3318 -0.1682
 9036SOL    HW238745   2.215   3.683   3.053 -1.9231 -0.7587  0.0435
 9037SOL     OW38746   3.920   0.550   1.729 -0.7891 -0.1066 -0.0282
 9037SOL    HW138747   3.973   0.530   1.807 -0.1175 -1.6644 -0.8703
 9037SOL    HW238748   3.844   0.602   1.754  0.1949  0.2726  2.2535
 9038SOL     OW38749   3.920   0.170   1.738  0.0386  0.1823  0.1454
 9038SOL    HW138750   3.859   0.097   1.729  2.4070 -1.9096  1.0302
 9038SOL    HW238751   3.889   0.237   1.677  1.5248  1.1116  0.4063
 9039SOL     OW38752   1.472   4.360   2.591 -0.0468 -0.2298  0.5214
 9039SOL    HW138753   1.485   4.276   2.546 -1.8052  0.4819 -1.3000
 9039SOL    HW238754   1.378   4.370   2.603 -0.5830 -2.5573 -1.6300
 9040SOL     OW38755   4.009   2.154   4.633 -0.0550 -0.2531  0.5170
 9040SOL    HW138756   3.972   2.232   4.673 -1.5701 -1.7218  1.9269
 9040SOL    HW238757   4.100   2.186   4.630  0.4774 -1.7238  0.9075
 9041SOL     OW38758   0.564   3.869  13.394 -0.5574  0.3715 -0.0454
 9041SOL    HW138759   0.549   3.943  13.453 -0.1294  0.1393  0.3538
 9041SOL    HW238760   0.575   3.791  13.448 -0.7310  0.2721 -0.1516
 9042SOL     OW38761   2.430   2.948   6.087 -0.2816 -0.2764  0.1118
 9042SOL    HW138762   2.408   2.936   5.995  0.5356  1.4459 -0.3124
 9042SOL    HW238763   2.437   2.862   6.129 -1.8040  0.1504  1.2599
 9043SOL     OW38764   2.346   1.559  15.031 -0.3391  0.4505 -0.2089
 9043SOL    HW138765   2.310   1.580  14.945  2.8934  2.6311 -1.0372
 9043SOL    HW238766   2.305   1.474  15.045  0.2793  0.2486  0.3823
 9044SOL     OW38767   3.315   0.468  16.311  0.1778  0.2976  0.3140
 9044SOL    HW138768   3.246   0.436  16.369  0.9640  0.1427  1.1709
 9044SOL    HW238769   3.271   0.525  16.248 -2.6359 -0.4522  1.5890
 9045SOL     OW38770   1.321   2.722   0.375  0.3437  0.6662 -0.0961
 9045SOL    HW138771   1.340   2.766   0.458  0.6732  0.2742  0.0328
 9045SOL    HW238772   1.255   2.786   0.347 -1.3800 -0.4793  1.2922
 9046SOL     OW38773   3.778   4.191   2.370  0.0956  0.2670  0.2101
 9046SOL    HW138774   3.799   4.266   2.426  2.3177 -0.0785 -0.1262
 9046SOL    HW238775   3.715   4.146   2.426  0.2491 -0.3800 -0.1436
 9047SOL     OW38776   1.744   4.298   8.844  1.0639  0.7076 -0.3227
 9047SOL    HW138777   1.757   4.389   8.818 -0.0379  0.5387 -1.4881
 9047SOL    HW238778   1.827   4.276   8.886  0.8723 -1.5668 -1.1063
 9048SOL     OW38779   3.033   2.540  13.379 -0.9015 -0.4769 -0.1669
 9048SOL    HW138780   3.106   2.481  13.362 -0.8606  0.2851 -2.6347
 9048SOL    HW238781   3.035   2.590  13.297  0.6504 -0.3683 -0.0653
 9049SOL     OW38782   4.640   4.399   3.320 -0.1090  0.2087 -0.1419
 9049SOL    HW138783   4.576   4.384   3.390 -1.5927  1.7113 -1.1735
 9049SOL    HW238784   4.630   4.320   3.267  0.3625  0.2396 -0.2763
 9050SOL     OW38785   1.748   2.229   4.302  0.3430 -0.2548 -0.0096
 9050SOL    HW138786   1.758   2.234   4.397  2.3002 -1.7834 -0.1330
 9050SOL    HW238787   1.732   2.321   4.282  0.9078 -0.3177 -0.7626
 9051SOL     OW38788   4.108   4.133   3.425  0.0010 -0.2931 -0.7594
 9051SOL    HW138789   4.171   4.064   3.404  1.4515  0.5280  0.9649
 9051SOL    HW238790   4.059   4.135   3.343 -0.0635  3.7754 -0.6394
 9052SOL     OW38791   2.568   1.367   0.358 -1.0361  0.4379  0.5250
 9052SOL    HW138792   2.525   1.423   0.294  0.6856 -1.4935 -2.3543
 9052SOL    HW238793   2.521   1.286   0.338 -1.2360  1.1049 -1.7734
 9053SOL     OW38794   4.180   3.956   1.759  0.3823  0.3876 -0.3691
 9053SOL    HW138795   4.148   4.034   1.804 -0.1837 -1.5211  2.5548
 9053SOL    HW238796   4.275   3.965   1.756  0.5930 -1.3475  0.9305
 9054SOL     OW38797   3.411   2.337   0.531 -0.1165 -0.8601  0.1126
 9054SOL    HW138798   3.348   2.349   0.460 -0.9676  0.9210  1.1533
 9054SOL    HW238799   3.381   2.400   0.596  2.1227  0.6016 -0.2505
 9055SOL     OW38800   0.747   0.611   9.537 -0.1215 -0.0616  1.1586
 9055SOL    HW138801   0.696   0.642   9.611  1.2742 -0.7783  2.4323
 9055SOL    HW238802   0.753   0.691   9.485  0.0873 -1.7126 -1.3471
 9056SOL     OW38803   0.608   2.423   6.693 -0.1150  0.5732  0.2610
 9056SOL    HW138804   0.537   2.479   6.663 -0.4219 -1.9392 -3.6440
 9056SOL    HW238805   0.615   2.374   6.611 -1.3471  0.4824  0.2066
 9057SOL     OW38806   0.200   0.985   6.975  0.4314  0.2465 -0.1119
 9057SOL    HW138807   0.118   0.935   6.977 -0.8680  2.3974  0.0246
 9057SOL    HW238808   0.161   1.070   6.996 -1.3194 -0.8584  1.0927
 9058SOL     OW38809   4.386   0.184   3.827 -0.1097  0.5989  0.4253
 9058SOL    HW138810   4.344   0.203   3.743  3.9824  2.0226 -1.2776
 9058SOL    HW238811   4.477   0.168   3.802 -0.3668  2.3459 -1.5999
 9059SOL     OW38812   3.598   0.361   4.772  0.7352 -0.1993 -0.4098
 9059SOL    HW138813   3.626   0.270   4.783  1.1120  0.1880  1.6895
 9059SOL    HW238814   3.625   0.401   4.854 -1.2346  3.0841 -1.3773
 9060SOL     OW38815   1.993   0.832   2.957 -0.1300 -0.1117  0.1003
 9060SOL    HW138816   2.080   0.860   2.930 -0.0722 -0.4507 -0.0636
 9060SOL    HW238817   1.947   0.826   2.873  2.8389 -0.6914 -1.4705
 9061SOL     OW38818   4.492   0.343   5.840 -0.1258 -0.1495  0.5395
 9061SOL    HW138819   4.583   0.316   5.836 -0.0550  0.0774  0.6632
 9061SOL    HW238820   4.464   0.294   5.918 -3.2087  0.7047 -0.0257
 9062SOL     OW38821   4.252   2.346   3.966  0.8559 -0.4940 -0.0508
 9062SOL    HW138822   4.316   2.378   3.904  3.1900 -4.8255  0.0964
 9062SOL    HW238823   4.200   2.291   3.908  0.5496  2.4129 -2.5230
 9063SOL     OW38824   3.586   3.513   2.593  0.3583 -0.1238  0.2754
 9063SOL    HW138825   3.532   3.462   2.654 -0.2893 -0.5336 -0.6370
 9063SOL    HW238826   3.672   3.485   2.623  0.8425 -2.8678 -3.7807
 9064SOL     OW38827   0.570   4.596  11.085 -0.1322 -0.1369 -0.4969
 9064SOL    HW138828   0.516   4.638  11.017 -0.0474  0.0714 -0.4347
 9064SOL    HW238829   0.524   4.638  11.158 -1.9800  0.1402 -1.8073
 9065SOL     OW38830   3.435   0.054   8.323  0.2120 -0.0888 -0.2968
 9065SOL    HW138831   3.447   4.734   8.248 -0.9343 -2.6621  1.4898
 9065SOL    HW238832   3.497   0.021   8.388 -2.6675  2.2393  3.6971
 9066SOL     OW38833   1.803   1.838   1.552  0.4153  0.5087 -0.4859
 9066SOL    HW138834   1.802   1.917   1.606  2.6854  0.7130 -0.7410
 9066SOL    HW238835   1.736   1.787   1.598 -0.3459  1.5226 -0.4458
 9067SOL     OW38836   2.450   0.312  15.053  0.1832 -0.0573 -0.0316
 9067SOL    HW138837   2.494   0.259  15.119  0.0166 -0.8936 -0.5894
 9067SOL    HW238838   2.493   0.272  14.977 -1.8507  1.7766 -2.1288
 9068SOL     OW38839   0.899   1.023  11.659  0.4680  0.1241  0.0969
 9068SOL    HW138840   0.895   1.074  11.579 -0.2178  1.9718  1.2955
 9068SOL    HW238841   0.986   0.987  11.647  1.1050  1.6223  0.2024
 9069SOL     OW38842   0.859   4.247   9.057 -0.0652  0.0036 -0.4897
 9069SOL    HW138843   0.912   4.171   9.080  1.1385  1.0419  0.1462
 9069SOL    HW238844   0.788   4.253   9.122  0.7483 -0.0726  0.4025
 9070SOL     OW38845   0.105   4.297   1.042 -0.1821  0.2432 -0.7724
 9070SOL    HW138846   0.137   4.300   0.952 -1.6833 -3.6703 -1.4365
 9070SOL    HW238847   0.016   4.261   1.039 -0.0101 -0.2334 -0.1490
 9071SOL     OW38848   3.909   1.916   4.809  0.1320  1.0961 -0.0304
 9071SOL    HW138849   3.858   1.863   4.747  0.3678  0.7439  0.0756
 9071SOL    HW238850   3.853   1.907   4.886  0.4623 -1.1468 -0.0539
 9072SOL     OW38851   4.587   0.429   4.975  0.7557 -0.5422  0.2751
 9072SOL    HW138852   4.653   0.446   4.908  0.8779  0.7750  0.7297
 9072SOL    HW238853   4.628   0.475   5.048  1.2411  1.6314 -1.3805
 9073SOL     OW38854   1.629   1.195   1.473  0.0533 -0.4199  0.1640
 9073SOL    HW138855   1.701   1.173   1.533  0.4998  0.0428 -0.1957
 9073SOL    HW238856   1.568   1.126   1.499  1.8451 -2.5931 -1.4114
 9074SOL     OW38857   0.371   3.304   9.236  0.0969  0.2506 -0.2351
 9074SOL    HW138858   0.369   3.399   9.230  0.4883  0.2554 -0.3064
 9074SOL    HW238859   0.435   3.277   9.170 -0.9903 -1.1089 -0.7586
 9075SOL     OW38860   3.423   3.118   3.426  0.5410 -0.0197  0.1091
 9075SOL    HW138861   3.478   3.196   3.425  0.9976 -0.3313  1.0994
 9075SOL    HW238862   3.457   3.054   3.363 -2.0338  0.3715 -1.6859
 9076SOL     OW38863   2.468   0.384   6.616  0.0951 -0.0002 -0.2269
 9076SOL    HW138864   2.427   0.456   6.664 -0.7844  0.2111 -1.2904
 9076SOL    HW238865   2.391   0.351   6.570 -0.8658  2.8150 -0.6292
 9077SOL     OW38866   1.685   2.135   6.680  0.0055 -0.3838  0.0029
 9077SOL    HW138867   1.699   2.220   6.721 -0.6328 -0.1891 -0.1844
 9077SOL    HW238868   1.772   2.098   6.665 -1.0160 -2.7649 -0.1009
 9078SOL     OW38869   2.504   3.035   0.384  0.2491 -0.3042 -0.4785
 9078SOL    HW138870   2.566   2.985   0.331  0.4189 -1.1245  0.4904
 9078SOL    HW238871   2.516   3.126   0.357 -0.5323 -0.7921 -2.4577
 9079SOL     OW38872   4.545   0.255   2.259  0.2337  0.2128 -0.3675
 9079SOL    HW138873   4.554   0.351   2.260 -1.2866  0.3376  0.6885
 9079SOL    HW238874   4.507   0.233   2.344  0.6388  0.5559 -0.0975
 9080SOL     OW38875   2.619   2.668  14.511 -0.5498  0.2256 -0.0917
 9080SOL    HW138876   2.599   2.600  14.447 -0.2076  0.3032 -0.2798
 9080SOL    HW238877   2.679   2.721  14.459 -2.2423  2.3242  0.0845
 9081SOL     OW38878   4.254   0.715   4.846  0.2441  0.0459 -0.5682
 9081SOL    HW138879   4.220   0.628   4.826  0.1112  0.7254 -3.3117
 9081SOL    HW238880   4.207   0.738   4.926  0.9123 -1.9162  0.3952
 9082SOL     OW38881   1.460   2.786  12.916  0.5489  0.9125 -0.0381
 9082SOL    HW138882   1.554   2.781  12.895  0.8596  1.1332  1.2667
 9082SOL    HW238883   1.418   2.781  12.831  2.6808 -3.4578 -0.8106
 9083SOL     OW38884   4.106   1.934   1.455 -0.2817 -0.1165  0.7915
 9083SOL    HW138885   4.120   1.873   1.526  0.3983 -0.3899  0.4152
 9083SOL    HW238886   4.197   1.954   1.434 -0.2867 -2.4754 -1.4883
 9084SOL     OW38887   1.195   4.039  10.811  0.0786 -0.3027  0.2185
 9084SOL    HW138888   1.183   4.105  10.879 -0.7221  0.5245 -0.7321
 9084SOL    HW238889   1.106   4.019  10.780 -0.1427  1.7821 -0.5178
 9085SOL     OW38890   1.769   3.450   6.397  0.2090 -0.2079  0.1862
 9085SOL    HW138891   1.761   3.425   6.305  2.0088  0.5978 -0.1867
 9085SOL    HW238892   1.859   3.481   6.391  0.2928 -0.3719  0.6227
 9086SOL     OW38893   0.682   1.400   3.418  0.4487 -0.3147 -0.1770
 9086SOL    HW138894   0.630   1.351   3.481 -1.9995 -0.1076 -2.0172
 9086SOL    HW238895   0.676   1.337   3.345 -2.3346 -1.7171  1.2387
 9087SOL     OW38896   4.328   0.550   0.653  0.1434 -0.0511  0.1794
 9087SOL    HW138897   4.375   0.613   0.599  0.8141 -1.3907 -0.8037
 9087SOL    HW238898   4.399   0.498   0.691 -0.5572 -1.7462 -0.8182
 9088SOL     OW38899   3.455   4.667  14.957  0.2111 -0.3284  0.4714
 9088SOL    HW138900   3.387   4.722  14.995 -1.5860 -1.1688 -1.4984
 9088SOL    HW238901   3.475   4.714  14.876  1.6282 -0.7836  0.5636
 9089SOL     OW38902   3.886   2.071   0.463  0.4988 -0.6146  0.0154
 9089SOL    HW138903   3.798   2.039   0.442  0.8401 -0.8002 -1.1655
 9089SOL    HW238904   3.933   1.991   0.487 -1.7614 -1.9130  0.1447
 9090SOL     OW38905   0.404   1.590   7.451 -0.0224 -0.3076  0.3364
 9090SOL    HW138906   0.457   1.670   7.451  1.2863 -1.1816 -3.7957
 9090SOL    HW238907   0.471   1.522   7.459  1.5543  1.5742  3.0329
 9091SOL     OW38908   0.685   3.428   3.699  0.3563 -0.3258 -0.2208
 9091SOL    HW138909   0.762   3.397   3.748 -0.6451 -0.7340  1.1113
 9091SOL    HW238910   0.644   3.486   3.763  0.2421 -0.4602 -0.1693
 9092SOL     OW38911   4.559   0.806   4.331 -0.3275  0.0703  0.0829
 9092SOL    HW138912   4.564   0.889   4.284 -0.8914 -1.1257 -2.0966
 9092SOL    HW238913   4.596   0.834   4.414  0.9301 -1.1053 -0.0695
 9093SOL     OW38914   0.832   1.898   6.516  0.0451 -0.1541 -0.1462
 9093SOL    HW138915   0.840   1.993   6.514 -1.4563 -0.0630 -1.0750
 9093SOL    HW238916   0.921   1.874   6.489  0.3474  0.9968 -0.1771
 9094SOL     OW38917   1.984   1.001   7.174 -0.4475  0.1157  0.0716
 9094SOL    HW138918   1.969   1.015   7.267  1.2260 -1.4528  0.5713
 9094SOL    HW238919   1.992   0.906   7.174 -0.2271  0.1210 -2.1133
 9095SOL     OW38920   3.202   3.006   7.187  0.2574  0.6772  0.1061
 9095SOL    HW138921   3.227   2.934   7.129 -1.6724  1.7097 -2.0357
 9095SOL    HW238922   3.280   3.009   7.242 -1.3498  1.3179  2.3231
 9096SOL     OW38923   1.271   2.846   6.761 -0.5747 -0.1566 -0.2676
 9096SOL    HW138924   1.213   2.846   6.685 -0.3227  1.4867 -0.4774
 9096SOL    HW238925   1.256   2.926   6.811  1.1868  0.4549 -0.7098
 9097SOL     OW38926   0.110   0.682   7.328 -0.4050  0.7623 -0.4773
 9097SOL    HW138927   0.110   0.601   7.378 -0.2882  1.5825  0.8606
 9097SOL    HW238928   0.139   0.738   7.400  0.6116  0.2441 -0.4875
 9098SOL     OW38929   2.794   0.193   3.235  0.2869  0.0683  0.4410
 9098SOL    HW138930   2.734   0.187   3.310  0.7750 -1.4324  0.6968
 9098SOL    HW238931   2.850   0.116   3.237  0.3911  0.1480  0.6427
 9099SOL     OW38932   0.250   2.954   8.182 -0.8102 -0.0262 -0.6890
 9099SOL    HW138933   0.228   3.039   8.145  0.1319  0.7693  0.5740
 9099SOL    HW238934   0.325   2.935   8.125 -1.0291 -1.9630 -0.3242
 9100SOL     OW38935   2.679   3.924  12.231  0.1005 -0.1973 -0.3301
 9100SOL    HW138936   2.666   4.013  12.199  1.2020 -0.3658 -1.2629
 9100SOL    HW238937   2.700   3.947  12.321  0.4224 -0.0778 -0.4360
 9101SOL     OW38938   0.193   0.006  15.803  0.4024 -0.2977  0.3428
 9101SOL    HW138939   0.218   0.034  15.715 -1.2548 -1.3334 -0.4517
 9101SOL    HW238940   0.219   0.088  15.845  1.9736 -0.8969  0.5661
 9102SOL     OW38941   2.256   2.785   7.155 -0.1643  0.0364 -0.4858
 9102SOL    HW138942   2.302   2.836   7.089 -0.2577 -0.4594 -0.9331
 9102SOL    HW238943   2.319   2.791   7.227  0.1941  1.1901 -0.9042
 9103SOL     OW38944   3.105   4.600  14.385  0.0547  0.0785 -0.0097
 9103SOL    HW138945   3.135   4.513  14.361  1.5973  0.4836  0.4545
 9103SOL    HW238946   3.048   4.629  14.314 -2.5357 -1.8353  1.3005
 9104SOL     OW38947   3.970   0.708   2.569  0.4657 -0.4684  0.2450
 9104SOL    HW138948   3.936   0.797   2.568 -0.9957 -1.0072  1.2956
 9104SOL    HW238949   3.918   0.658   2.632 -0.7718 -1.2004 -1.3682
 9105SOL     OW38950   1.610   0.812   7.054 -0.0016 -0.7039  0.1275
 9105SOL    HW138951   1.688   0.858   7.084 -0.4259  2.2588 -3.2166
 9105SOL    HW238952   1.557   0.886   7.024  0.5520 -0.7852 -1.0551
 9106SOL     OW38953   3.460   0.321  13.982 -0.5475  0.4456 -0.3655
 9106SOL    HW138954   3.448   0.389  14.048  0.4695  0.2208  0.0553
 9106SOL    HW238955   3.378   0.272  13.982  0.6023 -1.5058  1.9294
 9107SOL     OW38956   3.083   2.564  13.980 -0.0109 -0.4487 -0.3800
 9107SOL    HW138957   3.053   2.587  14.068  2.5050  1.5502 -0.0378
 9107SOL    HW238958   3.173   2.595  13.992  0.5408 -1.6592 -1.3564
 9108SOL     OW38959   3.154   1.657   7.813  0.0229  0.3962 -0.3679
 9108SOL    HW138960   3.202   1.736   7.790  1.6157  0.7143  3.9774
 9108SOL    HW238961   3.093   1.685   7.881 -1.0255  1.9175 -1.9685
 9109SOL     OW38962   4.097   3.945   7.033  1.3589  0.1894  0.3343
 9109SOL    HW138963   4.004   3.962   7.049  0.9166 -1.6756 -0.3569
 9109SOL    HW238964   4.122   3.916   7.121 -2.1058  2.8249  2.2130
 9110SOL     OW38965   2.746   0.994   2.598 -0.9299 -0.2773  0.1369
 9110SOL    HW138966   2.706   1.081   2.599 -1.2503 -0.4725  3.2661
 9110SOL    HW238967   2.675   0.930   2.601 -2.4616  1.1666 -4.0768
 9111SOL     OW38968   3.727   3.980   1.638  0.3221  0.2211  0.1824
 9111SOL    HW138969   3.817   3.983   1.603 -0.1398  2.4662 -0.8101
 9111SOL    HW238970   3.676   3.954   1.561  0.8658 -1.7126  0.4692
 9112SOL     OW38971   1.077   0.386  13.105 -0.0897  0.1220  0.0299
 9112SOL    HW138972   0.997   0.437  13.098  0.8529  1.4469 -1.2116
 9112SOL    HW238973   1.109   0.413  13.191  1.0118 -2.7097  0.5201
 9113SOL     OW38974   3.525   3.394  10.283  0.0711 -0.4300  0.4642
 9113SOL    HW138975   3.529   3.334  10.357 -0.3501 -1.2150 -0.1447
 9113SOL    HW238976   3.509   3.471  10.338 -1.3631 -1.6629  1.7650
 9114SOL     OW38977   0.800   1.010   7.275 -0.2471 -0.2826  0.2455
 9114SOL    HW138978   0.717   1.034   7.316 -1.1374 -0.4437 -1.4678
 9114SOL    HW238979   0.803   0.915   7.275  0.4112 -0.2645  1.1054
 9115SOL     OW38980   4.510   2.052   7.177  0.0168  0.4263 -0.4692
 9115SOL    HW138981   4.457   2.061   7.256 -4.0829 -0.1428 -3.1253
 9115SOL    HW238982   4.592   2.031   7.221 -1.1041 -2.6155  0.1323
 9116SOL     OW38983   3.554   4.674   5.660 -0.2735  0.2752  0.1426
 9116SOL    HW138984   3.585   4.657   5.749  2.0773  2.3497 -0.2805
 9116SOL    HW238985   3.631   4.691   5.607 -0.3964  1.9739  0.5195
 9117SOL     OW38986   4.216   3.145  11.962 -0.2511  0.6573 -0.2732
 9117SOL    HW138987   4.304   3.184  11.954 -0.4924  1.7103  2.2748
 9117SOL    HW238988   4.175   3.201  11.895 -0.8428  1.8894  1.1110
 9118SOL     OW38989   2.352   3.534  16.803  0.0857 -0.1895  0.6195
 9118SOL    HW138990   2.401   3.514  16.724 -1.6448  2.2383 -1.0482
 9118SOL    HW238991   2.316   3.617  16.772  0.5512  0.9927  3.1904
 9119SOL     OW38992   4.520   1.746   8.775  0.0009 -0.1662  0.0642
 9119SOL    HW138993   4.440   1.694   8.782  1.0411 -1.5382  2.1504
 9119SOL    HW238994   4.591   1.685   8.796  0.4755  0.2042 -0.4721
 9120SOL     OW38995   0.299   1.009   7.472 -0.1737 -0.3400 -0.0279
 9120SOL    HW138996   0.224   0.969   7.514  1.3210 -1.5841  1.4607
 9120SOL    HW238997   0.254   1.072   7.415  1.8887  1.2136  0.0451
 9121SOL     OW38998   1.983   2.579   6.135  0.1522  0.4447 -0.8038
 9121SOL    HW138999   1.964   2.496   6.180 -1.5642  1.6142  0.6435
 9121SOL    HW239000   1.971   2.645   6.204  0.6021  0.2736 -0.5596
 9122SOL     OW39001   0.982   3.223   8.493 -0.1344 -0.2452  0.2976
 9122SOL    HW139002   1.004   3.240   8.402  0.4557 -0.0240  0.4831
 9122SOL    HW239003   0.895   3.262   8.501 -0.0121  0.6296 -2.6387
 9123SOL     OW39004   0.497   4.652   7.588  0.1710 -0.2548 -0.6304
 9123SOL    HW139005   0.551   4.584   7.549 -0.6963 -1.0840 -0.3758
 9123SOL    HW239006   0.409   4.625   7.564  1.1373 -0.3029 -4.0959
 9124SOL     OW39007   3.237   2.737  12.507  0.0164 -0.2178  0.2828
 9124SOL    HW139008   3.303   2.672  12.481 -2.4031 -1.9927 -1.4773
 9124SOL    HW239009   3.160   2.697  12.467 -0.3288  0.3201  0.4216
 9125SOL     OW39010   4.532   3.032  17.556  0.4113  0.3625  0.0519
 9125SOL    HW139011   4.538   3.031  17.460  0.9153  0.4296  0.0797
 9125SOL    HW239012   4.525   2.941  17.583  0.2419  0.4124  0.1711
 9126SOL     OW39013   0.525   2.206  14.054  0.2050  0.3762 -0.3101
 9126SOL    HW139014   0.511   2.294  14.018 -1.7673 -0.5798 -1.8151
 9126SOL    HW239015   0.611   2.182  14.021  0.2116  0.5750 -0.4423
 9127SOL     OW39016   0.952   3.359   7.623  0.1062 -0.4544  0.2816
 9127SOL    HW139017   1.016   3.359   7.551  0.0243  3.6803  0.1718
 9127SOL    HW239018   0.976   3.443   7.662  1.0535 -0.6741  0.1812
 9128SOL     OW39019   0.563   0.183  15.747 -0.3886  0.3997  0.4285
 9128SOL    HW139020   0.485   0.178  15.691  0.3879 -0.5790 -0.5508
 9128SOL    HW239021   0.582   0.096  15.781  1.1445  0.1073 -1.2084
 9129SOL     OW39022   3.919   3.885   6.499  0.0292  0.3320  0.0819
 9129SOL    HW139023   3.889   3.974   6.482  1.4837  1.1192  1.7036
 9129SOL    HW239024   3.978   3.903   6.572  2.7519 -0.3289 -1.9352
 9130SOL     OW39025   2.432   1.344   4.077  0.4709 -0.2615 -0.1152
 9130SOL    HW139026   2.399   1.292   4.003 -1.7651  0.3220  0.4817
 9130SOL    HW239027   2.509   1.389   4.042 -0.8564  1.1435 -1.1994
 9131SOL     OW39028   2.216   1.187   7.710 -0.1614  0.0409  0.3395
 9131SOL    HW139029   2.178   1.216   7.627 -0.0314  0.1649  0.3233
 9131SOL    HW239030   2.288   1.248   7.727  0.5493 -1.2072  1.8554
 9132SOL     OW39031   0.034   2.188   1.937 -0.1333  0.5414 -0.8634
 9132SOL    HW139032   0.062   2.165   2.026 -1.7933  2.5264  0.1818
 9132SOL    HW239033   0.095   2.261   1.925  1.2662 -0.5565 -0.4713
 9133SOL     OW39034   4.190   0.439  16.302 -0.4761 -0.0534  0.1296
 9133SOL    HW139035   4.125   0.453  16.371  1.2608  0.1210  1.7181
 9133SOL    HW239036   4.256   0.379  16.337  0.7569  0.0789 -1.9836
 9134SOL     OW39037   0.779   0.819  10.282 -0.2692  0.0946  0.0187
 9134SOL    HW139038   0.708   0.866  10.237  0.6733  0.4450 -1.0962
 9134SOL    HW239039   0.750   0.728  10.285  0.5912 -0.1193  1.3477
 9135SOL     OW39040   4.007   3.948   5.261  0.1322 -0.4767  0.3180
 9135SOL    HW139041   3.959   3.867   5.242  1.4584 -1.5615  1.6528
 9135SOL    HW239042   4.074   3.947   5.192 -0.5974  0.5176 -0.4110
 9136SOL     OW39043   1.311   1.436   7.359  0.4162  0.0568 -0.4132
 9136SOL    HW139044   1.389   1.390   7.390 -0.0389 -2.0866 -2.3813
 9136SOL    HW239045   1.312   1.502   7.428 -1.0485  1.2812 -1.5665
 9137SOL     OW39046   0.538   2.527   5.148 -0.1019  0.1859 -0.1521
 9137SOL    HW139047   0.624   2.489   5.168 -0.9184 -1.2614  0.5800
 9137SOL    HW239048   0.487   2.447   5.144 -0.6909  0.5975 -0.9307
 9138SOL     OW39049   3.871   3.104   0.792 -0.8029 -0.4779 -0.1818
 9138SOL    HW139050   3.958   3.144   0.798  0.2197 -2.9896  1.8805
 9138SOL    HW239051   3.834   3.145   0.714  0.8191  1.9338  0.3212
 9139SOL     OW39052   3.529   1.946   5.586  0.0636 -0.1377 -0.0678
 9139SOL    HW139053   3.617   1.951   5.624  0.6563 -0.6334 -1.3940
 9139SOL    HW239054   3.478   2.018   5.622 -1.0832 -0.0324 -1.9197
 9140SOL     OW39055   4.019   0.418  16.530  0.6236 -0.3692  0.1643
 9140SOL    HW139056   4.032   0.325  16.510 -1.1112 -0.3791 -0.9575
 9140SOL    HW239057   4.011   0.413  16.625  1.0239  0.6742  0.2455
 9141SOL     OW39058   0.413   4.154   4.742 -0.6822  0.0201  0.1137
 9141SOL    HW139059   0.486   4.216   4.745 -1.5375  0.9278  2.3687
 9141SOL    HW239060   0.416   4.121   4.832  1.1286  2.2071  0.8292
 9142SOL     OW39061   1.944   2.600   0.909 -0.2675  0.2626  0.4618
 9142SOL    HW139062   1.919   2.563   0.825 -2.0730 -2.6784  2.2785
 9142SOL    HW239063   1.878   2.668   0.925 -0.4973 -0.1513  1.3152
 9143SOL     OW39064   0.995   1.253   6.374 -0.2340  0.1097  0.2090
 9143SOL    HW139065   1.010   1.304   6.454  2.8875  1.0876 -1.0028
 9143SOL    HW239066   1.082   1.213   6.371 -0.5098 -0.3751 -1.0254
 9144SOL     OW39067   2.901   2.205   6.906  0.1914 -0.5164 -0.4551
 9144SOL    HW139068   2.875   2.276   6.965 -1.2836 -2.2376  0.9415
 9144SOL    HW239069   2.814   2.169   6.890 -0.3243 -0.7754  2.9697
 9145SOL     OW39070   2.616   1.539   3.704 -0.3137  0.1729  0.6395
 9145SOL    HW139071   2.686   1.490   3.661 -1.6519 -0.9831 -0.2105
 9145SOL    HW239072   2.631   1.508   3.793 -0.4052  0.3019  0.7000
 9146SOL     OW39073   2.109   1.950   7.357 -0.1359 -0.0203  0.1059
 9146SOL    HW139074   2.187   1.948   7.411 -0.0639 -1.8195 -0.0900
 9146SOL    HW239075   2.147   1.998   7.283 -0.0648 -1.5197 -0.8313
 9147SOL     OW39076   4.710   0.635  14.754 -0.8797  0.1492 -0.1176
 9147SOL    HW139077   4.653   0.644  14.677 -0.3565  0.8920 -0.4149
 9147SOL    HW239078   0.051   0.640  14.699  0.1483  2.1850  1.5377
 9148SOL     OW39079   1.630   0.026   4.801 -0.4527  0.2989  0.3601
 9148SOL    HW139080   1.698   0.093   4.800  0.0013 -0.1467  2.4576
 9148SOL    HW239081   1.647   4.708   4.876 -1.0626 -0.2864  0.0601
 9149SOL     OW39082   2.235   2.428   1.051 -0.4817 -0.0839 -0.0118
 9149SOL    HW139083   2.150   2.388   1.036 -1.0207  0.9253  0.3258
 9149SOL    HW239084   2.247   2.482   0.973  0.5854 -2.2265 -1.3350
 9150SOL     OW39085   4.619   2.861  15.485 -0.0844 -0.0123 -0.1392
 9150SOL    HW139086   4.668   2.943  15.493 -0.1355 -0.0553  0.6454
 9150SOL    HW239087   4.682   2.803  15.529 -0.1647 -0.0284 -0.0447
 9151SOL     OW39088   4.182   1.320   3.109 -0.1060 -0.3985  0.5852
 9151SOL    HW139089   4.146   1.373   3.038 -1.0492 -0.7862  0.7692
 9151SOL    HW239090   4.251   1.279   3.058 -0.4585 -0.2746  0.0067
 9152SOL     OW39091   3.770   2.286   4.089  0.4050 -0.0024  0.2980
 9152SOL    HW139092   3.683   2.259   4.118  0.8408  0.3000  1.8968
 9152SOL    HW239093   3.828   2.250   4.156 -0.2222 -1.1392  0.2291
 9153SOL     OW39094   2.198   0.324   7.486 -0.3204  0.2115 -0.5739
 9153SOL    HW139095   2.284   0.341   7.524 -1.2597 -0.5384  1.8957
 9153SOL    HW239096   2.209   0.349   7.394  0.4461 -1.1021 -0.8328
 9154SOL     OW39097   3.020   0.929   1.649  0.1144 -0.1288 -0.1320
 9154SOL    HW139098   3.009   0.838   1.679 -0.9579  0.0922  0.1483
 9154SOL    HW239099   3.063   0.920   1.564 -1.2293 -0.9916 -0.7226
 9155SOL     OW39100   3.500   3.751  11.297 -0.0644 -0.5131  0.7006
 9155SOL    HW139101   3.487   3.812  11.370 -0.5391  0.1868  0.0352
 9155SOL    HW239102   3.437   3.682  11.317 -1.6572  0.1892 -1.9352
 9156SOL     OW39103   2.242   1.905   3.662  0.7977  0.1152  0.1995
 9156SOL    HW139104   2.246   1.927   3.569  1.9746  1.3376  0.5328
 9156SOL    HW239105   2.319   1.850   3.678  1.6118  0.3261 -3.1469
 9157SOL     OW39106   3.655   0.514  11.858  0.1726 -0.0347 -0.1266
 9157SOL    HW139107   3.724   0.579  11.847 -0.5486  0.8258  0.4359
 9157SOL    HW239108   3.631   0.482  11.771 -0.1219 -0.7224  0.2071
 9158SOL     OW39109   0.521   1.119   0.966  0.2701 -0.3786  0.0400
 9158SOL    HW139110   0.596   1.138   1.022 -1.4873  0.3323  2.0957
 9158SOL    HW239111   0.572   1.067   0.902 -0.0753 -1.7612  0.8934
 9159SOL     OW39112   3.540   1.198   0.586 -0.2854  0.2870  0.0030
 9159SOL    HW139113   3.600   1.130   0.617 -0.1634  0.2640 -0.2921
 9159SOL    HW239114   3.528   1.161   0.499 -0.0524 -1.6141  0.7821
 9160SOL     OW39115   0.270   0.253  11.044 -0.0774  0.4418  0.1543
 9160SOL    HW139116   0.217   0.331  11.032 -0.0387  0.5563  0.7242
 9160SOL    HW239117   0.350   0.265  10.993 -0.6006 -1.1194 -1.0420
 9161SOL     OW39118   0.791   1.070   9.245  0.1719  0.1564 -0.2884
 9161SOL    HW139119   0.719   1.124   9.214  1.7755  2.5461  0.1829
 9161SOL    HW239120   0.827   1.131   9.310  0.6982  0.0820 -0.5078
 9162SOL     OW39121   1.251   3.433   7.796  0.4340  0.2570  0.1605
 9162SOL    HW139122   1.170   3.423   7.845  0.5116  1.9109  0.6172
 9162SOL    HW239123   1.263   3.527   7.786  1.3290 -0.0839 -2.2245
 9163SOL     OW39124   3.564   4.470   4.184  0.1195  0.2385  0.2923
 9163SOL    HW139125   3.544   4.556   4.220  2.2308  0.6379  0.5350
 9163SOL    HW239126   3.589   4.502   4.097 -0.4090 -1.4521 -0.4722
 9164SOL     OW39127   0.017   2.872   4.177 -0.0849  0.6953 -0.4561
 9164SOL    HW139128   4.673   2.823   4.188  0.0967  0.4603 -0.1481
 9164SOL    HW239129   0.042   2.844   4.089  1.8511 -0.1296  0.3704
 9165SOL     OW39130   3.266   3.600   4.313 -0.3475 -0.1391 -0.1090
 9165SOL    HW139131   3.256   3.548   4.233  0.0313 -2.6216  1.4591
 9165SOL    HW239132   3.283   3.683   4.268 -1.0699  0.5012  0.8209
 9166SOL     OW39133   0.438   1.707   4.293  0.4773  0.0444 -0.6235
 9166SOL    HW139134   0.398   1.623   4.272 -0.4015  0.6030 -1.2124
 9166SOL    HW239135   0.483   1.728   4.211  1.5758 -2.2098 -0.5767
 9167SOL     OW39136   1.248   1.430   7.084 -0.2315 -0.8709 -0.3742
 9167SOL    HW139137   1.157   1.459   7.071 -0.1144 -1.1707 -1.8468
 9167SOL    HW239138   1.254   1.436   7.180  1.6121 -0.7070 -0.5088
 9168SOL     OW39139   4.507   4.253   4.953  0.6224 -0.3859  0.2681
 9168SOL    HW139140   4.524   4.234   4.861  1.5642  0.3447  0.2829
 9168SOL    HW239141   4.598   4.237   4.980 -0.5578 -3.7267  2.3084
 9169SOL     OW39142   2.154   3.959   2.397  0.2243  0.0719  0.4874
 9169SOL    HW139143   2.157   4.019   2.323 -1.2579  1.9688  1.9439
 9169SOL    HW239144   2.062   3.934   2.409 -0.0582 -0.3343 -2.5080
 9170SOL     OW39145   4.149   3.266   2.797 -0.0038  0.2279 -0.2231
 9170SOL    HW139146   4.233   3.313   2.796  0.4918 -0.6740 -1.4986
 9170SOL    HW239147   4.109   3.304   2.874  3.0667  3.2910 -0.1224
 9171SOL     OW39148   2.201   4.092  16.456  0.0083  0.1241  0.1035
 9171SOL    HW139149   2.171   4.183  16.464 -1.5702 -0.4998  1.1608
 9171SOL    HW239150   2.118   4.045  16.460  1.0503 -1.6144  1.2662
 9172SOL     OW39151   3.019   2.803   5.970 -0.2357  0.0373  0.3311
 9172SOL    HW139152   3.108   2.783   5.943 -1.2278 -1.2428 -2.0020
 9172SOL    HW239153   2.989   2.822   5.881 -0.3793 -1.4357  0.0505
 9173SOL     OW39154   3.106   1.397   6.702  0.2610 -0.3246 -0.4452
 9173SOL    HW139155   3.192   1.391   6.660 -0.0696  0.3597 -1.2000
 9173SOL    HW239156   3.074   1.307   6.703 -1.9040  0.4325 -3.1970
 9174SOL     OW39157   4.269   3.298  16.257 -0.1443  0.2211 -0.0743
 9174SOL    HW139158   4.348   3.334  16.217  0.9968  0.2153  2.1838
 9174SOL    HW239159   4.207   3.283  16.186  1.4056  2.2013 -1.8393
 9175SOL     OW39160   2.775   2.551   1.045  0.4371 -0.1311 -0.1350
 9175SOL    HW139161   2.829   2.592   1.112 -3.1690 -0.0202  2.7208
 9175SOL    HW239162   2.830   2.473   1.040  0.1256 -0.4341  1.1593
 9176SOL     OW39163   3.475   0.903   6.966  0.3444 -0.2008 -0.0758
 9176SOL    HW139164   3.450   0.994   6.947 -1.7902 -0.2871  2.3192
 9176SOL    HW239165   3.469   0.855   6.883  0.7200 -0.5639  0.1074
 9177SOL     OW39166   3.225   4.550   4.239  0.1267 -0.3606  0.4874
 9177SOL    HW139167   3.137   4.530   4.208 -1.1248 -0.0020  3.8018
 9177SOL    HW239168   3.255   4.473   4.286 -0.6705 -1.4628 -0.8260
 9178SOL     OW39169   0.567   3.769   8.624  0.1605 -0.1597  0.0350
 9178SOL    HW139170   0.574   3.810   8.710 -2.0841  1.0602 -0.3454
 9178SOL    HW239171   0.660   3.761   8.604 -0.5050 -1.8585 -2.3345
 9179SOL     OW39172   0.543   3.635   1.668  0.1739 -0.1879  0.1490
 9179SOL    HW139173   0.560   3.542   1.676 -0.7795 -0.5192 -1.5815
 9179SOL    HW239174   0.462   3.650   1.717  1.1343  0.7408  1.4531
 9180SOL     OW39175   2.920   2.974   8.234 -0.9215  0.3001 -0.1058
 9180SOL    HW139176   3.012   3.000   8.238 -0.9547  0.7687 -2.2112
 9180SOL    HW239177   2.882   3.060   8.255  0.0232  1.2023 -2.0851
 9181SOL     OW39178   3.949   0.263   7.409 -0.3077  0.2693 -0.1979
 9181SOL    HW139179   3.892   0.187   7.422 -0.7933  0.9310  1.4209
 9181SOL    HW239180   4.017   0.216   7.361  0.7985  0.6363  1.0075
 9182SOL     OW39181   2.971   2.810   9.623  0.0776 -0.6793 -0.1005
 9182SOL    HW139182   2.898   2.748   9.621  2.2340 -3.2779 -0.1303
 9182SOL    HW239183   3.042   2.746   9.635 -0.4756 -1.7622 -2.5573
 9183SOL     OW39184   4.092   0.365   4.485 -0.0988 -0.4548 -0.2127
 9183SOL    HW139185   4.156   0.329   4.423  1.6457 -1.4765  2.1620
 9183SOL    HW239186   4.090   0.301   4.556  1.6999  1.0340  1.1926
 9184SOL     OW39187   2.897   3.051   1.418  0.2672  1.2643  0.4280
 9184SOL    HW139188   2.891   2.992   1.493 -0.1612  1.5100  0.5861
 9184SOL    HW239189   2.808   3.052   1.382  0.4027  1.2581  0.0887
 9185SOL     OW39190   4.192   1.619   4.686 -0.0304  0.0969  0.0014
 9185SOL    HW139191   4.120   1.616   4.750 -1.0281  0.6906 -1.0910
 9185SOL    HW239192   4.181   1.525   4.674 -0.4502  0.2755 -1.0321
 9186SOL     OW39193   3.907   4.684  15.850 -0.2675  0.3064 -0.5019
 9186SOL    HW139194   3.815   4.661  15.861 -0.0765  0.1090  0.6584
 9186SOL    HW239195   3.894   0.037  15.823 -1.0229 -0.3822 -2.4872
 9187SOL     OW39196   4.211   3.029  15.175  0.5260 -0.3022  0.2703
 9187SOL    HW139197   4.170   3.007  15.091 -0.5150 -0.7180  0.8896
 9187SOL    HW239198   4.156   3.100  15.208  0.1677 -0.1722 -0.6070
 9188SOL     OW39199   4.696   0.985  15.392  0.2075  0.8580 -0.1439
 9188SOL    HW139200   4.708   1.072  15.429 -2.1814 -0.1634  2.9700
 9188SOL    HW239201   0.033   0.937  15.427 -1.0889 -2.5164 -2.0426
 9189SOL     OW39202   0.486   3.471   4.878  0.7569 -0.2279  0.3069
 9189SOL    HW139203   0.577   3.469   4.909  1.8563 -0.6241 -2.9704
 9189SOL    HW239204   0.478   3.556   4.835  0.4099  0.2595  1.3305
 9190SOL     OW39205   1.066   0.615   7.328  0.3390 -0.1218 -0.2847
 9190SOL    HW139206   1.025   0.642   7.410  0.2230 -0.8343 -0.1062
 9190SOL    HW239207   1.058   0.520   7.334  4.3525 -0.5843 -2.3268
 9191SOL     OW39208   0.118   2.995   7.358 -0.6251  0.3037  0.2211
 9191SOL    HW139209   0.086   2.960   7.441 -1.8874  0.2467 -0.3016
 9191SOL    HW239210   0.163   2.914   7.333 -2.8217 -0.8087 -0.1112
 9192SOL     OW39211   1.757   0.161   4.203  0.3932  0.0387 -0.0722
 9192SOL    HW139212   1.764   0.167   4.298 -0.0949 -1.3090  0.0417
 9192SOL    HW239213   1.817   0.232   4.181 -1.6305  1.8416  0.2391
 9193SOL     OW39214   2.463   4.105   2.605  0.0333 -0.3512  0.6086
 9193SOL    HW139215   2.472   4.125   2.698 -0.0210 -0.3964  0.6234
 9193SOL    HW239216   2.552   4.102   2.569 -0.2577 -0.7466 -0.0784
 9194SOL     OW39217   1.449   1.664   9.992  0.6537  0.3353  0.0020
 9194SOL    HW139218   1.369   1.611   9.986  0.0627  0.9780  2.2948
 9194SOL    HW239219   1.488   1.637  10.075  0.5242 -0.0968 -0.0729
 9195SOL     OW39220   2.726   3.189   3.673 -0.8429  0.3208  0.5196
 9195SOL    HW139221   2.817   3.173   3.649 -1.4609 -2.5927  0.1397
 9195SOL    HW239222   2.718   3.284   3.669  1.1337  0.3910 -1.4795
 9196SOL     OW39223   0.747   1.248  16.655  0.3852 -0.6609  0.2982
 9196SOL    HW139224   0.748   1.331  16.606  0.3517 -0.2194  1.0381
 9196SOL    HW239225   0.722   1.192  16.582 -2.6151 -0.6565  1.3133
 9197SOL     OW39226   1.011   4.574   8.771  0.1817 -0.6177 -0.3826
 9197SOL    HW139227   0.963   4.507   8.722  0.8581 -0.6820 -0.9536
 9197SOL    HW239228   1.051   4.630   8.704 -0.7939  1.7839  1.0283
 9198SOL     OW39229   3.310   4.573   9.207  0.2433  0.4840  0.7693
 9198SOL    HW139230   3.332   4.480   9.209  0.4011  0.4249 -2.6500
 9198SOL    HW239231   3.393   4.619   9.218  0.3228  0.9638 -1.7073
 9199SOL     OW39232   2.800   1.281   2.393  0.0500  0.2878 -0.2669
 9199SOL    HW139233   2.801   1.373   2.368 -2.7875 -0.0908 -1.7499
 9199SOL    HW239234   2.744   1.272   2.470  1.4871 -0.1498  0.7339
 9200SOL     OW39235   3.912   1.742   3.779 -0.1552 -0.2723 -0.0346
 9200SOL    HW139236   3.846   1.808   3.800 -0.8339 -0.9976  0.1457
 9200SOL    HW239237   3.879   1.667   3.829 -0.4974  0.2148  0.4696
 9201SOL     OW39238   2.952   2.295   8.850 -0.6843  0.0397  0.2690
 9201SOL    HW139239   3.036   2.318   8.890 -0.7744 -0.9122  0.9867
 9201SOL    HW239240   2.895   2.357   8.897 -0.9043 -1.0046  1.3759
 9202SOL     OW39241   2.489   2.428   7.503  0.1848  0.6675  0.3841
 9202SOL    HW139242   2.407   2.445   7.549 -0.5722  0.2376 -0.8035
 9202SOL    HW239243   2.470   2.473   7.420  1.3573  3.0770  1.4303
 9203SOL     OW39244   2.485   0.027   1.743  0.2039 -0.0758  0.5601
 9203SOL    HW139245   2.531   4.684   1.721  2.5636  1.5228 -0.4189
 9203SOL    HW239246   2.513   0.082   1.670 -1.5348 -0.8361 -0.6741
 9204SOL     OW39247   3.274   3.170   0.560 -0.2712  1.0924  0.1586
 9204SOL    HW139248   3.337   3.200   0.625  1.3228 -1.0144 -0.4039
 9204SOL    HW239249   3.192   3.175   0.610  0.8850  0.4982  2.1477
 9205SOL     OW39250   2.530   0.818   2.651 -0.0748 -0.5283 -0.1195
 9205SOL    HW139251   2.500   0.807   2.741  0.6032 -0.3711  0.1308
 9205SOL    HW239252   2.533   0.726   2.627 -0.8864 -0.2081 -1.4192
 9206SOL     OW39253   0.352   3.912   5.998  0.2724 -0.1841  0.1978
 9206SOL    HW139254   0.286   3.884   5.936  2.5856  0.7963 -2.7105
 9206SOL    HW239255   0.328   3.856   6.071  1.0664  0.5309  1.0245
 9207SOL     OW39256   1.043   1.386   2.556 -0.2471  0.0359  0.0363
 9207SOL    HW139257   1.061   1.465   2.607 -0.4626 -0.2820  0.6119
 9207SOL    HW239258   1.070   1.316   2.615  1.6531  1.4693  0.8801
 9208SOL     OW39259   2.771   3.948   9.912  0.0906 -0.0928  0.4254
 9208SOL    HW139260   2.800   3.987   9.995  0.4379 -1.4701  0.9502
 9208SOL    HW239261   2.812   4.005   9.846 -2.2213  1.7351  0.5631
 9209SOL     OW39262   1.686   4.537  11.530 -0.1782  0.1994  0.0661
 9209SOL    HW139263   1.712   4.569  11.444 -0.0108 -0.7107 -0.2211
 9209SOL    HW239264   1.608   4.588  11.555  1.3174  1.3007  2.4165
 9210SOL     OW39265   4.315   3.274   7.460  0.3270 -0.0295  0.2344
 9210SOL    HW139266   4.320   3.307   7.550 -0.1301 -1.1837  0.6759
 9210SOL    HW239267   4.226   3.241   7.460  1.5091 -3.1950  0.1694
 9211SOL     OW39268   3.519   0.783  12.117 -0.2778 -0.4251 -0.3284
 9211SOL    HW139269   3.540   0.846  12.049  0.5814  0.5194  0.8180
 9211SOL    HW239270   3.605   0.746  12.138  1.1843  1.8728 -2.3578
 9212SOL     OW39271   0.513   2.240   3.193  0.2234  0.5113 -0.1689
 9212SOL    HW139272   0.517   2.331   3.163 -3.6228  1.0503  0.9759
 9212SOL    HW239273   0.422   2.227   3.219 -0.2922  1.7482 -1.3164
 9213SOL     OW39274   0.644   0.160  13.145 -0.7999 -0.9774  0.2864
 9213SOL    HW139275   0.717   0.148  13.084  0.8172  0.5220  1.9429
 9213SOL    HW239276   0.632   0.255  13.145 -1.2808 -1.0607 -2.4138
 9214SOL     OW39277   0.984   3.764   6.875  0.3424 -0.1958 -0.8298
 9214SOL    HW139278   0.890   3.781   6.863  0.2917  0.5111  0.5845
 9214SOL    HW239279   1.023   3.835   6.824  3.5796 -2.1113 -1.0398
 9215SOL     OW39280   1.887   0.997   9.314  0.6473 -0.4109  0.3664
 9215SOL    HW139281   1.976   0.978   9.345  0.2008  1.0680  2.5367
 9215SOL    HW239282   1.849   0.909   9.312 -0.9135  0.2558  0.8957
 9216SOL     OW39283   3.585   1.307   7.582 -0.0539 -0.1932  0.3461
 9216SOL    HW139284   3.542   1.384   7.544 -0.0420 -1.1805 -1.6323
 9216SOL    HW239285   3.543   1.238   7.531  0.6693 -0.2701 -0.1574
 9217SOL     OW39286   3.266   1.886   3.623  0.6398 -0.0544 -0.1246
 9217SOL    HW139287   3.307   1.799   3.618  0.4495 -0.0440 -1.9967
 9217SOL    HW239288   3.348   1.933   3.611  0.5936 -0.0954 -0.5993
 9218SOL     OW39289   1.344   2.967   7.750 -0.1241 -0.3970  0.4924
 9218SOL    HW139290   1.391   2.907   7.693  1.3517  1.0837  0.1602
 9218SOL    HW239291   1.263   2.978   7.700  0.5993 -2.4051 -1.0832
 9219SOL     OW39292   2.739   0.744   1.300 -0.1404 -0.7663 -0.1897
 9219SOL    HW139293   2.709   0.832   1.278 -1.5337 -1.5556 -1.4360
 9219SOL    HW239294   2.742   0.713   1.210 -0.5875  1.4858 -0.9615
 9220SOL     OW39295   1.824   3.884  11.220  0.0382 -0.4447 -0.1459
 9220SOL    HW139296   1.894   3.821  11.202  2.8047  1.6881  3.0001
 9220SOL    HW239297   1.746   3.833  11.198  1.1332 -2.1480 -0.0735
 9221SOL     OW39298   2.232   0.975   5.636 -0.3744 -0.3372  0.7239
 9221SOL    HW139299   2.257   0.904   5.577  1.6550  0.1432  1.0181
 9221SOL    HW239300   2.311   1.028   5.645 -1.1687  0.6918  1.6312
 9222SOL     OW39301   0.878   0.002   8.959 -0.0963 -0.2689  0.1925
 9222SOL    HW139302   0.938   4.694   8.901  1.8074 -1.6947  3.3257
 9222SOL    HW239303   0.791   4.711   8.930 -0.2738  0.7635 -0.3366
 9223SOL     OW39304   0.327   0.939   5.614  0.3452 -0.2949 -0.0541
 9223SOL    HW139305   0.388   0.897   5.674  1.9635 -1.5538 -2.5795
 9223SOL    HW239306   0.382   0.938   5.536  2.0492 -0.4313  1.1532
 9224SOL     OW39307   3.593   3.373   7.119 -0.8480  0.2481  0.4522
 9224SOL    HW139308   3.526   3.438   7.095 -0.9934 -0.5609 -1.3907
 9224SOL    HW239309   3.544   3.292   7.102  1.3024 -0.8181 -0.7028
 9225SOL     OW39310   4.688   0.663   4.758 -0.1828 -0.1406 -0.0513
 9225SOL    HW139311   0.018   0.605   4.792  1.2304  1.1684 -0.6489
 9225SOL    HW239312   4.627   0.600   4.720  0.2686 -1.4795  1.4327
 9226SOL     OW39313   0.716   2.241   7.135  0.7084  0.4477 -0.9902
 9226SOL    HW139314   0.660   2.175   7.095 -0.0033  1.3318 -1.4446
 9226SOL    HW239315   0.742   2.289   7.057  1.2855  1.2627 -0.2913
 9227SOL     OW39316   0.677   0.324   5.727  0.0496  0.5930  0.7407
 9227SOL    HW139317   0.635   0.338   5.811 -3.6748  0.9226 -1.1539
 9227SOL    HW239318   0.621   0.255   5.689 -1.5301  1.1085  2.1470
 9228SOL     OW39319   0.576   2.291   3.655  0.2001  0.0884 -0.4859
 9228SOL    HW139320   0.645   2.331   3.602 -0.3428 -0.1736 -1.3907
 9228SOL    HW239321   0.562   2.218   3.594  1.9046 -1.5860  1.1209
 9229SOL     OW39322   2.259   1.728   3.397 -0.2575 -0.2185 -0.1720
 9229SOL    HW139323   2.312   1.668   3.345 -1.0116 -0.2852 -0.8743
 9229SOL    HW239324   2.303   1.810   3.374  0.9615 -0.2318  2.0913
 9230SOL     OW39325   4.699   1.533   5.864  0.9861 -0.0599  0.4790
 9230SOL    HW139326   4.706   1.595   5.937 -1.8792  0.1139  0.5842
 9230SOL    HW239327   4.648   1.464   5.906 -1.3030  1.3453 -0.0013
 9231SOL     OW39328   1.544   4.120   4.128 -0.0772  0.0961  0.4103
 9231SOL    HW139329   1.528   4.027   4.116  3.3188 -0.6722  1.7779
 9231SOL    HW239330   1.627   4.116   4.080 -0.5428  0.9822 -0.4693
 9232SOL     OW39331   3.275   3.753   7.045 -0.5046 -0.2020  0.1929
 9232SOL    HW139332   3.243   3.823   6.988 -2.3643  0.5854  2.2040
 9232SOL    HW239333   3.260   3.681   6.985 -0.2844 -1.8866  2.1749
 9233SOL     OW39334   0.843   0.991  17.207 -0.4542  0.6386 -0.2646
 9233SOL    HW139335   0.770   1.040  17.245 -0.1153  1.1405 -0.2599
 9233SOL    HW239336   0.911   1.058  17.200 -1.6953  1.4912 -4.1185
 9234SOL     OW39337   0.345   0.122  15.165 -0.1307 -0.1502 -0.1025
 9234SOL    HW139338   0.310   0.203  15.126  1.4040  1.7723  2.5047
 9234SOL    HW239339   0.398   0.094  15.091 -0.9282 -0.2860 -0.6173
 9235SOL     OW39340   3.399   2.040   2.315 -0.4525 -0.2235 -0.3341
 9235SOL    HW139341   3.371   2.118   2.363  0.1693 -0.3497  0.2294
 9235SOL    HW239342   3.373   2.072   2.229 -2.8284 -0.5359  0.2721
 9236SOL     OW39343   0.710   3.138   9.325  0.1660 -0.1538 -0.6167
 9236SOL    HW139344   0.738   3.170   9.411 -1.9448  0.9697 -0.3393
 9236SOL    HW239345   0.623   3.099   9.338  0.4878 -1.1761 -1.6015
 9237SOL     OW39346   3.016   2.202  10.464  0.1887 -0.2704  0.2027
 9237SOL    HW139347   3.069   2.131  10.501  0.1254  0.0807  0.9598
 9237SOL    HW239348   2.923   2.179  10.473  0.4705 -0.6052  2.1647
 9238SOL     OW39349   2.665   4.014   3.457 -0.5602  0.2451  0.1936
 9238SOL    HW139350   2.590   3.971   3.498 -0.2090  0.0185  0.6019
 9238SOL    HW239351   2.634   4.098   3.424 -0.2150  0.1697 -0.3282
 9239SOL     OW39352   4.505   1.328   6.422 -0.3660 -0.1415 -0.0252
 9239SOL    HW139353   4.543   1.364   6.502 -3.1947 -0.7743  1.6064
 9239SOL    HW239354   4.522   1.402   6.363 -0.0312 -0.1696  0.0395
 9240SOL     OW39355   3.199   4.675  10.482  0.0480  0.2246  0.3834
 9240SOL    HW139356   3.182   4.712  10.396 -2.0378 -2.4304 -0.3337
 9240SOL    HW239357   3.193   0.021  10.529 -0.7537 -0.6951  1.9358
 9241SOL     OW39358   3.215   0.394   4.358  0.1901 -0.5337 -0.5068
 9241SOL    HW139359   3.272   0.318   4.369  2.5286  1.5375  1.5707
 9241SOL    HW239360   3.277   0.447   4.307 -0.6520  0.3768 -0.5815
 9242SOL     OW39361   1.476   4.420   0.520 -0.2956  0.4882  0.1123
 9242SOL    HW139362   1.386   4.397   0.543  0.3486 -1.8921  0.2079
 9242SOL    HW239363   1.508   4.444   0.606  0.9332 -3.3977  0.7320
 9243SOL     OW39364   1.128   4.426   4.735  0.0827 -0.6840 -0.2517
 9243SOL    HW139365   1.056   4.485   4.710  0.9858 -0.2680 -1.8643
 9243SOL    HW239366   1.153   4.393   4.649  0.9175  0.0532 -0.2863
 9244SOL     OW39367   3.463   3.049   1.056 -0.1842 -0.5145 -0.2588
 9244SOL    HW139368   3.459   2.990   0.981  0.2830 -0.6472 -0.1776
 9244SOL    HW239369   3.511   3.126   1.025  1.8053 -1.1340  1.2903
 9245SOL     OW39370   1.994   1.271  16.031 -0.1954  0.3909  0.1868
 9245SOL    HW139371   2.017   1.194  16.083 -0.3516 -1.2811 -2.2481
 9245SOL    HW239372   1.980   1.328  16.106  1.5275  1.0492  0.0055
 9246SOL     OW39373   0.672   2.365  13.393 -0.1920 -0.3365 -0.3295
 9246SOL    HW139374   0.744   2.425  13.376  1.1814 -1.3604  1.8648
 9246SOL    HW239375   0.668   2.354  13.488 -2.1952 -1.1990 -0.5029
 9247SOL     OW39376   2.353   0.801   1.772  0.1731 -0.2391 -0.3209
 9247SOL    HW139377   2.431   0.855   1.761 -1.3090  1.9834  0.1768
 9247SOL    HW239378   2.355   0.737   1.700 -0.2159 -0.0012 -0.5438
 9248SOL     OW39379   4.328   1.000   4.117  0.8192 -0.4536  0.8511
 9248SOL    HW139380   4.311   0.982   4.209 -0.6248 -0.8120  0.5117
 9248SOL    HW239381   4.288   1.087   4.116  0.4975 -0.6826 -4.0611
 9249SOL     OW39382   2.034   4.657   7.036  0.0557 -0.4428 -0.7881
 9249SOL    HW139383   1.961   4.610   6.997 -0.1221 -0.9273  0.1294
 9249SOL    HW239384   2.105   4.595   7.022 -0.2019 -0.6148 -1.3017
 9250SOL     OW39385   1.833   3.149   8.344 -0.2351  0.7559  0.1213
 9250SOL    HW139386   1.855   3.062   8.377  0.3421  0.9661  0.3043
 9250SOL    HW239387   1.878   3.201   8.411 -0.7311  1.9856 -0.4888
 9251SOL     OW39388   2.593   4.277   6.043 -0.1141  0.3087  0.3787
 9251SOL    HW139389   2.591   4.183   6.022 -0.3009  0.5301 -0.5984
 9251SOL    HW239390   2.634   4.317   5.967  1.0791 -1.8038 -0.1026
 9252SOL     OW39391   3.665   1.233   6.952 -0.1148 -0.1209 -0.1927
 9252SOL    HW139392   3.699   1.215   6.865 -2.4164 -1.3981 -0.8300
 9252SOL    HW239393   3.699   1.154   6.993  0.0421 -0.1934 -0.4663
 9253SOL     OW39394   4.321   1.861  14.460  1.0659 -0.7896 -0.0826
 9253SOL    HW139395   4.327   1.885  14.367  0.6738  0.0517  0.1144
 9253SOL    HW239396   4.362   1.935  14.503 -2.0939  1.9014 -1.7169
 9254SOL     OW39397   3.991   0.800   3.972  0.4792 -0.5771 -0.3851
 9254SOL    HW139398   3.926   0.749   4.020 -0.0782 -2.0760 -2.7316
 9254SOL    HW239399   3.984   0.881   4.022 -1.0092 -0.4823 -0.7413
 9255SOL     OW39400   4.531   1.000   9.547 -0.6556  0.2414  0.2849
 9255SOL    HW139401   4.537   0.913   9.506  0.2038 -0.0930  1.1131
 9255SOL    HW239402   4.602   0.991   9.611 -0.0814 -0.1298 -0.4096
 9256SOL     OW39403   3.719   1.367   1.100 -0.0391  0.2415  0.4335
 9256SOL    HW139404   3.713   1.446   1.155 -1.1881 -0.8566  1.8931
 9256SOL    HW239405   3.702   1.409   1.016  0.9908  0.2743  0.2419
 9257SOL     OW39406   3.387   4.375   5.952  0.0888 -0.6423 -0.4432
 9257SOL    HW139407   3.453   4.426   5.999 -2.1279  0.6630  1.2993
 9257SOL    HW239408   3.314   4.376   6.014 -2.0046  0.1671 -2.8590
 9258SOL     OW39409   1.806   1.754   0.536 -0.0455  0.1227  0.7787
 9258SOL    HW139410   1.804   1.762   0.632 -0.3433  0.1329  0.7712
 9258SOL    HW239411   1.895   1.718   0.539 -1.1901 -2.6914  0.3791
 9259SOL     OW39412   0.412   4.640   8.261 -0.3395  0.3497  0.1658
 9259SOL    HW139413   0.461   4.587   8.198 -4.7423 -2.7984 -0.5645
 9259SOL    HW239414   0.482   4.690   8.304  0.9920  0.3149 -1.9363
 9260SOL     OW39415   4.657   3.105   4.745 -0.4479  0.0236  0.4280
 9260SOL    HW139416   4.562   3.106   4.737 -0.6031 -0.4825  2.4080
 9260SOL    HW239417   4.670   3.039   4.677  0.3676  0.7548 -0.1438
 9261SOL     OW39418   2.702   3.924   8.737  0.0102  0.9504  0.0488
 9261SOL    HW139419   2.618   3.962   8.710  0.0701 -0.2471 -1.7794
 9261SOL    HW239420   2.692   3.835   8.703 -0.2079  0.8394  0.4045
 9262SOL     OW39421   4.187   4.541  11.810  0.1018 -0.5762 -0.8519
 9262SOL    HW139422   4.246   4.616  11.809 -2.8064  1.7342  0.2058
 9262SOL    HW239423   4.106   4.580  11.776 -0.1212 -0.7913 -0.5714
 9263SOL     OW39424   3.239   3.430   4.515 -0.0933  0.3911 -0.2661
 9263SOL    HW139425   3.248   3.488   4.439 -1.6438  3.6476  2.0105
 9263SOL    HW239426   3.321   3.461   4.555 -0.2721  0.2021  0.2427
 9264SOL     OW39427   0.365   4.405   5.786  0.4063 -0.0453  0.4879
 9264SOL    HW139428   0.430   4.337   5.768  0.4903 -0.1815  1.3031
 9264SOL    HW239429   0.366   4.405   5.882  0.4242 -0.7874  0.4858
 9265SOL     OW39430   2.735   2.986   4.268  0.2942 -0.4293 -0.3238
 9265SOL    HW139431   2.702   2.946   4.348  2.3838 -0.2223  0.6652
 9265SOL    HW239432   2.805   3.033   4.314 -0.6325  3.0460 -2.4352
 9266SOL     OW39433   3.659   3.414   7.949  0.0456  0.0846 -0.4725
 9266SOL    HW139434   3.568   3.391   7.965 -0.2137  2.4776  1.5024
 9266SOL    HW239435   3.656   3.430   7.854  0.1160  0.5913 -0.3887
 9267SOL     OW39436   0.533   0.957  10.229  0.3623 -0.1520  0.3305
 9267SOL    HW139437   0.487   0.969  10.312 -1.0288  1.1207 -0.6121
 9267SOL    HW239438   0.544   1.050  10.208  1.7356 -0.3300  0.2805
 9268SOL     OW39439   3.802   2.718   6.245 -0.2828 -0.4267 -0.3075
 9268SOL    HW139440   3.755   2.644   6.282  0.4968 -0.7440  0.0368
 9268SOL    HW239441   3.852   2.672   6.178  1.7180 -1.3571  1.8150
 9269SOL     OW39442   2.156   1.995   5.598 -0.2117 -0.2006  0.5140
 9269SOL    HW139443   2.088   2.004   5.665  0.0756  0.2014  0.7542
 9269SOL    HW239444   2.122   1.914   5.560  1.2930 -1.2689  1.4234
 9270SOL     OW39445   0.238   0.862   9.801 -0.8260  0.3072 -0.1455
 9270SOL    HW139446   0.316   0.904   9.838 -0.4740 -1.5119  1.1394
 9270SOL    HW239447   0.213   0.812   9.878 -1.3185  0.4474 -0.2109
 9271SOL     OW39448   0.977   3.927  12.691  0.1860 -0.2852 -0.6658
 9271SOL    HW139449   1.049   3.864  12.687 -0.7532 -1.2933 -1.5236
 9271SOL    HW239450   0.956   3.953  12.601  0.3107  0.9447 -0.3514
 9272SOL     OW39451   4.231   1.249   7.185 -0.1014  0.5935 -0.3031
 9272SOL    HW139452   4.296   1.220   7.248 -0.2192 -0.7925 -0.8023
 9272SOL    HW239453   4.292   1.271   7.115 -1.2865 -0.9145 -1.8140
 9273SOL     OW39454   4.173   2.083   9.114 -0.4592 -0.3682  0.6774
 9273SOL    HW139455   4.256   2.087   9.161 -0.6365  0.4296  0.9229
 9273SOL    HW239456   4.197   2.021   9.044  1.7304 -2.1801  3.0019
 9274SOL     OW39457   0.443   3.179  17.238  0.6247 -0.2620 -0.5567
 9274SOL    HW139458   0.520   3.123  17.228  0.9436  0.3669 -1.6189
 9274SOL    HW239459   0.478   3.268  17.238 -0.0417  0.0001  0.5297
 9275SOL     OW39460   1.791   3.228   9.070 -0.2969 -0.6307 -0.1214
 9275SOL    HW139461   1.794   3.152   9.011  0.0200  0.1065 -1.0554
 9275SOL    HW239462   1.843   3.287   9.016  1.3589  0.9013  3.1683
 9276SOL     OW39463   2.063   0.112   7.974 -0.8409 -0.0805 -0.4420
 9276SOL    HW139464   2.068   0.202   8.007 -0.3740 -0.5499  0.7765
 9276SOL    HW239465   1.967   0.108   7.967 -0.8405  1.1756 -1.1641
 9277SOL     OW39466   0.594   2.148   9.798  0.2227 -0.1586 -0.4415
 9277SOL    HW139467   0.529   2.081   9.820 -0.0386 -0.0461 -0.8660
 9277SOL    HW239468   0.546   2.219   9.755  0.4275 -1.1603 -2.3064
 9278SOL     OW39469   2.294   1.991  12.004  0.1146 -0.3025 -0.1136
 9278SOL    HW139470   2.327   1.929  12.070 -0.3436 -0.5611 -0.1326
 9278SOL    HW239471   2.336   1.955  11.926 -0.4782 -0.2053 -0.4739
 9279SOL     OW39472   1.086   3.872   6.252 -0.1844 -0.0621 -0.2746
 9279SOL    HW139473   1.041   3.900   6.172 -2.1345  0.4039  0.9632
 9279SOL    HW239474   1.056   3.937   6.315  0.7957  0.9117 -0.8314
 9280SOL     OW39475   2.722   3.764  10.348  0.1639  0.5647  0.4213
 9280SOL    HW139476   2.632   3.751  10.319  0.0056 -1.2198  1.7462
 9280SOL    HW239477   2.726   3.703  10.421 -1.8127 -3.4603 -2.8884
 9281SOL     OW39478   0.562   0.363   5.987 -0.0032 -0.1559  0.4778
 9281SOL    HW139479   0.582   0.434   6.048  0.5990  0.5599 -0.5549
 9281SOL    HW239480   0.533   0.293   6.047 -0.6194  0.1244  0.5117
 9282SOL     OW39481   3.128   3.410  14.680 -0.4865 -0.9024 -0.0577
 9282SOL    HW139482   3.210   3.361  14.677  0.1461  0.2312 -1.2240
 9282SOL    HW239483   3.118   3.406  14.775 -0.9325 -2.2260 -0.1634
 9283SOL     OW39484   4.436   1.432   4.743  0.2582 -0.2487  0.0400
 9283SOL    HW139485   4.355   1.447   4.792  0.2867 -2.1251  0.6424
 9283SOL    HW239486   4.403   1.400   4.659 -1.5203  2.3207 -0.2523
 9284SOL     OW39487   0.654   4.448  10.848 -0.3652 -0.0996  0.5601
 9284SOL    HW139488   0.598   4.467  10.923  1.4902 -1.5706  2.3154
 9284SOL    HW239489   0.733   4.422  10.895  0.0456 -0.2840 -0.2302
 9285SOL     OW39490   1.360   4.704   7.662  0.4486  0.1881  0.0711
 9285SOL    HW139491   1.415   0.034   7.700 -1.4168  2.0837 -0.6364
 9285SOL    HW239492   1.281   4.715   7.714 -0.0547 -3.2707  0.0629
 9286SOL     OW39493   1.957   3.034   2.013  0.0517 -0.0218  0.2352
 9286SOL    HW139494   2.012   2.959   2.036 -1.1586 -0.7615  0.7332
 9286SOL    HW239495   1.888   3.023   2.079  0.0527  2.1852  0.6102
 9287SOL     OW39496   1.883   3.023  11.988  0.0839  0.4532  0.0166
 9287SOL    HW139497   1.946   3.078  12.035 -0.1229 -0.2973  1.1887
 9287SOL    HW239498   1.823   2.994  12.057  2.0551 -0.0200  1.5364
 9288SOL     OW39499   1.663   2.102   4.602 -0.2318 -0.2113 -0.1428
 9288SOL    HW139500   1.637   2.188   4.636 -1.5291 -1.1877  1.2795
 9288SOL    HW239501   1.576   2.063   4.597 -1.0610  1.4370  1.4965
 9289SOL     OW39502   0.397   3.185  13.860  0.9656  0.1108 -0.1016
 9289SOL    HW139503   0.398   3.119  13.791  0.3348  0.4659 -0.4419
 9289SOL    HW239504   0.303   3.199  13.864  1.3253  2.9140 -1.6732
 9290SOL     OW39505   1.058   2.364   2.824 -0.1882  0.2721  0.4967
 9290SOL    HW139506   1.093   2.278   2.802  0.7300  0.2243  2.1314
 9290SOL    HW239507   0.999   2.364   2.749 -1.4342  0.5116  1.4739
 9291SOL     OW39508   3.812   1.313   2.940 -0.1283 -0.6316  0.5771
 9291SOL    HW139509   3.858   1.352   3.015  1.4631 -0.4098 -0.5037
 9291SOL    HW239510   3.721   1.327   2.964 -0.5070 -0.9775 -0.6590
 9292SOL     OW39511   3.964   1.937   5.692  0.0610 -0.4751  0.3691
 9292SOL    HW139512   4.026   1.912   5.624 -3.4147 -2.0705 -2.2641
 9292SOL    HW239513   3.906   1.980   5.629 -0.6784 -1.1276  0.5993
 9293SOL     OW39514   4.660   0.204   6.618 -0.3769  0.2295  0.3740
 9293SOL    HW139515   4.661   0.212   6.523 -2.8997 -1.7232  0.2047
 9293SOL    HW239516   4.567   0.215   6.637 -0.6496 -1.0464 -0.2753
 9294SOL     OW39517   2.278   3.274   9.713  0.3822  0.2331  0.2879
 9294SOL    HW139518   2.336   3.276   9.636  0.0470 -0.1496  0.0265
 9294SOL    HW239519   2.248   3.363   9.725 -2.4820 -0.8785  1.2204
 9295SOL     OW39520   2.174   0.522   6.772  0.7486 -0.3322 -0.6186
 9295SOL    HW139521   2.183   0.453   6.837 -0.5472  0.1991  0.1137
 9295SOL    HW239522   2.266   0.546   6.778  0.8848 -1.4883  1.9752
 9296SOL     OW39523   0.061   2.140   5.109 -0.0199 -0.0774 -0.3750
 9296SOL    HW139524   0.103   2.203   5.169  1.2818 -1.8051  0.5425
 9296SOL    HW239525   0.041   2.201   5.038  0.4751  0.7970  0.2347
 9297SOL     OW39526   3.088   1.584   5.541  0.1322  0.5511  0.5286
 9297SOL    HW139527   2.995   1.603   5.554 -0.5064 -1.1457 -1.6250
 9297SOL    HW239528   3.120   1.672   5.522 -0.6635  1.0824  1.6449
 9298SOL     OW39529   2.573   3.848   7.258 -0.6676  0.3769  0.0450
 9298SOL    HW139530   2.488   3.824   7.221  0.0038 -0.0581 -1.2153
 9298SOL    HW239531   2.585   3.765   7.305 -2.7530 -1.1831 -2.1940
 9299SOL     OW39532   1.911   0.533   6.694 -0.1680 -0.0930 -0.5824
 9299SOL    HW139533   1.933   0.504   6.605  2.7508 -3.2702  1.1946
 9299SOL    HW239534   1.990   0.504   6.739  1.8138  3.4842 -1.6965
 9300SOL     OW39535   0.876   3.675  13.156  0.4459  0.7046 -0.3524
 9300SOL    HW139536   0.844   3.764  13.176 -1.1181  0.6838 -2.7204
 9300SOL    HW239537   0.894   3.677  13.062  0.9988 -2.3466 -0.3020
 9301SOL     OW39538   3.460   0.430   3.633 -0.2625 -0.7822  0.2362
 9301SOL    HW139539   3.474   0.337   3.647 -1.1214 -1.3349 -2.5303
 9301SOL    HW239540   3.544   0.475   3.622 -0.7449  0.1464  0.2974
 9302SOL     OW39541   3.599   4.265   5.368  0.1721  0.1404  0.0847
 9302SOL    HW139542   3.559   4.192   5.321 -0.3807 -0.5540  1.6387
 9302SOL    HW239543   3.540   4.268   5.443  1.2670  0.7030  0.9205
 9303SOL     OW39544   1.377   3.835   3.247  0.0159 -0.1282  0.1378
 9303SOL    HW139545   1.303   3.828   3.308  1.1343 -0.3981  1.4797
 9303SOL    HW239546   1.343   3.773   3.183 -1.9105  0.7436  0.3198
 9304SOL     OW39547   3.544   0.353   1.939 -0.2356  0.4291 -0.1601
 9304SOL    HW139548   3.623   0.386   1.982  0.3227 -0.2910 -0.6481
 9304SOL    HW239549   3.579   0.296   1.871  0.1648  1.5094 -0.8564
 9305SOL     OW39550   2.549   4.674   3.067  0.3192  0.7335  0.1377
 9305SOL    HW139551   2.604   4.636   3.136 -1.2981  1.6723  1.9249
 9305SOL    HW239552   2.479   4.609   3.059  0.8900 -0.0788  1.8321
 9306SOL     OW39553   2.352   2.533   4.599  0.1128  0.2757 -0.1816
 9306SOL    HW139554   2.388   2.468   4.659  0.2761  0.4527 -0.0908
 9306SOL    HW239555   2.370   2.612   4.650  0.1262  0.5012 -0.5332
 9307SOL     OW39556   1.043   1.244   6.672  0.0657  0.2411  0.2596
 9307SOL    HW139557   1.093   1.235   6.753  2.0834 -0.4447 -1.0636
 9307SOL    HW239558   0.958   1.265   6.712 -1.0701 -1.4125 -1.2452
 9308SOL     OW39559   4.496   0.101   5.972 -0.1374  0.0746 -0.2675
 9308SOL    HW139560   4.533   0.036   5.912 -0.7928  1.1403 -1.8366
 9308SOL    HW239561   4.403   0.078   5.967  0.4161 -2.7193  2.2011
 9309SOL     OW39562   0.936   4.512   1.704  0.5858  0.0874 -0.0303
 9309SOL    HW139563   0.980   4.449   1.762  0.9590 -0.3729 -0.8158
 9309SOL    HW239564   0.876   4.557   1.763 -0.5567 -1.6026  0.1057
 9310SOL     OW39565   2.683   0.674   2.334 -0.3731  0.7261 -0.0562
 9310SOL    HW139566   2.761   0.723   2.309  1.4871 -1.5082  1.2837
 9310SOL    HW239567   2.712   0.588   2.304  0.7365  0.5786  1.4227
 9311SOL     OW39568   2.457   0.069  17.549 -0.1157 -0.4122 -0.3573
 9311SOL    HW139569   2.435   4.719  17.518  0.1822 -0.1085 -1.4389
 9311SOL    HW239570   2.373   0.113  17.538 -0.2356  0.0203  2.4495
 9312SOL     OW39571   1.957   3.391   2.768 -0.1934 -0.2941 -0.5365
 9312SOL    HW139572   1.867   3.400   2.799  0.0494 -0.9695  0.3929
 9312SOL    HW239573   2.011   3.422   2.841  1.1836 -2.6283 -0.5434
 9313SOL     OW39574   1.149   3.138   8.706 -0.2740 -0.0239 -0.2159
 9313SOL    HW139575   1.105   3.165   8.625  1.6063 -0.0609 -1.2521
 9313SOL    HW239576   1.230   3.185   8.685  0.4771 -0.4896  1.5995
 9314SOL     OW39577   4.496   1.350   5.988  0.0338 -0.2777  0.0708
 9314SOL    HW139578   4.496   1.370   6.082  1.0023  3.5331 -0.7421
 9314SOL    HW239579   4.472   1.257   5.990 -0.4214 -0.2003 -1.9060
 9315SOL     OW39580   2.027   4.248   8.860  0.3104 -0.4506  0.1720
 9315SOL    HW139581   2.048   4.184   8.792 -1.0495  2.0913 -2.6369
 9315SOL    HW239582   2.110   4.240   8.907  0.5985 -2.0939 -0.6311
 9316SOL     OW39583   4.330   3.923   2.364  0.0935  0.0137 -0.2571
 9316SOL    HW139584   4.283   3.849   2.326 -0.8479  1.3341 -1.6468
 9316SOL    HW239585   4.276   3.930   2.443 -2.7333 -0.8297 -2.1446
 9317SOL     OW39586   1.830   3.727   0.899 -0.4924 -0.4099  0.2398
 9317SOL    HW139587   1.882   3.790   0.850 -1.1273 -1.2170 -1.4755
 9317SOL    HW239588   1.741   3.762   0.893 -0.2247  0.0803 -0.7014
 9318SOL     OW39589   3.299   1.780  16.946 -0.2440 -0.6240  0.2106
 9318SOL    HW139590   3.374   1.724  16.966  1.0576 -0.0218 -2.9752
 9318SOL    HW239591   3.333   1.854  16.896 -2.7757  1.3035  1.3123
 9319SOL     OW39592   1.854   2.042   7.094 -0.1393  0.3481  0.3016
 9319SOL    HW139593   1.943   2.008   7.081  0.7312  3.3944 -1.6238
 9319SOL    HW239594   1.881   2.125   7.132 -1.1919 -0.1238  2.0685
 9320SOL     OW39595   3.267   1.408  10.985 -0.1226 -0.1117 -0.5321
 9320SOL    HW139596   3.179   1.446  10.996 -0.3777 -0.8415 -0.0684
 9320SOL    HW239597   3.315   1.483  11.020 -0.3411  0.6180 -1.7703
 9321SOL     OW39598   2.774   3.560   1.376 -0.1376  0.1396 -0.3045
 9321SOL    HW139599   2.767   3.622   1.448 -0.7539 -0.0644 -0.1902
 9321SOL    HW239600   2.765   3.476   1.421  0.1819 -0.6654 -1.7302
 9322SOL     OW39601   0.189   0.910   4.065 -0.2167 -0.0017 -0.4524
 9322SOL    HW139602   0.258   0.851   4.095 -0.1348  0.0549 -0.5322
 9322SOL    HW239603   0.138   0.853   4.007 -2.7166  0.9921  0.7411
 9323SOL     OW39604   0.676   1.075   8.574  0.1750  0.3623  0.8293
 9323SOL    HW139605   0.665   1.059   8.668  0.1407 -0.0311  0.7561
 9323SOL    HW239606   0.767   1.060   8.548 -0.1581 -0.9138  0.4194
 9324SOL     OW39607   2.862   3.663   9.889 -0.1735  0.3381 -0.3275
 9324SOL    HW139608   2.825   3.749   9.908 -1.5519 -0.6432  1.4492
 9324SOL    HW239609   2.904   3.655   9.974 -0.1604 -1.1342 -0.4664
 9325SOL     OW39610   0.821   1.581  16.767  0.7233  0.4485  0.4799
 9325SOL    HW139611   0.867   1.661  16.792  2.5545 -0.8026  1.1136
 9325SOL    HW239612   0.836   1.523  16.842 -0.8964 -0.8861 -0.2253
 9326SOL     OW39613   1.345   2.551   7.767  0.1696 -0.4963 -0.0031
 9326SOL    HW139614   1.386   2.612   7.707  0.4467 -2.3588 -1.7055
 9326SOL    HW239615   1.334   2.598   7.850 -2.3239  3.1263 -2.4076
 9327SOL     OW39616   4.534   3.828   5.133 -0.1386  0.7027  0.2512
 9327SOL    HW139617   4.556   3.812   5.042 -0.0587  2.8799 -0.1236
 9327SOL    HW239618   4.527   3.741   5.172 -1.6704  0.0545 -1.4893
 9328SOL     OW39619   1.306   3.677   0.925 -0.2608 -0.5402 -1.0022
 9328SOL    HW139620   1.272   3.642   0.843 -2.1136  0.2067 -0.5660
 9328SOL    HW239621   1.281   3.604   0.982  1.3702  0.6041  1.1643
 9329SOL     OW39622   1.107   1.340  15.184 -0.6778 -0.2020 -0.3630
 9329SOL    HW139623   1.025   1.305  15.151 -1.9394 -0.0554  2.6182
 9329SOL    HW239624   1.088   1.429  15.156  2.1792 -0.2897 -2.5535
 9330SOL     OW39625   0.926   2.485   7.429  0.0713  0.0448  0.1417
 9330SOL    HW139626   0.889   2.554   7.374 -2.1659 -0.0736  1.4961
 9330SOL    HW239627   0.971   2.530   7.501 -0.7880 -1.0257  1.3410
 9331SOL     OW39628   2.169   0.620   2.250 -0.0765  0.0382 -0.6571
 9331SOL    HW139629   2.215   0.700   2.274  0.5775 -0.0196 -1.7548
 9331SOL    HW239630   2.171   0.639   2.156 -0.0872  2.9083 -0.0748
 9332SOL     OW39631   3.577   3.087   1.935 -0.1582  0.8409  0.1618
 9332SOL    HW139632   3.517   3.085   2.010 -0.1603  0.6094  0.1548
 9332SOL    HW239633   3.509   3.078   1.868 -0.0930 -0.8253  0.3177
 9333SOL     OW39634   1.902   2.954   3.632 -0.1426 -0.5514  0.1674
 9333SOL    HW139635   1.836   2.929   3.697  0.5522  1.5323  1.6481
 9333SOL    HW239636   1.970   2.896   3.664  1.5089  0.7868 -0.9218
 9334SOL     OW39637   1.553   0.932   7.760  0.3574 -0.1069 -0.4431
 9334SOL    HW139638   1.486   0.910   7.825 -0.2997  1.7129 -0.5184
 9334SOL    HW239639   1.510   0.886   7.688  0.6222 -0.6866 -0.2331
 9335SOL     OW39640   2.886   1.002   3.273  0.0434  0.7288  0.3601
 9335SOL    HW139641   2.976   1.032   3.290  0.2996  0.0864  0.1740
 9335SOL    HW239642   2.901   0.907   3.271 -1.4704  0.5145 -0.8285
 9336SOL     OW39643   1.971   4.410   5.789  0.3117  0.0738 -1.2637
 9336SOL    HW139644   2.039   4.372   5.845 -0.1981  1.2974  0.1972
 9336SOL    HW239645   1.961   4.493   5.835 -0.6689  0.2619 -1.8018
 9337SOL     OW39646   0.471   2.746  10.707  0.2081  0.0051  0.3276
 9337SOL    HW139647   0.386   2.781  10.731 -0.9398 -1.8789 -0.9799
 9337SOL    HW239648   0.460   2.713  10.618  1.2591  1.3867 -0.3201
 9338SOL     OW39649   1.789   3.368   8.180  0.0142  0.4990 -0.1456
 9338SOL    HW139650   1.726   3.428   8.219 -0.4271 -0.3387  0.4346
 9338SOL    HW239651   1.801   3.298   8.244  2.7826  0.3097 -0.8799
 9339SOL     OW39652   0.914   1.620   6.307 -0.1420 -0.1280  0.7908
 9339SOL    HW139653   0.860   1.572   6.370 -1.6755 -1.3912 -1.5264
 9339SOL    HW239654   0.997   1.628   6.355  0.3363 -1.1744  0.1173
 9340SOL     OW39655   2.967   2.765   2.964  0.4924  0.0767  0.2298
 9340SOL    HW139656   2.894   2.801   3.013  1.7515 -0.1211  2.2313
 9340SOL    HW239657   3.010   2.845   2.935  1.1902  0.0130  1.0925
 9341SOL     OW39658   2.356   0.031   4.270 -0.5591 -1.1925 -0.5224
 9341SOL    HW139659   2.317   0.034   4.183 -1.2159 -2.3781 -0.2735
 9341SOL    HW239660   2.325   0.115   4.302 -1.0895 -0.9642 -1.6366
 9342SOL     OW39661   0.253   2.245  13.447  0.1788 -0.5492  0.6922
 9342SOL    HW139662   0.232   2.172  13.505  1.7884 -1.6936 -0.1311
 9342SOL    HW239663   0.178   2.251  13.388 -1.8506 -6.0860  2.7314
 9343SOL     OW39664   2.718   4.090   2.510 -0.3441 -0.2487 -0.5648
 9343SOL    HW139665   2.767   4.078   2.428 -2.0685 -3.2644 -1.1452
 9343SOL    HW239666   2.770   4.153   2.559 -0.9376 -0.6550  0.5715
 9344SOL     OW39667   3.829   2.179   4.852  0.4962 -0.0458 -0.3743
 9344SOL    HW139668   3.875   2.108   4.808 -1.4615 -1.3160 -0.3803
 9344SOL    HW239669   3.739   2.156   4.828  0.1907 -0.1665  0.8992
 9345SOL     OW39670   3.356   2.507   1.563  0.3487  0.1629  0.1780
 9345SOL    HW139671   3.338   2.592   1.524  2.4138  0.6738  0.3346
 9345SOL    HW239672   3.366   2.531   1.655 -0.7052  1.2898 -0.0085
 9346SOL     OW39673   3.652   3.879  16.744 -0.4555 -0.2650  0.4317
 9346SOL    HW139674   3.701   3.958  16.722 -0.1099 -0.5659  0.1334
 9346SOL    HW239675   3.710   3.829  16.801  0.3041  0.5745  0.3838
 9347SOL     OW39676   3.211   2.299   4.939  0.0256 -0.2565 -0.5387
 9347SOL    HW139677   3.153   2.234   4.980 -0.8867 -0.1886 -1.7508
 9347SOL    HW239678   3.176   2.369   4.994 -0.2504  0.6553 -1.8869
 9348SOL     OW39679   0.793   1.019   2.772 -1.0016  0.1193  0.0444
 9348SOL    HW139680   0.766   1.104   2.738 -3.8858 -0.7557  0.1189
 9348SOL    HW239681   0.771   1.025   2.865 -1.5863  0.9419 -0.1441
 9349SOL     OW39682   3.358   3.126   2.088  0.0144 -0.2000  0.2052
 9349SOL    HW139683   3.355   3.221   2.099  4.2360  0.1457 -1.6966
 9349SOL    HW239684   3.317   3.100   2.171 -0.7222 -1.1264 -0.4631
 9350SOL     OW39685   3.921   1.905  17.412 -0.4234 -0.8482  0.2533
 9350SOL    HW139686   3.833   1.869  17.419 -1.4470  1.5732  0.0666
 9350SOL    HW239687   3.907   1.999  17.426 -0.5007 -0.8942  0.4939
 9351SOL     OW39688   3.114   3.728   3.781 -0.1183  0.1878 -0.1902
 9351SOL    HW139689   3.074   3.701   3.863 -3.2697 -1.7701 -2.3798
 9351SOL    HW239690   3.190   3.779   3.811  0.8565 -1.0379 -0.5770
 9352SOL     OW39691   3.619   2.691  11.519 -0.6683  0.6307  0.2501
 9352SOL    HW139692   3.562   2.650  11.454  1.7882 -1.6597 -0.4515
 9352SOL    HW239693   3.569   2.695  11.601  0.5049  0.2838  0.9726
 9353SOL     OW39694   0.486   4.551   5.529  0.0698 -0.1279 -0.2867
 9353SOL    HW139695   0.491   4.541   5.624  3.1037  1.8240 -0.2421
 9353SOL    HW239696   0.406   4.600   5.512  0.3324  0.4652  0.1907
 9354SOL     OW39697   2.773   0.284   3.759 -0.0849 -0.3284 -0.5311
 9354SOL    HW139698   2.817   0.353   3.709  0.3198  0.4555  0.9055
 9354SOL    HW239699   2.828   0.274   3.837 -1.1654 -1.7264  0.0550
 9355SOL     OW39700   0.776   2.383   6.909  0.2282  0.1263 -0.0231
 9355SOL    HW139701   0.847   2.340   6.860  3.0300  3.2512  1.2934
 9355SOL    HW239702   0.721   2.410   6.835  1.5693  0.6706 -0.8296
 9356SOL     OW39703   1.145   3.539  11.616  0.2560  0.0515  0.3708
 9356SOL    HW139704   1.116   3.630  11.617 -1.1287 -0.4017  0.3036
 9356SOL    HW239705   1.063   3.496  11.640 -0.9713  1.3747 -1.4402
 9357SOL     OW39706   1.310   0.142  13.048 -0.6252  0.7578  0.2415
 9357SOL    HW139707   1.238   0.111  13.103 -0.7893  0.7769  0.0355
 9357SOL    HW239708   1.296   0.237  13.054  1.8509  1.0929  0.9070
 9358SOL     OW39709   1.799   1.958   7.809  0.1375 -0.2107 -0.0459
 9358SOL    HW139710   1.732   2.019   7.779  0.5760  2.4829  4.5997
 9358SOL    HW239711   1.873   2.015   7.826 -2.7660  3.2744  0.8132
 9359SOL     OW39712   0.923   3.962   7.799 -0.0007 -0.8698  0.1206
 9359SOL    HW139713   0.872   3.954   7.718 -0.5842 -0.6391  0.4674
 9359SOL    HW239714   0.929   4.055   7.821 -0.5016 -0.6542 -0.6517
 9360SOL     OW39715   2.942   0.342   9.922 -0.5024  0.6490 -0.6755
 9360SOL    HW139716   2.885   0.353   9.845  0.5841 -0.9717 -1.7014
 9360SOL    HW239717   2.988   0.426   9.921 -1.1562  1.0102 -0.4497
 9361SOL     OW39718   2.951   4.325   5.480  0.4420  0.2570  0.6753
 9361SOL    HW139719   3.037   4.365   5.489  1.7159 -1.9655 -1.5995
 9361SOL    HW239720   2.898   4.392   5.437 -0.4567 -3.4574 -4.0109
 9362SOL     OW39721   0.801   1.289  16.112 -0.2097  0.2416 -1.0255
 9362SOL    HW139722   0.726   1.260  16.060  0.3807  0.2277 -1.8731
 9362SOL    HW239723   0.872   1.286  16.049  2.3367  1.8211  1.7539
 9363SOL     OW39724   4.310   3.667   8.149 -0.3816 -0.0091 -0.2514
 9363SOL    HW139725   4.315   3.631   8.238 -1.2965  1.6544  0.4681
 9363SOL    HW239726   4.234   3.617   8.119 -0.6372  0.4902 -0.4289
 9364SOL     OW39727   1.831   0.204   4.828  0.2104  0.2153  0.9761
 9364SOL    HW139728   1.808   0.268   4.896 -0.4764  1.3740 -0.3554
 9364SOL    HW239729   1.927   0.211   4.825  0.3849 -2.0018  1.4940
 9365SOL     OW39730   4.371   2.802  17.373  0.2427  0.1399  0.0963
 9365SOL    HW139731   4.284   2.768  17.351  0.3635 -2.8525  4.0856
 9365SOL    HW239732   4.359   2.817  17.467 -0.0851  0.3060  0.0276
 9366SOL     OW39733   3.302   3.531  10.132  1.0959 -0.9522  0.4190
 9366SOL    HW139734   3.257   3.510  10.214  0.6167 -0.4430  0.2923
 9366SOL    HW239735   3.393   3.531  10.164  0.2979  0.2030  2.7397
 9367SOL     OW39736   3.868   0.704   2.896 -0.4315  0.7541  0.1713
 9367SOL    HW139737   3.963   0.712   2.884 -0.3442 -0.9084 -0.2744
 9367SOL    HW239738   3.844   0.634   2.836 -1.4391 -2.3172  4.1195
 9368SOL     OW39739   1.627   1.088   4.797 -0.3853  0.0266  0.0485
 9368SOL    HW139740   1.675   1.166   4.770  2.0370 -2.1492 -1.9016
 9368SOL    HW239741   1.627   1.119   4.887  1.1456  0.5266 -0.1210
 9369SOL     OW39742   2.876   3.677   2.243 -0.5923 -0.3587 -0.3100
 9369SOL    HW139743   2.844   3.726   2.319 -1.5386 -0.2309 -0.8005
 9369SOL    HW239744   2.902   3.742   2.177  1.5980  1.1313  1.9976
 9370SOL     OW39745   4.048   3.309  14.075 -0.8624  0.3527 -0.2842
 9370SOL    HW139746   4.002   3.362  14.140  0.0296 -0.4358  0.9803
 9370SOL    HW239747   4.086   3.377  14.020 -1.9748  0.3426 -1.0720
 9371SOL     OW39748   0.491   1.318  16.077  0.0164  0.0666 -0.3063
 9371SOL    HW139749   0.465   1.294  16.165 -0.4410  2.9868  0.3769
 9371SOL    HW239750   0.404   1.324  16.038 -0.3358  0.7398  0.5841
 9372SOL     OW39751   0.869   0.203  13.005 -0.2811  0.0121 -0.3542
 9372SOL    HW139752   0.913   0.118  13.011  1.3328  1.0418  2.2125
 9372SOL    HW239753   0.942   0.260  13.029 -0.2289  1.2264 -3.3172
 9373SOL     OW39754   4.436   1.090   6.531 -0.6497  0.5052  0.1892
 9373SOL    HW139755   4.517   1.041   6.518 -0.6794  0.5096 -0.0206
 9373SOL    HW239756   4.456   1.181   6.509 -0.3066  0.5628  0.7294
 9374SOL     OW39757   3.543   3.642   5.311  0.1228 -0.6748 -0.0782
 9374SOL    HW139758   3.467   3.603   5.269  0.2509  1.1491 -1.9895
 9374SOL    HW239759   3.495   3.723   5.332  0.7161 -0.6848  1.3608
 9375SOL     OW39760   3.329   2.081   0.274  0.0690 -0.0287 -0.0990
 9375SOL    HW139761   3.280   2.119   0.346 -0.9229 -4.4996  1.5264
 9375SOL    HW239762   3.340   2.157   0.217 -0.4258 -1.9640 -2.7805
 9376SOL     OW39763   0.423   2.851   7.984  0.3906  0.2305 -0.0523
 9376SOL    HW139764   0.461   2.778   7.935  0.8817  0.1391  0.4700
 9376SOL    HW239765   0.489   2.862   8.052  1.2287 -1.5511 -0.5615
 9377SOL     OW39766   3.082   3.465   8.214 -0.7526  0.2075  0.1410
 9377SOL    HW139767   3.099   3.371   8.216 -2.4435 -0.1004  0.2448
 9377SOL    HW239768   2.993   3.473   8.249 -0.9111 -1.3624  0.1064
 9378SOL     OW39769   3.275   3.493  16.669 -0.4681  0.5476  0.6671
 9378SOL    HW139770   3.250   3.586  16.665 -0.5911  0.3750 -2.6620
 9378SOL    HW239771   3.213   3.458  16.605 -2.2282  2.6175  1.2248
 9379SOL     OW39772   2.580   2.039   5.084  0.1756 -0.2053  0.0176
 9379SOL    HW139773   2.497   2.015   5.043  0.0963 -1.0426  0.6674
 9379SOL    HW239774   2.647   2.004   5.026 -1.2096 -2.2043 -0.3830
 9380SOL     OW39775   4.719   1.093   9.199 -0.0449  0.1337 -0.0119
 9380SOL    HW139776   4.691   1.003   9.217  0.2981  0.3571  1.6089
 9380SOL    HW239777   0.036   1.065   9.125 -0.5041  0.6339 -0.5453
 9381SOL     OW39778   2.131   0.928   1.019  0.3421  0.8911  0.1116
 9381SOL    HW139779   2.062   0.992   1.037  1.3172  1.9286  0.2085
 9381SOL    HW239780   2.146   0.936   0.924  0.4118 -0.6872 -0.0118
 9382SOL     OW39781   3.219   0.799  17.226  0.2753 -0.0206  0.3387
 9382SOL    HW139782   3.234   0.863  17.156 -2.2331  0.0173 -0.1627
 9382SOL    HW239783   3.191   0.727  17.170 -2.5476  2.6233 -1.6401
 9383SOL     OW39784   0.731   0.195   3.398  0.4881 -0.4511  0.5227
 9383SOL    HW139785   0.787   0.127   3.434  0.8058 -0.3535  0.2132
 9383SOL    HW239786   0.732   0.176   3.304  1.4023  2.2674 -0.0360
 9384SOL     OW39787   2.394   1.027   3.645 -0.4091  0.3157 -0.6239
 9384SOL    HW139788   2.400   1.037   3.550 -0.9750 -1.0110 -0.8000
 9384SOL    HW239789   2.426   0.939   3.662  0.5659  0.9207  0.6457
 9385SOL     OW39790   0.888   3.680   7.120  0.3019  0.1032 -0.1249
 9385SOL    HW139791   0.936   3.712   7.044  1.7714  0.7902  1.0891
 9385SOL    HW239792   0.920   3.590   7.131  0.8431  0.5115  1.6701
 9386SOL     OW39793   2.115   2.897   0.928  0.2926 -0.3145  0.7400
 9386SOL    HW139794   2.128   2.858   0.841  0.3908  2.3994 -0.4436
 9386SOL    HW239795   2.026   2.930   0.918  0.2869 -0.5970 -0.1711
 9387SOL     OW39796   0.721   3.655   9.023  0.0178  0.0387  0.0314
 9387SOL    HW139797   0.756   3.743   9.011 -1.2513  0.6682  0.9747
 9387SOL    HW239798   0.750   3.636   9.112 -0.0280 -0.1740  0.0013
 9388SOL     OW39799   1.753   3.535   9.948 -0.1844  0.1580  0.5414
 9388SOL    HW139800   1.667   3.506   9.919 -1.3518  3.9696  0.3026
 9388SOL    HW239801   1.743   3.518  10.041  1.1236 -0.0343  0.6452
 9389SOL     OW39802   1.135   0.339   6.050  0.1070 -1.0567  0.1098
 9389SOL    HW139803   1.195   0.376   6.115  0.4729 -2.1098  0.3568
 9389SOL    HW239804   1.080   0.299   6.116  0.0282 -2.1281 -0.6104
 9390SOL     OW39805   0.346   3.960   9.636  0.1573  0.1122  0.0382
 9390SOL    HW139806   0.352   3.927   9.725 -2.9924  1.6296  0.8406
 9390SOL    HW239807   0.436   3.952   9.607  1.0815 -0.0737  2.9541
 9391SOL     OW39808   0.523   4.587   3.535  0.1279 -0.0153 -0.1453
 9391SOL    HW139809   0.603   4.634   3.557  1.5970 -2.2776 -0.7409
 9391SOL    HW239810   0.466   4.613   3.608  1.7444  0.3202  0.9834
 9392SOL     OW39811   3.601   3.150  11.751 -0.0166  0.1169 -0.6736
 9392SOL    HW139812   3.631   3.080  11.693  2.5058 -0.4271  1.3396
 9392SOL    HW239813   3.570   3.210  11.683  0.1108  0.2084 -0.6498
 9393SOL     OW39814   4.040   3.983  14.292 -0.4080 -0.5641  0.0165
 9393SOL    HW139815   4.126   3.953  14.322 -0.4227 -1.0625 -0.4423
 9393SOL    HW239816   4.020   4.067  14.334 -0.2605  0.4989 -2.0467
 9394SOL     OW39817   3.288   4.205  12.179  0.2138  0.0848 -0.4624
 9394SOL    HW139818   3.284   4.176  12.270  0.7532  3.0769  0.5072
 9394SOL    HW239819   3.196   4.220  12.155  0.2738 -0.0460 -0.7820
 9395SOL     OW39820   0.142   4.441  13.385  0.3794 -0.4000  0.1314
 9395SOL    HW139821   0.175   4.515  13.335  1.9183 -1.3812 -0.3126
 9395SOL    HW239822   0.057   4.444  13.342  0.2018  1.8015  0.6246
 9396SOL     OW39823   2.167   4.514   1.949 -0.5239 -0.0267 -0.0383
 9396SOL    HW139824   2.072   4.524   1.959 -0.2247  1.2865  1.4227
 9396SOL    HW239825   2.190   4.459   2.024  0.0463 -0.9827 -0.9153
 9397SOL     OW39826   1.004   1.389   2.287 -0.2811  0.0427  0.2838
 9397SOL    HW139827   1.014   1.418   2.378 -2.5920  1.5745  0.0581
 9397SOL    HW239828   0.956   1.307   2.293  0.3221 -0.3720 -0.6889
 9398SOL     OW39829   4.075   3.380   3.022  0.4134  0.3170  0.0793
 9398SOL    HW139830   4.064   3.465   2.978 -1.7167 -0.2423 -0.4345
 9398SOL    HW239831   3.997   3.379   3.076 -0.2216  0.5199 -0.8346
 9399SOL     OW39832   3.757   0.802   8.517  0.5581 -0.0067 -0.1330
 9399SOL    HW139833   3.715   0.804   8.603 -0.5408 -2.8656 -0.5958
 9399SOL    HW239834   3.788   0.892   8.508  0.6077  0.3247  3.3632
 9400SOL     OW39835   1.118   2.000   8.607 -0.1480 -0.6560 -0.4307
 9400SOL    HW139836   1.167   2.064   8.556  0.4821  1.1076  2.3732
 9400SOL    HW239837   1.162   1.924   8.569 -0.7025 -1.3304  0.2658
 9401SOL     OW39838   2.889   3.296   7.229  0.1293  0.3976  0.3248
 9401SOL    HW139839   2.916   3.223   7.285 -2.2116 -0.2352  0.6014
 9401SOL    HW239840   2.852   3.341   7.305 -1.7604 -1.1263  0.2840
 9402SOL     OW39841   1.294   0.082   6.650 -0.5257 -0.1137 -0.2280
 9402SOL    HW139842   1.370   0.057   6.599  0.8771 -0.8713  2.2103
 9402SOL    HW239843   1.225   0.022   6.622 -1.0667 -0.0091  0.8608
 9403SOL     OW39844   0.275   3.989   9.048 -0.0184 -0.0120  0.5113
 9403SOL    HW139845   0.300   4.028   9.132  0.5600 -0.2386  0.4437
 9403SOL    HW239846   0.235   4.061   8.998  0.0129 -0.6915 -0.4931
 9404SOL     OW39847   1.150   3.039   0.718  0.4439 -0.1243 -0.0834
 9404SOL    HW139848   1.065   3.070   0.687  0.4079 -0.1625 -0.0233
 9404SOL    HW239849   1.176   3.004   0.633 -0.0124  1.1042 -0.7136
 9405SOL     OW39850   1.997   1.566   8.426  0.1774  0.1853  0.5169
 9405SOL    HW139851   2.033   1.492   8.474 -1.8904 -0.4571  1.0944
 9405SOL    HW239852   2.022   1.639   8.483  0.8515 -0.5555  1.1683
 9406SOL     OW39853   0.613   2.249   4.501 -0.0511  0.4988  0.2747
 9406SOL    HW139854   0.606   2.218   4.411  0.0662  1.3384 -0.0255
 9406SOL    HW239855   0.612   2.165   4.546  3.3853  0.0427 -0.4770
 9407SOL     OW39856   2.163   0.127   7.147  0.0109  0.2713 -0.9214
 9407SOL    HW139857   2.081   0.081   7.129 -1.2728  1.5545  1.6975
 9407SOL    HW239858   2.224   0.061   7.115  2.1977  1.7260  0.2233
 9408SOL     OW39859   4.468   3.073   1.911  0.4219 -0.1800 -0.4530
 9408SOL    HW139860   4.500   3.008   1.848 -0.7159  0.6602 -1.8766
 9408SOL    HW239861   4.508   3.149   1.870 -0.4498  0.2590 -0.4911
 9409SOL     OW39862   4.503   1.793   2.113 -0.2849  0.4308 -0.4922
 9409SOL    HW139863   4.580   1.787   2.056  0.3591  1.0585  0.3135
 9409SOL    HW239864   4.473   1.881   2.092 -1.0429 -0.1177 -1.7196
 9410SOL     OW39865   0.354   2.232  10.461  0.2256 -0.4356  0.4352
 9410SOL    HW139866   0.409   2.182  10.521 -1.1311 -3.0081 -0.5028
 9410SOL    HW239867   0.343   2.311  10.515  1.1931 -0.7913  1.1452
 9411SOL     OW39868   1.692   2.070   1.766  0.8159  0.4467  0.4979
 9411SOL    HW139869   1.784   2.096   1.765  1.2761 -1.2495 -1.5532
 9411SOL    HW239870   1.686   1.986   1.812 -0.9998  0.5043  0.3614
 9412SOL     OW39871   3.674   3.876   6.809  0.1181 -0.2732 -0.1294
 9412SOL    HW139872   3.741   3.940   6.833  0.7726  0.3926 -3.7426
 9412SOL    HW239873   3.627   3.867   6.892 -0.2496  2.3774 -0.0666
 9413SOL     OW39874   4.724   0.830   9.973 -0.6482 -0.0380  0.5593
 9413SOL    HW139875   4.642   0.808  10.018 -2.1556  2.9706 -0.6977
 9413SOL    HW239876   4.707   0.789   9.888  1.4693 -1.4469  0.8266
 9414SOL     OW39877   1.870   0.544   2.859 -0.2984 -0.3100  0.4635
 9414SOL    HW139878   1.821   0.603   2.917  0.6498  1.9512 -1.0184
 9414SOL    HW239879   1.902   0.596   2.785 -0.2628  0.5069  1.0471
 9415SOL     OW39880   2.111   1.186   8.234  0.2739 -0.0808 -0.0416
 9415SOL    HW139881   2.085   1.256   8.174  3.2154  0.3276 -0.8442
 9415SOL    HW239882   2.031   1.133   8.234 -0.1446  0.5575  0.2392
 9416SOL     OW39883   3.637   1.718   2.356 -0.5272 -0.2811 -0.3321
 9416SOL    HW139884   3.656   1.722   2.450 -1.5365 -0.1340 -0.1344
 9416SOL    HW239885   3.625   1.625   2.337 -2.7285  0.0616 -0.5867
 9417SOL     OW39886   1.528   1.288  15.155 -0.0489 -0.6676  0.0172
 9417SOL    HW139887   1.497   1.341  15.082 -0.4227  1.3616  1.6438
 9417SOL    HW239888   1.542   1.354  15.223 -0.0067  1.5535 -2.1659
 9418SOL     OW39889   1.867   2.755   3.262  0.3726 -0.1231 -0.3751
 9418SOL    HW139890   1.884   2.810   3.185 -2.2802 -0.1242 -0.9660
 9418SOL    HW239891   1.957   2.722   3.271  0.0334 -1.3313 -1.4464
 9419SOL     OW39892   1.967   0.577   2.424  0.0730  0.3143 -0.2490
 9419SOL    HW139893   2.005   0.644   2.482 -2.2035  1.6754 -0.3337
 9419SOL    HW239894   2.038   0.579   2.358  0.1881 -1.1459 -0.1624
 9420SOL     OW39895   1.319   3.145  15.305 -0.1434 -0.3110  0.2052
 9420SOL    HW139896   1.374   3.210  15.348 -0.2546 -1.2403  1.7511
 9420SOL    HW239897   1.238   3.194  15.291  0.2199 -0.4223 -2.3463
 9421SOL     OW39898   3.760   3.424  15.837 -0.2173 -0.2594  0.0327
 9421SOL    HW139899   3.829   3.466  15.888 -1.5049 -0.1388  1.6817
 9421SOL    HW239900   3.756   3.334  15.871 -0.1713  0.0777  0.9322
 9422SOL     OW39901   3.745   2.005   8.488 -0.3628  0.8629  0.2760
 9422SOL    HW139902   3.664   2.046   8.457 -0.3614 -1.0958 -2.2882
 9422SOL    HW239903   3.719   2.010   8.579 -1.1130  0.0359  0.1051
 9423SOL     OW39904   2.843   3.349  10.515 -0.5852  0.4327 -0.1412
 9423SOL    HW139905   2.880   3.289  10.449 -1.8559  0.2029 -0.6490
 9423SOL    HW239906   2.757   3.307  10.525 -0.2300 -0.1853  0.2927
 9424SOL     OW39907   2.691   4.210   7.585  0.2710  0.2076 -0.2558
 9424SOL    HW139908   2.668   4.135   7.531  0.9779  0.2301 -0.5989
 9424SOL    HW239909   2.628   4.199   7.656  0.6460 -0.1898  0.0196
 9425SOL     OW39910   2.240   3.843   9.054 -0.5903 -0.6787 -0.2816
 9425SOL    HW139911   2.212   3.752   9.054 -1.4800 -0.4034 -0.6796
 9425SOL    HW239912   2.322   3.834   9.102 -0.4933 -1.7197 -0.6377
 9426SOL     OW39913   4.446   4.483   4.742 -0.0667 -0.5892 -0.3652
 9426SOL    HW139914   4.393   4.500   4.664 -0.6247  0.1973  0.1862
 9426SOL    HW239915   4.468   4.390   4.737 -3.5091 -1.4895  1.3891
 9427SOL     OW39916   2.757   2.634  11.476  0.2072  0.2727 -0.4861
 9427SOL    HW139917   2.792   2.714  11.514 -2.0689  0.1032  1.9421
 9427SOL    HW239918   2.827   2.574  11.502  2.7659  2.7743 -1.6701
 9428SOL     OW39919   4.426   3.842   9.241 -0.0117  0.2624  0.8670
 9428SOL    HW139920   4.442   3.756   9.280 -1.2519 -0.5988 -0.5084
 9428SOL    HW239921   4.455   3.813   9.154 -1.1123  1.4410  0.0971
 9429SOL     OW39922   3.508   1.542   8.195 -1.1966 -0.0950 -0.0031
 9429SOL    HW139923   3.517   1.493   8.113  1.0799  0.8213 -0.3009
 9429SOL    HW239924   3.471   1.479   8.257 -0.1652  0.7701  1.4933
 9430SOL     OW39925   4.502   0.602   3.910 -0.0906  0.1504 -0.2083
 9430SOL    HW139926   4.453   0.668   3.860 -2.2136 -0.4602  1.0887
 9430SOL    HW239927   4.433   0.580   3.972  0.7729 -1.7472  0.0870
 9431SOL     OW39928   2.066   2.610   2.676 -0.5175 -0.3647  0.1022
 9431SOL    HW139929   1.973   2.626   2.657 -0.3000  0.6489 -0.1139
 9431SOL    HW239930   2.048   2.595   2.769  0.2270 -1.2586  0.0908
 9432SOL     OW39931   2.164   3.110  11.574 -1.1585  0.0930 -0.2067
 9432SOL    HW139932   2.144   3.201  11.595 -2.6639 -0.2972  0.0698
 9432SOL    HW239933   2.184   3.076  11.661 -3.4536  0.2025  0.3466
 9433SOL     OW39934   2.594   3.445   8.231  0.2622 -0.1884  0.0356
 9433SOL    HW139935   2.510   3.404   8.211  1.7453 -2.3514 -1.6185
 9433SOL    HW239936   2.617   3.463   8.140  0.8237  2.2833  0.6642
 9434SOL     OW39937   2.583   4.667   4.130  0.0890  0.4215  0.2033
 9434SOL    HW139938   2.504   4.702   4.171  0.0038  2.5150 -1.7451
 9434SOL    HW239939   2.591   4.709   4.044  2.0256  0.7852  0.5662
 9435SOL     OW39940   3.255   1.410   7.747 -0.1260 -0.3154 -0.4835
 9435SOL    HW139941   3.308   1.477   7.704  0.4633 -0.6430 -0.2726
 9435SOL    HW239942   3.199   1.474   7.791 -0.4932 -0.3312 -0.9351
 9436SOL     OW39943   4.690   3.471   6.827  0.4167  0.1434 -0.1664
 9436SOL    HW139944   4.648   3.475   6.913 -1.4214 -0.7973 -1.0444
 9436SOL    HW239945   4.651   3.551   6.791  1.3113  0.7197  0.1399
 9437SOL     OW39946   4.623   3.223  10.333  0.1774  0.5098  0.1047
 9437SOL    HW139947   4.664   3.240  10.417  2.1992 -0.2019 -0.7266
 9437SOL    HW239948   4.544   3.176  10.361  0.0595  0.3968 -0.4047
 9438SOL     OW39949   3.147   0.875   7.182 -0.0716 -0.9359  0.1328
 9438SOL    HW139950   3.106   0.790   7.198  0.3520 -1.0575  0.5656
 9438SOL    HW239951   3.077   0.920   7.134  1.0940  0.0265 -0.6615
 9439SOL     OW39952   0.735   4.369   7.050  0.1994 -0.6407  0.3999
 9439SOL    HW139953   0.675   4.309   7.094  0.4275  1.6851  3.9155
 9439SOL    HW239954   0.816   4.346   7.096 -0.4149 -0.7284  1.4517
 9440SOL     OW39955   3.128   0.998  11.516  0.4364  0.2253  0.0621
 9440SOL    HW139956   3.181   1.056  11.461  1.7967 -0.1708  0.9616
 9440SOL    HW239957   3.151   0.916  11.473  1.1017 -0.4997  1.8400
 9441SOL     OW39958   2.114   1.412   4.650 -0.0961  0.0967 -0.2386
 9441SOL    HW139959   2.061   1.481   4.689 -0.0642 -0.4691  0.8173
 9441SOL    HW239960   2.131   1.365   4.732  1.9756  0.0161 -0.7149
 9442SOL     OW39961   3.931   4.728   2.813 -0.1590  0.3922  0.2536
 9442SOL    HW139962   3.884   4.679   2.881  0.4345 -1.7798 -0.8900
 9442SOL    HW239963   3.918   4.675   2.734  3.5691  1.8334 -1.2965
 9443SOL     OW39964   0.423   3.808   2.027 -0.6368 -0.1996 -0.1231
 9443SOL    HW139965   0.353   3.780   2.085  1.6677 -1.6589  1.9916
 9443SOL    HW239966   0.502   3.813   2.082 -0.9799  3.5256  0.0348
 9444SOL     OW39967   1.054   3.184  11.518  0.0102  0.2548  0.0977
 9444SOL    HW139968   0.994   3.110  11.522  2.3119 -1.6929 -1.3200
 9444SOL    HW239969   1.029   3.240  11.592  0.4000 -1.5496  1.5929
 9445SOL     OW39970   1.740   4.490   6.116  0.2157 -0.6599 -0.1138
 9445SOL    HW139971   1.772   4.500   6.027  0.8758  0.3671  0.2344
 9445SOL    HW239972   1.815   4.521   6.168 -1.1266  0.5916  1.0709
 9446SOL     OW39973   4.608   3.654   8.510  0.5741 -0.2041  0.4829
 9446SOL    HW139974   4.541   3.666   8.577 -2.4321 -1.8711 -2.2334
 9446SOL    HW239975   4.678   3.688   8.565  1.3032  0.1455 -0.6458
 9447SOL     OW39976   3.551   1.338   7.201 -0.2389  0.3948 -0.3728
 9447SOL    HW139977   3.577   1.342   7.109 -1.0960  0.3890 -0.6170
 9447SOL    HW239978   3.549   1.242   7.203  2.3795  0.2995 -2.6755
 9448SOL     OW39979   4.712   1.627  17.645  0.4327 -0.4656  0.3004
 9448SOL    HW139980   0.044   1.577  17.687 -1.3570 -0.7397  2.9365
 9448SOL    HW239981   4.630   1.583  17.666 -0.0221  0.4137  0.3810
 9449SOL     OW39982   3.464   2.641  11.301  0.3917  0.3413  0.6404
 9449SOL    HW139983   3.384   2.687  11.277  0.5129 -0.1903 -0.7856
 9449SOL    HW239984   3.488   2.615  11.212  1.3362  1.2882  0.6058
 9450SOL     OW39985   3.870   3.152  13.160 -0.1159 -0.3738 -0.0991
 9450SOL    HW139986   3.946   3.108  13.199 -1.6192 -1.3027  1.8183
 9450SOL    HW239987   3.820   3.178  13.237 -1.0298  0.5667 -1.0160
 9451SOL     OW39988   2.698   2.550   7.761 -0.0954 -0.8720  0.0869
 9451SOL    HW139989   2.716   2.596   7.843 -0.4007 -0.0832 -0.2940
 9451SOL    HW239990   2.602   2.554   7.758 -0.1351 -1.6447  0.1506
 9452SOL     OW39991   1.764   4.714   8.251 -0.1520  0.0346 -0.0033
 9452SOL    HW139992   1.756   4.648   8.182  1.8974  0.4087 -0.6017
 9452SOL    HW239993   1.809   4.653   8.310  1.5614  0.6099 -0.7179
 9453SOL     OW39994   1.097   2.643   3.694 -0.0768  0.1385 -0.6244
 9453SOL    HW139995   1.088   2.611   3.783 -1.0208  1.7371 -0.1458
 9453SOL    HW239996   1.004   2.653   3.673 -0.3497 -2.6924 -0.7912
 9454SOL     OW39997   0.843   1.449  17.011  0.4720  0.0324 -1.0444
 9454SOL    HW139998   0.864   1.457  17.104  1.4557 -0.8510 -1.1912
 9454SOL    HW239999   0.775   1.382  16.999 -0.4727  0.5708  1.1936
 9455SOL     OW40000   1.086   2.034  17.257  0.6906 -0.4850  0.2715
 9455SOL    HW140001   1.080   2.120  17.298  0.0957  0.3356 -1.5456
 9455SOL    HW240002   0.992   2.021  17.267  0.7854 -0.5201  1.1208
 9456SOL     OW40003   3.297   1.185   2.480  0.1231  0.4927 -0.0011
 9456SOL    HW140004   3.239   1.256   2.451 -1.1201 -0.1043  1.0005
 9456SOL    HW240005   3.373   1.232   2.514 -0.9673  0.8348  1.9868
 9457SOL     OW40006   1.898   0.250   6.531 -0.2125  0.0124  0.3867
 9457SOL    HW140007   1.981   0.224   6.491  0.1565  0.6559  0.7312
 9457SOL    HW240008   1.904   0.225   6.623 -1.8502 -1.1889  0.1598
 9458SOL     OW40009   1.477   0.008   4.560 -0.1347 -0.0123  0.1161
 9458SOL    HW140010   1.531   0.021   4.638  0.9495 -1.3305 -0.4209
 9458SOL    HW240011   1.405   4.699   4.602 -0.1639  1.1802  1.4152
 9459SOL     OW40012   4.454   1.045   5.513  0.2893  0.0564  0.5479
 9459SOL    HW140013   4.376   1.090   5.547 -0.2332 -0.8054  0.4960
 9459SOL    HW240014   4.506   1.115   5.475  1.6049 -2.0063 -1.5027
 9460SOL     OW40015   3.826   2.241   1.180  0.1336 -0.3169 -0.0524
 9460SOL    HW140016   3.880   2.173   1.139 -0.2420 -0.3719 -0.4557
 9460SOL    HW240017   3.809   2.305   1.111  1.0475 -0.9585 -0.8852
 9461SOL     OW40018   0.509   4.598   8.586  0.3327 -0.5528  0.4189
 9461SOL    HW140019   0.522   4.646   8.505  1.1430 -1.7603 -0.1675
 9461SOL    HW240020   0.595   4.557   8.597  1.1624  1.5982  1.8295
 9462SOL     OW40021   2.896   4.059   7.740  0.3135 -0.3097  0.7901
 9462SOL    HW140022   2.836   4.074   7.666 -0.3159 -0.0635  1.3564
 9462SOL    HW240023   2.911   3.967   7.717 -0.1419 -0.2034  0.0494
 9463SOL     OW40024   2.862   4.100   1.183 -0.7534  0.0804 -0.3504
 9463SOL    HW140025   2.832   4.191   1.192 -0.4032 -0.1238  2.7682
 9463SOL    HW240026   2.918   4.070   1.255 -0.4851 -1.3679 -1.1681
 9464SOL     OW40027   1.566   1.146   7.954 -0.5504  0.3758  0.0208
 9464SOL    HW140028   1.568   1.101   7.870 -1.0142 -0.5997  0.5411
 9464SOL    HW240029   1.593   1.072   8.009  0.7640 -0.2579 -1.4763
 9465SOL     OW40030   2.361   0.013   8.595 -0.1433 -0.8285  0.4973
 9465SOL    HW140031   2.400   4.716   8.675 -0.7548  0.8824  1.5620
 9465SOL    HW240032   2.296   0.075   8.630 -0.0770 -0.8447  0.6495
 9466SOL     OW40033   3.599   1.300   6.347  0.3304 -0.1905 -0.3532
 9466SOL    HW140034   3.504   1.306   6.337  0.3518 -1.3804 -1.3433
 9466SOL    HW240035   3.621   1.216   6.387  0.9875  0.1731  0.0447
 9467SOL     OW40036   1.293   4.301   8.319  0.1959  0.1829  0.0402
 9467SOL    HW140037   1.306   4.374   8.380 -0.7835  0.3755  0.0234
 9467SOL    HW240038   1.380   4.271   8.295 -1.9175 -3.5638 -2.9939
 9468SOL     OW40039   2.576   3.207   6.160 -0.2767 -0.0355 -0.1350
 9468SOL    HW140040   2.499   3.155   6.139  0.0740 -0.8807  0.6673
 9468SOL    HW240041   2.645   3.145   6.187  1.8422  2.7469  0.8374
 9469SOL     OW40042   2.073   0.595  12.804  0.2742  0.6311  0.0193
 9469SOL    HW140043   2.155   0.617  12.848 -0.8842  1.2470  1.8701
 9469SOL    HW240044   2.042   0.681  12.773 -1.4707  0.3427  0.9430
 9470SOL     OW40045   1.777   4.121   3.133  0.0656  0.3842  0.1734
 9470SOL    HW140046   1.682   4.131   3.141  0.3385  1.4592  2.0368
 9470SOL    HW240047   1.795   4.210   3.101 -0.5656  1.4235  2.7032
 9471SOL     OW40048   4.527   2.898  11.261 -0.1875 -0.5460 -0.0928
 9471SOL    HW140049   4.463   2.947  11.312  1.9475  1.8060  0.3115
 9471SOL    HW240050   4.587   2.873  11.332  0.1084 -1.8781 -0.8171
 9472SOL     OW40051   4.195   4.333   9.934 -0.0170  0.4925  0.5181
 9472SOL    HW140052   4.196   4.339   9.838  2.2955  2.6287  0.6604
 9472SOL    HW240053   4.225   4.244   9.950 -0.9976 -0.5535 -3.5043
 9473SOL     OW40054   4.080   1.899   2.389  0.2112  0.2925 -0.8466
 9473SOL    HW140055   3.985   1.899   2.381  0.2389 -0.9336 -1.2315
 9473SOL    HW240056   4.083   1.834   2.459 -1.7471 -1.5014 -2.4263
 9474SOL     OW40057   3.156   0.792   8.927 -0.4205 -0.0264  0.4293
 9474SOL    HW140058   3.217   0.842   8.874 -1.5496  2.4066  1.4350
 9474SOL    HW240059   3.151   0.720   8.864 -1.0931 -0.0556  0.5151
 9475SOL     OW40060   1.985   1.903  16.752  0.0246 -0.1548  0.3375
 9475SOL    HW140061   1.950   1.830  16.701  0.9343 -0.4318  0.1082
 9475SOL    HW240062   2.016   1.962  16.683 -2.7207 -0.8991 -1.5106
 9476SOL     OW40063   1.537   1.072  13.902  0.1225  0.2319  0.0191
 9476SOL    HW140064   1.506   0.983  13.885  1.1440 -0.0629 -0.3079
 9476SOL    HW240065   1.587   1.052  13.981  1.5119 -0.1472 -0.9631
 9477SOL     OW40066   2.066   3.311   5.513 -0.2268 -0.3357 -0.1503
 9477SOL    HW140067   2.076   3.390   5.566 -3.2663  0.7939 -1.2602
 9477SOL    HW240068   2.141   3.332   5.458 -0.3829  1.4220  0.3029
 9478SOL     OW40069   0.289   4.055  13.564  0.0441 -0.0763  0.1287
 9478SOL    HW140070   0.384   4.046  13.572  0.2152  1.3019 -0.4799
 9478SOL    HW240071   0.279   4.150  13.571 -1.0831 -0.1506 -0.4886
 9479SOL     OW40072   3.982   1.210   4.932 -0.3031 -0.0796 -0.3625
 9479SOL    HW140073   3.922   1.282   4.952  1.5438  0.4668  3.1989
 9479SOL    HW240074   3.945   1.183   4.848 -2.4486  4.4559 -0.8794
 9480SOL     OW40075   3.352   0.891   5.311  0.2862  0.1136  0.3239
 9480SOL    HW140076   3.371   0.861   5.222  2.4808 -2.0979  1.5423
 9480SOL    HW240077   3.443   0.892   5.342  0.7251  0.6955 -0.9762
 9481SOL     OW40078   1.730   3.133   5.834 -0.6216  0.6345  0.2105
 9481SOL    HW140079   1.768   3.220   5.846 -1.8060  1.1010  0.5674
 9481SOL    HW240080   1.756   3.125   5.742  0.3708  2.5870  0.3129
 9482SOL     OW40081   2.190   0.789   6.234  0.1818 -0.3576  0.7495
 9482SOL    HW140082   2.166   0.855   6.169  1.3919 -1.1457 -0.5160
 9482SOL    HW240083   2.189   0.710   6.179 -0.1245  0.0644  0.1573
 9483SOL     OW40084   1.639   1.087   5.674 -0.6917 -0.0106  0.5767
 9483SOL    HW140085   1.561   1.063   5.624 -0.2310  2.8076 -1.4689
 9483SOL    HW240086   1.627   1.021   5.743 -1.2019  0.9265  1.3731
 9484SOL     OW40087   3.377   4.141   2.242 -0.3398  0.2700  0.3250
 9484SOL    HW140088   3.468   4.149   2.271  0.4830 -1.2996 -1.8288
 9484SOL    HW240089   3.382   4.166   2.150  2.7016  0.5847  0.5799
 9485SOL     OW40090   2.898   1.688   6.639 -0.1016 -0.2883  0.3134
 9485SOL    HW140091   2.843   1.668   6.563 -0.1063 -1.9273  0.7500
 9485SOL    HW240092   2.984   1.688   6.598 -0.7731 -1.1176 -1.0795
 9486SOL     OW40093   4.257   1.891   7.493 -0.0589  0.3639 -0.1832
 9486SOL    HW140094   4.264   1.838   7.414 -0.7759 -0.2778  0.1759
 9486SOL    HW240095   4.246   1.824   7.561 -2.6847 -0.6966 -1.6629
 9487SOL     OW40096   0.900   4.420  13.839  0.1357 -0.0207 -0.3000
 9487SOL    HW140097   0.890   4.515  13.827 -0.3513 -0.0504 -0.1361
 9487SOL    HW240098   0.852   4.405  13.920 -1.5661  1.3696 -1.0621
 9488SOL     OW40099   4.371   2.980  12.597 -0.0765  0.0363  0.1288
 9488SOL    HW140100   4.343   2.989  12.688 -0.5500 -1.7075  0.1475
 9488SOL    HW240101   4.363   2.886  12.583  2.7184 -0.1165 -0.4618
 9489SOL     OW40102   2.832   2.535   8.919 -0.2698 -0.1218 -0.4174
 9489SOL    HW140103   2.803   2.509   9.006  0.7868  0.3380  0.0687
 9489SOL    HW240104   2.740   2.547   8.892 -0.5322  1.3833  1.0955
 9490SOL     OW40105   2.217   2.831   6.645 -0.1210  0.3778 -0.1089
 9490SOL    HW140106   2.278   2.776   6.695  1.4598  2.3217  0.1036
 9490SOL    HW240107   2.229   2.800   6.555 -0.9853  0.1553 -0.1475
 9491SOL     OW40108   1.882   2.792   6.655 -0.8132  0.1343 -0.8080
 9491SOL    HW140109   1.913   2.789   6.565 -0.2217  0.0810 -0.5984
 9491SOL    HW240110   1.797   2.751   6.638 -2.1846  1.6676  2.2328
 9492SOL     OW40111   2.343   0.073   7.959 -0.6678  0.0110  0.3272
 9492SOL    HW140112   2.249   0.059   7.974 -0.2064 -2.4123  1.0211
 9492SOL    HW240113   2.359   0.158   8.000 -0.6224 -0.0790  0.4947
 9493SOL     OW40114   3.850   0.481   7.108  0.1440 -0.6269 -0.3581
 9493SOL    HW140115   3.935   0.517   7.133 -0.6699 -0.1629  1.7924
 9493SOL    HW240116   3.788   0.545   7.144  0.1243 -0.2464 -1.0641
 9494SOL     OW40117   3.283   2.757   2.119  0.5925 -0.3104  0.5134
 9494SOL    HW140118   3.299   2.833   2.063 -0.3380 -1.3325 -1.1404
 9494SOL    HW240119   3.317   2.792   2.201  0.5667 -1.3397  0.9738
 9495SOL     OW40120   1.080   4.124   2.110 -0.4105  0.0737  0.5758
 9495SOL    HW140121   1.092   4.125   2.205 -0.0511  2.1374  0.5244
 9495SOL    HW240122   1.001   4.072   2.095  1.4609 -2.8149  0.7855
 9496SOL     OW40123   1.844   3.970   0.714  0.3495  0.0462  0.1540
 9496SOL    HW140124   1.889   4.053   0.728 -1.5669  1.1090 -0.0678
 9496SOL    HW240125   1.752   3.997   0.723 -0.0099 -0.8128 -0.9496
 9497SOL     OW40126   3.499   3.808   8.000  0.3568 -0.2708  0.5469
 9497SOL    HW140127   3.450   3.890   8.002 -0.9811 -1.0750  0.4608
 9497SOL    HW240128   3.450   3.759   7.935 -0.3052  0.0268  0.8215
 9498SOL     OW40129   1.529   3.345   7.149  0.0023 -0.3074 -0.7329
 9498SOL    HW140130   1.614   3.301   7.161  0.1463  0.6132  1.6488
 9498SOL    HW240131   1.515   3.352   7.055 -0.3953  0.1962 -0.6342
 9499SOL     OW40132   2.734   1.876   3.518 -0.2333  0.0336 -0.1447
 9499SOL    HW140133   2.719   1.927   3.438  1.5422  1.9759  0.7745
 9499SOL    HW240134   2.815   1.919   3.545 -2.0289  1.4848  2.9058
 9500SOL     OW40135   0.645   0.179   9.704 -0.4348  0.0348 -0.2878
 9500SOL    HW140136   0.583   0.244   9.736  0.0170 -0.8015  2.2320
 9500SOL    HW240137   0.708   0.191   9.775 -0.0486  1.8812 -0.9374
 9501SOL     OW40138   1.197   2.055   7.882  0.2599 -0.4685 -0.4787
 9501SOL    HW140139   1.196   2.010   7.798 -0.4364 -0.9483 -0.2139
 9501SOL    HW240140   1.198   1.978   7.939 -0.6528  0.5310  0.8760
 9502SOL     OW40141   4.003   4.284   7.621  0.4185 -0.5145 -0.3972
 9502SOL    HW140142   3.931   4.224   7.601  1.9984 -2.2510 -0.8948
 9502SOL    HW240143   3.966   4.319   7.702 -0.7108  0.1550 -1.1985
 9503SOL     OW40144   2.137   0.000   1.427 -0.0508 -0.1010  0.4174
 9503SOL    HW140145   2.083   4.702   1.498  0.1547 -0.3248  0.4616
 9503SOL    HW240146   2.108   4.687   1.352 -0.4616  1.9586 -0.8123
 9504SOL     OW40147   3.286   2.518   2.261 -0.0661 -0.2374 -0.0672
 9504SOL    HW140148   3.353   2.569   2.306  2.0194 -2.1762 -0.9561
 9504SOL    HW240149   3.261   2.586   2.199 -0.6125  0.2364  0.6754
 9505SOL     OW40150   3.847   3.611   7.578  0.6574  0.5081  0.1508
 9505SOL    HW140151   3.890   3.623   7.662  1.6955  2.3443 -0.6320
 9505SOL    HW240152   3.895   3.534   7.546  0.0923  0.1552  0.1466
 9506SOL     OW40153   3.142   1.940   0.954 -0.0782 -0.6002 -0.4448
 9506SOL    HW140154   3.080   1.965   1.023  0.0924  0.8234 -0.8088
 9506SOL    HW240155   3.087   1.974   0.884  1.4878  2.5052 -0.1523
 9507SOL     OW40156   0.870   0.456   6.800 -0.0487  0.5317 -0.5032
 9507SOL    HW140157   0.943   0.406   6.764 -0.5243  0.6811 -1.6756
 9507SOL    HW240158   0.913   0.536   6.829 -1.7854  1.2083  0.2427
 9508SOL     OW40159   3.128   1.764   4.619 -0.2331 -0.3889  0.5221
 9508SOL    HW140160   3.200   1.732   4.674  0.5416  3.1507  1.5777
 9508SOL    HW240161   3.094   1.696   4.562 -1.4418  0.9208 -0.3196
 9509SOL     OW40162   2.713   1.343  13.920  0.2942  0.4415 -0.6181
 9509SOL    HW140163   2.675   1.295  13.994  3.2255  2.0428  1.8954
 9509SOL    HW240164   2.752   1.418  13.965 -0.5547 -0.2449  1.2831
 9510SOL     OW40165   3.301   2.803   0.342 -0.1509  0.6332 -0.4698
 9510SOL    HW140166   3.396   2.791   0.339 -0.1918 -0.0357  0.9649
 9510SOL    HW240167   3.274   2.803   0.250  1.3342  0.6544 -0.9090
 9511SOL     OW40168   4.548   0.545   9.299 -0.3543 -0.0978 -0.4292
 9511SOL    HW140169   4.535   0.454   9.329  0.3383  0.3637  1.2820
 9511SOL    HW240170   4.471   0.567   9.246  0.3612  4.3911  0.4062
 9512SOL     OW40171   3.897   1.072   4.378  0.5006 -0.2281  0.3495
 9512SOL    HW140172   3.942   1.077   4.294  0.5367 -3.3082  0.2087
 9512SOL    HW240173   3.957   1.025   4.435 -0.1939  0.4057  1.6122
 9513SOL     OW40174   1.035   1.632   2.195 -0.1051 -0.2118 -0.0621
 9513SOL    HW140175   1.021   1.540   2.216  0.3585 -0.5428 -1.2061
 9513SOL    HW240176   1.100   1.645   2.265 -1.5824 -1.3553  1.5322
 9514SOL     OW40177   0.322   0.862   2.757 -0.2197 -0.0744  0.0008
 9514SOL    HW140178   0.273   0.831   2.681  0.3490 -2.8262  0.7610
 9514SOL    HW240179   0.412   0.850   2.724 -1.0712 -1.9618 -1.6064
 9515SOL     OW40180   2.427   3.580   4.247  0.0527  0.2420 -0.2336
 9515SOL    HW140181   2.410   3.499   4.198 -1.9474 -0.7361  2.0896
 9515SOL    HW240182   2.451   3.549   4.334  3.0648 -0.5306 -1.3347
 9516SOL     OW40183   1.866   2.939   3.051  0.0019 -0.6263  0.6900
 9516SOL    HW140184   1.882   3.029   3.021 -1.3428 -1.1886 -1.6991
 9516SOL    HW240185   1.779   2.921   3.015  0.4203 -0.0971 -0.5882
 9517SOL     OW40186   1.324   2.391   8.299  0.1104 -0.6450 -0.9908
 9517SOL    HW140187   1.287   2.425   8.217 -0.8675  2.3616  0.7120
 9517SOL    HW240188   1.259   2.325   8.325 -0.2595  1.5075  3.4788
 9518SOL     OW40189   3.620   3.112   8.720 -0.2009 -0.1075  0.6369
 9518SOL    HW140190   3.586   3.187   8.770  0.9990 -0.1478  1.5077
 9518SOL    HW240191   3.537   3.071   8.696 -0.6256  0.9200  0.3127
 9519SOL     OW40192   1.019   3.345   3.982  0.0786  0.0011  0.0526
 9519SOL    HW140193   1.111   3.365   3.998  0.4749 -0.3040 -1.8717
 9519SOL    HW240194   0.980   3.413   4.037 -1.5359  1.1510 -2.5384
 9520SOL     OW40195   3.824   2.046   6.081 -0.6746 -0.1386  0.2196
 9520SOL    HW140196   3.850   2.132   6.048  1.0639  0.0851  2.1671
 9520SOL    HW240197   3.732   2.030   6.060 -0.6656 -1.6339  1.2843
 9521SOL     OW40198   2.966   0.541   9.064  0.1222 -0.5956 -0.3964
 9521SOL    HW140199   2.894   0.546   9.002 -0.9655  0.2285  0.9194
 9521SOL    HW240200   3.000   0.452   9.064  1.0887 -0.2327 -3.4193
 9522SOL     OW40201   0.014   2.322   7.897 -0.1658 -0.1566  0.4811
 9522SOL    HW140202   0.023   2.227   7.885  1.0426  0.0675 -0.2983
 9522SOL    HW240203   0.034   2.329   7.991 -0.3871  4.3486  0.1956
 9523SOL     OW40204   0.226   3.554   4.056 -0.2757  0.1396  0.1031
 9523SOL    HW140205   0.250   3.588   3.970  2.0913 -0.3595  0.5809
 9523SOL    HW240206   0.239   3.628   4.115  0.2776 -0.4389  0.7030
 9524SOL     OW40207   4.180   1.279   8.445 -0.2613 -0.0336 -0.4738
 9524SOL    HW140208   4.243   1.350   8.458 -1.1809  0.4948  1.0717
 9524SOL    HW240209   4.163   1.249   8.534 -0.3608  0.5237 -0.3031
 9525SOL     OW40210   3.062   2.829   7.496 -0.8035  0.0385  0.6370
 9525SOL    HW140211   3.140   2.848   7.547  0.4610  1.2506 -1.7490
 9525SOL    HW240212   3.081   2.750   7.445 -2.0794  0.5557 -0.6580
 9526SOL     OW40213   2.802   4.164  14.357 -0.2288  0.3119  0.3054
 9526SOL    HW140214   2.881   4.144  14.407 -1.1215 -0.2881  1.4720
 9526SOL    HW240215   2.820   4.257  14.340 -2.3027  0.6258 -0.1365
 9527SOL     OW40216   1.414   3.980  16.494  0.1584 -0.6850  0.0910
 9527SOL    HW140217   1.440   3.903  16.544  0.0168 -1.5428 -1.1565
 9527SOL    HW240218   1.439   3.953  16.405  0.0894 -0.6341  0.0556
 9528SOL     OW40219   1.418   1.613   8.830  0.1267  0.2888  0.1146
 9528SOL    HW140220   1.422   1.670   8.907 -0.7270  0.3278  0.1286
 9528SOL    HW240221   1.323   1.600   8.821  0.1895  0.3581 -0.5994
 9529SOL     OW40222   1.313   0.279  14.046  0.2972 -0.2175  0.1757
 9529SOL    HW140223   1.341   0.227  13.971 -0.9502  1.2408 -1.3080
 9529SOL    HW240224   1.376   0.251  14.112  1.9782  2.1515 -0.4183
 9530SOL     OW40225   1.367   1.171   6.024 -0.1946 -0.2995 -0.1243
 9530SOL    HW140226   1.359   1.244   6.085 -2.7158 -0.2110 -0.5527
 9530SOL    HW240227   1.296   1.189   5.963 -1.9229 -3.2290  1.0346
 9531SOL     OW40228   0.450   0.298   7.312 -0.2597  0.3130  0.3080
 9531SOL    HW140229   0.401   0.220   7.336 -1.6948  1.2647  0.4817
 9531SOL    HW240230   0.532   0.254   7.291 -0.2245  0.7983 -0.5607
 9532SOL     OW40231   2.091   3.811  17.085 -0.4285 -0.0622 -0.6652
 9532SOL    HW140232   2.135   3.747  17.140 -0.4028 -0.6785 -1.4115
 9532SOL    HW240233   2.083   3.876  17.155 -0.7904 -1.4973  0.6113
 9533SOL     OW40234   1.123   1.528   7.823 -0.6064  0.0833  0.7038
 9533SOL    HW140235   1.043   1.562   7.782  0.2084 -1.2675 -2.0054
 9533SOL    HW240236   1.106   1.545   7.916 -1.5188  0.6686  0.4291
 9534SOL     OW40237   2.820   2.863   9.100  0.2103 -0.2367  0.6921
 9534SOL    HW140238   2.877   2.940   9.097 -0.3044  0.1016 -0.3291
 9534SOL    HW240239   2.880   2.789   9.113 -1.9658 -1.9613  0.9953
 9535SOL     OW40240   2.555   0.280   2.501 -0.0400  0.4378 -0.1615
 9535SOL    HW140241   2.549   0.208   2.439  0.1561  0.7013 -0.4889
 9535SOL    HW240242   2.553   0.241   2.589  0.8762  0.6041 -0.0651
 9536SOL     OW40243   2.626   4.550   6.046 -0.6603  0.1083  0.2749
 9536SOL    HW140244   2.592   4.576   5.960  1.1599 -0.9946 -0.7686
 9536SOL    HW240245   2.582   4.467   6.060 -0.8571  0.4237  1.5548
 9537SOL     OW40246   4.675   4.549   1.388  0.7867  0.6952  0.2612
 9537SOL    HW140247   0.003   4.488   1.418  0.1405 -0.1934 -0.1276
 9537SOL    HW240248   4.723   4.631   1.400 -0.7377  1.9879 -2.3126
 9538SOL     OW40249   4.099   1.806   7.184  0.4831 -0.5871  0.0837
 9538SOL    HW140250   4.060   1.800   7.096 -0.5757 -2.8377  0.7064
 9538SOL    HW240251   4.096   1.901   7.188 -2.2067 -0.8432  3.3888
 9539SOL     OW40252   1.040   3.608   6.250 -0.2713  0.1981 -0.2793
 9539SOL    HW140253   1.063   3.699   6.272 -0.4384  0.4502 -1.1529
 9539SOL    HW240254   0.958   3.597   6.299 -0.8443 -0.6192 -1.4456
 9540SOL     OW40255   2.879   1.158   7.380 -0.1252  0.4168 -0.1373
 9540SOL    HW140256   2.819   1.232   7.368  0.4772  0.7916 -0.9240
 9540SOL    HW240257   2.816   1.087   7.371  2.2775 -1.9513  1.7372
 9541SOL     OW40258   0.864   2.126   9.718 -0.0736 -0.5289 -0.2601
 9541SOL    HW140259   0.806   2.170   9.780  1.0398 -1.6487  1.5899
 9541SOL    HW240260   0.944   2.180   9.719 -0.9065  0.6850  0.3832
 9542SOL     OW40261   4.496   3.571   0.227  0.2014  0.6977 -0.1986
 9542SOL    HW140262   4.584   3.562   0.192 -0.6097 -0.8257 -1.8650
 9542SOL    HW240263   4.458   3.522   0.154 -2.2610  0.0882  1.4754
 9543SOL     OW40264   0.288   1.130   6.462  0.5962  0.0722  0.2065
 9543SOL    HW140265   0.272   1.039   6.438  0.2139 -0.0433  0.8829
 9543SOL    HW240266   0.349   1.164   6.397 -2.1479  1.0089 -1.8398
 9544SOL     OW40267   2.129   3.745  16.382  0.3791  0.7090 -0.1181
 9544SOL    HW140268   2.130   3.839  16.400 -1.9460  0.7653 -0.2108
 9544SOL    HW240269   2.066   3.722  16.450  0.3085 -2.3691 -1.2130
 9545SOL     OW40270   0.223   1.977   1.599  0.5059  0.0316  0.6338
 9545SOL    HW140271   0.253   2.066   1.616 -1.0756  0.3429  1.7704
 9545SOL    HW240272   0.293   1.954   1.538 -1.4003 -2.2252 -0.7234
 9546SOL     OW40273   0.918   4.096   8.679 -0.2359 -0.5569 -0.7380
 9546SOL    HW140274   0.970   4.118   8.601  0.1229 -0.5373 -0.4969
 9546SOL    HW240275   0.874   4.180   8.692  1.6943  0.3161  0.1803
 9547SOL     OW40276   0.510   1.770   2.383  0.1081  0.0202 -0.3816
 9547SOL    HW140277   0.418   1.742   2.386  1.2092 -3.6264 -1.5002
 9547SOL    HW240278   0.527   1.756   2.290 -0.9546  0.1104 -0.5885
 9548SOL     OW40279   0.548   3.751   4.773 -0.4380 -0.9231  0.1889
 9548SOL    HW140280   0.636   3.789   4.770 -1.0505  0.3711 -1.3930
 9548SOL    HW240281   0.510   3.793   4.696  2.9821  0.4763 -0.7286
 9549SOL     OW40282   4.576   2.986  16.706 -0.1692 -0.7348 -0.5123
 9549SOL    HW140283   4.655   3.032  16.677 -1.4987  1.5853 -0.4575
 9549SOL    HW240284   4.610   2.925  16.772  0.2556  0.7622  0.6490
 9550SOL     OW40285   3.197   2.624   1.001 -0.4729  0.5517 -0.1417
 9550SOL    HW140286   3.198   2.544   0.948 -0.8191  0.0846  0.5559
 9550SOL    HW240287   3.233   2.585   1.080 -0.3203  0.3824 -0.2945
 9551SOL     OW40288   1.222   4.615  11.761  0.3560  0.6734  0.3113
 9551SOL    HW140289   1.137   4.625  11.719 -0.0048  0.7034  1.0512
 9551SOL    HW240290   1.216   4.520  11.769 -4.3106  0.7740 -1.9363
 9552SOL     OW40291   0.604   2.023   8.311  0.6692  0.0316 -0.2301
 9552SOL    HW140292   0.649   1.951   8.268  2.2562  1.3416 -0.7621
 9552SOL    HW240293   0.517   1.992   8.335 -0.2926  2.4616 -0.5405
 9553SOL     OW40294   4.132   2.255   8.572 -0.4624 -0.1528  0.7315
 9553SOL    HW140295   4.209   2.265   8.629  0.3562  2.3612 -0.7973
 9553SOL    HW240296   4.085   2.205   8.638  0.1889 -2.3846 -0.4754
 9554SOL     OW40297   3.822   0.611   8.339 -0.3287 -0.2010 -0.1662
 9554SOL    HW140298   3.909   0.638   8.311  0.5582 -0.6370  2.1439
 9554SOL    HW240299   3.808   0.687   8.396 -0.0790  0.2317 -0.6865
 9555SOL     OW40300   0.024   1.148   3.500 -0.1296 -0.2036 -1.0017
 9555SOL    HW140301   4.712   1.109   3.572  1.1988  1.9682  1.1265
 9555SOL    HW240302   0.099   1.165   3.558  0.5912  0.8657 -2.2405
 9556SOL     OW40303   2.755   4.484  12.250  0.0450  0.1618  0.5619
 9556SOL    HW140304   2.802   4.506  12.331 -2.6701  0.2452  2.1183
 9556SOL    HW240305   2.718   4.568  12.223 -1.7787 -1.2690 -1.3854
 9557SOL     OW40306   0.920   0.128  10.763  0.8456  0.2729  0.0228
 9557SOL    HW140307   1.008   0.133  10.800  1.2329 -1.0097 -0.7176
 9557SOL    HW240308   0.888   0.081  10.840  2.3199  1.2551  1.2432
 9558SOL     OW40309   3.533   1.147   3.134 -0.2375 -0.1833 -0.2305
 9558SOL    HW140310   3.440   1.152   3.115  0.2253  2.1872 -1.8490
 9558SOL    HW240311   3.563   1.075   3.078  1.1104  0.0444  0.2043
 9559SOL     OW40312   3.018   2.675   1.535 -0.5305 -0.0205  0.0673
 9559SOL    HW140313   2.974   2.745   1.585  1.2752  0.9288  0.3199
 9559SOL    HW240314   2.983   2.600   1.583 -1.9849  0.0660 -0.8521
 9560SOL     OW40315   1.305   3.238   7.317 -0.0935  0.6618  0.6523
 9560SOL    HW140316   1.266   3.235   7.229 -4.2945 -2.7509  2.6524
 9560SOL    HW240317   1.396   3.260   7.294  0.7556 -2.1990  1.2563
 9561SOL     OW40318   4.225   3.024   8.361  0.0344  0.7673  0.2899
 9561SOL    HW140319   4.279   2.947   8.379  0.5454  0.7020 -1.4936
 9561SOL    HW240320   4.253   3.033   8.270  3.0274  1.3693  1.2686
 9562SOL     OW40321   3.876   3.752   8.803 -0.2019  0.5936 -0.6708
 9562SOL    HW140322   3.940   3.736   8.734  1.8971 -1.8694  1.8431
 9562SOL    HW240323   3.926   3.721   8.879 -1.2278  1.2746  0.2994
 9563SOL     OW40324   0.624   0.596   1.977 -0.2655  0.3205 -0.4720
 9563SOL    HW140325   0.667   0.511   1.964  0.7948  0.6886  0.6388
 9563SOL    HW240326   0.558   0.570   2.041  0.0336  1.4241  0.2758
 9564SOL     OW40327   3.757   0.689   5.833  0.2007  0.0965 -0.1399
 9564SOL    HW140328   3.717   0.706   5.918  1.9310 -1.9427  1.0854
 9564SOL    HW240329   3.676   0.657   5.795 -0.3203  0.6506  0.5099
 9565SOL     OW40330   0.586   0.405   5.258  0.7068 -0.4704 -0.0388
 9565SOL    HW140331   0.627   0.435   5.339  0.0806  1.1793 -0.3403
 9565SOL    HW240332   0.535   0.332   5.295 -1.0576  0.5576 -0.4609
 9566SOL     OW40333   2.157   4.517  14.116 -0.1162 -0.3055  0.8293
 9566SOL    HW140334   2.223   4.543  14.052 -1.8455  0.5602 -0.5932
 9566SOL    HW240335   2.082   4.498  14.059  0.1444  0.1037  0.3453
 9567SOL     OW40336   1.612   4.560   3.682  0.0721  0.5539 -0.1923
 9567SOL    HW140337   1.572   4.555   3.769  2.9094  1.2628  1.1311
 9567SOL    HW240338   1.670   4.484   3.690  0.2272  0.7588  0.6442
 9568SOL     OW40339   0.281   0.433   2.679  0.7517  0.2109  0.5708
 9568SOL    HW140340   0.340   0.360   2.700  4.3962  2.2706 -2.3686
 9568SOL    HW240341   0.270   0.486   2.758  2.6893 -1.3017  1.8575
 9569SOL     OW40342   4.285   3.707   4.023  0.1800  0.3330 -0.3489
 9569SOL    HW140343   4.348   3.706   3.951  0.1472  0.1349 -0.3772
 9569SOL    HW240344   4.282   3.613   4.044 -1.4718  0.5320  0.3060
   4.73810   4.73810  17.75050
