Membrane in water
40344
    1TMC1    C1    1   4.494   1.786  11.785  0.2084 -0.0051  0.1063
    1TMC1    C2    2   4.481   1.817  11.916 -0.3764  0.0781  0.3838
    1TMC1    C3    3   4.591   1.865  11.989  0.1847 -0.5883 -0.0651
    1TMC1    C4    4   4.618   1.806  11.724  0.5596  0.5158 -0.2381
    1TMC1    C5    5   4.724   1.850  11.798  0.2568 -0.1976 -0.3770
    1TMC1    C6    6   4.712   1.894  11.929 -0.1639 -0.1269 -0.3402
    1TMC1     C    7   4.382   1.720  11.719 -0.1081  0.4890  0.2465
    1TMC1     O    8   4.272   1.730  11.772  0.3917  0.1218 -0.0081
    1TMC1     H    9   4.389   1.799  11.970  0.3287 -3.0803  0.5279
    1TMC1    H1   10   4.639   1.781  11.620  1.8278  0.9088 -0.0866
    1TMC1    H2   11   0.071   1.910  11.977 -0.6483  0.1420  0.5545
    1TMC1    C7   12   0.120   1.837  11.747  1.1339  0.0445 -0.3664
    1TMC1    C8   13   4.595   1.842  12.138 -0.4270  0.1353 -0.0128
    1TMC1    O1   14   0.209   1.919  11.775 -0.0369  0.7443  0.1109
    1TMC1    O2   15   4.517   1.764  12.195 -0.5436  0.1403 -0.1509
    1TMC1    O3   16   0.131   1.716  11.701 -0.0235 -0.0488  0.8591
    1TMC1    H3   17   0.053   1.659  11.718 -0.8697  0.9725  0.3401
    1TMC1    O5   18   4.726   1.845  12.190  0.0019  0.1189 -0.0710
    1TMC1    H5   19   0.033   1.921  12.146 -2.0008  0.0653 -2.1863
    2MPD2     C   20   4.188   1.466  11.311 -0.0513  0.6441 -0.8363
    2MPD2    C1   21   4.144   1.470  11.449 -0.6986  0.1810  0.5686
    2MPD2    C2   22   4.219   1.539  11.544 -0.2759  0.7068  0.1800
    2MPD2    C3   23   4.340   1.601  11.503 -0.6277  0.1893 -0.7021
    2MPD2    C4   24   4.377   1.587  11.375  0.6867 -0.2098 -0.5227
    2MPD2    C5   25   4.308   1.517  11.279 -0.1905 -0.0621 -0.1459
    2MPD2     H   26   4.186   1.538  11.647  0.0324  0.3137  0.2713
    2MPD2    H1   27   4.466   1.625  11.328  0.7573  0.6250  0.2726
    2MPD2    H2   28   4.128   1.420  11.234 -0.5342 -0.5326  0.2447
    2MPD2    H3   29   4.347   1.519  11.178 -1.4353 -2.2142 -0.6730
    2MPD2     N   30   4.413   1.673  11.589  0.4368 -0.2014  0.1915
    2MPD2    H5   31   4.505   1.694  11.551 -0.0135  1.7213  0.1654
    2MPD2    N1   32   4.027   1.407  11.494  0.4087 -0.2858 -0.2590
    2MPD2    H7   33   3.997   1.415  11.591  0.9077 -1.4821  0.0020
    3TMC1    C1   34   3.005   2.102  11.201  0.2453  0.3041 -0.0147
    3TMC1    C2   35   3.079   1.986  11.223 -0.6367 -0.2014  0.2139
    3TMC1    C3   36   3.206   1.983  11.171  0.3672 -0.0739  0.6265
    3TMC1    C4   37   3.059   2.203  11.130  0.1089 -0.2459 -1.0889
    3TMC1    C5   38   3.178   2.184  11.066  0.4640  0.4479 -0.2523
    3TMC1    C6   39   3.261   2.077  11.088  0.0202  0.5044  0.4347
    3TMC1     C   40   2.872   2.120  11.259  0.4804  0.3425 -0.0231
    3TMC1     O   41   2.821   2.014  11.294  0.6932 -0.0101 -0.2334
    3TMC1     H   42   3.037   1.897  11.269 -2.2348  0.8915  0.9022
    3TMC1    H1   43   2.993   2.274  11.081  0.2627  0.2192 -0.6229
    3TMC1    H2   44   3.355   2.064  11.035 -0.2509 -1.1953  0.3751
    3TMC1    C7   45   3.216   2.289  10.970  0.2390  0.1706 -0.4591
    3TMC1    C8   46   3.259   1.844  11.160  1.4223 -0.2893  0.1060
    3TMC1    O1   47   3.155   2.301  10.865  0.4153 -0.3968  0.3463
    3TMC1    O2   48   3.305   1.787  11.062 -0.2798  0.3817  0.1804
    3TMC1    O3   49   3.349   2.282  10.984 -0.1848  0.0649  0.0809
    3TMC1    H3   50   3.385   2.306  11.072 -1.3972  0.1858  0.5306
    3TMC1    O5   51   3.276   1.794  11.288 -0.4578 -0.4992 -0.4228
    3TMC1    H5   52   3.254   1.851  11.365  0.6201 -1.3697  0.5281
    4MPD2     C   53   2.466   2.323  11.480  0.0040  0.5256 -0.0010
    4MPD2    C1   54   2.561   2.420  11.451  0.2395  0.3737 -0.1296
    4MPD2    C2   55   2.674   2.389  11.380 -0.3009  0.1628 -0.6004
    4MPD2    C3   56   2.697   2.261  11.343  0.2712 -0.7889  0.1864
    4MPD2    C4   57   2.593   2.161  11.362  0.8633  0.4526  0.2549
    4MPD2    C5   58   2.479   2.199  11.429  0.2493  0.0573 -0.2090
    4MPD2     H   59   2.751   2.465  11.366  0.6274 -0.8823 -1.1401
    4MPD2    H1   60   2.589   2.063  11.315 -0.4192  1.3027 -1.3956
    4MPD2    H2   61   2.386   2.347  11.549 -0.2065  4.2847 -1.5511
    4MPD2    H3   62   2.403   2.127  11.457  0.6615  0.7951  2.7497
    4MPD2     N   63   2.819   2.246  11.271 -0.3614 -0.2339  0.5394
    4MPD2    H5   64   2.868   2.330  11.242  1.6447 -1.4194  0.5146
    4MPD2    N1   65   2.545   2.552  11.504  0.1199  0.2189 -0.0991
    4MPD2    H7   66   2.612   2.622  11.473  2.3448 -1.2332  1.3613
    5TCq1    O1   67   3.156   4.153  12.518 -0.1739  0.2447  0.5291
    5TCq1    C1   68   3.166   4.079  12.398  0.7028  0.1608  0.3616
    5TCq1    O2   69   3.252   3.994  12.382 -0.2174 -0.1875  0.4405
    5TCq1    C2   70   3.097   4.142  12.286  0.1061  0.1433 -0.0798
    5TCq1    C3   71   2.982   4.220  12.308  0.3566  0.0766  0.0511
    5TCq1    C4   72   2.927   4.288  12.202  0.0589  0.3539 -0.5898
    5TCq1    C5   73   2.970   4.276  12.074  0.0376  0.2281 -0.1530
    5TCq1    C6   74   3.079   4.193  12.058  0.0392  0.4031 -0.5466
    5TCq1    C7   75   3.130   4.113  12.156  0.1561 -0.8091 -0.3397
    5TCq1    C8   76   3.141   4.183  11.930 -0.1597  0.2068 -0.4591
    5TCq1    O4   77   3.247   4.122  11.925 -0.6206 -0.4202 -0.2058
    5TCq1    C9   78   2.817   4.371  12.227  0.7898 -0.1050  0.2391
    5TCq1    O5   79   2.770   4.427  12.126  0.4180  0.6133 -0.0089
    5TCq1    O6   80   2.782   4.399  12.343  0.7279  0.6424 -0.1022
    5TCq1    H1   81   3.082   4.218  12.518  1.6443  2.3066 -0.8185
    5TCq1    H2   82   2.939   4.225  12.408 -1.9510  1.0339 -1.0003
    5TCq1    H3   83   2.925   4.337  11.997  1.4462 -0.6971 -1.7045
    5TCq1    H4   84   3.216   4.049  12.136  0.4370 -0.5529  0.0498
    6MPD2     C   85   3.021   4.343  11.624 -1.2335 -0.3013  0.0587
    6MPD2    C1   86   3.098   4.256  11.697  0.4844  0.3915 -0.0551
    6MPD2    C2   87   3.203   4.191  11.635  0.7779  0.2173  0.0909
    6MPD2    C3   88   3.235   4.219  11.501 -0.6977  0.1797 -0.5778
    6MPD2    C4   89   3.156   4.306  11.429 -0.3487 -0.7560 -0.4442
    6MPD2    C5   90   3.052   4.370  11.491  0.3945 -0.3994  0.0790
    6MPD2     H   91   3.266   4.121  11.689  0.0151 -0.5698 -0.0504
    6MPD2    H1   92   3.169   4.322  11.323  0.2365  1.5903 -0.0229
    6MPD2    H2   93   2.934   4.393  11.665  0.2737  2.4036 -0.0406
    6MPD2    H3   94   2.984   4.438  11.440  0.8198  1.0711  1.4734
    6MPD2     N   95   3.344   4.156  11.444  0.1490  0.0025  0.6922
    6MPD2    H5   96   3.386   4.084  11.502  2.7036  1.3530  0.5136
    6MPD2    N1   97   3.067   4.241  11.829  0.2723  0.2992  0.1130
    6MPD2    H7   98   2.976   4.274  11.862  0.2842  0.5073 -0.0568
    7TCq1    O1   99   0.916   4.287  13.695  0.1337 -0.4665  0.0399
    7TCq1    C1  100   0.923   4.172  13.627 -0.3057 -0.5413 -0.6274
    7TCq1    O2  101   1.027   4.114  13.601  0.0351 -0.4397 -0.9479
    7TCq1    C2  102   0.807   4.093  13.655 -0.4556  0.4612  0.2888
    7TCq1    C3  103   0.722   4.121  13.759 -0.2165 -0.6828 -0.0871
    7TCq1    C4  104   0.625   4.030  13.798  0.3560  0.1862  0.5372
    7TCq1    C5  105   0.629   3.899  13.755 -0.6232  0.4000  0.0319
    7TCq1    C6  106   0.720   3.874  13.657 -0.5681  0.0320  0.0126
    7TCq1    C7  107   0.800   3.969  13.599 -1.0324 -0.3403  0.1881
    7TCq1    C8  108   0.735   3.735  13.618  0.2127  0.3135  0.3714
    7TCq1    O4  109   0.847   3.700  13.580  0.3034  0.3618  0.1542
    7TCq1    C9  110   0.539   4.060  13.916 -0.6956  0.2172  0.4016
    7TCq1    O5  111   0.438   3.986  13.941  0.0485 -0.2651  0.1263
    7TCq1    O6  112   0.567   4.161  13.980  0.1569 -0.3084 -0.4244
    7TCq1    H1  113   0.825   4.323  13.691  0.2738 -0.1957 -0.6998
    7TCq1    H2  114   0.728   4.213  13.816  1.8701 -1.9606  1.7582
    7TCq1    H3  115   0.581   3.823  13.816 -0.7172  1.8252  1.7459
    7TCq1    H4  116   0.886   3.943  13.538 -2.5497 -1.8784 -1.2987
    8MPD2     C  117   0.532   3.285  13.508 -0.7661 -0.2800 -0.0748
    8MPD2    C1  118   0.665   3.320  13.510 -0.5618  0.1028  0.3305
    8MPD2    C2  119   0.689   3.449  13.552 -0.3857  0.7645  0.4509
    8MPD2    C3  120   0.586   3.535  13.580 -0.1307 -0.3067  0.8597
    8MPD2    C4  121   0.458   3.495  13.572  0.2401  0.1118  0.6263
    8MPD2    C5  122   0.429   3.366  13.536 -0.1749  0.1060 -0.1917
    8MPD2     H  123   0.788   3.491  13.563  1.2065 -2.4233 -1.6851
    8MPD2    H1  124   0.376   3.557  13.605  1.0601  0.2664  2.3842
    8MPD2    H2  125   0.504   3.182  13.487 -0.3297 -0.3682 -0.2122
    8MPD2    H3  126   0.326   3.334  13.526 -0.4390  0.8767  0.0255
    8MPD2     N  127   0.612   3.670  13.618  0.5041 -0.5049  0.2450
    8MPD2    H5  128   0.530   3.727  13.640 -0.1408 -0.4180 -2.3849
    8MPD2    N1  129   0.767   3.232  13.484 -0.5879  0.1204 -0.1918
    8MPD2    H7  130   0.740   3.136  13.462 -1.5568  0.7424 -1.6655
    9TMC1    C1  131   2.990   3.215  11.860  0.3154  0.3157  0.0460
    9TMC1    C2  132   2.994   3.175  11.726  0.7213 -0.7270  0.5087
    9TMC1    C3  133   2.995   3.273  11.632 -0.7373 -0.9511  0.1451
    9TMC1    C4  134   2.979   3.343  11.897  0.2763  0.4315  0.0968
    9TMC1    C5  135   2.982   3.433  11.792  0.0868  0.3243  0.0445
    9TMC1    C6  136   2.982   3.403  11.661  0.5119  0.6777  0.0608
    9TMC1     C  137   3.004   3.119  11.975 -0.1157 -1.1954  0.6558
    9TMC1     O  138   2.936   3.144  12.073 -0.0675 -0.3828  0.3002
    9TMC1     H  139   3.010   3.073  11.691 -0.1257 -0.9128  0.6635
    9TMC1    H1  140   2.969   3.372  12.001 -0.8000  0.8509 -0.1272
    9TMC1    H2  141   3.014   3.480  11.591  1.2292  1.8154  1.6231
    9TMC1    C7  142   2.986   3.572  11.830 -0.6652 -0.2901 -0.7879
    9TMC1    C8  143   3.042   3.233  11.502  1.0146 -0.6141  0.7678
    9TMC1    O1  144   2.940   3.665  11.762  0.0809  0.0667 -0.3422
    9TMC1    O2  145   3.140   3.159  11.495 -0.2943  0.0839  0.6307
    9TMC1    O3  146   3.061   3.584  11.942 -0.4066  0.4628 -0.3431
    9TMC1    H3  147   3.118   3.506  11.960  0.5632  1.5139  1.1086
    9TMC1    O5  148   2.993   3.317  11.405 -0.1656 -0.0289 -0.5606
    9TMC1    H5  149   2.923   3.373  11.444  1.3537  0.9730  0.7065
   10MPD2     C  150   3.116   2.916  12.164 -0.3962  0.2113  0.4912
   10MPD2    C1  151   3.145   2.910  12.029  0.2303  0.5627 -0.1894
   10MPD2    C2  152   3.235   2.814  11.980 -0.4156 -0.2302 -0.5165
   10MPD2    C3  153   3.288   2.717  12.065  0.0151  0.7156  0.3233
   10MPD2    C4  154   3.266   2.728  12.205 -0.2465  0.2601  0.2285
   10MPD2    C5  155   3.182   2.833  12.248  0.3918 -0.3207 -0.1226
   10MPD2     H  156   3.254   2.817  11.874  1.9839 -1.6595 -0.1391
   10MPD2    H1  157   3.325   2.666  12.271 -1.6074 -1.2439  0.0267
   10MPD2    H2  158   3.067   2.998  12.216 -2.4016 -0.7033  0.0818
   10MPD2    H3  159   3.173   2.833  12.356  1.1075  0.8173 -0.0725
   10MPD2     N  160   3.377   2.617  12.020 -0.0207 -0.2828  0.5476
   10MPD2    H5  161   3.416   2.558  12.093 -1.4102 -1.3760  0.3998
   10MPD2    N1  162   3.096   3.020  11.948  0.2511  0.0377  0.2182
   10MPD2    H7  163   3.133   3.020  11.854 -1.8790  0.4503 -0.6241
   11TCq1    O1  164   3.849   2.218  14.544  0.4113 -0.2905 -0.0658
   11TCq1    C1  165   3.776   2.178  14.439 -0.0545 -0.4524 -0.7862
   11TCq1    O2  166   3.740   2.259  14.350  0.1793  0.2146  0.7221
   11TCq1    C2  167   3.760   2.039  14.425  0.6718 -0.1561  0.1054
   11TCq1    C3  168   3.871   1.963  14.465  0.5477 -0.0675 -0.5744
   11TCq1    C4  169   3.885   1.841  14.412 -0.3033 -0.2603 -0.3528
   11TCq1    C5  170   3.788   1.795  14.317 -0.2068  0.1143  0.6592
   11TCq1    C6  171   3.685   1.869  14.274  0.5796  0.0614  0.1362
   11TCq1    C7  172   3.665   1.989  14.338 -0.1227  0.4685 -0.6814
   11TCq1    C8  173   3.596   1.830  14.168  0.2616 -0.0729 -0.7129
   11TCq1    O4  174   3.507   1.911  14.142 -0.6273 -0.1021 -0.0276
   11TCq1    C9  175   4.001   1.752  14.447  0.3187  0.0282  0.1152
   11TCq1    O5  176   4.095   1.802  14.513 -0.0749 -0.1565  0.5004
   11TCq1    O6  177   4.002   1.636  14.395  0.2391  0.0939 -0.1853
   11TCq1    H1  178   3.847   2.152  14.616  0.4130 -0.5916 -0.3379
   11TCq1    H2  179   3.953   2.005  14.521 -0.3293  1.5855 -0.5223
   11TCq1    H3  180   3.799   1.690  14.293 -0.0861  0.1623  0.5112
   11TCq1    H4  181   3.589   2.057  14.301  1.8337  2.3307 -1.3021
   12MPD2     C  182   3.476   1.690  13.931 -0.2151  0.7353  0.0048
   12MPD2    C1  183   3.599   1.660  13.987 -0.3234 -0.0757  0.6352
   12MPD2    C2  184   3.671   1.550  13.943 -0.3985  0.6361  0.8516
   12MPD2    C3  185   3.624   1.475  13.835  0.0345  0.0139  0.4535
   12MPD2    C4  186   3.503   1.511  13.780  0.0603 -0.1516 -0.0108
   12MPD2    C5  187   3.441   1.623  13.823  0.1710 -0.1285 -0.0405
   12MPD2     H  188   3.774   1.539  13.977  0.0479 -0.6537 -0.9397
   12MPD2    H1  189   3.459   1.470  13.690  0.1757  2.2464 -1.1613
   12MPD2    H2  190   3.420   1.778  13.961 -2.2259 -1.1771  1.7791
   12MPD2    H3  191   3.353   1.654  13.768  1.2068  1.2930 -0.9101
   12MPD2     N  192   3.692   1.362  13.780  0.3152 -0.0171 -0.7647
   12MPD2    H5  193   3.648   1.312  13.704 -1.6812  0.0103  0.3886
   12MPD2    N1  194   3.647   1.726  14.103 -0.3731 -0.4907 -0.2176
   12MPD2    H7  195   3.726   1.671  14.136  0.4329  0.2964 -0.8412
   13TCq1    O1  196   4.151   3.047  11.936  0.2036  0.3233  0.5585
   13TCq1    C1  197   4.027   3.021  11.891  0.7070 -0.3272  0.5747
   13TCq1    O2  198   3.920   3.081  11.908  0.1475  0.0671  0.0700
   13TCq1    C2  199   4.020   2.878  11.862 -0.7256  0.5339 -0.4332
   13TCq1    C3  200   4.114   2.781  11.907  0.0377 -0.4466 -0.4562
   13TCq1    C4  201   4.116   2.650  11.864  0.0363  0.2996  0.2073
   13TCq1    C5  202   4.017   2.615  11.785  0.0853  0.6103  0.4422
   13TCq1    C6  203   3.921   2.708  11.735 -0.0733  0.2482  0.0908
   13TCq1    C7  204   3.916   2.836  11.777 -0.4342 -0.3116 -0.8364
   13TCq1    C8  205   3.806   2.650  11.674  0.3578  0.5081 -0.0533
   13TCq1    O4  206   3.705   2.720  11.678 -0.1774  0.3230  0.0997
   13TCq1    C9  207   4.210   2.557  11.929  0.1567 -0.1386  0.2233
   13TCq1    O5  208   4.280   2.594  12.030  0.2778  0.3478  0.3772
   13TCq1    O6  209   4.193   2.435  11.895 -0.0794 -0.3217 -0.2964
   13TCq1    H1  210   4.198   2.982  11.880 -1.2395  0.1382 -0.4562
   13TCq1    H2  211   4.198   2.806  11.971 -0.3531  0.0665 -0.1439
   13TCq1    H3  212   4.020   2.510  11.760  0.8946  1.0045 -1.1036
   13TCq1    H4  213   3.841   2.908  11.745 -2.0507 -1.5549  0.1724
   14MPD2     C  214   3.766   2.309  11.543  0.3775  0.0984  0.3599
   14MPD2    C1  215   3.720   2.434  11.585  0.1489  0.2418  0.3590
   14MPD2    C2  216   3.584   2.462  11.580 -0.3669 -0.2164  0.3502
   14MPD2    C3  217   3.491   2.361  11.554  0.4331  0.2834  0.6051
   14MPD2    C4  218   3.541   2.239  11.525 -0.0282 -0.1788  0.4143
   14MPD2    C5  219   3.676   2.209  11.515  0.1605  0.4775 -0.4440
   14MPD2     H  220   3.543   2.560  11.602  2.7432  1.2799 -0.5582
   14MPD2    H1  221   3.482   2.154  11.495 -1.5362  0.9277  0.2281
   14MPD2    H2  222   3.870   2.281  11.555  0.2506 -0.2679  0.6070
   14MPD2    H3  223   3.706   2.109  11.485  0.4475  0.8428 -1.3921
   14MPD2     N  224   3.351   2.391  11.559 -0.0178  1.0190 -0.1511
   14MPD2    H5  225   3.332   2.479  11.605 -0.0992  0.7922  0.2470
   14MPD2    N1  226   3.820   2.525  11.619  0.2432 -0.1232 -0.2601
   14MPD2    H7  227   3.916   2.492  11.617  0.5019  0.8004 -2.9453
   15TCq1    O1  228   0.546   1.219   2.215  0.5249 -0.0900 -0.5603
   15TCq1    C1  229   0.502   1.171   2.095 -0.2030  0.1174 -0.1638
   15TCq1    O2  230   0.438   1.233   2.013  0.3076  0.2533 -0.3522
   15TCq1    C2  231   0.604   1.066   2.064  0.2332 -0.1337  0.4134
   15TCq1    C3  232   0.616   0.963   2.152 -0.0600 -0.3977 -0.7852
   15TCq1    C4  233   0.696   0.862   2.113 -0.5071 -0.2526 -0.0589
   15TCq1    C5  234   0.763   0.872   1.993 -0.0970 -0.1094  0.0186
   15TCq1    C6  235   0.752   0.977   1.910  0.7377 -0.5141  0.4427
   15TCq1    C7  236   0.663   1.072   1.942 -0.1033  0.1483  0.0600
   15TCq1    C8  237   0.786   0.950   1.772  0.2992  0.9250  0.3583
   15TCq1    O4  238   0.865   0.857   1.755 -0.4332 -0.0822  0.2406
   15TCq1    C9  239   0.714   0.749   2.200 -0.1495  0.0768  0.2438
   15TCq1    O5  240   0.633   0.726   2.295  0.1053 -0.5345  0.2638
   15TCq1    O6  241   0.814   0.671   2.183  0.1234  0.5084  0.1020
   15TCq1    H1  242   0.625   1.168   2.243  1.8548  2.1068 -0.2229
   15TCq1    H2  243   0.573   0.961   2.252 -0.6747  0.3941 -1.0358
   15TCq1    H3  244   0.811   0.778   1.968  0.0916  0.0195 -0.1035
   15TCq1    H4  245   0.651   1.160   1.879  0.1827  1.3262  1.6527
   16MPD2     C  246   0.677   1.130   1.463  0.3507  0.0671  0.2923
   16MPD2    C1  247   0.739   1.032   1.543 -0.6879 -0.5652 -0.5306
   16MPD2    C2  248   0.820   0.941   1.480  0.4937 -0.2276 -1.1164
   16MPD2    C3  249   0.842   0.938   1.343  0.4173 -0.0222  0.2552
   16MPD2    C4  250   0.785   1.038   1.269 -0.7140 -0.3832  0.5591
   16MPD2    C5  251   0.698   1.131   1.330  0.1731 -0.0597  0.1087
   16MPD2     H  252   0.890   0.876   1.531 -1.8280 -1.6585  0.2714
   16MPD2    H1  253   0.807   1.048   1.163 -0.4946  1.4295  0.7749
   16MPD2    H2  254   0.594   1.185   1.504 -0.9516 -1.1401 -0.7472
   16MPD2    H3  255   0.651   1.204   1.265 -1.4180 -0.8280  0.3971
   16MPD2     N  256   0.928   0.836   1.280  0.2820  0.5463 -0.0964
   16MPD2    H5  257   0.988   0.781   1.341 -1.2778 -0.9316  0.1106
   16MPD2    N1  258   0.725   1.035   1.682  0.2100  0.1587  0.3728
   16MPD2    H7  259   0.656   1.099   1.719  0.1054  0.1989  0.1059
   17TMC1    C1  260   4.178   2.021  11.617  0.1319 -0.4657 -0.0149
   17TMC1    C2  261   4.067   2.052  11.689  0.3860 -0.4397  0.5481
   17TMC1    C3  262   4.081   2.114  11.810 -0.2152 -0.1516 -0.0474
   17TMC1    C4  263   4.301   2.060  11.664 -0.0981  0.7081  0.0781
   17TMC1    C5  264   4.310   2.126  11.784 -0.1011  0.3731 -0.5902
   17TMC1    C6  265   4.202   2.150  11.863 -0.5281 -0.3040 -0.1156
   17TMC1     C  266   4.170   1.971  11.479 -0.2351  0.4140  0.7817
   17TMC1     O  267   4.263   2.006  11.410  0.3197  0.2973 -0.3454
   17TMC1     H  268   3.968   2.052  11.646 -0.1366  0.9883  1.7482
   17TMC1    H1  269   4.394   2.043  11.611 -1.1017 -0.1329 -1.4177
   17TMC1    H2  270   4.225   2.191  11.960  1.2190  2.1178 -1.5417
   17TMC1    C7  271   4.440   2.181  11.819 -0.1040 -0.3253 -0.6068
   17TMC1    C8  272   3.962   2.167  11.873  1.3538 -0.2843  0.1734
   17TMC1    O1  273   4.548   2.128  11.791  0.1539 -0.3196 -0.2895
   17TMC1    O2  274   3.848   2.141  11.839  0.0226 -0.3551  0.3669
   17TMC1    O3  275   4.423   2.316  11.828  0.4482 -0.1667  0.3101
   17TMC1    H3  276   4.329   2.343  11.832  0.3787 -0.0921 -2.0036
   17TMC1    O5  277   3.993   2.279  11.937  0.1603 -0.1066 -0.6844
   17TMC1    H5  278   4.074   2.320  11.901 -0.4132 -0.0993 -1.9765
   18MPD2     C  279   4.144   1.823  11.225 -0.2040  1.1016 -0.2289
   18MPD2    C1  280   4.055   1.819  11.330  0.1467  0.1560  0.4355
   18MPD2    C2  281   3.947   1.746  11.315  0.2120  0.2849 -0.2362
   18MPD2    C3  282   3.930   1.660  11.206  0.2707 -0.2330  0.7552
   18MPD2    C4  283   4.014   1.661  11.101 -0.2207 -0.4531  0.4996
   18MPD2    C5  284   4.119   1.746  11.113  0.5496 -0.5382 -0.5650
   18MPD2     H  285   3.877   1.742  11.398  0.9701  0.9091  0.4341
   18MPD2    H1  286   4.002   1.605  11.009 -0.8783  1.5226 -0.6168
   18MPD2    H2  287   4.229   1.889  11.221 -0.2942  1.0874 -2.1097
   18MPD2    H3  288   4.181   1.751  11.024  0.8908 -0.5079 -0.3259
   18MPD2     N  289   3.805   1.590  11.206  0.5869  0.1453 -0.3856
   18MPD2    H5  290   3.745   1.598  11.288  1.2083  0.8421 -0.0093
   18MPD2    N1  291   4.064   1.898  11.445 -0.4584 -0.8072  0.2674
   18MPD2    H7  292   4.000   1.879  11.522  1.8647 -2.1077  1.8983
   19TMC2    C1  293   0.363   1.911  14.430  0.0854 -0.0809 -0.1963
   19TMC2    C2  294   0.304   2.019  14.373 -1.0204  1.2210  0.1144
   19TMC2    C3  295   0.202   2.006  14.284 -0.4695  0.0102  0.0095
   19TMC2    C4  296   0.324   1.786  14.393 -0.0715 -0.3779 -0.0977
   19TMC2    C5  297   0.223   1.771  14.304 -0.2402 -0.3038  0.0958
   19TMC2    C6  298   0.151   1.881  14.263 -0.0153  0.4213 -0.1407
   19TMC2     C  299   0.494   1.935  14.499 -0.6927 -0.7917  0.2656
   19TMC2     O  300   0.525   2.051  14.523 -0.1148 -0.1214  0.4209
   19TMC2     H  301   0.337   2.119  14.400  0.1377  0.9900 -0.4295
   19TMC2    H1  302   0.363   1.698  14.444  1.2306  0.0698 -0.3107
   19TMC2    H2  303   0.050   1.859  14.230  0.6000 -1.1965 -0.9779
   19TMC2    C7  304   0.168   1.636  14.287 -0.0262  0.7278 -0.1777
   19TMC2    C8  305   0.116   2.120  14.281 -0.2885  0.1563 -0.2581
   19TMC2    O1  306   0.224   1.548  14.353  0.3844 -0.6268 -0.2331
   19TMC2    O2  307   0.130   2.217  14.355 -0.4374  0.0378  0.0927
   19TMC2    O5  308   0.027   2.107  14.183  0.2330  0.5039 -0.3298
   19TMC2    H5  309   0.040   2.036  14.117  0.2444  0.2074 -0.0080
   20MPD2     C  310   0.760   1.918  14.634 -0.7850 -0.8179 -0.0095
   20MPD2    C1  311   0.693   1.809  14.582  0.1406 -0.2160 -0.8214
   20MPD2    C2  312   0.757   1.687  14.595  0.0834 -0.1108  0.4891
   20MPD2    C3  313   0.882   1.670  14.653  0.3730 -0.2772  0.1809
   20MPD2    C4  314   0.943   1.781  14.713 -0.9692 -0.0972  0.0730
   20MPD2    C5  315   0.876   1.899  14.704  0.1591  0.6602 -0.0993
   20MPD2     H  316   0.720   1.601  14.540 -0.4259  1.7492 -2.0086
   20MPD2    H1  317   1.041   1.771  14.759  0.5781  0.0240 -3.1901
   20MPD2    H2  318   0.717   2.017  14.625 -2.1720 -1.1464  3.1110
   20MPD2    H3  319   0.911   1.989  14.753 -0.5072  1.4050 -1.0034
   20MPD2     N  320   0.940   1.546  14.674  0.2164  0.6562  0.6180
   20MPD2    H5  321   1.030   1.552  14.720  1.1183  0.9975 -1.1912
   20MPD2    N1  322   0.570   1.818  14.516  1.0342 -0.3637  0.1605
   20MPD2    H7  323   0.530   1.735  14.473  1.3645 -0.8839  0.8723
   21TMC2    C1  324   2.380   1.476  14.788 -0.2373 -0.4973  0.4108
   21TMC2    C2  325   2.428   1.391  14.879 -0.0354  0.0780  0.3692
   21TMC2    C3  326   2.402   1.431  15.009  0.0974  0.4229 -0.2016
   21TMC2    C4  327   2.294   1.585  14.815 -0.1298  0.1652 -0.6545
   21TMC2    C5  328   2.265   1.616  14.943 -0.8545  0.2862  0.2472
   21TMC2    C6  329   2.326   1.545  15.041 -0.5913 -0.2543 -0.0593
   21TMC2     C  330   2.436   1.451  14.659 -0.0169  0.1656 -0.5549
   21TMC2     O  331   2.548   1.391  14.660  0.2063  0.4209  0.0405
   21TMC2     H  332   2.488   1.304  14.853  0.2520 -0.2061  1.9539
   21TMC2    H1  333   2.264   1.650  14.733 -2.5372 -1.7234 -1.2771
   21TMC2    H2  334   2.314   1.587  15.141  0.2954  1.2168 -0.5617
   21TMC2    C7  335   2.241   1.756  14.977  0.1992  0.4654 -0.1985
   21TMC2    C8  336   2.450   1.356  15.125 -0.1564  0.1578 -0.1773
   21TMC2    O1  337   2.301   1.808  15.073  0.6710  0.0705 -0.5176
   21TMC2    O2  338   2.464   1.408  15.234  0.7512  0.1253  0.1642
   21TMC2    O5  339   2.473   1.228  15.094 -0.0816  0.0419  0.6778
   21TMC2    H5  340   2.446   1.211  15.001  5.4985  0.1347 -0.9226
   22MPD2     C  341   2.444   1.397  14.163 -0.7073 -0.2021 -0.2315
   22MPD2    C1  342   2.551   1.412  14.248 -0.5115 -0.4227  0.7268
   22MPD2    C2  343   2.521   1.447  14.377  0.7058 -0.6869  0.0641
   22MPD2    C3  344   2.389   1.452  14.426 -0.0501 -0.1620 -0.8307
   22MPD2    C4  345   2.285   1.437  14.335  0.0580 -0.4525  0.3774
   22MPD2    C5  346   2.312   1.421  14.200  0.0869 -0.1147  0.2236
   22MPD2     H  347   2.601   1.460  14.449 -1.0911 -0.4796  2.0203
   22MPD2    H1  348   2.180   1.434  14.363  0.2890 -0.2291  1.2567
   22MPD2    H2  349   2.458   1.379  14.057 -0.3794  0.6781 -0.3332
   22MPD2    H3  350   2.232   1.419  14.127  1.4228 -1.1595 -1.2231
   22MPD2     N  351   2.349   1.474  14.562  0.2654 -0.3547  0.1893
   22MPD2    H5  352   2.252   1.489  14.587  0.6900  0.1265  1.5645
   22MPD2    N1  353   2.685   1.418  14.201  0.5068 -0.3491  0.2243
   22MPD2    H7  354   2.754   1.459  14.263  0.7295 -2.5019  1.4012
   23TMC2    C1  355   4.004   3.141  14.671  0.2396 -0.3871  0.0231
   23TMC2    C2  356   4.014   3.280  14.662 -0.3837  0.0691 -0.3166
   23TMC2    C3  357   3.933   3.346  14.567 -0.0033  0.3267 -0.6768
   23TMC2    C4  358   3.908   3.069  14.597  0.1922  0.1873  0.1926
   23TMC2    C5  359   3.829   3.140  14.513 -0.6020 -0.5634 -1.0565
   23TMC2    C6  360   3.834   3.281  14.497 -0.4162  0.2808  0.5553
   23TMC2     C  361   4.061   3.078  14.790  0.5035  0.2807  0.2766
   23TMC2     O  362   4.007   2.979  14.837 -0.5659  0.1847  0.2754
   23TMC2     H  363   4.085   3.341  14.718  0.0665 -0.2771 -0.5184
   23TMC2    H1  364   3.903   2.962  14.613 -0.9335  0.1136 -0.5951
   23TMC2    H2  365   3.783   3.335  14.418  2.6364 -0.6180 -2.0484
   23TMC2    C7  366   3.726   3.065  14.440 -0.2352 -0.4255 -0.5669
   23TMC2    C8  367   3.948   3.483  14.545 -0.0916  0.0881  0.4944
   23TMC2    O1  368   3.740   2.944  14.449  0.1983  0.4436  0.1094
   23TMC2    O2  369   3.951   3.531  14.434 -0.1045  0.2618 -0.2841
   23TMC2    O5  370   3.995   3.545  14.647  0.4371 -0.1491  0.4150
   23TMC2    H5  371   3.994   3.495  14.731  0.9983 -2.6713 -1.0902
   24MPD2     C  372   4.415   3.079  15.158  0.7084  0.2671  0.3217
   24MPD2    C1  373   4.294   3.030  15.161  0.0757 -0.0027 -0.8607
   24MPD2    C2  374   4.214   3.036  15.048  0.1558  0.6645 -0.3931
   24MPD2    C3  375   4.264   3.099  14.930  0.7286 -0.0182  0.3481
   24MPD2    C4  376   4.391   3.142  14.929  0.9820 -0.4313  0.5894
   24MPD2    C5  377   4.468   3.128  15.038 -0.6103 -0.1990 -0.2640
   24MPD2     H  378   4.112   3.000  15.046  0.0750  0.8814 -0.2129
   24MPD2    H1  379   4.433   3.188  14.841  0.6493 -1.5688 -0.1643
   24MPD2    H2  380   4.491   3.077  15.235 -0.9516  0.4580  1.9692
   24MPD2    H3  381   4.574   3.149  15.028 -0.6726 -0.0503 -0.6201
   24MPD2     N  382   4.186   3.123  14.817  0.1746  0.2488 -0.0360
   24MPD2    H5  383   4.224   3.186  14.746 -0.6176  1.7667  0.8816
   24MPD2    N1  384   4.237   2.969  15.275 -0.4710  0.3873 -0.2921
   24MPD2    H7  385   4.146   2.925  15.266 -1.1774  1.7030  0.3383
   25TMC2    C1  386   3.083   1.142  11.348 -0.0785  0.0800 -0.2358
   25TMC2    C2  387   3.174   1.241  11.383  0.2829 -0.1340 -0.3126
   25TMC2    C3  388   3.184   1.268  11.519  0.5246  0.2543  0.9667
   25TMC2    C4  389   2.989   1.094  11.435 -0.7593  0.1446  0.0125
   25TMC2    C5  390   3.007   1.114  11.566  0.1196  0.3430  0.0026
   25TMC2    C6  391   3.108   1.198  11.607  1.4349  0.2423 -0.0098
   25TMC2     C  392   3.082   1.098  11.212  0.1565  0.2379 -0.4518
   25TMC2     O  393   3.142   1.170  11.137 -0.4994  0.3391 -0.2178
   25TMC2     H  394   3.251   1.271  11.313 -0.1247  0.2700 -0.5933
   25TMC2    H1  395   2.901   1.038  11.406 -0.0984 -0.9580  0.1202
   25TMC2    H2  396   3.131   1.209  11.712 -0.4982  1.8746  0.2396
   25TMC2    C7  397   2.949   1.022  11.660  0.3878 -0.1459 -0.1603
   25TMC2    C8  398   3.313   1.314  11.568 -0.5817  0.5983 -0.3806
   25TMC2    O1  399   2.925   1.072  11.770  0.0889  0.4445 -0.1976
   25TMC2    O2  400   3.351   1.289  11.682 -0.3398 -0.1029  0.0134
   25TMC2    O5  401   3.372   1.391  11.472  0.4390 -0.0395 -0.2084
   25TMC2    H5  402   3.310   1.408  11.398 -0.0406 -1.1569 -0.0640
   26MPD2     C  403   2.821   0.844  10.849 -0.8511 -0.2301 -0.0105
   26MPD2    C1  404   2.789   0.794  10.970 -0.2804  1.0606 -1.0748
   26MPD2    C2  405   2.844   0.851  11.081  0.1268  0.4768  0.5606
   26MPD2    C3  406   2.940   0.946  11.077  0.2131 -0.1608 -1.2140
   26MPD2    C4  407   2.980   0.991  10.952  0.1698  0.3143 -0.1294
   26MPD2    C5  408   2.912   0.949  10.838  0.5659  0.3289  0.4520
   26MPD2     H  409   2.816   0.815  11.179 -3.2633  0.4752 -0.3888
   26MPD2    H1  410   3.065   1.058  10.945  1.2787 -0.8223  2.0893
   26MPD2    H2  411   2.780   0.817  10.753  0.2450  2.0838 -1.1276
   26MPD2    H3  412   2.943   0.977  10.737 -0.6308  0.4868  0.1293
   26MPD2     N  413   2.996   0.993  11.195 -0.2122 -0.2659  0.5355
   26MPD2    H5  414   2.960   0.952  11.281  1.4152 -2.7610  0.0227
   26MPD2    N1  415   2.698   0.686  10.972 -0.0066  0.2581  0.1469
   26MPD2    H7  416   2.669   0.658  10.879  0.4656  0.3930 -0.0376
   27TMC2    C1  417   2.168   2.911  12.285  0.5706 -0.3766  0.1196
   27TMC2    C2  418   2.137   3.042  12.265  0.0447 -0.5719 -0.8339
   27TMC2    C3  419   2.241   3.131  12.277  0.2281  0.0233 -0.1138
   27TMC2    C4  420   2.300   2.866  12.311  0.1699 -0.2775 -0.2397
   27TMC2    C5  421   2.395   2.961  12.337 -0.3410 -0.1267 -0.4977
   27TMC2    C6  422   2.361   3.093  12.331 -0.1423  0.3331  0.0858
   27TMC2     C  423   2.078   2.820  12.218  0.3229  0.4351  1.1456
   27TMC2     O  424   2.113   2.717  12.161  0.0078 -0.1420  0.1544
   27TMC2     H  425   2.038   3.071  12.233 -0.8767 -0.8593  1.7066
   27TMC2    H1  426   2.321   2.760  12.314 -0.6790 -0.3771  1.8351
   27TMC2    H2  427   2.435   3.171  12.347  0.4737 -0.3791  0.7042
   27TMC2    C7  428   2.523   2.911  12.388  0.3569  0.4574  0.5492
   27TMC2    C8  429   2.211   3.272  12.272 -0.3994  0.8077  0.3723
   27TMC2    O1  430   2.525   2.792  12.391 -0.2646  0.1708  0.2856
   27TMC2    O2  431   2.109   3.307  12.207  0.2083 -0.5855  0.3877
   27TMC2    O5  432   2.257   3.322  12.388 -0.2506  0.3708 -0.0249
   27TMC2    H5  433   2.313   3.256  12.435 -1.1549 -0.4933 -0.1701
   28MPD2     C  434   1.583   2.690  12.162 -0.9797 -0.1278 -0.5581
   28MPD2    C1  435   1.588   2.801  12.246 -0.7354 -0.2598 -0.0686
   28MPD2    C2  436   1.715   2.847  12.277 -0.4927  0.0713  0.1311
   28MPD2    C3  437   1.832   2.789  12.220  0.0377 -0.6090  0.1722
   28MPD2    C4  438   1.819   2.675  12.138  0.0586 -0.2649 -0.3666
   28MPD2    C5  439   1.694   2.630  12.113  0.2215  0.1331 -0.1326
   28MPD2     H  440   1.727   2.936  12.338  0.3473  0.7837 -1.0739
   28MPD2    H1  441   1.904   2.621  12.098  0.6961 -0.1532  0.8034
   28MPD2    H2  442   1.486   2.649  12.137 -1.6437  1.7510 -1.0976
   28MPD2    H3  443   1.683   2.550  12.041 -0.5200  1.5016 -1.5154
   28MPD2     N  444   1.955   2.849  12.263  0.5351  0.3815 -0.3710
   28MPD2    H5  445   1.939   2.926  12.328  1.5761  0.0168  0.3200
   28MPD2    N1  446   1.469   2.859  12.290  0.1809 -0.0785  0.5025
   28MPD2    H7  447   1.387   2.801  12.271  2.2035 -2.7147 -0.1458
   29TMC2    C1  448   1.219   0.361  14.688 -0.1741  0.6179  1.0156
   29TMC2    C2  449   1.283   0.354  14.809 -0.4368 -0.8136  0.1809
   29TMC2    C3  450   1.325   0.474  14.860  0.5014 -0.0421 -0.3446
   29TMC2    C4  451   1.168   0.479  14.637 -0.3690  0.2645 -0.3261
   29TMC2    C5  452   1.201   0.588  14.702 -0.2000  0.5796 -0.4424
   29TMC2    C6  453   1.282   0.590  14.817 -0.6546  0.1657 -0.8818
   29TMC2     C  454   1.201   0.236  14.614  0.0098 -0.6856 -0.8394
   29TMC2     O  455   1.227   0.132  14.675 -0.7340  0.0863  0.1885
   29TMC2     H  456   1.327   0.265  14.853  1.3794 -0.0391 -0.0510
   29TMC2    H1  457   1.111   0.486  14.544  0.3549 -0.7299 -0.8499
   29TMC2    H2  458   1.296   0.682  14.872 -0.2846 -0.6941  0.4603
   29TMC2    C7  459   1.183   0.711  14.641 -0.5550 -0.5514  0.2544
   29TMC2    C8  460   1.361   0.475  14.998  0.2696 -0.4654 -0.6302
   29TMC2    O1  461   1.085   0.727  14.569  0.2461 -0.1676 -0.0635
   29TMC2    O2  462   1.433   0.568  15.037  0.1280  0.3648  0.4464
   29TMC2    O5  463   1.248   0.426  15.059 -0.5118  0.7448 -0.3715
   29TMC2    H5  464   1.181   0.374  15.008 -2.4129  1.1317  1.7291
   30MPD2     C  465   0.961   4.713  14.229 -0.2093  0.4146  0.1945
   30MPD2    C1  466   1.039   4.662  14.329  0.4139 -0.1227  0.3609
   30MPD2    C2  467   1.096   0.015  14.423  0.0120 -0.2554 -0.2283
   30MPD2    C3  468   1.086   0.154  14.404  0.1170  0.3046 -0.1067
   30MPD2    C4  469   1.007   0.198  14.299  0.8526  0.0585  0.5539
   30MPD2    C5  470   0.945   0.114  14.215 -0.4209 -0.0940  0.8561
   30MPD2     H  471   1.148   4.711  14.509 -0.5846  0.3195  0.4006
   30MPD2    H1  472   0.986   0.301  14.273  0.7010  0.0019  0.4528
   30MPD2    H2  473   0.910   4.648  14.158  1.1735  1.3645 -1.6613
   30MPD2    H3  474   0.887   0.139  14.127  0.5311  1.8739  0.7820
   30MPD2     N  475   1.139   0.253  14.493 -0.0119  0.2574 -0.0885
   30MPD2    H5  476   1.128   0.350  14.466  1.7130  0.1055 -1.2882
   30MPD2    N1  477   1.055   4.526  14.346  0.8011  0.2725  0.1573
   30MPD2    H7  478   1.133   4.501  14.407  1.1868  0.5828 -0.2107
   31TMC2    C1  479   3.444   3.700  15.331 -0.3265 -0.2267 -0.3510
   31TMC2    C2  480   3.305   3.693  15.332  0.4199 -0.3132 -0.2313
   31TMC2    C3  481   3.234   3.610  15.419  0.5747  0.5589 -0.7299
   31TMC2    C4  482   3.518   3.620  15.416  0.2733  0.5963 -0.2005
   31TMC2    C5  483   3.448   3.546  15.509  0.1437 -0.1266 -0.6891
   31TMC2    C6  484   3.310   3.537  15.510  0.5437  0.0358 -0.4232
   31TMC2     C  485   3.505   3.776  15.230 -0.4514 -0.3302  0.1032
   31TMC2     O  486   3.430   3.829  15.150 -0.3449  0.3676 -0.0875
   31TMC2     H  487   3.251   3.741  15.250  2.2220  2.5713  0.2770
   31TMC2    H1  488   3.626   3.613  15.422  0.2177  2.3832  3.0457
   31TMC2    H2  489   3.257   3.478  15.583 -0.6226  1.5967 -0.0010
   31TMC2    C7  490   3.505   3.498  15.627 -0.4585  0.0105  0.0863
   31TMC2    C8  491   3.099   3.640  15.463  0.1646 -0.2518  0.5508
   31TMC2    O1  492   3.624   3.480  15.619 -0.2278 -0.3946 -0.2521
   31TMC2    O2  493   3.071   3.628  15.586  0.3293  0.2865 -0.2409
   31TMC2    O5  494   3.057   3.741  15.388 -0.8109  0.1978 -0.4184
   31TMC2    H5  495   3.078   3.726  15.294 -1.1180  1.6784 -0.7303
   32MPD2     C  496   3.920   3.915  14.946  0.0284 -0.7641 -0.6724
   32MPD2    C1  497   3.789   3.952  14.945  0.1239 -0.5698  0.2117
   32MPD2    C2  498   3.694   3.903  15.039 -0.2091 -0.3249 -0.8826
   32MPD2    C3  499   3.730   3.811  15.137 -0.0283 -0.2601  0.1310
   32MPD2    C4  500   3.867   3.779  15.145  0.4346  0.1846 -0.1268
   32MPD2    C5  501   3.955   3.828  15.049  0.0745 -0.4103 -0.2394
   32MPD2     H  502   3.591   3.938  15.035 -0.1223  0.0212 -0.1341
   32MPD2    H1  503   3.911   3.709  15.215 -0.4347  0.4514  0.6907
   32MPD2    H2  504   3.987   3.949  14.868  0.1872 -2.2258 -1.1767
   32MPD2    H3  505   4.059   3.796  15.054  0.2499  0.3560  1.1221
   32MPD2     N  506   3.641   3.762  15.230 -0.3854  0.1416 -0.1947
   32MPD2    H5  507   3.685   3.702  15.299 -1.3985 -1.7869 -1.2585
   32MPD2    N1  508   3.755   4.043  14.840  0.0973  0.3689  0.3828
   32MPD2    H7  509   3.828   4.067  14.774  1.8248 -0.6948  1.9218
   33TMC2    C1  510   3.201   1.769  10.292 -0.7695 -0.0651  0.2441
   33TMC2    C2  511   3.078   1.784  10.234  0.2765  0.6921 -0.3415
   33TMC2    C3  512   3.042   1.903  10.176  0.3833 -0.2539  0.3867
   33TMC2    C4  513   3.287   1.874  10.304 -0.1487 -0.2113 -0.0301
   33TMC2    C5  514   3.255   1.990  10.241  0.2486  0.1089 -0.2195
   33TMC2    C6  515   3.129   2.013  10.183  0.1121  0.5749  0.5125
   33TMC2     C  516   3.224   1.661  10.396  0.0191  1.6823  0.1143
   33TMC2     O  517   3.336   1.644  10.441  0.0667  0.4279  0.1613
   33TMC2     H  518   3.009   1.700  10.237  0.6702  0.3688 -0.2884
   33TMC2    H1  519   3.381   1.872  10.356 -0.9873  0.3630  1.4965
   33TMC2    H2  520   3.108   2.110  10.140  1.0112  0.5134 -0.0580
   33TMC2    C7  521   3.354   2.089  10.261  0.2560  0.2292  0.4700
   33TMC2    C8  522   2.919   1.901  10.093 -0.0770 -0.5453 -0.1105
   33TMC2    O1  523   3.460   2.063  10.320 -0.5019 -0.5623  0.0756
   33TMC2    O2  524   2.857   1.799  10.060 -0.0447 -0.2510 -0.0660
   33TMC2    O5  525   2.887   2.027  10.061  0.3065 -0.3287  0.5212
   33TMC2    H5  526   2.902   2.098  10.126  2.5113  0.5361 -0.9328
   34MPD2     C  527   3.101   1.269  10.682 -0.6698  0.3305  0.0061
   34MPD2    C1  528   3.184   1.375  10.706 -0.1329 -0.7135 -0.1617
   34MPD2    C2  529   3.190   1.478  10.613 -0.1727 -0.5367  0.1804
   34MPD2    C3  530   3.121   1.464  10.492 -0.0238  0.9048  0.3081
   34MPD2    C4  531   3.040   1.353  10.475  0.5698  0.7229  0.1954
   34MPD2    C5  532   3.018   1.264  10.570  0.5270 -0.1695  0.8689
   34MPD2     H  533   3.239   1.564  10.657  0.6804 -0.8006 -0.2623
   34MPD2    H1  534   2.980   1.340  10.385  1.3316  1.9427 -0.4976
   34MPD2    H2  535   3.092   1.184  10.748  0.4509  0.8890  0.8916
   34MPD2    H3  536   2.935   1.195  10.561  1.1089 -0.8132  0.4588
   34MPD2     N  537   3.124   1.563  10.399 -0.0980 -0.0194 -0.2778
   34MPD2    H5  538   3.047   1.579  10.335 -1.4577 -3.5633  0.5045
   34MPD2    N1  539   3.267   1.365  10.823  0.0111 -0.5006 -0.5034
   34MPD2    H7  540   3.248   1.296  10.894  1.7468  1.4023  1.8127
   35TMC2    C1  541   4.501   2.547  11.589 -0.4659  0.1258 -0.0384
   35TMC2    C2  542   4.367   2.538  11.548 -0.1492  0.5454  0.2840
   35TMC2    C3  543   4.328   2.418  11.498 -0.2958 -0.2657  0.6000
   35TMC2    C4  544   4.585   2.438  11.584 -0.4204 -0.4018  0.2074
   35TMC2    C5  545   4.538   2.330  11.522 -0.1620  0.1965 -0.1967
   35TMC2    C6  546   4.407   2.311  11.477 -1.3014  0.7118  0.2248
   35TMC2     C  547   4.554   2.673  11.630  0.5014 -0.1723 -0.2769
   35TMC2     O  548   4.465   2.749  11.665  0.1937 -0.2561 -0.3549
   35TMC2     H  549   4.300   2.624  11.542  2.8766  2.8957 -0.0489
   35TMC2    H1  550   4.690   2.448  11.608 -0.9349  1.8248  1.5352
   35TMC2    H2  551   4.389   2.219  11.424  1.1133  0.0289  0.5595
   35TMC2    C7  552   4.635   2.239  11.459 -0.0551  0.0937  0.6659
   35TMC2    C8  553   4.185   2.394  11.461 -0.7194 -0.2574  0.9137
   35TMC2    O1  554   4.604   2.123  11.453  0.1040  0.2171  0.2667
   35TMC2    O2  555   4.140   2.279  11.453  0.1746  0.6004  0.0102
   35TMC2    O5  556   4.116   2.502  11.512  0.0352  0.0232 -0.2062
   35TMC2    H5  557   4.156   2.586  11.481 -2.1059  1.7491  1.6398
   36MPD2     C  558   0.188   3.011  11.760 -0.2938  0.4677  0.0121
   36MPD2    C1  559   0.250   2.891  11.727 -0.8740  0.2757 -1.2620
   36MPD2    C2  560   0.172   2.793  11.672 -0.1641 -0.0920 -0.7596
   36MPD2    C3  561   0.033   2.799  11.655  0.4567  0.1401 -0.2512
   36MPD2    C4  562   4.711   2.917  11.699 -0.0778 -0.6235 -1.2380
   36MPD2    C5  563   0.054   3.024  11.740 -0.4288 -0.2051 -0.2327
   36MPD2     H  564   0.210   2.693  11.653  2.2440  0.4853  1.1796
   36MPD2    H1  565   4.603   2.926  11.698 -0.0023  0.4847  0.4574
   36MPD2    H2  566   0.238   3.097  11.802 -1.0270  0.1646  1.5106
   36MPD2    H3  567   0.014   3.121  11.768 -0.1286 -0.0635 -0.2925
   36MPD2     N  568   4.693   2.686  11.621  0.0822  0.2955  0.4379
   36MPD2    H5  569   0.010   2.605  11.594  0.1029  0.6979 -0.7564
   36MPD2    N1  570   0.385   2.878  11.767 -0.2721  0.1484 -0.6283
   36MPD2    H7  571   0.415   2.956  11.825 -0.7676  0.2941 -0.5668
   37TMC2    C1  572   3.389   3.355  11.798  0.4799 -0.3330  0.5279
   37TMC2    C2  573   3.452   3.252  11.736 -0.6727 -0.1817 -0.2232
   37TMC2    C3  574   3.503   3.273  11.617 -0.7957  0.4359  0.2586
   37TMC2    C4  575   3.370   3.469  11.737 -1.2505  0.3188 -0.4367
   37TMC2    C5  576   3.410   3.488  11.605  0.2724  0.3749 -0.1564
   37TMC2    C6  577   3.474   3.382  11.543  1.1155 -0.2818  0.1579
   37TMC2     C  578   3.343   3.341  11.941 -0.3977 -0.4163  0.4003
   37TMC2     O  579   3.252   3.417  11.978 -0.8868  0.6266 -0.7351
   37TMC2     H  580   3.453   3.155  11.783 -0.7961 -0.0712  0.0038
   37TMC2    H1  581   3.298   3.534  11.786 -2.7573 -0.7471 -1.2695
   37TMC2    H2  582   3.510   3.399  11.442 -1.8861 -1.3707 -1.0965
   37TMC2    C7  583   3.357   3.605  11.545 -0.6000 -0.5908  0.6081
   37TMC2    C8  584   3.583   3.161  11.565  0.3023  0.1214  0.2979
   37TMC2    O1  585   3.291   3.673  11.626  0.4176 -0.1270  0.0075
   37TMC2    O2  586   3.640   3.083  11.641 -0.3763 -0.4949  0.6294
   37TMC2    O5  587   3.587   3.169  11.436 -0.3891 -0.3953  0.1098
   37TMC2    H5  588   3.499   3.187  11.397 -0.1558  0.7448  0.1149
   38MPD2     C  589   3.324   3.111  12.412  0.4760 -0.2516  0.5462
   38MPD2    C1  590   3.405   3.038  12.322 -0.2802 -0.3690  0.1172
   38MPD2    C2  591   3.419   3.080  12.190  0.4096  0.2606  0.1635
   38MPD2    C3  592   3.351   3.188  12.136  0.2343  1.0207  0.5328
   38MPD2    C4  593   3.264   3.254  12.222 -0.0954  0.0871 -0.5769
   38MPD2    C5  594   3.271   3.223  12.357  0.1659 -0.1111 -0.0722
   38MPD2     H  595   3.499   3.034  12.134  0.6309  1.1140 -0.2169
   38MPD2    H1  596   3.201   3.335  12.187 -0.3982 -0.9194 -2.4030
   38MPD2    H2  597   3.314   3.083  12.517 -0.9465  0.8856  0.7100
   38MPD2    H3  598   3.217   3.285  12.428 -1.0557  0.9926 -1.9739
   38MPD2     N  599   3.391   3.233  12.006 -0.2352 -0.4235  0.4423
   38MPD2    H5  600   3.469   3.185  11.962 -1.3950  0.2274 -2.3126
   38MPD2    N1  601   3.487   2.923  12.368 -0.4953  0.5467  0.7168
   38MPD2    H7  602   3.549   2.880  12.300  0.1655 -0.1159  1.7417
   39TMC2    C1  603   1.767   0.205   1.442 -0.3215 -0.1894  0.2149
   39TMC2    C2  604   1.786   0.291   1.550  0.0667 -0.4532 -0.3230
   39TMC2    C3  605   1.909   0.297   1.607  0.4201 -0.4296 -0.0449
   39TMC2    C4  606   1.876   0.157   1.366 -0.3377 -0.7719  0.2105
   39TMC2    C5  607   2.000   0.174   1.419  0.5387  0.9308  0.0694
   39TMC2    C6  608   2.016   0.240   1.542 -0.6139 -0.0919  0.9087
   39TMC2     C  609   1.637   0.214   1.386 -0.1568 -0.5228 -0.4365
   39TMC2     O  610   1.551   0.286   1.433  0.3115 -0.3285  0.2468
   39TMC2     H  611   1.704   0.352   1.589 -0.2776  0.0497 -1.8307
   39TMC2    H1  612   1.869   0.114   1.267 -2.0515  0.3942 -0.1714
   39TMC2    H2  613   2.117   0.243   1.579 -0.5510  1.6067  0.5967
   39TMC2    C7  614   2.114   0.152   1.333 -0.0861 -0.3717  0.4287
   39TMC2    C8  615   1.931   0.355   1.742 -0.5515  0.0762  0.0060
   39TMC2    O1  616   2.101   0.087   1.227 -0.2792  0.0375 -0.1322
   39TMC2    O2  617   1.832   0.385   1.808  0.5045 -0.0035 -0.1497
   39TMC2    O5  618   2.032   0.436   1.735  0.4018  0.2958 -0.1078
   39TMC2    H5  619   2.085   0.426   1.653 -0.5019  0.2676 -0.6911
   40MPD2     C  620   1.543   0.002   1.096 -0.7874  0.9130 -0.5539
   40MPD2    C1  621   1.521   0.104   1.189  0.3692  0.5696  0.6758
   40MPD2    C2  622   1.393   0.154   1.204 -0.3637  0.1603  0.5276
   40MPD2    C3  623   1.285   0.106   1.129 -0.0507 -0.6962  0.2788
   40MPD2    C4  624   1.308   4.729   1.046 -0.3505 -0.2975  0.3807
   40MPD2    C5  625   1.436   4.679   1.027 -0.2192 -0.3141 -0.4640
   40MPD2     H  626   1.371   0.241   1.264  2.1222 -0.3218  2.1401
   40MPD2    H1  627   1.232   4.678   0.988  0.7052 -1.3392 -0.0908
   40MPD2    H2  628   1.641   4.691   1.090 -1.6420 -0.5696 -2.8928
   40MPD2    H3  629   1.435   4.590   0.966 -1.4693  0.3199 -1.3683
   40MPD2     N  630   1.150   0.158   1.139 -0.8674  0.4195  0.3076
   40MPD2    H5  631   1.079   0.105   1.089  1.4445 -1.4557 -1.0119
   40MPD2    N1  632   1.630   0.141   1.269 -0.3891  0.1710 -0.0983
   40MPD2    H7  633   1.718   0.097   1.245  0.3247  0.5355  1.8513
   41TMC2    C1  634   4.550   3.377  13.653 -0.9665 -0.4971  0.7217
   41TMC2    C2  635   4.434   3.410  13.588  0.1648  0.2743 -0.4616
   41TMC2    C3  636   4.441   3.416  13.454 -0.6366 -0.0925  0.1040
   41TMC2    C4  637   4.666   3.348  13.587 -0.4428 -0.0067  0.5948
   41TMC2    C5  638   4.666   3.352  13.457  0.1830 -0.9154 -0.5268
   41TMC2    C6  639   4.558   3.394  13.387 -0.5814 -0.1530  0.1259
   41TMC2     C  640   4.554   3.402  13.794 -0.1650  0.2936 -0.2108
   41TMC2     O  641   4.468   3.475  13.840  0.0741  0.2752 -0.3614
   41TMC2     H  642   4.348   3.451  13.640  0.7919  0.5497  0.3488
   41TMC2    H1  643   0.021   3.338  13.642  0.3889  3.2499 -0.1963
   41TMC2    H2  644   4.568   3.392  13.279 -0.3256  0.5251  0.1395
   41TMC2    C7  645   0.036   3.296  13.384  0.1389  0.2732 -0.1687
   41TMC2    C8  646   4.322   3.451  13.376 -0.4462  0.2823 -0.2435
   41TMC2    O1  647   0.048   3.322  13.268  0.0507  0.1853  0.1576
   41TMC2    O2  648   4.309   3.382  13.278  0.1829  0.3432 -0.3379
   41TMC2    O5  649   4.224   3.503  13.451 -0.2958  0.1124 -0.8556
   41TMC2    H5  650   4.262   3.554  13.526  1.1146 -0.1372 -1.4212
   42MPD2     C  651   4.575   3.371  14.085 -0.1333  0.1718  0.8176
   42MPD2    C1  652   4.651   3.293  13.999 -0.0641 -0.0291  0.0127
   42MPD2    C2  653   4.736   3.197  14.046 -0.2958  0.9693 -0.9056
   42MPD2    C3  654   0.003   3.168  14.186  0.2620  0.2747  0.1807
   42MPD2    C4  655   4.662   3.247  14.265 -0.4830 -0.0707  0.2584
   42MPD2    C5  656   4.583   3.343  14.216  0.6395 -0.3099  0.0008
   42MPD2     H  657   0.050   3.128  13.979  2.5806 -0.5473  2.8633
   42MPD2    H1  658   4.660   3.236  14.373  1.6161 -0.0468  0.3115
   42MPD2    H2  659   4.523   3.462  14.059 -0.0958 -0.2745 -0.8475
   42MPD2    H3  660   4.533   3.407  14.287 -0.0582 -0.5555 -0.2701
   42MPD2     N  661   0.097   3.091  14.251  0.7789  0.6331  0.2932
   42MPD2    H5  662   0.102   3.089  14.352  3.2452 -3.9040  0.0872
   42MPD2    N1  663   4.639   3.309  13.861  0.3615 -0.2574 -0.0393
   42MPD2    H7  664   4.680   3.245  13.794 -2.2889 -2.1483  0.1375
   43TMC2    C1  665   1.671   1.207   1.229 -0.3984  0.1492 -0.4121
   43TMC2    C2  666   1.565   1.290   1.253 -0.6044 -0.3584 -0.6145
   43TMC2    C3  667   1.511   1.282   1.379  0.9121  0.1442  0.3555
   43TMC2    C4  668   1.717   1.110   1.318  0.4397 -0.9622  0.9839
   43TMC2    C5  669   1.667   1.115   1.443 -0.3360  0.1731 -0.8916
   43TMC2    C6  670   1.568   1.201   1.475  0.9573 -0.1916 -0.1194
   43TMC2     C  671   1.724   1.205   1.092 -0.2335  0.0317  0.4662
   43TMC2     O  672   1.773   1.102   1.054  0.6359  0.1641 -0.1748
   43TMC2     H  673   1.518   1.352   1.178 -0.7693 -1.8329 -1.7233
   43TMC2    H1  674   1.787   1.035   1.284 -0.1355 -0.4801 -1.2509
   43TMC2    H2  675   1.543   1.223   1.578 -0.5042  0.6023 -0.6307
   43TMC2    C7  676   1.704   1.015   1.544  0.0642  0.0229 -0.1480
   43TMC2    C8  677   1.455   1.407   1.443 -0.1382 -0.7482  0.4759
   43TMC2    O1  678   1.809   0.957   1.520 -0.3646  0.3647 -0.2839
   43TMC2    O2  679   1.391   1.395   1.547  0.6310 -0.3860 -0.3553
   43TMC2    O5  680   1.446   1.509   1.352 -0.3139 -0.7217 -0.5728
   43TMC2    H5  681   1.531   1.508   1.303  1.0710 -0.1411  1.8328
   44MPD2     C  682   1.888   1.468   0.685 -0.3876 -0.0780 -0.7198
   44MPD2    C1  683   1.868   1.330   0.700 -1.0677 -0.2511 -0.5846
   44MPD2    C2  684   1.831   1.284   0.826 -0.9891 -0.0519 -0.4131
   44MPD2    C3  685   1.785   1.374   0.925 -0.3652  0.7261  0.0144
   44MPD2    C4  686   1.795   1.504   0.898 -0.8386 -0.0675 -0.6777
   44MPD2    C5  687   1.846   1.556   0.783 -0.3061  0.9580  0.4534
   44MPD2     H  688   1.817   1.177   0.834  2.4569 -0.5649 -1.1570
   44MPD2    H1  689   1.761   1.575   0.973  2.2060 -1.4900  2.0316
   44MPD2    H2  690   1.930   1.509   0.594  1.2382 -1.8989 -0.7972
   44MPD2    H3  691   1.859   1.663   0.782 -2.6750  1.2437 -0.5143
   44MPD2     N  692   1.728   1.338   1.050  0.3114  0.2589  0.0453
   44MPD2    H5  693   1.680   1.416   1.094 -3.4660 -0.4824 -2.6537
   44MPD2    N1  694   1.897   1.235   0.601 -0.6155  0.2780 -0.1008
   44MPD2    H7  695   1.917   1.141   0.633  1.7998  1.1921  1.0951
   45TMC2    C1  696   2.491   2.994  10.086  0.1715  0.2728  0.0372
   45TMC2    C2  697   2.610   2.936  10.134 -0.9428 -0.1795 -0.0621
   45TMC2    C3  698   2.702   3.012  10.204 -0.1254  0.4957  0.2162
   45TMC2    C4  699   2.458   3.119  10.121  0.3818  0.1677 -1.1627
   45TMC2    C5  700   2.550   3.193  10.193  0.0514  0.2304  0.5756
   45TMC2    C6  701   2.676   3.146  10.243 -0.0719 -0.0494  0.5489
   45TMC2     C  702   2.418   2.921   9.983 -0.2459 -0.1225  0.2230
   45TMC2     O  703   2.481   2.842   9.917  0.0101 -0.1995 -0.7036
   45TMC2     H  704   2.631   2.833  10.108  0.3984 -0.3151  1.5833
   45TMC2    H1  705   2.368   3.163  10.080 -0.8842 -0.7414  0.6445
   45TMC2    H2  706   2.738   3.203  10.311  0.1343  1.0543 -0.5401
   45TMC2    C7  707   2.529   3.338  10.207  0.3109  0.1184 -0.5386
   45TMC2    C8  708   2.814   2.949  10.260  0.6090  0.3318 -0.4353
   45TMC2    O1  709   2.566   3.389  10.314 -0.6805 -0.5683  0.2973
   45TMC2    O2  710   2.829   2.828  10.269  0.2891  0.7217  0.5083
   45TMC2    O5  711   2.907   3.041  10.291 -0.1673  0.3920 -0.9495
   45TMC2    H5  712   2.889   3.131  10.258 -0.9101  0.7822  0.5193
   46MPD2     C  713   2.223   2.794   9.792  0.6704 -0.0174 -0.3028
   46MPD2    C1  714   2.195   2.898   9.880 -0.2653 -0.7031  0.3067
   46MPD2    C2  715   2.067   2.952   9.874 -0.1491 -0.0693 -0.5046
   46MPD2    C3  716   1.977   2.911   9.783 -0.9413  0.3693 -0.0469
   46MPD2    C4  717   2.005   2.807   9.694  0.6924 -0.2282 -0.0814
   46MPD2    C5  718   2.128   2.755   9.700  0.6306 -0.6999  0.3650
   46MPD2     H  719   2.040   3.028   9.947  1.1745  1.6864 -1.8698
   46MPD2    H1  720   1.942   2.758   9.620  0.0467  0.3598  0.0765
   46MPD2    H2  721   2.320   2.745   9.792  0.3685 -0.6176  0.3094
   46MPD2    H3  722   2.149   2.672   9.634 -1.0772 -1.3976  0.6905
   46MPD2     N  723   1.858   2.980   9.768  0.0402  0.3653 -0.0677
   46MPD2    H5  724   1.848   3.062   9.827  0.4022 -0.3006  0.9200
   46MPD2    N1  725   2.289   2.952   9.972  0.6046  0.5644  0.2168
   46MPD2    H7  726   2.255   3.027  10.032  2.2772 -1.9403  4.3118
   47TMC2    C1  727   0.339   3.409   9.159  0.8368 -0.0589 -0.8078
   47TMC2    C2  728   0.403   3.440   9.043 -0.0069  0.1614 -0.7979
   47TMC2    C3  729   0.325   3.424   8.930  0.3915 -0.2435  0.9125
   47TMC2    C4  730   0.206   3.375   9.163  0.5164 -0.6400 -0.2952
   47TMC2    C5  731   0.134   3.378   9.054 -0.1057  1.0330  0.0844
   47TMC2    C6  732   0.195   3.387   8.933 -0.0156  0.5561 -0.0890
   47TMC2     C  733   0.423   3.420   9.281 -0.4238  0.2812  0.7132
   47TMC2     O  734   0.522   3.496   9.280 -0.3418  0.3636  0.3120
   47TMC2     H  735   0.510   3.455   9.048 -0.2850  2.4245 -1.5616
   47TMC2    H1  736   0.155   3.366   9.259  0.5938  2.4331  0.0338
   47TMC2    H2  737   0.145   3.388   8.837  1.6081  3.6096 -0.9376
   47TMC2    C7  738   0.001   3.318   9.050  0.1546  0.1829 -0.1180
   47TMC2    C8  739   0.392   3.415   8.803  0.0797 -0.4930  0.7071
   47TMC2    O1  740   4.698   3.280   8.944 -0.1132  0.4192  0.0206
   47TMC2    O2  741   0.329   3.376   8.705 -0.6209  0.2946  0.4905
   47TMC2    O5  742   0.525   3.416   8.821 -0.0497 -0.4368 -0.0693
   47TMC2    H5  743   0.547   3.482   8.889 -3.1453  1.3429 -0.7739
   48MPD2     C  744   0.559   3.378   9.545 -0.1738  0.4560 -0.5295
   48MPD2    C1  745   0.436   3.337   9.513 -0.2560  0.0321 -0.0494
   48MPD2    C2  746   0.357   3.277   9.618  0.1306 -0.3375  0.0719
   48MPD2    C3  747   0.410   3.259   9.740 -0.4506 -0.6881  0.1377
   48MPD2    C4  748   0.532   3.321   9.777  0.2974  0.2378 -0.2068
   48MPD2    C5  749   0.607   3.376   9.676  0.5752  0.3496  0.1031
   48MPD2     H  750   0.257   3.240   9.596  0.3537 -0.4880 -0.6772
   48MPD2    H1  751   0.574   3.334   9.876  0.7320  2.0428 -0.6364
   48MPD2    H2  752   0.622   3.423   9.469  0.9724  1.4680  1.0192
   48MPD2    H3  753   0.702   3.421   9.701  0.4200  0.5495  0.3296
   48MPD2     N  754   0.336   3.189   9.833  0.3268 -0.1573 -0.0202
   48MPD2    H5  755   0.242   3.163   9.806  0.8865 -1.5771 -0.6173
   48MPD2    N1  756   0.371   3.349   9.389 -0.0659 -0.1424 -0.0318
   48MPD2    H7  757   0.290   3.289   9.376  0.1368 -0.0527 -1.6259
   49TMC2    C1  758   2.380   0.343  10.469  0.2504 -0.2874 -0.1713
   49TMC2    C2  759   2.313   0.224  10.426  0.0320 -0.1476 -0.7893
   49TMC2    C3  760   2.369   0.153  10.320 -0.0053 -0.5876 -0.2971
   49TMC2    C4  761   2.500   0.372  10.415  0.2208 -0.2340  0.2402
   49TMC2    C5  762   2.554   0.298  10.312  0.3685  0.6388  0.2557
   49TMC2    C6  763   2.486   0.187  10.260 -0.1948  0.9051  0.5372
   49TMC2     C  764   2.345   0.404  10.600 -0.1844  0.1866  0.1759
   49TMC2     O  765   2.259   0.349  10.666 -0.4173 -0.0774  0.2453
   49TMC2     H  766   2.231   0.185  10.485  0.1480 -0.3823 -0.7802
   49TMC2    H1  767   2.565   0.443  10.463 -0.2581  0.0294  0.4936
   49TMC2    H2  768   2.530   0.129  10.179 -0.7282  2.1619 -0.6504
   49TMC2    C7  769   2.680   0.326  10.251 -0.3085  0.1101  0.1552
   49TMC2    C8  770   2.313   0.030  10.277 -1.1216 -0.6961  0.5980
   49TMC2    O1  771   2.734   0.231  10.191  0.0881 -0.0772  0.3981
   49TMC2    O2  772   2.264   4.681  10.347  1.0271 -0.3715 -1.0016
   49TMC2    O5  773   2.284   0.051  10.150 -0.1870  0.3157  0.3651
   49TMC2    H5  774   2.303   0.143  10.122  1.3527  0.2131  1.1081
   50MPD2     C  775   2.271   0.583  10.821 -0.0450  0.3430 -0.4047
   50MPD2    C1  776   2.361   0.619  10.717 -1.0080 -0.4473 -0.4067
   50MPD2    C2  777   2.436   0.737  10.720 -0.0558 -0.1286  1.0943
   50MPD2    C3  778   2.411   0.824  10.824 -0.2024  0.1620  0.1410
   50MPD2    C4  779   2.341   0.778  10.930  0.4773 -0.1379  0.1643
   50MPD2    C5  780   2.268   0.660  10.932  0.4561 -0.2425 -0.0390
   50MPD2     H  781   2.493   0.773  10.635 -1.8180 -1.8437 -0.8188
   50MPD2    H1  782   2.351   0.844  11.015 -1.4273  0.0300  0.2410
   50MPD2    H2  783   2.208   0.495  10.828 -0.2891  0.6332  1.0262
   50MPD2    H3  784   2.216   0.621  11.018 -0.2070 -0.2538 -0.4451
   50MPD2     N  785   2.480   0.949  10.839  0.1356  0.3195  0.7100
   50MPD2    H5  786   2.476   0.988  10.933 -1.6911  2.0702 -0.1063
   50MPD2    N1  787   2.390   0.531  10.609 -0.2278  0.2105  0.0663
   50MPD2    H7  788   2.444   0.570  10.532 -0.1199 -0.2630 -0.0990
   51TMC2    C1  789   3.247   1.087   0.877 -0.5437 -0.7429  0.2739
   51TMC2    C2  790   3.128   1.138   0.912  0.4936 -0.0988  0.1368
   51TMC2    C3  791   3.130   1.249   0.994  0.0543 -0.3856  0.2543
   51TMC2    C4  792   3.360   1.130   0.939 -0.0581  0.4265 -0.0366
   51TMC2    C5  793   3.354   1.233   1.034 -0.4118  0.2596  0.2490
   51TMC2    C6  794   3.237   1.300   1.059  0.1168  0.5386 -0.4758
   51TMC2     C  795   3.249   0.971   0.794  0.4969  0.6067  0.0755
   51TMC2     O  796   3.333   0.882   0.818  0.0956 -0.5470 -0.1139
   51TMC2     H  797   3.035   1.084   0.901 -0.3675  1.3684  0.3614
   51TMC2    H1  798   3.448   1.077   0.906  1.3385  0.9999  2.6937
   51TMC2    H2  799   3.233   1.385   1.125  1.5196  0.9559 -0.9174
   51TMC2    C7  800   3.462   1.245   1.128  0.2757 -0.2373 -0.6608
   51TMC2    C8  801   3.013   1.335   1.007 -0.0897 -0.0708 -0.2003
   51TMC2    O1  802   3.443   1.315   1.224 -0.2077 -0.1099  0.1290
   51TMC2    O2  803   2.927   1.358   0.921 -0.0764  0.2808  0.1391
   51TMC2    O5  804   3.009   1.386   1.128 -0.7909  0.2617  0.0384
   51TMC2    H5  805   3.074   1.335   1.181  1.4957  1.9310 -1.1649
   52MPD2     C  806   3.065   0.659   0.430  0.2110 -0.4769 -0.3729
   52MPD2    C1  807   3.119   0.635   0.555 -0.1853 -0.4167  0.1792
   52MPD2    C2  808   3.169   0.744   0.630  0.0495 -0.6001  0.1018
   52MPD2    C3  809   3.147   0.876   0.595 -0.0344  0.4198 -0.3651
   52MPD2    C4  810   3.086   0.901   0.476 -0.4262  0.0287 -0.8305
   52MPD2    C5  811   3.041   0.792   0.396  0.0718  0.1471  0.2105
   52MPD2     H  812   3.223   0.725   0.722 -2.3648 -0.1382  1.5891
   52MPD2    H1  813   3.050   1.000   0.451  1.7181  1.0476  0.1372
   52MPD2    H2  814   3.025   0.588   0.359 -1.2981  0.5575 -0.5465
   52MPD2    H3  815   2.978   0.815   0.311 -0.3380 -0.8436  0.2459
   52MPD2     N  816   3.172   0.984   0.682  0.2825  0.0998 -0.3282
   52MPD2    H5  817   3.123   1.069   0.657 -0.6494  0.0804  1.4455
   52MPD2    N1  818   3.138   0.509   0.602  0.0146 -0.1652  0.0175
   52MPD2    H7  819   3.173   0.502   0.697 -1.7840 -0.4591  0.6733
   53TMC2    C1  820   2.856   4.096  11.276  0.1960 -0.0531  1.0616
   53TMC2    C2  821   2.755   4.109  11.181  0.0029  0.1205 -0.0997
   53TMC2    C3  822   2.643   4.154  11.236 -0.2013  0.0385  0.5403
   53TMC2    C4  823   2.842   4.115  11.410  0.3940 -0.0038  0.0201
   53TMC2    C5  824   2.713   4.135  11.458 -0.4313  0.6388 -0.0500
   53TMC2    C6  825   2.612   4.158  11.366  0.4129 -0.3161  0.0549
   53TMC2     C  826   2.984   4.051  11.223  0.6941 -0.1858  0.3268
   53TMC2     O  827   3.003   4.088  11.108 -0.2372 -0.0406  0.0957
   53TMC2     H  828   2.770   4.098  11.074  1.2828 -3.3676  0.4596
   53TMC2    H1  829   2.923   4.110  11.482 -1.6497  0.1463  2.3361
   53TMC2    H2  830   2.508   4.177  11.390  0.1172  0.1385 -1.5708
   53TMC2    C7  831   2.683   4.067  11.575 -0.1372  0.2453  0.1055
   53TMC2    C8  832   2.532   4.195  11.150 -0.0042 -0.4938 -0.6964
   53TMC2    O1  833   2.773   3.995  11.620  0.5415 -0.0484 -0.7669
   53TMC2    O2  834   2.496   4.115  11.064 -0.2290 -0.6790  0.7577
   53TMC2    O5  835   2.477   4.309  11.194  0.8159  0.3590 -0.6771
   53TMC2    H5  836   2.523   4.353  11.269  1.2128 -1.6433  0.2516
   54MPD2     C  837   3.222   3.898  11.131  0.5905 -0.2978  0.4250
   54MPD2    C1  838   3.166   3.882  11.254 -0.1672 -0.9441 -0.0788
   54MPD2    C2  839   3.230   3.803  11.349  0.2670 -0.6707  0.8172
   54MPD2    C3  840   3.334   3.717  11.322 -0.0559 -0.6146  0.0577
   54MPD2    C4  841   3.384   3.735  11.194 -0.0400  0.3253 -0.1921
   54MPD2    C5  842   3.333   3.828  11.106  0.6994  0.4634 -0.4983
   54MPD2     H  843   3.189   3.799  11.449 -1.4943  0.8413  0.1556
   54MPD2    H1  844   3.473   3.683  11.161 -0.4617 -1.0720  0.8285
   54MPD2    H2  845   3.173   3.952  11.051  1.6013  0.0549  0.0463
   54MPD2    H3  846   3.387   3.836  11.013 -0.1154  0.1043 -0.9994
   54MPD2     N  847   3.390   3.623  11.409  0.1950 -0.4948  0.1449
   54MPD2    H5  848   3.455   3.554  11.371  1.5814 -0.3057  2.1862
   54MPD2    N1  849   3.049   3.952  11.294 -0.2578 -0.5246  0.2571
   54MPD2    H7  850   3.012   3.928  11.385 -0.0359 -1.2123  0.1658
   55TMC2    C1  851   4.513   2.008   0.425  0.4343 -0.2562  0.1286
   55TMC2    C2  852   4.601   2.109   0.393  0.0286 -0.7996  0.6898
   55TMC2    C3  853   4.705   2.064   0.317  0.0847 -0.0255 -0.3006
   55TMC2    C4  854   4.514   1.887   0.361 -0.7353 -0.5149  0.8685
   55TMC2    C5  855   4.614   1.853   0.275 -0.5531  0.5512  0.2022
   55TMC2    C6  856   4.717   1.940   0.253  0.4243 -0.2361  0.2742
   55TMC2     C  857   4.393   2.030   0.505  0.3731  0.3875 -0.1494
   55TMC2     O  858   4.331   1.931   0.549 -0.4568  0.0050 -0.3254
   55TMC2     H  859   4.605   2.201   0.451  0.4568 -0.0263 -0.5554
   55TMC2    H1  860   4.436   1.814   0.378 -1.1476  0.0413  1.3600
   55TMC2    H2  861   0.076   1.903   0.221  0.7104 -0.5999  1.5569
   55TMC2    C7  862   4.638   1.721   0.228  0.6380 -0.5294 -0.2522
   55TMC2    C8  863   0.086   2.142   0.315  0.7323  0.3998 -0.0326
   55TMC2    O1  864   4.722   1.712   0.143  0.1278 -0.1481  0.2813
   55TMC2    O2  865   0.160   2.141   0.412  0.4152 -0.5281  0.4932
   55TMC2    O5  866   0.127   2.137   0.185  0.0906 -0.6815 -0.0884
   55TMC2    H5  867   0.056   2.141   0.117  2.5594  4.4373 -2.3251
   56MPD2     C  868   4.203   2.348   0.551  0.2760  0.2631  0.3974
   56MPD2    C1  869   4.231   2.214   0.565  0.3140  1.1011 -0.2473
   56MPD2    C2  870   4.135   2.135   0.628  0.6121 -0.1261  0.1906
   56MPD2    C3  871   4.010   2.184   0.658 -0.1876  0.6504 -0.3913
   56MPD2    C4  872   3.982   2.316   0.628 -0.0866 -0.0397 -0.1922
   56MPD2    C5  873   4.080   2.400   0.584  0.3089 -0.3713 -0.2096
   56MPD2     H  874   4.157   2.032   0.653 -0.2791  0.0367  1.6188
   56MPD2    H1  875   3.885   2.360   0.646  0.1586 -0.1516  1.3887
   56MPD2    H2  876   4.269   2.417   0.500 -0.0638  0.1206 -0.2297
   56MPD2    H3  877   4.056   2.501   0.553 -0.8083 -1.2078 -2.0825
   56MPD2     N  878   3.907   2.101   0.705 -0.0140 -0.3088 -0.1108
   56MPD2    H5  879   3.933   2.012   0.747  2.1341 -0.0785 -0.9690
   56MPD2    N1  880   4.355   2.165   0.518 -0.4078 -0.8770  0.1849
   56MPD2    H7  881   4.420   2.231   0.478 -0.0841 -0.5689  1.2351
   57TMC2    C1  882   3.338   2.126  13.722  0.1010 -0.5268 -0.0563
   57TMC2    C2  883   3.236   2.098  13.640 -0.3759 -1.6168  0.5909
   57TMC2    C3  884   3.255   1.973  13.571 -0.4447  0.1113 -0.3138
   57TMC2    C4  885   3.455   2.059  13.726  0.4739  0.0221 -0.1057
   57TMC2    C5  886   3.469   1.937  13.665  0.7657  0.2679  0.2938
   57TMC2    C6  887   3.367   1.893  13.578 -0.4089  0.0170 -0.3000
   57TMC2     C  888   3.317   2.240  13.808  0.1837  0.2058  0.1288
   57TMC2     O  889   3.213   2.302  13.781 -0.3538 -0.1676  0.1281
   57TMC2     H  890   3.151   2.162  13.621  0.4701 -0.2900  1.2726
   57TMC2    H1  891   3.543   2.106  13.768 -0.1841  1.6020 -0.4870
   57TMC2    H2  892   3.373   1.798  13.527  0.3093 -0.2356  0.2519
   57TMC2    C7  893   3.590   1.860  13.669 -0.4007  0.6601  0.4504
   57TMC2    C8  894   3.156   1.924  13.477  0.0061 -0.6944 -0.3023
   57TMC2    O1  895   3.670   1.884  13.755 -0.2347  0.4089 -0.0307
   57TMC2    O2  896   3.141   1.805  13.453  0.1366  0.0982 -0.1564
   57TMC2    O5  897   3.079   2.026  13.429  0.5021 -0.2797 -0.6517
   57TMC2    H5  898   3.123   2.113  13.436  0.2290 -0.1634 -0.4117
   58MPD2     C  899   3.332   2.497  14.248 -0.6186  0.3145 -0.3989
   58MPD2    C1  900   3.274   2.531  14.133 -0.3651  0.5477 -0.5712
   58MPD2    C2  901   3.306   2.455  14.017  0.9939  0.4424 -0.2104
   58MPD2    C3  902   3.392   2.349  14.015 -0.4365  0.0589  0.2293
   58MPD2    C4  903   3.471   2.337  14.127  0.0668  0.0793  0.5614
   58MPD2    C5  904   3.437   2.404  14.245  0.7167 -0.3381 -0.0636
   58MPD2     H  905   3.252   2.488  13.929 -0.0662 -0.7983 -0.0264
   58MPD2    H1  906   3.547   2.259  14.133  1.5554  1.8657  5.0016
   58MPD2    H2  907   3.304   2.542  14.342 -0.1143 -0.2126  0.0113
   58MPD2    H3  908   3.490   2.380  14.336 -1.1000 -1.0117  0.8135
   58MPD2     N  909   3.406   2.254  13.907  0.3508 -0.1144 -0.0710
   58MPD2    H5  910   3.478   2.183  13.910  1.5868  1.2257  1.7701
   58MPD2    N1  911   3.160   2.616  14.131  0.0921 -0.1239 -0.1411
   58MPD2    H7  912   3.107   2.636  14.047  1.9169  0.0567 -1.2389
   59TMC2    C1  913   1.140   2.408  12.814  0.2919  0.0658  0.4909
   59TMC2    C2  914   1.200   2.308  12.882 -0.0513 -0.6051  0.0193
   59TMC2    C3  915   1.137   2.186  12.861 -0.5873  0.2214  0.0889
   59TMC2    C4  916   1.028   2.394  12.738 -0.4987  0.0785 -0.3784
   59TMC2    C5  917   0.985   2.270  12.714 -0.6017 -0.4197  0.1442
   59TMC2    C6  918   1.042   2.167  12.779  0.1559  1.0293 -0.7991
   59TMC2     C  919   1.162   2.547  12.852  0.0854 -0.7218 -0.4933
   59TMC2     O  920   1.148   2.634  12.771 -0.2543  0.1046  0.5989
   59TMC2     H  921   1.294   2.308  12.936  0.5408  0.9569 -1.0234
   59TMC2    H1  922   0.966   2.479  12.709 -1.5819 -0.4023  0.5052
   59TMC2    H2  923   1.007   2.065  12.765 -0.4582  1.2468 -0.8642
   59TMC2    C7  924   0.883   2.231  12.625 -0.3633 -0.3545 -0.0975
   59TMC2    C8  925   1.208   2.070  12.913  0.1505  0.5761 -0.0440
   59TMC2    O1  926   0.822   2.128  12.644 -0.1415  0.3241 -0.3818
   59TMC2    O2  927   1.213   1.962  12.855  0.0119  0.2323  0.2837
   59TMC2    O5  928   1.241   2.104  13.036  0.4995  0.2103  0.0813
   59TMC2    H5  929   1.206   2.190  13.067  2.6057  0.8170  0.7802
   60MPD2     C  930   1.304   2.785  12.977  0.1350 -0.0431 -0.2675
   60MPD2    C1  931   1.272   2.665  13.042  0.3425  0.3499 -0.3904
   60MPD2    C2  932   1.316   2.648  13.167  0.9604 -0.0515 -0.6217
   60MPD2    C3  933   1.399   2.745  13.232 -0.8775 -0.9310  0.0159
   60MPD2    C4  934   1.417   2.865  13.171 -0.3070 -0.1430  0.0280
   60MPD2    C5  935   1.374   2.877  13.039  0.1516  0.1270  0.2821
   60MPD2     H  936   1.294   2.555  13.218 -4.0782  0.9729 -0.8856
   60MPD2    H1  937   1.446   2.950  13.232 -0.6093 -1.0350  1.4287
   60MPD2    H2  938   1.301   2.784  12.869 -1.0275  0.9629 -0.2495
   60MPD2    H3  939   1.388   2.971  12.988  0.0521 -0.3601 -0.6320
   60MPD2     N  940   1.448   2.723  13.362  0.1940  0.4985  0.6056
   60MPD2    H5  941   1.512   2.794  13.396  3.1777 -1.3884 -1.0543
   60MPD2    N1  942   1.206   2.554  12.980  0.1685 -0.2176 -0.2079
   60MPD2    H7  943   1.190   2.475  13.041  0.7534 -1.8823 -2.2226
   61TMC2    C1  944   0.297   3.675  16.250 -0.2724 -1.4652  0.5224
   61TMC2    C2  945   0.403   3.611  16.305 -0.0130  0.0629 -0.5452
   61TMC2    C3  946   0.522   3.683  16.302 -0.2796 -0.2975  0.2356
   61TMC2    C4  947   0.308   3.803  16.195  0.5990 -0.0294 -0.1864
   61TMC2    C5  948   0.429   3.864  16.195 -0.6055  0.2986  0.2050
   61TMC2    C6  949   0.538   3.815  16.254  0.2156 -0.3415 -0.2155
   61TMC2     C  950   0.188   3.587  16.215 -0.2081 -0.1046 -0.3468
   61TMC2     O  951   0.173   3.496  16.295 -0.8383 -0.2590 -0.8279
   61TMC2     H  952   0.409   3.507  16.336 -0.5108 -0.4236 -2.0445
   61TMC2    H1  953   0.227   3.832  16.129  1.4597 -1.2443 -1.7696
   61TMC2    H2  954   0.631   3.871  16.259  0.0983 -0.1068 -0.6428
   61TMC2    C7  955   0.432   3.998  16.130  0.9604  0.0518 -0.2094
   61TMC2    C8  956   0.627   3.607  16.361 -0.3223  0.6264 -0.2168
   61TMC2    O1  957   0.535   4.037  16.078  0.1148 -0.0633 -0.1351
   61TMC2    O2  958   0.615   3.523  16.450 -0.0573  0.0998 -1.1470
   61TMC2    O5  959   0.742   3.623  16.296 -0.4643  0.3901  0.1978
   61TMC2    H5  960   0.747   3.677  16.215  0.7494  0.2292  0.1655
   62MPD2     C  961   4.694   3.458  16.084 -0.1052  0.1943 -0.0874
   62MPD2    C1  962   0.059   3.522  16.020  0.1572  0.1158 -0.1324
   62MPD2    C2  963   0.053   3.533  15.883 -0.3313  0.4791  0.3944
   62MPD2    C3  964   4.697   3.466  15.807  0.4236 -0.0590  0.0003
   62MPD2    C4  965   4.598   3.393  15.871  0.3002 -0.1109 -0.3723
   62MPD2    C5  966   4.601   3.383  16.009 -0.2992 -0.0374 -0.3358
   62MPD2     H  967   0.128   3.599  15.840 -1.0206  1.6268  0.9468
   62MPD2    H1  968   4.521   3.338  15.817 -0.0578 -0.0794  0.1120
   62MPD2    H2  969   4.708   3.446  16.191 -0.0402 -0.6333 -0.1910
   62MPD2    H3  970   4.523   3.332  16.064 -2.3683  3.5190  0.0206
   62MPD2     N  971   4.703   3.469  15.665 -0.0750  0.0242  0.2972
   62MPD2    H5  972   4.650   3.396  15.619  0.2774 -1.5009  2.3408
   62MPD2    N1  973   0.151   3.606  16.085  0.4758 -0.4442  0.4052
   62MPD2    H7  974   0.210   3.665  16.027 -0.7776  0.9199  0.4927
   63TMC2    C1  975   4.392   3.365  10.484 -0.8408 -0.1166  0.0020
   63TMC2    C2  976   4.402   3.233  10.481 -0.0357 -1.1927  0.0370
   63TMC2    C3  977   4.471   3.175  10.380 -0.4653 -0.5376  0.5649
   63TMC2    C4  978   4.446   3.436  10.384 -0.1436 -0.2605  0.0751
   63TMC2    C5  979   4.520   3.381  10.283  0.4970  0.7546 -0.8113
   63TMC2    C6  980   4.535   3.246  10.279  0.4416  0.1422 -0.2145
   63TMC2     C  981   4.272   3.425  10.546  0.6605 -0.3275  0.0930
   63TMC2     O  982   4.242   3.531  10.498 -0.0882 -0.4157 -0.7320
   63TMC2     H  983   4.354   3.178  10.562  1.9374 -4.5920 -1.0934
   63TMC2    H1  984   4.437   3.544  10.391 -0.0435 -0.2111 -0.5478
   63TMC2    H2  985   4.591   3.200  10.199  1.0908 -0.5858  0.6523
   63TMC2    C7  986   4.542   3.459  10.165  0.2020  0.4074 -0.7153
   63TMC2    C8  987   4.504   3.030  10.392 -0.1271  0.7945 -0.3482
   63TMC2    O1  988   4.522   3.400  10.059 -0.2744 -0.0981 -0.2873
   63TMC2    O2  989   4.580   2.973  10.315  0.6269  0.3040  0.0242
   63TMC2    O5  990   4.441   2.970  10.489 -0.7875  0.1611 -0.0944
   63TMC2    H5  991   4.350   3.006  10.494 -1.4886 -1.5254 -0.8747
   64MPD2     C  992   3.964   3.524  10.935  0.3120  0.2502  0.8162
   64MPD2    C1  993   4.052   3.421  10.970 -0.7325  0.1879 -0.6430
   64MPD2    C2  994   4.150   3.381  10.886 -0.3227 -0.6820  0.0145
   64MPD2    C3  995   4.159   3.438  10.759  0.2731  0.2870 -0.6166
   64MPD2    C4  996   4.075   3.547  10.724  0.4162  0.3556 -0.1441
   64MPD2    C5  997   3.977   3.590  10.813 -0.0544  0.1433 -0.3866
   64MPD2     H  998   4.227   3.308  10.910  0.4793 -0.5649 -2.1550
   64MPD2    H1  999   4.049   3.581  10.625 -0.5019  0.5247  0.1467
   64MPD2    H2 1000   3.895   3.570  11.005 -0.4730 -0.9786  0.8515
   64MPD2    H3 1001   3.913   3.674  10.789  1.1347  1.7085  1.9259
   64MPD2     N 1002   4.250   3.386  10.673 -0.0496  0.2872  0.1572
   64MPD2    H5 1003   4.306   3.308  10.706  0.5030  1.5809  2.2699
   64MPD2    N1 1004   4.051   3.375  11.106 -0.6162 -0.1420  0.3621
   64MPD2    H7 1005   4.131   3.323  11.143 -1.1923 -1.4050 -0.1868
   65TMC2    C1 1006   1.032   3.442  15.565 -0.6998 -0.3305 -0.0105
   65TMC2    C2 1007   1.144   3.386  15.509  0.5998 -0.0608 -0.0522
   65TMC2    C3 1008   1.225   3.481  15.442  0.5034 -0.4795  0.0675
   65TMC2    C4 1009   1.002   3.578  15.563 -0.0141 -0.3980 -0.5067
   65TMC2    C5 1010   1.087   3.657  15.495  0.4338 -0.2413 -0.3653
   65TMC2    C6 1011   1.201   3.617  15.430  0.2217 -0.4245  0.7656
   65TMC2     C 1012   0.953   3.353  15.652  0.2341 -0.3254 -0.2980
   65TMC2     O 1013   0.867   3.406  15.721  0.6514  0.1197  0.1723
   65TMC2     H 1014   1.171   3.283  15.489 -0.3777 -0.8348  2.6791
   65TMC2    H1 1015   0.908   3.607  15.609  0.0287  2.0844 -2.0464
   65TMC2    H2 1016   1.268   3.682  15.375 -1.4754  1.1080  0.5179
   65TMC2    C7 1017   1.036   3.794  15.481  0.1609  0.3843  0.0910
   65TMC2    C8 1018   1.348   3.438  15.390 -0.4446 -0.2354 -0.1448
   65TMC2    O1 1019   1.056   3.851  15.377  0.3393  0.1070 -0.0245
   65TMC2    O2 1020   1.390   3.469  15.277  0.3456 -0.1853  0.4834
   65TMC2    O5 1021   1.424   3.469  15.496  0.1690 -0.4747 -0.6899
   65TMC2    H5 1022   1.366   3.463  15.575 -0.1764  1.2001 -0.8082
   66MPD2     C 1023   0.823   3.105  15.796 -0.3074 -0.3138  0.6156
   66MPD2    C1 1024   0.954   3.115  15.738  0.2454  0.1952 -0.1440
   66MPD2    C2 1025   1.030   3.002  15.741 -0.8325 -0.1324 -0.3298
   66MPD2    C3 1026   0.986   2.890  15.811  0.2303  0.6997 -0.4039
   66MPD2    C4 1027   0.855   2.880  15.855 -0.5369 -0.6149 -0.5960
   66MPD2    C5 1028   0.773   2.990  15.851 -0.1985 -0.5720  0.1720
   66MPD2     H 1029   1.128   3.003  15.695 -0.8553  3.0869 -0.2558
   66MPD2    H1 1030   0.824   2.783  15.892  0.6790 -0.9953 -0.5706
   66MPD2    H2 1031   0.758   3.191  15.786  0.3570  0.0602 -0.5255
   66MPD2    H3 1032   0.670   2.983  15.882 -0.2597  1.2540  0.3963
   66MPD2     N 1033   1.056   2.770  15.821 -0.0815 -0.3158 -0.2319
   66MPD2    H5 1034   0.996   2.697  15.859 -0.7418 -2.0732 -4.6692
   66MPD2    N1 1035   1.005   3.228  15.668  0.1775  0.2718 -0.4407
   66MPD2    H7 1036   1.101   3.215  15.636  0.8540 -1.1666  2.1698
   67TMC2    C1 1037   1.172   2.270  14.990 -0.3546  0.1202  0.0894
   67TMC2    C2 1038   1.113   2.385  15.037 -0.0313  0.0181 -0.6431
   67TMC2    C3 1039   1.181   2.464  15.129  0.3884 -0.4880  0.1201
   67TMC2    C4 1040   1.307   2.256  15.020  0.0057  0.4339 -0.4555
   67TMC2    C5 1041   1.363   2.329  15.124 -0.9479 -0.1282  0.5297
   67TMC2    C6 1042   1.306   2.437  15.177 -0.7726 -0.1427 -0.9192
   67TMC2     C 1043   1.143   2.213  14.856  0.3710  0.0872 -0.0904
   67TMC2     O 1044   1.200   2.107  14.833  0.2621  0.8831  0.2350
   67TMC2     H 1045   1.013   2.394  14.997 -0.8792  2.7503  2.1424
   67TMC2    H1 1046   1.352   2.163  14.986  1.2945  0.7931  0.2814
   67TMC2    H2 1047   1.351   2.515  15.238  0.3562 -1.5094  0.0054
   67TMC2    C7 1048   1.500   2.305  15.158 -0.5295  0.3352  0.7871
   67TMC2    C8 1049   1.117   2.587  15.172  0.2255 -0.3460  0.1838
   67TMC2    O1 1050   1.572   2.243  15.079  0.1571 -0.7038 -0.6255
   67TMC2    O2 1051   1.127   2.627  15.289  0.1896  0.0098  0.0575
   67TMC2    O5 1052   1.010   2.610  15.095 -0.0925 -0.1625  0.5880
   67TMC2    H5 1053   1.023   2.588  15.000 -0.0113  2.6263 -0.0445
   68MPD2     C 1054   1.105   2.209  14.565 -0.1922  0.8547 -0.2244
   68MPD2    C1 1055   1.007   2.266  14.646 -0.2460 -0.0929  0.2026
   68MPD2    C2 1056   0.883   2.304  14.594 -0.6843 -0.1480  0.0634
   68MPD2    C3 1057   0.864   2.279  14.454  0.1134  0.6003 -0.3737
   68MPD2    C4 1058   0.969   2.235  14.379  0.6217 -0.1457  0.1057
   68MPD2    C5 1059   1.089   2.202  14.425 -0.5073  0.1700 -0.7031
   68MPD2     H 1060   0.811   2.350  14.661 -3.1071  0.7816 -3.2031
   68MPD2    H1 1061   0.952   2.228  14.272  3.1323  0.2210 -0.3105
   68MPD2    H2 1062   1.206   2.184  14.596 -0.2033  1.8283  0.6074
   68MPD2    H3 1063   1.161   2.156  14.358  0.6976 -0.2749  0.8992
   68MPD2     N 1064   0.743   2.307  14.379 -0.8842  0.5827 -0.1297
   68MPD2    H5 1065   0.745   2.264  14.287 -0.3511  0.2242  0.0494
   68MPD2    N1 1066   1.040   2.282  14.783 -0.2607 -0.4365  0.0840
   68MPD2    H7 1067   0.976   2.335  14.842  0.9681 -0.0628  1.0794
   69TMC2    C1 1068   2.655   3.970  12.805 -0.2760  0.4283 -0.6258
   69TMC2    C2 1069   2.548   3.888  12.804 -0.6456 -0.0481 -0.3128
   69TMC2    C3 1070   2.476   3.886  12.689  0.1161  0.1721 -0.9298
   69TMC2    C4 1071   2.690   4.054  12.703 -0.0438 -0.0626  0.3172
   69TMC2    C5 1072   2.624   4.045  12.586 -0.0521  0.0601  0.1072
   69TMC2    C6 1073   2.512   3.965  12.578  0.1837 -0.1667 -0.1580
   69TMC2     C 1074   2.762   3.889  12.859 -0.9757 -0.3034  0.2703
   69TMC2     O 1075   2.736   3.825  12.959 -0.9736 -0.2266 -0.1593
   69TMC2     H 1076   2.523   3.815  12.881  1.3070 -3.2594 -2.7241
   69TMC2    H1 1077   2.778   4.115  12.714  1.5955 -2.5573  1.0985
   69TMC2    H2 1078   2.462   3.942  12.485 -1.2045 -1.8292  0.9998
   69TMC2    C7 1079   2.725   4.011  12.484  0.0043  0.9431  1.0690
   69TMC2    C8 1080   2.363   3.799  12.673  0.3737  0.3046 -0.1122
   69TMC2    O1 1081   2.843   4.020  12.526  0.3105 -0.3107  0.6941
   69TMC2    O2 1082   2.324   3.745  12.571  0.4797  0.2012 -0.0943
   69TMC2    O5 1083   2.316   3.773  12.798  0.6707  0.0796 -0.2290
   69TMC2    H5 1084   2.333   3.838  12.870  1.8135  0.1505 -0.5610
   70MPD2     C 1085   3.093   3.852  12.710  0.1009 -0.0351  0.0348
   70MPD2    C1 1086   2.990   3.813  12.796 -0.3156 -0.2794  0.3399
   70MPD2    C2 1087   3.000   3.700  12.871 -0.8892 -0.3009  0.4595
   70MPD2    C3 1088   3.110   3.616  12.848  0.2256 -0.0846 -0.0912
   70MPD2    C4 1089   3.199   3.647  12.753  0.3766  0.1426 -0.6902
   70MPD2    C5 1090   3.196   3.762  12.680  0.1638  0.0731 -0.4436
   70MPD2     H 1091   2.919   3.677  12.938  1.0848 -0.2989  2.8390
   70MPD2    H1 1092   3.279   3.583  12.717  0.1718 -1.4586  1.7462
   70MPD2    H2 1093   3.074   3.936  12.644 -0.5065  0.7685  1.2204
   70MPD2    H3 1094   3.265   3.778  12.597  0.7181  0.6022  0.1221
   70MPD2     N 1095   3.125   3.488  12.899  0.6327 -0.7754 -0.2006
   70MPD2    H5 1096   3.203   3.427  12.875  0.3008 -0.8499 -1.0749
   70MPD2    N1 1097   2.880   3.902  12.789  0.4226 -0.8405 -0.2320
   70MPD2    H7 1098   2.881   3.949  12.699  0.2382  2.7563  1.6493
   71TMC2    C1 1099   1.348   4.480   1.483  0.1200  0.4883  0.0776
   71TMC2    C2 1100   1.467   4.542   1.497  0.4338  0.9960 -0.5276
   71TMC2    C3 1101   1.509   4.577   1.622 -0.3778  0.0257  0.3263
   71TMC2    C4 1102   1.274   4.445   1.591 -0.0921  0.1925  0.2553
   71TMC2    C5 1103   1.316   4.494   1.713  0.0096 -0.3268 -0.4712
   71TMC2    C6 1104   1.437   4.554   1.733  0.5139 -0.0133 -0.3295
   71TMC2     C 1105   1.319   4.423   1.358  0.0264  0.1302  0.6796
   71TMC2     O 1106   1.200   4.412   1.330 -0.4158  0.0493 -0.1591
   71TMC2     H 1107   1.533   4.557   1.413  0.8706  2.3359  0.0446
   71TMC2    H1 1108   1.177   4.401   1.569 -1.0181  3.3877 -2.0919
   71TMC2    H2 1109   1.456   4.610   1.824  2.3716 -0.2862 -0.5538
   71TMC2    C7 1110   1.218   4.532   1.812 -0.2097  0.0583 -0.4941
   71TMC2    C8 1111   1.617   4.674   1.630  0.2816  0.5717 -0.3609
   71TMC2    O1 1112   1.265   4.568   1.921  0.0401  0.0843 -0.8347
   71TMC2    O2 1113   1.655   4.731   1.729  0.3915  0.3271  0.1994
   71TMC2    O5 1114   1.700   4.640   1.531  0.0701  0.2248 -0.0252
   71TMC2    H5 1115   1.669   4.560   1.483 -1.7315  0.8528  0.1140
   72MPD2     C 1116   1.435   4.233   0.895  0.3866 -0.5592 -0.3633
   72MPD2    C1 1117   1.324   4.310   0.936 -0.0036  0.2110 -0.1159
   72MPD2    C2 1118   1.323   4.359   1.067  0.1368  0.2309 -0.5260
   72MPD2    C3 1119   1.429   4.338   1.154  0.1052  0.7377  0.3498
   72MPD2    C4 1120   1.541   4.280   1.103 -0.6276 -0.8153 -0.4013
   72MPD2    C5 1121   1.542   4.227   0.977 -0.7738 -0.1058  0.1356
   72MPD2     H 1122   1.242   4.417   1.109  2.3951  2.1365  1.2090
   72MPD2    H1 1123   1.633   4.272   1.159 -1.0846  3.7349  1.0531
   72MPD2    H2 1124   1.462   4.218   0.792  0.3671  2.4679 -0.8147
   72MPD2    H3 1125   1.636   4.193   0.935 -0.5296 -0.3247  0.8583
   72MPD2     N 1126   1.432   4.388   1.286  0.8716 -0.0764 -0.1912
   72MPD2    H5 1127   1.521   4.403   1.333 -0.6370 -0.0296  2.7195
   72MPD2    N1 1128   1.225   4.355   0.853 -0.7008  0.3239 -0.3889
   72MPD2    H7 1129   1.161   4.424   0.891 -2.6699 -0.5510 -2.1159
   73TMC2    C1 1130   0.542   1.182  14.030 -0.1033 -0.1802  0.5862
   73TMC2    C2 1131   0.454   1.115  14.117  0.6467  0.3671 -0.1777
   73TMC2    C3 1132   0.509   1.027  14.204 -0.8857 -0.5278 -0.3756
   73TMC2    C4 1133   0.679   1.152  14.023  0.4135  0.2662 -0.2338
   73TMC2    C5 1134   0.724   1.058  14.101 -0.3602 -0.4851 -0.0250
   73TMC2    C6 1135   0.639   0.995  14.187 -0.0350  0.0000 -0.6157
   73TMC2     C 1136   0.533   1.330  14.051  1.2622 -0.8480 -0.0953
   73TMC2     O 1137   0.641   1.385  14.082  0.6463 -0.1860  0.5428
   73TMC2     H 1138   0.349   1.137  14.107  0.5620 -0.3594 -0.9135
   73TMC2    H1 1139   0.736   1.212  13.953 -0.7249  0.4949 -0.9555
   73TMC2    H2 1140   0.686   0.927  14.258 -1.5198 -1.9102 -1.4508
   73TMC2    C7 1141   0.846   1.093  14.170 -0.7629 -0.5062  0.3650
   73TMC2    C8 1142   0.438   0.970  14.316  0.2376  0.2695 -0.1696
   73TMC2    O1 1143   0.905   1.008  14.235 -0.1381 -0.3418 -0.3782
   73TMC2    O2 1144   0.465   0.860  14.354  0.1341  0.0562  0.0846
   73TMC2    O5 1145   0.320   1.034  14.327  0.0514  0.0319  0.3298
   73TMC2    H5 1146   0.321   1.131  14.315 -0.1765  0.3204  2.7736
   74MPD2     C 1147   0.373   1.796  13.921  0.1548  0.1943  0.4889
   74MPD2    C1 1148   0.478   1.763  14.003 -0.1815  1.0140 -0.1201
   74MPD2    C2 1149   0.496   1.626  14.021  0.1099 -0.4947  0.6631
   74MPD2    C3 1150   0.407   1.529  13.972 -0.1875  0.6447  0.0236
   74MPD2    C4 1151   0.297   1.570  13.897 -0.2625 -0.2462 -0.1902
   74MPD2    C5 1152   0.287   1.704  13.878  0.5528 -0.1675 -0.4220
   74MPD2     H 1153   0.587   1.603  14.076 -0.6135 -2.9159  0.8692
   74MPD2    H1 1154   0.221   1.504  13.857  0.0566 -0.5715 -0.2558
   74MPD2    H2 1155   0.352   1.902  13.913  1.4525  0.1096 -3.7174
   74MPD2    H3 1156   0.203   1.735  13.817  0.3133  1.4564  0.7292
   74MPD2     N 1157   0.423   1.390  13.990 -0.0455  0.0376 -0.4668
   74MPD2    H5 1158   0.351   1.326  13.959  1.2539 -1.8986  0.5038
   74MPD2    N1 1159   0.553   1.868  14.059 -0.0358  0.2592  0.0548
   74MPD2    H7 1160   0.532   1.963  14.030 -0.3428  0.7562  1.9383
   75TMC2    C1 1161   0.513   2.378  14.336  0.9548 -0.2553 -0.3549
   75TMC2    C2 1162   0.405   2.441  14.392  0.0538  0.5522 -0.0719
   75TMC2    C3 1163   0.300   2.468  14.314 -0.4158  0.2124 -0.9117
   75TMC2    C4 1164   0.515   2.360  14.204  0.3241 -0.0566  0.3024
   75TMC2    C5 1165   0.422   2.412  14.126  0.3459  0.1167  0.7659
   75TMC2    C6 1166   0.312   2.471  14.178  0.4425  0.1739  0.0730
   75TMC2     C 1167   0.634   2.361  14.432 -0.3099 -0.7355  0.4270
   75TMC2     O 1168   0.625   2.403  14.545  0.1706  0.2969 -0.3372
   75TMC2     H 1169   0.407   2.477  14.495  1.4002 -0.8850  0.4007
   75TMC2    H1 1170   0.594   2.304  14.155  0.2356 -0.9603  1.1721
   75TMC2    H2 1171   0.229   2.508  14.119  0.5006 -1.2076 -0.8669
   75TMC2    C7 1172   0.448   2.444  13.984  0.1264 -0.0895  0.0866
   75TMC2    C8 1173   0.168   2.511  14.357 -0.5128 -0.3504  0.7333
   75TMC2    O1 1174   0.353   2.493  13.923  0.1394  0.0103  0.1399
   75TMC2    O2 1175   0.122   2.612  14.305  0.5094 -0.3195 -0.2586
   75TMC2    O5 1176   0.153   2.482  14.492 -0.0400  0.1503 -0.7053
   75TMC2    H5 1177   0.197   2.399  14.520 -1.1163 -0.2969 -0.3417
   76TMC2    C1 1178   4.093   2.945  12.259 -0.2943  1.1325 -0.3254
   76TMC2    C2 1179   4.050   2.817  12.266 -0.0797 -0.4660  1.0938
   76TMC2    C3 1180   4.153   2.726  12.269 -0.0898 -0.1394  0.5057
   76TMC2    C4 1181   4.225   2.979  12.250  0.1516  0.9231 -0.4823
   76TMC2    C5 1182   4.319   2.885  12.259  1.0645  0.7352 -1.0365
   76TMC2    C6 1183   4.288   2.753  12.270 -0.1239 -0.7532  0.4643
   76TMC2     C 1184   4.005   3.045  12.307 -0.2495  0.3633 -1.5662
   76TMC2     O 1185   4.016   3.162  12.269  0.1046 -0.3900 -0.1554
   76TMC2     H 1186   3.945   2.789  12.259 -0.4655  1.0681  0.7238
   76TMC2    H1 1187   4.247   3.081  12.222 -0.6542  1.6557  1.5102
   76TMC2    H2 1188   4.366   2.680  12.252  2.9732  2.3662  1.1590
   76TMC2    C7 1189   4.441   2.909  12.187  0.3180 -0.5062 -0.9227
   76TMC2    C8 1190   4.113   2.592  12.289 -0.0357 -0.0547  0.3608
   76TMC2    O1 1191   4.436   2.928  12.069 -0.6555 -0.0818 -0.1124
   76TMC2    O2 1192   4.006   2.552  12.344 -0.1083 -0.8113  0.4110
   76TMC2    O5 1193   4.211   2.507  12.252 -0.1624  0.2199  0.3250
   76TMC2    H5 1194   4.248   2.544  12.170  0.8271  0.8936  1.0846
   77MPD2     C 1195   3.629   3.222  12.594  0.1275 -0.1152  0.2943
   77MPD2    C1 1196   3.663   3.264  12.464  0.4187 -0.2566  0.2056
   77MPD2    C2 1197   3.764   3.187  12.406  0.1635  0.1812  0.0561
   77MPD2    C3 1198   3.824   3.080  12.472 -0.6288  0.1784  0.3652
   77MPD2    C4 1199   3.790   3.049  12.592 -0.8534  0.2023 -0.2874
   77MPD2    C5 1200   3.694   3.117  12.654 -0.0517  0.6183  0.1054
   77MPD2     H 1201   3.790   3.213  12.304  1.3621  0.2547  0.3836
   77MPD2    H1 1202   3.840   2.968  12.643  0.1883 -1.7404 -4.3828
   77MPD2    H2 1203   3.562   3.280  12.657 -0.6198 -1.3077  0.5952
   77MPD2    H3 1204   3.652   3.087  12.749  2.0567 -1.2739  0.4189
   77MPD2     N 1205   3.927   2.997  12.412  0.2772  0.1299 -0.3275
   77MPD2    H5 1206   3.942   2.913  12.466 -0.0082  0.5513  0.4182
   77MPD2    N1 1207   3.616   3.376  12.395 -0.6775  0.7947  0.0417
   77MPD2    H7 1208   3.638   3.376  12.296 -1.0587 -0.4378 -0.0458
   78TMC2    C1 1209   0.596   3.884   1.116 -0.7427  0.5088 -0.9459
   78TMC2    C2 1210   0.568   4.013   1.095 -0.7425 -0.3147  0.1353
   78TMC2    C3 1211   0.626   4.108   1.165 -0.0005  0.4091  0.0343
   78TMC2    C4 1212   0.700   3.843   1.190  0.5611  0.2847 -0.1047
   78TMC2    C5 1213   0.755   3.948   1.262 -0.6329 -0.1415 -0.2986
   78TMC2    C6 1214   0.724   4.078   1.249  0.7469 -0.3423  0.1613
   78TMC2     C 1215   0.503   3.796   1.057  0.0740 -0.5103 -0.2409
   78TMC2     O 1216   0.424   3.834   0.970 -0.4320 -0.2431  0.1989
   78TMC2     H 1217   0.498   4.046   1.019  0.3595 -0.2497 -0.8448
   78TMC2    H1 1218   0.733   3.740   1.192 -2.1254 -0.5285  1.3487
   78TMC2    H2 1219   0.781   4.155   1.300  0.0016  1.2395 -1.3694
   78TMC2    C7 1220   0.888   3.922   1.296 -0.0330  0.7142  0.8288
   78TMC2    C8 1221   0.622   4.244   1.122  0.4991  0.4391 -0.0802
   78TMC2    O1 1222   0.955   3.843   1.228 -0.5900 -0.5035  0.3671
   78TMC2    O2 1223   0.614   4.278   1.004 -0.0001  0.6360 -0.1518
   78TMC2    O5 1224   0.581   4.321   1.222  0.4347 -0.1266  0.0595
   78TMC2    H5 1225   0.582   4.283   1.313  1.2171  1.5465  0.7588
   79MPD1     C 1226   0.313   3.315   1.021 -0.1101  0.0303  0.0459
   79MPD1    C1 1227   0.310   3.424   0.929 -0.0737  0.1891  0.0922
   79MPD1    C2 1228   0.381   3.539   0.961  0.6071 -0.0762 -0.0176
   79MPD1    C3 1229   0.423   3.565   1.091 -0.1057 -0.0775 -0.6239
   79MPD1    C4 1230   0.409   3.459   1.178  1.0294 -0.6102  0.1399
   79MPD1    C5 1231   0.368   3.333   1.145 -0.0919  0.0679  0.4822
   79MPD1     H 1232   0.391   3.617   0.886  0.7217  0.1817  0.2665
   79MPD1    H1 1233   0.473   3.470   1.264 -2.0711  1.5574  2.1782
   79MPD1    H2 1234   0.269   3.221   0.992 -1.3604  0.5203  0.3677
   79MPD1    H3 1235   0.386   3.256   1.219 -1.9855 -0.7818  0.0452
   79MPD1     N 1236   0.486   3.683   1.139 -1.1007  0.1798  0.2474
   79MPD1    H5 1237   0.518   3.675   1.235 -0.1339  1.0384 -0.0034
   79MPD1    N1 1238   0.263   3.403   0.794  1.0653 -0.1149 -0.3222
   79MPD1    H6 1239   0.236   3.490   0.748 -0.4194  0.1218  0.9789
   79MPD1    H7 1240   0.201   3.323   0.780  0.4549  0.2287  0.3975
   80TMC2    C1 1241   2.916   2.096  12.111 -0.4520  0.0890  0.1254
   80TMC2    C2 1242   2.907   2.228  12.066 -1.2528  0.3715  0.0426
   80TMC2    C3 1243   2.801   2.302  12.110  0.0778 -0.2142 -0.1781
   80TMC2    C4 1244   2.833   2.054  12.201 -0.0176 -0.3699 -0.0969
   80TMC2    C5 1245   2.731   2.128  12.246  0.1069  0.0935  0.0021
   80TMC2    C6 1246   2.715   2.255  12.203  0.3715 -0.1436  0.0953
   80TMC2     C 1247   3.053   2.042  12.114 -0.9025  1.0945  1.1006
   80TMC2     O 1248   3.056   1.921  12.133  0.7140  0.6916 -0.0665
   80TMC2     H 1249   2.977   2.268  11.994 -0.0092  1.4467  1.8236
   80TMC2    H1 1250   2.851   1.956  12.246 -3.1203 -0.9987 -0.2288
   80TMC2    H2 1251   2.650   2.323  12.257  2.1934  0.8373  1.0112
   80TMC2    C7 1252   2.675   2.100  12.370 -0.2550  0.0206  0.2210
   80TMC2    C8 1253   2.802   2.443  12.076  0.1929  0.3113 -0.2733
   80TMC2    O1 1254   2.565   2.149  12.391 -0.2516  0.7484  0.0961
   80TMC2    O2 1255   2.895   2.507  12.021  0.5679 -0.2516  0.4951
   80TMC2    O5 1256   2.672   2.466  12.069 -0.2925 -0.5031  0.1468
   80TMC2    H5 1257   2.627   2.382  12.094 -2.0870  0.4715  0.2388
   81MPD2     C 1258   3.314   1.980  12.227  0.2230 -0.1075  0.2103
   81MPD2    C1 1259   3.260   2.111  12.213 -0.1733 -0.4748  0.3197
   81MPD2    C2 1260   3.333   2.214  12.269  0.3012  0.7963  0.3780
   81MPD2    C3 1261   3.456   2.193  12.330  0.7871  0.5548 -0.1903
   81MPD2    C4 1262   3.495   2.063  12.363  0.0088 -0.1233 -0.4875
   81MPD2    C5 1263   3.428   1.960  12.302 -0.2066  0.6140  0.5566
   81MPD2     H 1264   3.296   2.316  12.282 -1.4234  0.2752 -0.4029
   81MPD2    H1 1265   3.578   2.042  12.430 -2.0459 -0.5180  1.9298
   81MPD2    H2 1266   3.270   1.893  12.179  0.7756 -0.4540  0.3327
   81MPD2    H3 1267   3.468   1.861  12.319  2.3309  1.6994  0.8891
   81MPD2     N 1268   3.533   2.299  12.383 -0.1382 -0.3731 -0.0882
   81MPD2    H5 1269   3.598   2.270  12.456  0.1338  2.2013  0.6899
   81MPD2    N1 1270   3.140   2.143  12.150  0.3570 -0.0871 -0.1817
   81MPD2    H7 1271   3.118   2.242  12.142  1.4353  0.2912  1.4835
   82TMC2    C1 1272   1.411   2.208  10.760 -0.1210  0.6023  1.3080
   82TMC2    C2 1273   1.519   2.294  10.773  0.3978 -0.2276 -0.4775
   82TMC2    C3 1274   1.598   2.286  10.881 -0.5312 -0.2966  0.1448
   82TMC2    C4 1275   1.386   2.119  10.854  0.3627 -0.3406  0.7159
   82TMC2    C5 1276   1.467   2.116  10.965 -0.6411 -0.1929 -0.1312
   82TMC2    C6 1277   1.570   2.197  10.981  0.8179 -0.4714  0.0038
   82TMC2     C 1278   1.315   2.234  10.651  0.1394  0.5098 -1.0889
   82TMC2     O 1279   1.336   2.333  10.582 -0.0171  0.0614  0.5852
   82TMC2     H 1280   1.531   2.375  10.701  2.0855  1.3117  1.5227
   82TMC2    H1 1281   1.296   2.059  10.855  0.2042 -0.1155  0.2469
   82TMC2    H2 1282   1.626   2.197  11.073  1.0300  1.9901 -0.1230
   82TMC2    C7 1283   1.454   2.014  11.067 -0.2313 -0.4347 -0.0704
   82TMC2    C8 1284   1.700   2.382  10.895 -0.4942  0.4372  0.5905
   82TMC2    O1 1285   1.503   2.037  11.172  0.4412  0.3894 -0.5948
   82TMC2    O2 1286   1.798   2.363  10.830 -0.5382 -0.0969  0.1498
   82TMC2    O5 1287   1.631   2.502  10.890  0.2432  0.4292  0.1903
   82TMC2    H5 1288   1.548   2.500  10.941 -1.9779  1.0020 -3.3784
   83MPD2     C 1289   0.964   2.058  10.319  0.1505  0.0214 -0.6417
   83MPD2    C1 1290   1.031   2.177  10.330 -0.1687  0.6228  0.3158
   83MPD2    C2 1291   1.110   2.203  10.435 -0.6831 -0.2294 -0.0990
   83MPD2    C3 1292   1.131   2.106  10.530 -0.1458 -0.5385 -0.9630
   83MPD2    C4 1293   1.065   1.984  10.519  0.3739 -0.9961 -0.1256
   83MPD2    C5 1294   0.980   1.961  10.410 -0.5902 -0.0162 -0.5979
   83MPD2     H 1295   1.154   2.300  10.454 -1.0457 -0.6215  2.6508
   83MPD2    H1 1296   1.093   1.897  10.576  1.5109 -1.1467 -0.9298
   83MPD2    H2 1297   0.908   2.028  10.231 -1.8588  0.4985  0.4685
   83MPD2    H3 1298   0.942   1.861  10.392 -0.4548  0.0573 -1.3040
   83MPD2     N 1299   1.233   2.127  10.635 -0.4331 -0.7799  0.2151
   83MPD2    H5 1300   1.229   2.054  10.706  1.9785  0.5042  1.6546
   83MPD2    N1 1301   0.997   2.272  10.231 -0.0711 -0.5284  0.0901
   83MPD2    H7 1302   0.934   2.239  10.159  1.3236 -1.4225 -0.7356
   84TMC2    C1 1303   2.690   1.280  10.958  0.0103 -0.5556 -0.5246
   84TMC2    C2 1304   2.714   1.377  10.861 -0.4957  0.7749 -0.8501
   84TMC2    C3 1305   2.685   1.352  10.727 -0.3944  0.5998  0.6457
   84TMC2    C4 1306   2.628   1.158  10.927 -0.0001  0.5456 -0.7251
   84TMC2    C5 1307   2.616   1.136  10.793  0.1410  1.0428  0.0032
   84TMC2    C6 1308   2.649   1.226  10.692  0.4053 -0.4701 -0.8501
   84TMC2     C 1309   2.715   1.300  11.099 -0.4824 -0.2955  0.5662
   84TMC2     O 1310   2.665   1.220  11.174 -0.2680 -0.3360 -0.1661
   84TMC2     H 1311   2.760   1.472  10.887  0.8384 -0.5774  1.7352
   84TMC2    H1 1312   2.633   1.074  10.996 -1.5066 -0.3866 -1.7463
   84TMC2    H2 1313   2.628   1.205  10.588  0.1077  1.5484 -1.1880
   84TMC2    C7 1314   2.550   1.016  10.744  0.5702  0.3352 -0.6985
   84TMC2    C8 1315   2.706   1.452  10.632  0.2117 -0.5972 -0.2531
   84TMC2    O1 1316   2.565   0.993  10.623  0.3524  0.1128  0.0498
   84TMC2    O2 1317   2.758   1.562  10.662  0.1477 -0.0866 -0.2472
   84TMC2    O5 1318   2.690   1.413  10.499  0.8486 -0.3338 -0.4258
   84TMC2    H5 1319   2.619   1.352  10.471  0.1605  0.1063  0.3962
   85TMC2    C1 1320   3.469   4.108  15.901 -0.1384 -0.0496 -0.0570
   85TMC2    C2 1321   3.357   4.176  15.859 -0.0971  0.1927  0.1512
   85TMC2    C3 1322   3.377   4.268  15.760  0.4121 -1.0466 -0.5563
   85TMC2    C4 1323   3.597   4.154  15.868  0.0320  0.1455 -0.4946
   85TMC2    C5 1324   3.612   4.258  15.780 -0.5599 -0.7308  0.2646
   85TMC2    C6 1325   3.503   4.318  15.720 -0.3059 -0.1383  0.4876
   85TMC2     C 1326   3.456   4.011  16.004 -0.1416 -0.0219  0.4272
   85TMC2     O 1327   3.558   3.981  16.065 -0.3127  0.5660  0.3197
   85TMC2     H 1328   3.263   4.151  15.907 -0.6539  2.1705  0.0844
   85TMC2    H1 1329   3.683   4.103  15.910 -2.8021 -1.0040  3.8550
   85TMC2    H2 1330   3.513   4.403  15.654  3.1285 -1.8806 -1.1870
   85TMC2    C7 1331   3.747   4.277  15.707 -0.9556 -0.0477 -0.1629
   85TMC2    C8 1332   3.267   4.312  15.680 -0.4131 -0.7983 -0.1517
   85TMC2    O1 1333   3.846   4.245  15.775  0.1110  0.0551  0.0347
   85TMC2    O2 1334   3.281   4.378  15.576 -0.1261 -0.3002 -0.4611
   85TMC2    O5 1335   3.173   4.219  15.690  0.4824 -0.4262  0.3684
   85TMC2    H5 1336   3.184   4.159  15.766  0.4074 -2.2462 -1.0549
   86MPD2     C 1337   3.182   3.704  16.318  0.2887  0.3391 -0.3466
   86MPD2    C1 1338   3.113   3.710  16.201  0.2529  0.1152  0.3227
   86MPD2    C2 1339   3.168   3.784  16.097 -0.1161  0.4912 -0.0995
   86MPD2    C3 1340   3.285   3.855  16.112 -0.4181 -0.1149 -0.8691
   86MPD2    C4 1341   3.351   3.842  16.237 -0.1141  0.1661 -0.1581
   86MPD2    C5 1342   3.298   3.768  16.342  0.1971 -0.0560 -0.8845
   86MPD2     H 1343   3.117   3.774  16.002 -0.1013  1.2571 -0.1867
   86MPD2    H1 1344   3.439   3.900  16.261 -0.0554  0.6117 -1.4306
   86MPD2    H2 1345   3.155   3.635  16.398  0.4482  0.8384  0.1348
   86MPD2    H3 1346   3.348   3.771  16.438 -2.1076 -0.9842  0.3448
   86MPD2     N 1347   3.331   3.942  16.005 -0.8438 -0.0575 -0.9633
   86MPD2    H5 1348   3.269   3.952  15.926 -2.5748 -0.4228  0.3621
   86MPD2    N1 1349   3.002   3.630  16.169 -0.0285  0.0691 -0.0072
   86MPD2    H7 1350   2.974   3.635  16.072 -1.2457 -1.7557  0.2467
   87TMC2    C1 1351   0.714   2.014   0.588  0.4017  0.6035 -0.2557
   87TMC2    C2 1352   0.727   1.980   0.719  0.1964 -0.6490 -0.3284
   87TMC2    C3 1353   0.659   2.057   0.815  0.5124 -0.1215 -0.3159
   87TMC2    C4 1354   0.629   2.117   0.548 -0.6876  0.1729 -0.6028
   87TMC2    C5 1355   0.553   2.180   0.648 -0.5944 -0.1850  0.3969
   87TMC2    C6 1356   0.566   2.149   0.777  0.6552  0.6641  0.2973
   87TMC2     C 1357   0.811   1.962   0.493  0.1877  0.0593  0.2254
   87TMC2     O 1358   0.846   2.029   0.395 -0.2079 -0.1355  0.1814
   87TMC2     H 1359   0.790   1.899   0.753  0.8378  0.1013  0.2890
   87TMC2    H1 1360   0.628   2.148   0.444  2.6072  1.0807 -0.3645
   87TMC2    H2 1361   0.515   2.200   0.858  0.4407  1.2345 -0.1861
   87TMC2    C7 1362   0.464   2.293   0.624 -0.2870  0.4926 -0.3954
   87TMC2    C8 1363   0.621   2.011   0.951 -0.3822 -0.1027 -1.1267
   87TMC2    O1 1364   0.427   2.351   0.724  0.4182  0.0704 -0.1875
   87TMC2    O2 1365   0.546   2.061   1.032  0.0102  0.0407 -0.0573
   87TMC2    O5 1366   0.695   1.901   0.975  1.0200 -0.0279  0.2532
   87TMC2    H5 1367   0.693   1.873   1.069  2.5849 -0.8349  0.0565
   88MPD2     C 1368   0.372   2.487   0.322 -0.1882 -0.1918 -0.9045
   88MPD2    C1 1369   0.404   2.463   0.456 -0.5345  0.7136  0.1323
   88MPD2    C2 1370   0.405   2.571   0.535 -0.3018 -0.6869  0.4228
   88MPD2    C3 1371   0.382   2.703   0.496 -0.3976 -0.0914  0.0422
   88MPD2    C4 1372   0.339   2.727   0.368 -0.2056 -0.1982  0.7415
   88MPD2    C5 1373   0.330   2.617   0.286 -0.4144  0.2041  0.4944
   88MPD2     H 1374   0.445   2.553   0.634 -1.4659 -3.6947  0.3582
   88MPD2    H1 1375   0.305   2.821   0.326  1.3711 -0.1373 -0.3861
   88MPD2    H2 1376   0.369   2.402   0.254  2.3549 -1.8094  1.0166
   88MPD2    H3 1377   0.292   2.631   0.186  0.5977  2.7256  0.4735
   88MPD2     N 1378   0.375   2.814   0.589  0.2426 -0.0263 -0.1454
   88MPD2    H5 1379   0.359   2.905   0.545  1.3077  0.4758  0.5024
   88MPD2    N1 1380   0.452   2.335   0.490  0.7199 -0.2699 -0.3579
   88MPD2    H7 1381   0.465   2.269   0.414  0.0847 -1.3349  0.4637
   89TMC2    C1 1382   2.806   0.610   1.242  0.1098 -0.0793  0.5718
   89TMC2    C2 1383   2.931   0.635   1.199  0.0896 -0.1174  0.1202
   89TMC2    C3 1384   2.976   0.764   1.216  0.4848  0.1376  0.1698
   89TMC2    C4 1385   2.723   0.711   1.291  0.5744 -0.1241 -0.7676
   89TMC2    C5 1386   2.773   0.841   1.294  0.5812 -0.6331  0.0494
   89TMC2    C6 1387   2.904   0.871   1.269  0.1824 -0.0147 -0.0871
   89TMC2     C 1388   2.745   0.486   1.189 -0.3808  0.1235  0.3038
   89TMC2     O 1389   2.809   0.411   1.116  0.1687  0.0185  0.0667
   89TMC2     H 1390   2.997   0.560   1.157  2.0758 -0.1164  3.2270
   89TMC2    H1 1391   2.618   0.696   1.313  1.1065 -2.2720  0.3199
   89TMC2    H2 1392   2.947   0.970   1.276  0.1832  0.0637 -1.2711
   89TMC2    C7 1393   2.704   0.944   1.354 -0.0858 -0.2506  0.1568
   89TMC2    C8 1394   3.096   0.783   1.136 -0.0408 -0.8303 -0.0681
   89TMC2    O1 1395   2.627   0.906   1.439  0.2134  0.2530  0.4004
   89TMC2    O2 1396   3.131   0.711   1.044 -0.1223  0.2623 -0.0888
   89TMC2    O5 1397   3.152   0.899   1.169 -0.2322  0.4444 -0.0971
   89TMC2    H5 1398   3.140   0.922   1.263 -2.2997 -0.5196 -0.1191
   90MPD2     C 1399   2.376   0.137   1.211  0.2579 -0.0518 -0.0324
   90MPD2    C1 1400   2.345   0.234   1.300 -0.4460 -0.1744 -0.9079
   90MPD2    C2 1401   2.433   0.337   1.319 -0.5847  0.0667  0.4324
   90MPD2    C3 1402   2.547   0.348   1.239  0.6561  0.0249  0.1659
   90MPD2    C4 1403   2.570   0.256   1.139  0.0731 -0.1496 -0.1553
   90MPD2    C5 1404   2.480   0.157   1.127  0.4962  0.1638 -0.1423
   90MPD2     H 1405   2.420   0.406   1.402 -0.6309  0.3240  0.2139
   90MPD2    H1 1406   2.653   0.253   1.070 -0.7121 -1.6214 -1.0331
   90MPD2    H2 1407   2.311   0.055   1.186 -0.1107  0.0164  0.7182
   90MPD2    H3 1408   2.493   0.085   1.046 -1.4288 -0.3624  0.0234
   90MPD2     N 1409   2.637   0.458   1.263 -0.3948  0.1012  0.2138
   90MPD2    H5 1410   2.603   0.537   1.317 -1.8641 -0.0800 -0.4426
   90MPD2    N1 1411   2.221   0.227   1.373 -0.1134 -0.1754 -0.2595
   90MPD2    H7 1412   2.206   0.306   1.435  0.8483 -0.4394  0.3170
   91TMC2    C1 1413   3.110   4.556  16.378 -0.2397  0.4429 -0.1033
   91TMC2    C2 1414   3.168   4.544  16.502  0.1552 -0.5758 -0.0584
   91TMC2    C3 1415   3.127   4.440  16.581  0.7045  0.8273 -0.8014
   91TMC2    C4 1416   3.010   4.468  16.341 -0.0460  0.1519  0.2565
   91TMC2    C5 1417   2.969   4.370  16.428 -0.1667 -0.3100  0.5324
   91TMC2    C6 1418   3.027   4.349  16.552 -0.6297  0.5407  0.3342
   91TMC2     C 1419   3.144   4.665  16.282  0.7284  0.8252 -0.3890
   91TMC2     O 1420   3.071   4.674  16.185 -0.6367 -0.1432 -0.2132
   91TMC2     H 1421   3.247   4.608  16.540 -0.4200 -0.1023  0.3393
   91TMC2    H1 1422   2.960   4.479  16.245  0.1463 -0.2041  0.1160
   91TMC2    H2 1423   2.993   4.266  16.612  1.2537 -1.2826 -1.1411
   91TMC2    C7 1424   2.840   4.310  16.415  0.1159  0.5610  0.3417
   91TMC2    C8 1425   3.165   4.452  16.721  0.3921  0.3394  0.7738
   91TMC2    O1 1426   2.792   4.248  16.509 -0.9039  0.4248  0.3168
   91TMC2    O2 1427   3.181   4.354  16.799 -0.0872  0.7334 -0.0244
   91TMC2    O5 1428   3.118   4.574  16.760 -0.1872 -0.0304  0.2347
   91TMC2    H5 1429   3.101   4.632  16.683  1.9211 -0.8529 -0.8790
   92MPD2     C 1430   3.248   0.172  16.121 -0.1746 -0.0098 -0.2038
   92MPD2    C1 1431   3.321   0.097  16.212 -0.4633  0.4356 -0.1162
   92MPD2    C2 1432   3.451   0.140  16.241  0.0137 -0.7443 -0.0955
   92MPD2    C3 1433   3.509   0.243  16.174  0.1473  0.7660  0.0274
   92MPD2    C4 1434   3.437   0.319  16.082 -0.2571 -0.5523  0.3552
   92MPD2    C5 1435   3.307   0.278  16.059 -0.5933 -0.0319  0.6155
   92MPD2     H 1436   3.501   0.088  16.322 -0.6124  1.6316  1.8176
   92MPD2    H1 1437   3.480   0.406  16.034  1.2831 -0.5929  1.6472
   92MPD2    H2 1438   3.143   0.155  16.101  0.2256 -0.8402 -1.5901
   92MPD2    H3 1439   3.247   0.334  15.989  1.3752 -1.2419 -2.0218
   92MPD2     N 1440   3.646   0.271  16.208  0.1092 -0.5090 -0.0291
   92MPD2    H5 1441   3.696   0.203  16.265 -0.1813 -2.0675 -1.6335
   92MPD2    N1 1442   3.270   4.729  16.295 -0.0797  0.1098  0.4023
   92MPD2    H7 1443   3.335   4.691  16.362  0.8662  2.2560  0.6948
   93TMC2    C1 1444   0.015   0.671  14.163 -1.4260  0.2236 -0.6440
   93TMC2    C2 1445   4.725   0.539  14.178 -0.0185 -0.3536 -0.6429
   93TMC2    C3 1446   0.092   0.449  14.181  0.4685 -0.5569  0.2520
   93TMC2    C4 1447   0.141   0.721  14.140  0.4442  0.1085  0.4297
   93TMC2    C5 1448   0.241   0.622  14.141 -0.1179 -0.1843 -0.0069
   93TMC2    C6 1449   0.217   0.487  14.153 -0.3715 -0.4593  0.4633
   93TMC2     C 1450   4.649   0.760  14.105  0.5587  0.4580  0.6533
   93TMC2     O 1451   4.678   0.878  14.119 -0.0425  0.9020 -0.4494
   93TMC2     H 1452   4.628   0.498  14.204  0.4640  0.6963  2.7741
   93TMC2    H1 1453   0.162   0.827  14.133  0.2546  0.0871 -0.5017
   93TMC2    H2 1454   0.288   0.409  14.128  0.7520  0.2448  1.4482
   93TMC2    C7 1455   0.375   0.645  14.081 -0.0229 -0.2683 -0.2268
   93TMC2    C8 1456   0.062   0.318  14.134  0.4477  0.8748  0.1747
   93TMC2    O1 1457   0.460   0.559  14.075  0.0906  0.0735  0.3720
   93TMC2    O2 1458   0.129   0.267  14.046  0.8618 -0.0316  0.1176
   93TMC2    O5 1459   4.695   0.258  14.207  0.0334 -0.2767  0.6270
   93TMC2    H5 1460   4.667   0.310  14.285 -0.5521  0.1589  0.1224
   94MPD2     C 1461   4.483   0.902  13.903  0.9980  0.2266  0.5833
   94MPD2    C1 1462   4.486   0.767  13.919 -0.5628  0.2963  0.0581
   94MPD2    C2 1463   4.411   0.692  13.833  0.6864  0.6818  0.4757
   94MPD2    C3 1464   4.327   0.750  13.737 -0.0965 -0.1843  0.2558
   94MPD2    C4 1465   4.335   0.892  13.722  0.7752  0.7556 -0.4133
   94MPD2    C5 1466   4.404   0.964  13.812 -0.2463 -0.3511  0.1886
   94MPD2     H 1467   4.412   0.584  13.841  1.0943  0.5985 -0.7023
   94MPD2    H1 1468   4.282   0.943  13.641 -2.0990 -0.8350  0.4677
   94MPD2    H2 1469   4.533   0.976  13.964  1.1439  0.0156  0.7220
   94MPD2    H3 1470   4.409   1.071  13.798  0.0722 -0.8664 -3.6897
   94MPD2     N 1471   4.247   0.676  13.648  0.1507  0.2908 -0.6541
   94MPD2    H5 1472   4.207   0.729  13.571  0.2020  1.3855  0.0681
   94MPD2    N1 1473   4.561   0.695  14.017 -0.0852 -0.1118 -0.2851
   94MPD2    H7 1474   4.548   0.595  14.024 -1.7570  0.1615  0.3558
   95TMC2    C1 1475   0.416   2.305  16.351 -0.6829  0.0319 -0.3464
   95TMC2    C2 1476   0.444   2.419  16.426  0.2050 -0.2852  0.4382
   95TMC2    C3 1477   0.403   2.418  16.556  0.2000 -0.1003 -0.0492
   95TMC2    C4 1478   0.349   2.196  16.406 -0.4260 -1.0379 -0.6579
   95TMC2    C5 1479   0.295   2.213  16.533 -0.4757  0.0103 -0.0470
   95TMC2    C6 1480   0.326   2.321  16.612 -1.0510 -0.8648 -0.0665
   95TMC2     C 1481   0.511   2.291  16.242 -0.0219 -0.3744 -0.1550
   95TMC2     O 1482   0.587   2.384  16.223  0.2922  0.5949  0.5675
   95TMC2     H 1483   0.505   2.499  16.386 -0.5047  0.7843  1.4851
   95TMC2    H1 1484   0.335   2.100  16.359  1.7638 -1.0586 -1.2782
   95TMC2    H2 1485   0.254   2.339  16.691 -0.6751  1.3133 -0.2162
   95TMC2    C7 1486   0.208   2.103  16.577  0.0826 -0.6793 -0.3474
   95TMC2    C8 1487   0.421   2.539  16.623 -0.0937  0.1347  0.0030
   95TMC2    O1 1488   0.184   2.017  16.493 -0.1981  0.2292  0.3899
   95TMC2    O2 1489   0.420   2.653  16.577  0.4062  0.0289 -0.0947
   95TMC2    O5 1490   0.424   2.510  16.754  0.3308  0.4317 -0.4795
   95TMC2    H5 1491   0.431   2.413  16.769  1.4238  0.4611 -0.8091
   96MPD2     C 1492   0.824   2.038  15.918  0.3208  0.4499  0.2283
   96MPD2    C1 1493   0.836   2.164  15.974  0.0139 -0.7701  0.7362
   96MPD2    C2 1494   0.726   2.213  16.047 -0.3628 -0.0081 -0.5830
   96MPD2    C3 1495   0.611   2.137  16.077  0.6132  0.6035  0.3396
   96MPD2    C4 1496   0.613   2.007  16.038  0.4248  0.0792 -0.2961
   96MPD2    C5 1497   0.713   1.962  15.955  0.0789 -0.1710  0.2651
   96MPD2     H 1498   0.728   2.318  16.074  0.6017  0.5212 -2.6943
   96MPD2    H1 1499   0.536   1.934  16.063  1.3753 -0.9896 -0.4990
   96MPD2    H2 1500   0.898   1.984  15.860 -1.5326 -1.5665 -0.2794
   96MPD2    H3 1501   0.702   1.861  15.918  1.5198 -1.0698  2.3100
   96MPD2     N 1502   0.512   2.172  16.174 -1.0182  0.4797 -0.6162
   96MPD2    H5 1503   0.439   2.110  16.207  0.5358 -0.6656  0.7362
   96MPD2    N1 1504   0.949   2.241  15.925  0.3325 -0.4645  0.2699
   96MPD2    H7 1505   1.013   2.183  15.871  1.0498 -0.2013  0.8250
   97TMC2    C1 1506   3.152   4.684  17.569  0.2944  0.5172 -1.2268
   97TMC2    C2 1507   3.188   4.670  17.436 -0.1125 -0.5568 -0.1973
   97TMC2    C3 1508   3.277   0.020  17.385 -1.4294 -0.4592 -0.0580
   97TMC2    C4 1509   3.191   0.056  17.645 -0.5680 -0.3318 -0.3131
   97TMC2    C5 1510   3.280   0.147  17.591 -0.8501  1.0771  1.0631
   97TMC2    C6 1511   3.323   0.130  17.459  0.5843 -0.5334  0.1701
   97TMC2     C 1512   3.048   4.603  17.634  0.1627 -0.6169  0.3756
   97TMC2     O 1513   3.060   4.595   0.007 -0.0796  0.3349  0.3353
   97TMC2     H 1514   3.152   4.587  17.375  1.3081  0.0272 -1.8384
   97TMC2    H1 1515   3.142   0.077  17.739  1.6858 -1.3196  1.0794
   97TMC2    H2 1516   3.375   0.208  17.405  0.9630 -0.9831 -0.1221
   97TMC2    C7 1517   3.310   0.275  17.650 -0.7089  0.1365  0.8038
   97TMC2    C8 1518   3.323   4.734  17.255 -0.7391 -0.0713  0.1434
   97TMC2    O1 1519   3.413   0.329  17.620 -0.5383  0.0748  0.2575
   97TMC2    O2 1520   3.267   4.654  17.182  0.4898  0.1375  0.0755
   97TMC2    O5 1521   3.429   0.069  17.222  0.4120 -0.0301 -0.0247
   97TMC2    H5 1522   3.474   0.117  17.294 -1.4316 -0.6044  1.5225
   98MPD2     C 1523   2.641   4.289  17.643  0.2926 -0.4355  0.5095
   98MPD2    C1 1524   2.729   4.333  17.742 -0.5061 -0.0243  1.1333
   98MPD2    C2 1525   2.841   4.407  17.706 -0.2750  0.1243  0.2771
   98MPD2    C3 1526   2.861   4.451  17.580 -0.5202 -0.1049 -0.0560
   98MPD2    C4 1527   2.780   4.408  17.477 -0.5670  0.7602  0.3131
   98MPD2    C5 1528   2.670   4.330  17.508 -0.3598  0.0451 -0.4810
   98MPD2     H 1529   2.907   4.434   0.040 -0.9295  0.8177  0.5876
   98MPD2    H1 1530   2.782   4.438  17.373 -0.1936 -2.6725 -0.6660
   98MPD2    H2 1531   2.556   4.227  17.668 -0.0528 -0.1404  0.0716
   98MPD2    H3 1532   2.597   4.307  17.431 -1.1525  1.5964 -0.1801
   98MPD2     N 1533   2.962   4.545  17.541  0.0434 -0.0962 -0.4100
   98MPD2    H5 1534   2.960   4.587  17.449 -2.2486 -1.0705 -0.7907
   98MPD2    N1 1535   2.695   4.298   0.127  0.7578 -0.2474 -0.4541
   98MPD2    H7 1536   2.631   4.222   0.145 -1.3483  2.2662  2.7698
   99TMC2    C1 1537   1.242   0.739   2.186 -0.2483 -0.4685  0.3763
   99TMC2    C2 1538   1.203   0.636   2.265 -0.5201 -0.2176 -0.5208
   99TMC2    C3 1539   1.088   0.662   2.334  0.1269  0.1602 -0.1406
   99TMC2    C4 1540   1.201   0.868   2.189  0.2097  0.0248 -0.5414
   99TMC2    C5 1541   1.090   0.888   2.274 -0.3194  0.3730  0.4267
   99TMC2    C6 1542   1.034   0.785   2.341  0.3960  0.2097 -0.3426
   99TMC2     C 1543   1.373   0.708   2.118  0.6183  0.0614 -0.5272
   99TMC2     O 1544   1.436   0.610   2.147 -0.2473  0.2026  0.6306
   99TMC2     H 1545   1.237   0.534   2.251  4.5577  1.2839  0.8490
   99TMC2    H1 1546   1.242   0.948   2.128  3.7391 -0.4803  1.1942
   99TMC2    H2 1547   0.948   0.806   2.403  1.8449 -0.2589  1.8472
   99TMC2    C7 1548   1.021   1.009   2.258 -0.1974  0.2628  0.4195
   99TMC2    C8 1549   1.038   0.561   2.424  0.6955 -0.5516  0.0013
   99TMC2    O1 1550   0.974   1.058   2.362 -0.0508  0.1607 -0.1114
   99TMC2    O2 1551   1.094   0.534   2.527 -0.2612 -0.8044 -0.4281
   99TMC2    O5 1552   0.905   0.574   2.404  0.1519  0.0278 -0.3156
   99TMC2    H5 1553   0.876   0.606   2.315 -1.5575 -0.0839  0.2003
  100MPD2     C 1554   1.618   0.716   1.951  0.7497  0.2557 -0.3164
  100MPD2    C1 1555   1.506   0.798   1.933  0.4998  0.4166  0.3810
  100MPD2    C2 1556   1.505   0.886   1.824 -0.1513 -0.1857  0.6190
  100MPD2    C3 1557   1.616   0.898   1.744  0.0175 -0.4787  0.7176
  100MPD2    C4 1558   1.723   0.808   1.762 -0.4649 -0.0166 -0.3380
  100MPD2    C5 1559   1.720   0.719   1.865 -0.5010 -0.4941 -0.6478
  100MPD2     H 1560   1.420   0.952   1.810 -0.1194 -0.4947 -1.0117
  100MPD2    H1 1561   1.817   0.811   1.707 -0.3398 -1.0759 -0.1682
  100MPD2    H2 1562   1.625   0.648   2.035  0.9002  0.2993 -0.2944
  100MPD2    H3 1563   1.807   0.655   1.875 -0.5988 -0.6243 -0.6245
  100MPD2     N 1564   1.610   0.997   1.643 -0.1712 -0.7085  0.3917
  100MPD2    H5 1565   1.515   1.030   1.628 -0.2066 -1.0687 -0.1870
  100MPD2    N1 1566   1.389   0.789   2.010  0.2284 -0.7123  0.5174
  100MPD2    H7 1567   1.310   0.834   1.966 -0.3187  0.0536  2.2941
  101TMC2    C1 1568   2.121   2.916  12.940  0.8021  0.3067 -1.1228
  101TMC2    C2 1569   2.030   2.856  12.857  0.4260 -0.4400 -0.4731
  101TMC2    C3 1570   2.023   2.902  12.733 -0.1258  0.1862  0.0027
  101TMC2    C4 1571   2.199   3.025  12.913  0.1146 -0.0992 -0.4190
  101TMC2    C5 1572   2.189   3.066  12.780  0.1385  0.6395  0.6472
  101TMC2    C6 1573   2.106   3.006  12.688  0.2440 -0.1318  0.4334
  101TMC2     C 1574   2.076   2.903  13.075 -1.1358 -0.2131 -0.5119
  101TMC2     O 1575   1.957   2.881  13.092  0.2004  0.2557 -0.7825
  101TMC2     H 1576   1.979   2.765  12.888 -1.2351  0.9275  0.8306
  101TMC2    H1 1577   2.262   3.076  12.985  0.3935  1.4513 -1.7554
  101TMC2    H2 1578   2.107   3.030  12.582  2.4677 -0.2408  0.4244
  101TMC2    C7 1579   2.294   3.154  12.722 -0.1395  0.1624  0.2505
  101TMC2    C8 1580   1.932   2.851  12.634 -0.2869 -0.0136 -0.7057
  101TMC2    O1 1581   2.319   3.137  12.603 -0.4651 -0.0702  0.0330
  101TMC2    O2 1582   1.878   2.924  12.546  0.1662  0.3170 -0.1267
  101TMC2    O5 1583   1.928   2.711  12.644 -0.2974  0.6838 -0.3264
  101TMC2    H5 1584   1.983   2.670  12.715  0.1516  0.4094 -0.8342
  102MPD2     C 1585   2.237   2.956  13.398 -0.5676  0.0308  0.6620
  102MPD2    C1 1586   2.146   2.914  13.303  0.2906 -0.0321 -0.4566
  102MPD2    C2 1587   2.038   2.850  13.355 -0.0831 -0.4476 -0.8173
  102MPD2    C3 1588   2.012   2.841  13.489 -0.7459  0.4103 -0.1993
  102MPD2    C4 1589   2.103   2.894  13.577  0.2993  0.5096  0.4241
  102MPD2    C5 1590   2.208   2.955  13.529 -0.6185  0.1886 -0.6088
  102MPD2     H 1591   1.977   2.789  13.289  1.4831 -2.6980 -0.2035
  102MPD2    H1 1592   2.094   2.913  13.683  1.2395 -2.9519  1.1300
  102MPD2    H2 1593   2.331   3.004  13.374 -0.9898  0.5094 -0.0502
  102MPD2    H3 1594   2.277   3.012  13.590  0.6752 -0.5891 -1.3370
  102MPD2     N 1595   1.893   2.778  13.526  0.8085 -0.1599 -0.3356
  102MPD2    H5 1596   1.835   2.733  13.456 -2.2468  2.1638  0.7000
  102MPD2    N1 1597   2.171   2.941  13.163  0.0528  0.3549 -0.1643
  102MPD2    H7 1598   2.263   2.977  13.139  0.8615 -1.1027  0.7775
  103TMC2    C1 1599   0.350   2.984  12.644  0.2314  0.0106 -0.0321
  103TMC2    C2 1600   0.470   3.023  12.595  0.0867 -0.1906 -0.8555
  103TMC2    C3 1601   0.556   3.063  12.699 -0.1227  0.2768 -0.2531
  103TMC2    C4 1602   0.311   3.009  12.773 -0.4840  0.2233  0.2809
  103TMC2    C5 1603   0.395   3.062  12.869 -0.4471 -0.3969 -0.4051
  103TMC2    C6 1604   0.523   3.080  12.833  0.2333  0.3852 -0.6854
  103TMC2     C 1605   0.247   2.918  12.560  0.4071 -0.0874  0.2752
  103TMC2     O 1606   0.139   2.894  12.612 -0.3687 -0.4879  0.9166
  103TMC2     H 1607   0.508   2.997  12.496 -0.5195 -1.0631 -0.8541
  103TMC2    H1 1608   0.213   2.983  12.810 -0.5965 -0.3896 -0.4407
  103TMC2    H2 1609   0.597   3.130  12.894 -0.3735  1.0910 -0.5248
  103TMC2    C7 1610   0.333   3.089  12.994  0.6589  0.0510  0.2860
  103TMC2    C8 1611   0.683   3.111  12.657  0.2430  0.4856  0.5557
  103TMC2    O1 1612   0.225   3.147  12.989  1.0262  0.2721  0.0038
  103TMC2    O2 1613   0.784   3.105  12.730  0.3231 -0.1766 -0.1120
  103TMC2    O5 1614   0.670   3.180  12.546 -0.1711  0.7754  0.1977
  103TMC2    H5 1615   0.583   3.185  12.501  0.3668  0.1316 -0.9100
  104MPD2     C 1616   0.215   2.887  12.190 -0.0597  0.1520 -0.4355
  104MPD2    C1 1617   0.177   2.900  12.322 -0.1099  0.5659 -0.4972
  104MPD2    C2 1618   0.040   2.894  12.342  0.2301  0.1884 -0.1712
  104MPD2    C3 1619   4.688   2.905  12.240 -0.1043 -1.0241  0.3279
  104MPD2    C4 1620   4.736   2.917  12.108  0.2941 -0.4790 -0.8867
  104MPD2    C5 1621   0.132   2.898  12.087  0.2606 -0.7207 -0.2024
  104MPD2     H 1622   0.003   2.887  12.444  0.6152 -2.9659 -0.2510
  104MPD2    H1 1623   4.667   2.923  12.024 -0.0131  0.2604 -0.5814
  104MPD2    H2 1624   0.320   2.871  12.167 -0.4245 -1.3901 -1.0712
  104MPD2    H3 1625   0.167   2.887  11.985  0.1365 -1.5091 -0.1612
  104MPD2     N 1626   4.554   2.892  12.271 -0.2520 -0.0610  0.7850
  104MPD2    H5 1627   4.524   2.878  12.367 -1.2575 -2.4216  0.1510
  104MPD2    N1 1628   0.277   2.910  12.425 -0.1451 -0.0578 -0.0778
  104MPD2    H7 1629   0.374   2.913  12.396 -1.2931  1.0495 -3.6962
  105TMC2    C1 1630   1.398   1.731  17.490 -0.0526  0.0324  0.2916
  105TMC2    C2 1631   1.307   1.807  17.430 -0.4200 -0.2694 -0.8355
  105TMC2    C3 1632   1.192   1.834  17.497 -0.1771 -0.1308 -0.0716
  105TMC2    C4 1633   1.372   1.681  17.613 -1.0083  0.5720  0.5153
  105TMC2    C5 1634   1.263   1.728  17.682 -0.2262 -0.0251 -0.0270
  105TMC2    C6 1635   1.165   1.798  17.620  0.1584  0.2012  0.6679
  105TMC2     C 1636   1.533   1.707  17.437 -0.3145  0.4677 -0.2181
  105TMC2     O 1637   1.585   1.609  17.483  0.2402  0.0441 -0.3681
  105TMC2     H 1638   1.321   1.847  17.331  0.5335 -0.3517 -0.7334
  105TMC2    H1 1639   1.439   1.624  17.676 -0.9930  0.0314  0.0081
  105TMC2    H2 1640   1.067   1.817  17.663 -0.2340  0.1279 -0.2028
  105TMC2    C7 1641   1.220   1.658   0.053 -0.6143 -0.3222  0.0606
  105TMC2    C8 1642   1.098   1.920  17.432  0.1489 -0.1207  0.1438
  105TMC2    O1 1643   1.249   1.539   0.059 -0.2115 -0.1122 -0.2989
  105TMC2    O2 1644   1.118   1.944  17.314 -0.5629  0.1278  0.1283
  105TMC2    O5 1645   1.082   2.017  17.528  0.7381  0.7049  0.0086
  105TMC2    H5 1646   1.105   1.991  17.620  0.1116  1.3283  0.3407
  106MPD2     C 1647   1.961   1.886  17.225 -0.1361 -0.5283 -0.5065
  106MPD2    C1 1648   1.868   1.985  17.215  0.3782 -0.1929  0.0488
  106MPD2    C2 1649   1.742   1.959  17.270 -0.2247 -0.5447  0.3187
  106MPD2    C3 1650   1.709   1.841  17.332  0.0159 -0.1594 -0.0715
  106MPD2    C4 1651   1.808   1.750  17.356  0.3592  0.1445 -0.5989
  106MPD2    C5 1652   1.928   1.772  17.301 -0.2984 -0.1313  0.2518
  106MPD2     H 1653   1.671   2.041  17.272  0.3481  0.0318 -2.5016
  106MPD2    H1 1654   1.799   1.664  17.422  0.3815 -0.8095 -1.8171
  106MPD2    H2 1655   2.064   1.917  17.211  0.0713 -1.1439 -0.3535
  106MPD2    H3 1656   2.011   1.705  17.318 -0.1723 -0.0268  0.0519
  106MPD2     N 1657   1.579   1.823  17.386 -0.1597  0.6616  0.6816
  106MPD2    H5 1658   1.521   1.904  17.364  0.9683  1.0534 -0.9126
  106MPD2    N1 1659   1.884   2.107  17.148  0.1498 -0.4229  0.2951
  106MPD2    H7 1660   1.806   2.172  17.144 -0.8286 -1.4795  2.2114
  107TMC2    C1 1661   2.561   1.380  12.015  0.1456  0.3161  0.0545
  107TMC2    C2 1662   2.495   1.265  11.985 -0.3810 -0.5619 -0.3546
  107TMC2    C3 1663   2.542   1.187  11.879 -0.8264  0.1281  0.4197
  107TMC2    C4 1664   2.661   1.432  11.947 -0.0463 -0.0180 -0.4404
  107TMC2    C5 1665   2.693   1.361  11.835  0.1981  0.3192 -0.1362
  107TMC2    C6 1666   2.649   1.239  11.806  0.4706  0.7110  0.1336
  107TMC2     C 1667   2.529   1.435  12.147  0.0372  0.4616  0.6396
  107TMC2     O 1668   2.411   1.426  12.187 -0.1475 -0.0360  0.2097
  107TMC2     H 1669   2.430   1.218  12.059 -0.0283 -1.5868 -0.6889
  107TMC2    H1 1670   2.706   1.528  11.968 -0.1869  0.0754 -0.5717
  107TMC2    H2 1671   2.704   1.179  11.733  0.0993 -1.2005  1.4143
  107TMC2    C7 1672   2.800   1.405  11.752  0.4540 -0.4957 -0.0759
  107TMC2    C8 1673   2.517   1.047  11.878  0.3847  0.7564  0.1607
  107TMC2    O1 1674   2.890   1.475  11.794 -0.1416  0.5220  0.1745
  107TMC2    O2 1675   2.496   0.973  11.971 -0.1541  0.5674 -0.1710
  107TMC2    O5 1676   2.502   1.001  11.751 -0.3029  0.3749  0.0775
  107TMC2    H5 1677   2.508   1.075  11.687  0.9716  1.4064  1.3931
  108MPD2     C 1678   2.769   1.579  12.382  0.4565  0.5322  0.3688
  108MPD2    C1 1679   2.644   1.560  12.322 -0.8945  0.2609 -0.1024
  108MPD2    C2 1680   2.538   1.613  12.384  0.3284  0.0695  0.3549
  108MPD2    C3 1681   2.541   1.694  12.494  0.3776  0.5274  0.0067
  108MPD2    C4 1682   2.657   1.697  12.558  0.7022 -0.5533  0.3781
  108MPD2    C5 1683   2.769   1.640  12.507 -0.4244 -0.1220 -0.8220
  108MPD2     H 1684   2.436   1.593  12.351  0.4143  0.9630 -0.4464
  108MPD2    H1 1685   2.662   1.766  12.641  1.3036  1.9145 -1.6945
  108MPD2    H2 1686   2.856   1.530  12.339  0.5068  2.1060 -1.3157
  108MPD2    H3 1687   2.860   1.651  12.565 -0.7235 -1.7684 -0.0548
  108MPD2     N 1688   2.429   1.736  12.568  0.1536 -0.7664  0.2641
  108MPD2    H5 1689   2.439   1.778  12.660  0.2709 -0.0484 -0.0760
  108MPD2    N1 1690   2.640   1.487  12.204  0.4132  0.0415 -0.2894
  108MPD2    H7 1691   2.732   1.467  12.166 -0.1744 -0.5768 -1.4019
  109TMC2    C1 1692   1.929   3.350   0.284  0.7077  0.1683  0.1568
  109TMC2    C2 1693   1.959   3.272   0.178  0.0896  1.3028  0.6391
  109TMC2    C3 1694   2.062   3.308   0.102 -0.4166 -0.0731 -0.1839
  109TMC2    C4 1695   2.004   3.451   0.326 -0.4682 -1.2068  0.0091
  109TMC2    C5 1696   2.120   3.481   0.259 -0.2892  0.1623 -0.2019
  109TMC2    C6 1697   2.150   3.406   0.143 -0.3531 -0.6321  0.3941
  109TMC2     C 1698   1.797   3.337   0.345  0.5712  0.1606 -0.1739
  109TMC2     O 1699   1.714   3.272   0.282  0.7283 -0.4810  0.0425
  109TMC2     H 1700   1.893   3.192   0.144 -0.0008  1.6696 -0.0454
  109TMC2    H1 1701   1.979   3.528   0.399  1.8051 -0.4589 -0.0143
  109TMC2    H2 1702   2.242   3.414   0.087 -1.6606  2.3433 -1.3308
  109TMC2    C7 1703   2.220   3.575   0.312 -0.1451 -0.4094  0.0815
  109TMC2    C8 1704   2.121   3.195   0.036 -1.4027 -0.0805  0.1493
  109TMC2    O1 1705   2.289   3.634   0.230  0.0055  0.1299  0.5765
  109TMC2    O2 1706   2.085   3.082   0.061  0.2814  0.0547 -0.1807
  109TMC2    O5 1707   2.207   3.237  17.691 -0.2832  0.6095 -0.3575
  109TMC2    H5 1708   2.194   3.331  17.666 -0.4632  0.3576 -1.2159
  110MPD2     C 1709   1.437   3.521   0.676  0.1988  0.0882  0.3400
  110MPD2    C1 1710   1.559   3.547   0.732 -0.0954 -1.1739 -0.5246
  110MPD2    C2 1711   1.671   3.493   0.663 -0.1948  0.2842  0.5294
  110MPD2    C3 1712   1.666   3.424   0.540 -0.0528 -0.3118 -0.3701
  110MPD2    C4 1713   1.543   3.429   0.474 -0.6929  0.1910  0.5978
  110MPD2    C5 1714   1.429   3.472   0.545 -0.0971 -0.4262 -0.0178
  110MPD2     H 1715   1.770   3.502   0.708 -0.5517  2.2578  0.9507
  110MPD2    H1 1716   1.513   3.392   0.377  1.5755 -1.5415  0.5473
  110MPD2    H2 1717   1.340   3.540   0.722 -1.5725  0.0556 -3.3326
  110MPD2    H3 1718   1.329   3.466   0.502 -0.6185 -2.0733  1.4160
  110MPD2     N 1719   1.786   3.396   0.468  0.6792  0.4715  0.5994
  110MPD2    H5 1720   1.877   3.407   0.512  0.6732  1.8254  0.2562
  110MPD2    N1 1721   1.566   3.613   0.858 -0.5617  0.1378 -0.3516
  110MPD2    H7 1722   1.481   3.654   0.895  0.3674  1.5279  0.2569
  111TMC2    C1 1723   1.839   3.074  11.795 -0.5609  0.0400  0.7070
  111TMC2    C2 1724   1.786   2.951  11.766  0.0383  0.2566  0.1042
  111TMC2    C3 1725   1.872   2.847  11.789  0.3512  0.4712 -0.6566
  111TMC2    C4 1726   1.964   3.095  11.852  0.6200  0.0290 -0.0928
  111TMC2    C5 1727   2.034   2.981  11.875  0.1831  0.0140 -0.5246
  111TMC2    C6 1728   1.994   2.853  11.846 -0.0564 -0.2560  0.1730
  111TMC2     C 1729   1.752   3.175  11.737  0.4424  0.6385 -0.1290
  111TMC2     O 1730   1.696   3.155  11.633  0.2082  0.2497  0.3826
  111TMC2     H 1731   1.686   2.940  11.726 -0.7178  0.8553  1.8338
  111TMC2    H1 1732   1.992   3.196  11.881 -2.7194  0.4945  1.5265
  111TMC2    H2 1733   2.053   2.767  11.874 -0.4016 -1.2817 -2.2198
  111TMC2    C7 1734   2.169   3.005  11.932 -0.8707 -0.2672 -0.0385
  111TMC2    C8 1735   1.821   2.718  11.762  0.2418 -0.5355 -0.5657
  111TMC2    O1 1736   2.198   3.121  11.959 -0.1038  0.2657  0.3273
  111TMC2    O2 1737   1.870   2.617  11.813 -0.0424  0.4070 -0.3402
  111TMC2    O5 1738   1.768   2.719  11.641 -0.0204  0.2059  0.8755
  111TMC2    H5 1739   1.747   2.808  11.605 -1.6311  0.6809  2.9614
  112MPD2     C 1740   1.656   3.677  11.719  0.1039  0.3682 -0.9722
  112MPD2    C1 1741   1.660   3.585  11.617 -0.2251  0.0831 -0.6612
  112MPD2    C2 1742   1.697   3.454  11.647  0.4398  0.4277  0.0634
  112MPD2    C3 1743   1.724   3.412  11.771 -0.4293 -0.3750 -0.6788
  112MPD2    C4 1744   1.733   3.506  11.871 -0.5766  0.9129  0.6433
  112MPD2    C5 1745   1.692   3.640  11.847  0.2465 -0.1769  0.0418
  112MPD2     H 1746   1.706   3.384  11.564  0.7698  0.2603  0.2390
  112MPD2    H1 1747   1.742   3.471  11.973  2.6350  0.0749  0.0796
  112MPD2    H2 1748   1.628   3.781  11.702 -0.8893  0.4920  1.3997
  112MPD2    H3 1749   1.663   3.704  11.930 -1.4634 -0.8264 -0.0494
  112MPD2     N 1750   1.764   3.284  11.812 -0.6146  0.3841 -0.2269
  112MPD2    H5 1751   1.809   3.282  11.903 -1.0428 -1.1559 -0.0479
  112MPD2    N1 1752   1.643   3.629  11.482 -0.2516  0.2062 -0.1664
  112MPD2    H7 1753   1.659   3.563  11.407 -2.5080 -0.2621 -0.2331
  113TMC2    C1 1754   0.287   1.407   0.721 -0.1677 -0.2030 -0.7147
  113TMC2    C2 1755   0.236   1.491   0.622  0.8525  0.3779  0.2603
  113TMC2    C3 1756   0.099   1.519   0.628 -0.4500  0.9772  0.0753
  113TMC2    C4 1757   0.215   1.364   0.829 -0.7163 -0.1706 -0.2820
  113TMC2    C5 1758   0.085   1.398   0.829 -0.3434 -0.4377  0.2864
  113TMC2    C6 1759   0.024   1.467   0.726  0.3158 -0.0840 -0.3692
  113TMC2     C 1760   0.434   1.394   0.711  0.0889 -0.2021 -0.0055
  113TMC2     O 1761   0.488   1.483   0.648 -0.1290 -0.3839 -0.0943
  113TMC2     H 1762   0.293   1.507   0.532  0.7700  0.7237  0.2716
  113TMC2    H1 1763   0.259   1.302   0.906  0.9755  0.4005 -0.7807
  113TMC2    H2 1764   4.659   1.504   0.732  0.8702  1.4253 -0.2545
  113TMC2    C7 1765   4.730   1.357   0.937 -0.0755 -0.4710  0.0730
  113TMC2    C8 1766   0.070   1.656   0.596  0.3652  0.2297 -0.5660
  113TMC2    O1 1767   4.613   1.383   0.912  0.0295 -0.2635 -0.4036
  113TMC2    O2 1768   0.012   1.727   0.675 -0.6663 -0.1355  0.5231
  113TMC2    O5 1769   0.140   1.688   0.486 -0.2891  0.2262  0.7633
  113TMC2    H5 1770   0.179   1.615   0.434 -1.3249  0.4658 -0.3239
  114MPD2     C 1771   0.878   1.139   0.783 -0.1204  0.4380  0.2099
  114MPD2    C1 1772   0.856   1.276   0.769  0.0763 -0.1836 -0.4938
  114MPD2    C2 1773   0.725   1.325   0.756 -0.0058 -0.5162 -0.4513
  114MPD2    C3 1774   0.623   1.242   0.771 -0.3503 -0.1479  0.4649
  114MPD2    C4 1775   0.645   1.111   0.802 -0.0561 -0.0212  0.2169
  114MPD2    C5 1776   0.770   1.061   0.806  0.5319  0.4614 -0.0637
  114MPD2     H 1777   0.711   1.430   0.733 -1.2440 -0.8527 -1.2661
  114MPD2    H1 1778   0.564   1.045   0.830  0.9031  0.0058  2.9859
  114MPD2    H2 1779   0.976   1.095   0.796 -0.9261 -1.3012  0.3479
  114MPD2    H3 1780   0.798   0.959   0.833  1.5745  0.5931 -0.6115
  114MPD2     N 1781   0.486   1.274   0.768  0.2877  0.4629 -0.2350
  114MPD2    H5 1782   0.417   1.204   0.794  2.8554 -2.0701 -0.2591
  114MPD2    N1 1783   0.965   1.371   0.772  0.3991  0.5198  0.5790
  114MPD2    H7 1784   0.932   1.463   0.797  0.6862  1.0552 -0.9956
  115TMC2    C1 1785   1.491   4.316   0.040 -0.1069  0.0224  0.1879
  115TMC2    C2 1786   1.573   4.230   0.107  0.1622 -0.1040  0.4296
  115TMC2    C3 1787   1.666   4.287   0.183 -0.1204  0.6771 -0.4621
  115TMC2    C4 1788   1.509   4.450   0.025  0.5876 -0.0794  0.1062
  115TMC2    C5 1789   1.599   4.506   0.114  0.0629 -0.3143  0.3015
  115TMC2    C6 1790   1.675   4.422   0.197  0.0726 -0.1064 -0.7420
  115TMC2     C 1791   1.381   4.244  17.711 -0.3147  0.6993 -0.0228
  115TMC2     O 1792   1.346   4.143   0.020 -0.5717  0.0435 -0.7602
  115TMC2     H 1793   1.558   4.123   0.113  1.9031 -0.1986  2.6701
  115TMC2    H1 1794   1.440   4.502  17.707 -1.2269 -2.7993 -0.1270
  115TMC2    H2 1795   1.761   4.463   0.248  1.1964 -0.0718 -2.6591
  115TMC2    C7 1796   1.643   4.640   0.112 -0.5465  0.2123 -0.3522
  115TMC2    C8 1797   1.770   4.211   0.254  0.0081 -0.3901 -0.0364
  115TMC2    O1 1798   1.681   4.692   0.216  0.4380 -0.2260  0.4718
  115TMC2    O2 1799   1.875   4.266   0.295  0.2185 -0.2935 -0.7862
  115TMC2    O5 1800   1.724   4.096   0.296 -0.1914  0.2124  0.2635
  115TMC2    H5 1801   1.636   4.074   0.260  0.7077 -1.0715 -1.1435
  116MPD2     C 1802   1.134   4.158  17.280 -0.3954  0.3297 -0.2230
  116MPD2    C1 1803   1.146   4.069  17.384 -0.7835 -0.0954  0.1513
  116MPD2    C2 1804   1.225   4.112  17.496 -0.2415  0.6435  0.9535
  116MPD2    C3 1805   1.287   4.238  17.490 -0.7120  0.3554  0.6880
  116MPD2    C4 1806   1.272   4.323  17.386 -0.1276 -0.3485 -0.2364
  116MPD2    C5 1807   1.204   4.281  17.276  0.5070  0.5845 -0.2856
  116MPD2     H 1808   1.238   4.050  17.584  0.9298 -0.8106 -0.2691
  116MPD2    H1 1809   1.320   4.420  17.381  0.6385 -0.8222 -1.9035
  116MPD2    H2 1810   1.066   4.137  17.198  2.0937  0.7304 -2.3862
  116MPD2    H3 1811   1.212   4.331  17.180  0.1021 -0.3516 -0.8121
  116MPD2     N 1812   1.363   4.297  17.588  0.3291  0.0571  0.1944
  116MPD2    H5 1813   1.416   4.377  17.554 -0.3862  0.6505  0.4742
  116MPD2    N1 1814   1.070   3.948  17.378  0.1037 -0.4465  0.0316
  116MPD2    H7 1815   1.010   3.935  17.297  0.4779  2.8306 -0.7757
  117TMC2    C1 1816   4.549   0.833  14.478 -0.2279  0.3777  0.5963
  117TMC2    C2 1817   4.593   0.808  14.603 -0.2694 -0.0459 -0.7248
  117TMC2    C3 1818   4.694   0.891  14.643  0.0888 -0.0775 -0.2072
  117TMC2    C4 1819   4.596   0.943  14.402  1.3727 -0.0674 -0.5294
  117TMC2    C5 1820   4.711   1.014  14.446 -0.1428 -0.1736  0.6241
  117TMC2    C6 1821   0.018   0.990  14.569  0.0719 -0.6685  0.2365
  117TMC2     C 1822   4.472   0.729  14.420  0.1569  0.0246  0.2869
  117TMC2     O 1823   4.468   0.619  14.479 -0.8622 -0.0296 -0.2945
  117TMC2     H 1824   4.560   0.724  14.664 -2.7661  1.8905  0.5924
  117TMC2    H1 1825   4.536   0.973  14.318 -2.2198 -0.1876  2.0097
  117TMC2    H2 1826   0.093   1.049  14.620  0.0741 -0.8612  0.4538
  117TMC2    C7 1827   0.006   1.144  14.387  0.0813 -0.2058 -0.6036
  117TMC2    C8 1828   4.730   0.878  14.783 -0.9293  0.0328  0.3204
  117TMC2    O1 1829   0.068   1.225  14.457 -0.8827  0.1363  0.5697
  117TMC2    O2 1830   4.663   0.932  14.874 -0.3259  0.1863 -0.2445
  117TMC2    O5 1831   0.097   0.794  14.789 -0.0806 -0.4579  0.1079
  117TMC2    H5 1832   0.146   0.789  14.704  1.1040 -0.0535  0.7698
  118MPD2     C 1833   4.627   1.273  14.064 -0.2855 -0.0986  0.3205
  118MPD2    C1 1834   4.689   1.280  14.186 -0.2064 -0.6611 -0.0999
  118MPD2    C2 1835   0.009   1.398  14.230 -0.0601 -0.6792 -0.2628
  118MPD2    C3 1836   0.018   1.508  14.146  0.4261  0.0429  0.4161
  118MPD2    C4 1837   4.704   1.495  14.017 -0.2965  0.4923  0.0766
  118MPD2    C5 1838   4.636   1.381  13.980 -0.5980 -0.1828 -0.3424
  118MPD2     H 1839   0.038   1.404  14.334 -0.0919 -2.1791 -0.1624
  118MPD2    H1 1840   4.714   1.576  13.946  2.8398 -0.5234 -0.6143
  118MPD2    H2 1841   4.577   1.181  14.035 -1.7623  0.6569  0.4830
  118MPD2    H3 1842   4.608   1.363  13.877  0.5527  1.3276 -0.9196
  118MPD2     N 1843   0.082   1.628  14.178 -0.7804  0.6787  0.0177
  118MPD2    H5 1844   0.066   1.711  14.122  2.2025  0.7426 -0.7425
  118MPD2    N1 1845   4.681   1.164  14.266 -0.1061 -0.1631 -0.0152
  118MPD2    H7 1846   4.635   1.082  14.226 -3.2153  1.6461 -0.1007
  119TMC2    C1 1847   2.475   2.039  13.929 -0.4758 -1.1131  0.6849
  119TMC2    C2 1848   2.531   1.918  13.890 -0.3989  0.0525 -0.2738
  119TMC2    C3 1849   2.457   1.804  13.924 -0.2078  0.2853  0.2994
  119TMC2    C4 1850   2.356   2.042  13.998 -0.3308  0.2071 -0.2412
  119TMC2    C5 1851   2.283   1.925  14.015 -0.4279  1.0359 -0.1428
  119TMC2    C6 1852   2.335   1.805  13.982 -0.2166 -0.8537  0.4123
  119TMC2     C 1853   2.565   2.148  13.948 -0.3758 -0.1081  0.4891
  119TMC2     O 1854   2.553   2.223  14.045 -0.7575  0.1154  0.8650
  119TMC2     H 1855   2.630   1.911  13.845 -0.8684 -1.7921 -1.0349
  119TMC2    H1 1856   2.315   2.134  14.039 -0.2795  0.7723 -1.4584
  119TMC2    H2 1857   2.284   1.710  13.994 -0.0785 -1.0529 -0.6417
  119TMC2    C7 1858   2.149   1.942  14.051 -0.2020  0.1589 -0.3899
  119TMC2    C8 1859   2.495   1.671  13.882 -0.9823 -0.0059  0.1652
  119TMC2    O1 1860   2.101   2.053  14.026 -0.3364 -0.4884 -0.1819
  119TMC2    O2 1861   2.418   1.583  13.852  0.4728 -0.0490  0.2751
  119TMC2    O5 1862   2.634   1.670  13.872 -0.3537  0.6137 -0.5544
  119TMC2    H5 1863   2.681   1.732  13.932 -2.2472  1.3969  0.1257
  120MPD2     C 1864   2.881   2.497  13.720  0.2071  0.0074  0.1350
  120MPD2    C1 1865   2.787   2.512  13.812  0.4865 -0.6063  0.0822
  120MPD2    C2 1866   2.710   2.409  13.859  0.2704  0.2373  0.1329
  120MPD2    C3 1867   2.715   2.287  13.797  0.2983  0.9089  0.1555
  120MPD2    C4 1868   2.800   2.278  13.685  0.1432  0.2414  0.1206
  120MPD2    C5 1869   2.877   2.382  13.647  0.0742 -0.3663  0.2791
  120MPD2     H 1870   2.655   2.420  13.952  0.2770 -0.8167  0.2582
  120MPD2    H1 1871   2.806   2.186  13.629  1.8780  0.5954 -0.2887
  120MPD2    H2 1872   2.950   2.573  13.686 -2.3050  1.5075 -1.6109
  120MPD2    H3 1873   2.950   2.365  13.568 -2.3704  0.7577 -2.2162
  120MPD2     N 1874   2.635   2.171  13.833 -0.7983 -0.1945  0.3590
  120MPD2    H5 1875   2.632   2.095  13.766 -0.8471  0.0750  0.0518
  120MPD2    N1 1876   2.787   2.638  13.872 -0.0004  0.1333  0.3980
  120MPD2    H7 1877   2.855   2.706  13.840 -0.9068 -0.1036 -2.0295
  121TMC2    C1 1878   3.807   4.079  14.257 -0.0129 -0.7967  0.7666
  121TMC2    C2 1879   3.837   4.065  14.391 -0.1053  0.2992  0.8117
  121TMC2    C3 1880   3.863   3.937  14.428  0.1271  0.1352 -0.2469
  121TMC2    C4 1881   3.779   3.974  14.174 -0.2678  0.8554 -0.1772
  121TMC2    C5 1882   3.790   3.848  14.234 -0.1169  0.2578 -0.2902
  121TMC2    C6 1883   3.827   3.821  14.361  0.5552 -0.2297 -0.1910
  121TMC2     C 1884   3.816   4.221  14.218 -0.0990 -0.0972  0.0891
  121TMC2     O 1885   3.795   4.299  14.309  0.6878 -0.1400 -0.2063
  121TMC2     H 1886   3.887   4.138  14.454  0.9938  2.4090 -2.5120
  121TMC2    H1 1887   3.758   3.979  14.068 -0.7967  0.2897 -0.0957
  121TMC2    H2 1888   3.835   3.721  14.403 -0.6134 -0.0326  0.5056
  121TMC2    C7 1889   3.703   3.741  14.183  0.4497  0.5851 -0.0669
  121TMC2    C8 1890   3.926   3.924  14.556  0.2477 -0.1800  0.1759
  121TMC2    O1 1891   3.718   3.633  14.234  0.1239  0.0282 -0.6122
  121TMC2    O2 1892   3.950   4.023  14.629 -0.3731  0.4618 -0.2343
  121TMC2    O5 1893   4.019   3.831  14.533  0.5444 -0.1648 -0.1307
  121TMC2    H5 1894   4.002   3.763  14.464  1.7938 -0.1758 -0.4359
  122MPD2     C 1895   3.801   4.471  14.068 -0.3580  0.0223  0.0781
  122MPD2    C1 1896   3.866   4.356  14.018 -0.5559 -0.2664 -0.7447
  122MPD2    C2 1897   3.922   4.355  13.888 -0.3352  0.5251 -0.3612
  122MPD2    C3 1898   3.920   4.472  13.810  0.2277 -0.2572  0.7545
  122MPD2    C4 1899   3.875   4.589  13.866 -0.0373 -0.1485  0.7027
  122MPD2    C5 1900   3.820   4.592  13.992  0.4187  0.6886 -0.1234
  122MPD2     H 1901   3.968   4.263  13.855 -0.1560  0.5616 -0.2146
  122MPD2    H1 1902   3.861   4.677  13.803 -0.0406  1.0900  2.4465
  122MPD2    H2 1903   3.758   4.477  14.167  1.9491 -3.1273  1.2664
  122MPD2    H3 1904   3.790   4.685  14.040  1.0262  0.7808  0.0771
  122MPD2     N 1905   3.958   4.485  13.671 -0.9258  0.5826 -0.6064
  122MPD2    H5 1906   3.938   4.570  13.619  0.9197  0.3907 -1.6287
  122MPD2    N1 1907   3.866   4.234  14.091 -0.0350  0.4868 -0.0238
  122MPD2    H7 1908   3.885   4.150  14.036  0.5324 -0.3465  1.4284
  123TMC2    C1 1909   3.230   2.558  10.699  0.8984  0.0429 -0.0695
  123TMC2    C2 1910   3.359   2.536  10.747  0.0979  0.2712  0.4269
  123TMC2    C3 1911   3.430   2.441  10.687 -0.4644 -0.5673  0.2011
  123TMC2    C4 1912   3.168   2.466  10.608 -0.0451 -0.3956 -0.6327
  123TMC2    C5 1913   3.241   2.357  10.567 -0.0223  0.6121 -0.4830
  123TMC2    C6 1914   3.369   2.342  10.610 -0.6862 -0.2546 -0.4163
  123TMC2     C 1915   3.143   2.629  10.792 -0.0361 -0.1883 -0.6173
  123TMC2     O 1916   3.192   2.708  10.869 -0.4486  0.1019 -0.1653
  123TMC2     H 1917   3.412   2.594  10.822 -0.1964 -0.0009  0.8464
  123TMC2    H1 1918   3.070   2.486  10.567 -0.5858 -1.9113 -0.0826
  123TMC2    H2 1919   3.430   2.269  10.559  0.1152  2.2198 -3.0097
  123TMC2    C7 1920   3.156   2.240  10.530 -0.0018  0.9359  0.2430
  123TMC2    C8 1921   3.573   2.430  10.713  0.2065 -0.4208  0.5415
  123TMC2    O1 1922   3.051   2.259  10.471  0.7586  0.0529 -0.4542
  123TMC2    O2 1923   3.648   2.528  10.718  0.7175 -0.2033  0.6961
  123TMC2    O5 1924   3.591   2.311  10.772  0.6576  0.1920 -0.3541
  123TMC2    H5 1925   3.517   2.248  10.769 -0.6068  1.6487  0.0389
  124MPD2     C 1926   2.734   2.592  11.101  0.2563  0.7602 -0.3777
  124MPD2    C1 1927   2.740   2.481  11.020 -0.1801  0.0269 -0.3960
  124MPD2    C2 1928   2.840   2.465  10.932 -0.1615 -0.1259  0.5136
  124MPD2    C3 1929   2.926   2.571  10.912 -0.0458 -0.0383  0.6809
  124MPD2    C4 1930   2.917   2.683  10.985 -0.5079  0.7948 -0.1736
  124MPD2    C5 1931   2.828   2.690  11.091  1.1064 -0.4204  0.8475
  124MPD2     H 1932   2.857   2.374  10.875  3.1765  0.4339  0.6185
  124MPD2    H1 1933   2.993   2.761  10.990  1.0453 -0.7873  0.8755
  124MPD2    H2 1934   2.657   2.603  11.176  1.9799 -1.1092  1.6399
  124MPD2    H3 1935   2.829   2.779  11.154 -2.7369  2.0185 -2.5560
  124MPD2     N 1936   3.024   2.556  10.809 -0.0393  0.0919  0.2991
  124MPD2    H5 1937   3.010   2.476  10.748  0.0272 -0.6871  1.3147
  124MPD2    N1 1938   2.639   2.385  11.028  0.0982  0.1874  0.1609
  124MPD2    H7 1939   2.558   2.408  11.085  0.0211 -0.2975  0.2512
  125TMC2    C1 1940   3.866   3.127   8.703  0.0985 -0.3695  0.0565
  125TMC2    C2 1941   3.936   3.030   8.632 -0.4351  0.4487 -0.1624
  125TMC2    C3 1942   4.043   2.976   8.698 -0.7479 -1.0690  0.7679
  125TMC2    C4 1943   3.917   3.171   8.831  1.0189  0.1218 -0.1655
  125TMC2    C5 1944   4.032   3.128   8.878 -0.0234  0.6761 -0.4255
  125TMC2    C6 1945   4.099   3.029   8.815  0.1545 -0.1935 -0.2205
  125TMC2     C 1946   3.762   3.204   8.642  0.5451  0.5925 -0.0438
  125TMC2     O 1947   3.724   3.301   8.702 -0.3127 -0.0597 -0.1610
  125TMC2     H 1948   3.896   2.978   8.546  2.2644 -3.3390  0.8880
  125TMC2    H1 1949   3.874   3.256   8.882 -0.6937 -0.1247 -1.1616
  125TMC2    H2 1950   4.190   2.990   8.860  0.2419 -0.4994 -0.6570
  125TMC2    C7 1951   4.084   3.188   8.997  0.0316 -0.1990  0.0599
  125TMC2    C8 1952   4.098   2.850   8.650 -0.2093  0.1156 -0.8017
  125TMC2    O1 1953   4.000   3.244   9.066  0.2604  0.1871  0.3696
  125TMC2    O2 1954   4.219   2.848   8.638 -0.2637  0.3829 -0.3701
  125TMC2    O5 1955   4.033   2.763   8.731  0.4499 -0.4281  0.3137
  125TMC2    H5 1956   3.950   2.806   8.760  0.7882 -1.2004  2.4893
  126MPD1     C 1957   3.344   3.168   8.351  0.6852 -0.4121 -0.4530
  126MPD1    C1 1958   3.409   3.047   8.356 -0.8859 -0.1238 -0.6799
  126MPD1    C2 1959   3.534   3.038   8.409 -0.4153  0.6320  0.1594
  126MPD1    C3 1960   3.585   3.140   8.485  0.7091  0.2082 -0.3540
  126MPD1    C4 1961   3.508   3.259   8.492 -0.2637  0.5603 -0.1734
  126MPD1    C5 1962   3.393   3.273   8.429  0.4459 -0.3122 -0.7876
  126MPD1     H 1963   3.585   2.943   8.404  0.7506  1.2215  1.0418
  126MPD1    H1 1964   3.542   3.351   8.538  1.1737 -0.9855  1.8725
  126MPD1    H2 1965   3.244   3.167   8.311  0.3866 -0.2637  0.2791
  126MPD1    H3 1966   3.332   3.362   8.431 -3.1844 -2.8208  0.4265
  126MPD1     N 1967   3.715   3.125   8.540 -0.0978  0.3716 -0.1572
  126MPD1    H5 1968   3.759   3.035   8.525 -0.8420  0.0107 -0.1924
  126MPD1    N1 1969   3.363   2.940   8.269  0.6573 -0.1516  1.0524
  126MPD1    H6 1970   3.407   2.850   8.290  1.2010 -0.2562 -0.5286
  126MPD1    H7 1971   3.263   2.932   8.253  0.7572 -3.2374  2.0222
  127TMC2    C1 1972   4.042   2.679  10.391  0.0634  0.3971 -0.1511
  127TMC2    C2 1973   4.070   2.689  10.524 -0.0949  0.5237 -0.6356
  127TMC2    C3 1974   4.019   2.596  10.615  0.3043  0.0568  0.0329
  127TMC2    C4 1975   3.951   2.593  10.343  0.4975  0.4655 -0.2094
  127TMC2    C5 1976   3.887   2.511  10.436  0.4807  0.0097  0.3962
  127TMC2    C6 1977   3.920   2.507  10.570  0.0183  0.0189  0.2383
  127TMC2     C 1978   4.153   2.714  10.312  0.8982 -0.0755  0.0185
  127TMC2     O 1979   4.258   2.705  10.369 -0.5773 -0.5270 -0.2406
  127TMC2     H 1980   4.143   2.761  10.559 -1.6199 -0.4581  4.5536
  127TMC2    H1 1981   3.913   2.599  10.241 -1.7339  3.1883  0.7577
  127TMC2    H2 1982   3.867   2.440  10.636  0.4947 -0.2036  0.4009
  127TMC2    C7 1983   3.780   2.423  10.391 -0.4929 -0.6514 -1.2659
  127TMC2    C8 1984   3.982   2.656  10.742  0.0540  0.6942 -0.2994
  127TMC2    O1 1985   3.760   2.314  10.438 -0.0734 -0.0711  0.4289
  127TMC2    O2 1986   4.028   2.769  10.768 -0.1997 -0.3237  0.0201
  127TMC2    O5 1987   4.009   2.549  10.825  0.2383 -0.5738  0.4466
  127TMC2    H5 1988   3.969   2.463  10.798 -2.4476  0.2812  1.6976
  128MPD2     C 1989   4.173   2.790   9.948  0.7979  0.6696  0.2642
  128MPD2    C1 1990   4.219   2.783  10.081  0.1788 -0.1405  0.0987
  128MPD2    C2 1991   4.351   2.823  10.106 -0.5672 -0.5428  0.1734
  128MPD2    C3 1992   4.441   2.861  10.004  0.1484 -0.2248 -0.1161
  128MPD2    C4 1993   4.398   2.854   9.876  0.8624 -0.3374 -0.6961
  128MPD2    C5 1994   4.261   2.817   9.846 -0.5591 -0.2697 -1.0263
  128MPD2     H 1995   4.394   2.812  10.205  1.2026  0.2750 -0.5008
  128MPD2    H1 1996   4.465   2.875   9.793 -2.0158  0.0694 -2.9068
  128MPD2    H2 1997   4.067   2.777   9.925  0.7998 -0.5030  0.9282
  128MPD2    H3 1998   4.221   2.825   9.745 -0.3968  0.5879 -1.0287
  128MPD2     N 1999   4.577   2.891  10.043  0.0474 -0.1923  0.0927
  128MPD2    H5 2000   4.587   2.901  10.143 -1.9794 -0.3527  0.3240
  128MPD2    N1 2001   4.126   2.738  10.175 -0.3018 -0.4210 -0.0194
  128MPD2    H7 2002   4.028   2.731  10.152 -0.7662 -0.4691  1.9504
  129TMC2    C1 2003   3.162   3.976   1.068 -0.3206 -0.0801  0.4606
  129TMC2    C2 2004   3.291   4.008   1.049  0.7702 -0.1852  0.1263
  129TMC2    C3 2005   3.388   3.918   1.062 -0.0032 -0.8650 -0.6355
  129TMC2    C4 2006   3.139   3.845   1.111 -0.0387 -0.2069  0.5517
  129TMC2    C5 2007   3.244   3.754   1.131 -0.4586 -0.3797 -0.1351
  129TMC2    C6 2008   3.371   3.790   1.104 -0.2219 -0.6852 -0.8197
  129TMC2     C 2009   3.064   4.063   1.005 -0.7453  0.2191  0.2412
  129TMC2     O 2010   2.955   4.004   0.988 -0.3559  0.1162  0.2189
  129TMC2     H 2011   3.323   4.111   1.036  0.7290 -0.0997  0.6891
  129TMC2    H1 2012   3.036   3.812   1.107  0.5329 -1.8605 -1.1305
  129TMC2    H2 2013   3.457   3.724   1.104 -0.0724 -0.5030  0.4715
  129TMC2    C7 2014   3.197   3.616   1.111 -0.1890  0.1590  0.3481
  129TMC2    C8 2015   3.522   3.938   1.023 -0.4169 -0.0232  0.0556
  129TMC2    O1 2016   3.078   3.590   1.128 -0.5812  0.4454  0.0674
  129TMC2    O2 2017   3.548   4.033   0.950  0.0023  0.2827  0.3558
  129TMC2    O5 2018   3.598   3.912   1.135  0.1587 -0.0771 -0.7950
  129TMC2    H5 2019   3.548   3.872   1.210  0.7579 -2.2131 -1.5552
  130MPD2     C 2020   2.893   4.243   0.845 -0.2351 -0.1509 -0.7705
  130MPD2    C1 2021   3.032   4.258   0.862  0.3723  0.2489  0.1667
  130MPD2    C2 2022   3.098   4.361   0.798  0.6749 -0.3955 -0.1252
  130MPD2    C3 2023   3.025   4.455   0.720 -0.7475  0.2326  0.0867
  130MPD2    C4 2024   2.889   4.431   0.702  0.0080  0.0693  0.0465
  130MPD2    C5 2025   2.826   4.327   0.763 -0.5956  0.5476 -0.6723
  130MPD2     H 2026   3.206   4.368   0.805  0.7626 -1.4156 -0.4611
  130MPD2    H1 2027   2.831   4.502   0.643  1.1953 -0.1909 -1.4208
  130MPD2    H2 2028   2.826   4.178   0.901 -0.6998 -0.2408 -1.4252
  130MPD2    H3 2029   2.719   4.312   0.756 -0.5363  0.8373 -2.1976
  130MPD2     N 2030   3.097   4.567   0.672 -0.2788  0.2472 -0.3251
  130MPD2    H5 2031   3.196   4.577   0.693 -0.3089 -2.4954  1.1681
  130MPD2    N1 2032   3.107   4.184   0.954  0.3458  0.0441  0.2812
  130MPD2    H7 2033   3.204   4.210   0.972  0.5044 -0.0865 -0.3657
  131TMC2    C1 2034   2.500   2.331  10.078  0.7469  0.0504 -0.0557
  131TMC2    C2 2035   2.398   2.346   9.988 -0.6378  1.5304 -0.2789
  131TMC2    C3 2036   2.411   2.445   9.901 -0.5568  0.2142 -0.0753
  131TMC2    C4 2037   2.619   2.407  10.083  0.0445  0.1282 -0.3195
  131TMC2    C5 2038   2.626   2.504   9.985  0.4963  0.0598 -0.1689
  131TMC2    C6 2039   2.523   2.526   9.900 -0.8378 -0.1586  0.5503
  131TMC2     C 2040   2.471   2.249  10.200 -0.1931  0.6245  1.0046
  131TMC2     O 2041   2.531   2.278  10.301  0.2274 -0.4515  0.5098
  131TMC2     H 2042   2.317   2.273   9.982 -0.0570  0.9361 -0.9833
  131TMC2    H1 2043   2.692   2.384  10.160 -1.6533  1.0828  1.5560
  131TMC2    H2 2044   2.521   2.608   9.829  0.1827  0.2679  1.0054
  131TMC2    C7 2045   2.747   2.581   9.988  0.3660 -0.4165  0.4353
  131TMC2    C8 2046   2.321   2.468   9.796 -0.2073  0.0509  0.2869
  131TMC2    O1 2047   2.835   2.523  10.045 -0.5490  0.4217 -0.6870
  131TMC2    O2 2048   2.200   2.458   9.810  1.0270 -0.1040 -0.2073
  131TMC2    O5 2049   2.386   2.466   9.677 -0.5706 -0.4238  0.3996
  131TMC2    H5 2050   2.476   2.427   9.688 -1.3585 -2.5813 -0.5957
  132MPD2     C 2051   2.236   1.960  10.259 -0.1379 -0.2071  0.0656
  132MPD2    C1 2052   2.332   2.057  10.282  0.4624  0.1498  0.1513
  132MPD2    C2 2053   2.372   2.071  10.413 -0.1680  0.5937  0.1326
  132MPD2    C3 2054   2.331   1.984  10.509 -0.1944  0.0648  0.1469
  132MPD2    C4 2055   2.224   1.900  10.487  0.3808 -0.0855 -0.0651
  132MPD2    C5 2056   2.182   1.887  10.359  0.2519  1.0201 -0.0410
  132MPD2     H 2057   2.436   2.147  10.456  0.3246  0.4010 -0.2660
  132MPD2    H1 2058   2.179   1.830  10.557 -1.3439  0.0048 -1.1138
  132MPD2    H2 2059   2.214   1.937  10.156 -0.8628  0.2047  0.1309
  132MPD2    H3 2060   2.113   1.810  10.325 -0.5048  2.1860 -1.1255
  132MPD2     N 2061   2.387   2.008  10.639 -0.0462 -0.2756  0.2457
  132MPD2    H5 2062   2.448   2.089  10.639 -1.4387  0.7841 -0.8449
  132MPD2    N1 2063   2.384   2.141  10.178  0.3071 -0.0267 -0.2693
  132MPD2    H7 2064   2.340   2.112  10.091  0.5895  1.2465 -0.8282
  133TMC2    C1 2065   2.193   3.388  10.433  0.4492  0.0578  0.2901
  133TMC2    C2 2066   2.249   3.498  10.494  0.1972 -0.6707 -0.2507
  133TMC2    C3 2067   2.360   3.484  10.565 -0.2018 -0.4158 -0.9778
  133TMC2    C4 2068   2.248   3.267  10.446  1.0437 -0.9264 -0.0279
  133TMC2    C5 2069   2.351   3.249  10.525 -0.1752 -0.4531 -0.4092
  133TMC2    C6 2070   2.408   3.358  10.590 -0.4693  0.1203 -0.3588
  133TMC2     C 2071   2.097   3.405  10.326  0.2548  0.2182  0.5034
  133TMC2     O 2072   2.102   3.343  10.225 -0.4177  0.0724  0.1871
  133TMC2     H 2073   2.224   3.598  10.461  0.5413 -0.4100  0.2716
  133TMC2    H1 2074   2.185   3.189  10.404  2.0174 -0.3616 -2.5802
  133TMC2    H2 2075   2.501   3.347  10.645 -1.0401  2.0181  0.9964
  133TMC2    C7 2076   2.423   3.125  10.536 -0.6731 -0.2858 -1.0388
  133TMC2    C8 2077   2.444   3.598  10.581  0.6283  0.6638 -0.0749
  133TMC2    O1 2078   2.518   3.109  10.610 -0.0286 -0.0253 -0.0446
  133TMC2    O2 2079   2.417   3.702  10.524  1.1643 -0.5130  0.1495
  133TMC2    O5 2080   2.528   3.574  10.689 -0.4477 -0.3116  0.3061
  133TMC2    H5 2081   2.518   3.483  10.726 -1.0841  0.2424  1.5069
  134MPD2     C 2082   1.834   3.652  10.305 -0.5504 -0.5471 -0.4393
  134MPD2    C1 2083   1.892   3.532  10.282 -0.3981  0.0407 -0.0141
  134MPD2    C2 2084   1.846   3.462  10.174  0.4275  0.3019  0.4233
  134MPD2    C3 2085   1.734   3.495  10.107 -0.5788  0.9227  0.1707
  134MPD2    C4 2086   1.677   3.619  10.136  0.3586  0.0102 -0.0811
  134MPD2    C5 2087   1.732   3.701  10.230 -0.2286  0.2974  0.3035
  134MPD2     H 2088   1.896   3.369  10.149  0.9942  0.7415 -0.0840
  134MPD2    H1 2089   1.587   3.639  10.079 -0.4234  0.9129  1.4768
  134MPD2    H2 2090   1.880   3.717  10.379 -0.3537  0.2283 -1.2389
  134MPD2    H3 2091   1.695   3.803  10.236  1.1482  0.9625 -2.4166
  134MPD2     N 2092   1.683   3.424   9.999  0.8665  0.4672  0.2966
  134MPD2    H5 2093   1.591   3.448   9.965  0.5287 -0.2793  0.6649
  134MPD2    N1 2094   2.003   3.494  10.362  0.3309 -0.0292  0.2105
  134MPD2    H7 2095   2.020   3.562  10.435  1.4998  0.9968 -1.0236
  135TMC2    C1 2096   3.607   3.803   9.678 -0.3089 -0.0345  0.0639
  135TMC2    C2 2097   3.610   3.665   9.676 -0.6424 -0.1039 -0.1638
  135TMC2    C3 2098   3.568   3.605   9.793 -0.0797  0.2183  0.0251
  135TMC2    C4 2099   3.570   3.880   9.786 -0.1402  0.7201  0.8333
  135TMC2    C5 2100   3.534   3.810   9.897 -0.1991  0.4838  0.3299
  135TMC2    C6 2101   3.525   3.672   9.909  0.1042 -0.9363  0.7631
  135TMC2     C 2102   3.681   3.874   9.575  0.3319  0.0122  0.3045
  135TMC2     O 2103   3.657   3.993   9.579  0.1288  0.2204  0.0725
  135TMC2     H 2104   3.613   3.609   9.582  1.9895  2.7932 -1.7921
  135TMC2    H1 2105   3.561   3.988   9.778  0.2661  0.7761  1.1416
  135TMC2    H2 2106   3.529   3.631  10.009  0.7192 -0.4720  0.9308
  135TMC2    C7 2107   3.522   3.897  10.015 -0.7348 -0.1394 -0.0751
  135TMC2    C8 2108   3.565   3.455   9.791  0.3603  0.8582  0.1634
  135TMC2    O1 2109   3.534   4.016   9.995 -0.1764 -0.2524 -0.1232
  135TMC2    O2 2110   3.661   3.391   9.754 -0.3967 -0.6096 -0.1211
  135TMC2    O5 2111   3.475   3.411   9.874 -0.2825 -0.0803 -0.4997
  135TMC2    H5 2112   3.407   3.475   9.903  0.6419  0.9002 -0.5237
  136MPD2     C 2113   3.772   3.981   9.328 -0.3723 -0.8058 -0.5400
  136MPD2    C1 2114   3.818   3.858   9.379 -0.2360  0.5237 -0.1933
  136MPD2    C2 2115   3.924   3.795   9.318  0.3844  0.7094 -0.0908
  136MPD2    C3 2116   3.983   3.849   9.206  0.7537  0.2705  0.1523
  136MPD2    C4 2117   3.944   3.969   9.166  0.0969  0.7007 -0.2408
  136MPD2    C5 2118   3.839   4.039   9.219  0.7150 -0.0725  0.9789
  136MPD2     H 2119   3.950   3.698   9.358  0.3789  1.1098  0.8806
  136MPD2    H1 2120   3.994   4.008   9.078 -1.7527  1.1360 -1.0864
  136MPD2    H2 2121   3.684   4.032   9.366 -0.5999 -1.4990 -0.1227
  136MPD2    H3 2122   3.813   4.137   9.180 -0.4750 -0.9163 -0.3197
  136MPD2     N 2123   4.094   3.792   9.140  0.5553 -0.0884  0.5368
  136MPD2    H5 2124   4.131   3.845   9.062 -0.3609 -0.2886 -0.0389
  136MPD2    N1 2125   3.761   3.799   9.499  0.1818 -0.0284 -0.3006
  136MPD2    H7 2126   3.780   3.702   9.520  0.6875  0.3106  0.8169
  137TMC2    C1 2127   3.720   3.489   9.212  0.2999  0.7736 -0.3668
  137TMC2    C2 2128   3.791   3.508   9.103  0.7298  0.5649  0.2252
  137TMC2    C3 2129   3.757   3.614   9.025 -0.7376  0.0114  0.4372
  137TMC2    C4 2130   3.613   3.566   9.250 -0.6388 -0.5187  0.3342
  137TMC2    C5 2131   3.584   3.671   9.164  0.5553  0.8624  0.4936
  137TMC2    C6 2132   3.647   3.683   9.050 -0.9266 -0.9456  0.1655
  137TMC2     C 2133   3.785   3.435   9.328  0.2663  0.2354  0.2982
  137TMC2     O 2134   3.745   3.476   9.437  0.5045  0.0819  0.2919
  137TMC2     H 2135   3.882   3.450   9.088 -1.1309 -2.0257 -1.1355
  137TMC2    H1 2136   3.542   3.541   9.329  0.9246 -2.5973  1.0760
  137TMC2    H2 2137   3.607   3.757   8.981 -0.4405 -2.5759 -1.8934
  137TMC2    C7 2138   3.487   3.775   9.199 -0.4001 -1.0634 -0.1779
  137TMC2    C8 2139   3.831   3.615   8.901 -1.0400  0.2284  0.4121
  137TMC2    O1 2140   3.503   3.890   9.150  0.3016 -0.1844  0.2504
  137TMC2    O2 2141   3.899   3.521   8.880  0.7935 -0.1202 -0.3583
  137TMC2    O5 2142   3.875   3.738   8.886 -0.1528 -0.0397 -0.1152
  137TMC2    H5 2143   3.809   3.799   8.926 -0.5698  0.0750 -0.9942
  138MPD2     C 2144   3.968   3.109   9.359  0.2714 -0.2226  0.3421
  138MPD2    C1 2145   3.876   3.207   9.392  0.2804  0.1225 -1.2246
  138MPD2    C2 2146   3.808   3.201   9.511  0.1513  0.0652  0.3823
  138MPD2    C3 2147   3.832   3.103   9.605 -0.6573  0.2532 -0.1165
  138MPD2    C4 2148   3.919   3.003   9.573 -0.5494  0.5828 -0.2381
  138MPD2    C5 2149   3.984   3.007   9.448  0.7592  0.0417 -0.1574
  138MPD2     H 2150   3.727   3.267   9.542 -1.5664 -0.6932 -2.5934
  138MPD2    H1 2151   3.929   2.917   9.639 -2.1779  0.2068 -0.4716
  138MPD2    H2 2152   4.023   3.113   9.265 -1.4890  0.7913 -0.6540
  138MPD2    H3 2153   4.055   2.927   9.429 -1.4788 -1.9272 -0.1933
  138MPD2     N 2154   3.777   3.113   9.741 -0.1453 -0.8767  0.3066
  138MPD2    H5 2155   3.743   3.203   9.773  0.3790  0.1378 -2.0349
  138MPD2    N1 2156   3.852   3.316   9.297 -0.1197 -0.6116 -0.0984
  138MPD2    H7 2157   3.872   3.293   9.200 -0.0906  2.4686 -0.8053
  139TMC2    C1 2158   0.167   1.628  13.195 -0.1537  0.1126  0.2075
  139TMC2    C2 2159   0.230   1.651  13.314 -0.8042  0.2054 -0.4134
  139TMC2    C3 2160   0.199   1.772  13.362 -0.1804  0.2013  0.6617
  139TMC2    C4 2161   0.073   1.708  13.130 -0.5921 -0.4986 -0.0981
  139TMC2    C5 2162   0.037   1.825  13.197  0.4749  0.5649 -0.4802
  139TMC2    C6 2163   0.106   1.859  13.308  0.0732  0.5596 -0.0264
  139TMC2     C 2164   0.165   1.493  13.139 -0.5891  0.0511  0.1929
  139TMC2     O 2165   0.168   1.497  13.017  0.6784  0.3566 -0.4455
  139TMC2     H 2166   0.303   1.585  13.359 -2.2075 -0.8715  0.3148
  139TMC2    H1 2167   0.030   1.680  13.035 -2.2213  0.1730  0.4283
  139TMC2    H2 2168   0.077   1.950  13.360 -1.1350  0.3193 -0.2702
  139TMC2    C7 2169   4.631   1.860  13.209  0.2255  0.1795  0.0882
  139TMC2    C8 2170   0.270   1.813  13.488 -1.2804  0.5239  0.0786
  139TMC2    O1 2171   4.598   1.956  13.280  0.7242 -0.1328 -0.2422
  139TMC2    O2 2172   0.262   1.926  13.525  0.2046 -0.0025  0.1585
  139TMC2    O5 2173   0.242   1.707  13.567  0.3220  0.3570  0.4703
  139TMC2    H5 2174   0.256   1.623  13.519  0.3873  0.1700  0.8162
  140MPD2     C 2175   0.076   1.213  13.353  0.2877  0.4975 -0.2921
  140MPD2    C1 2176   0.108   1.265  13.231  0.1110  0.0346 -0.6844
  140MPD2    C2 2177   0.074   1.205  13.111  0.4270  0.0195 -0.2178
  140MPD2    C3 2178   0.014   1.084  13.107  0.6782  0.5443 -0.5076
  140MPD2    C4 2179   4.709   1.032  13.232 -0.6238  0.0031  0.9059
  140MPD2    C5 2180   0.013   1.093  13.353 -0.7365  0.9000  0.3152
  140MPD2     H 2181   0.097   1.255  13.018  4.5587 -1.3125  0.1060
  140MPD2    H1 2182   4.650   0.942  13.245  1.0189 -1.5151 -2.1545
  140MPD2    H2 2183   0.088   1.260  13.450  0.9066 -0.9412  0.3306
  140MPD2    H3 2184   0.006   1.043  13.449 -0.9887  1.1185  0.4098
  140MPD2     N 2185   4.731   1.021  12.983 -0.0456 -0.6146 -0.1887
  140MPD2    H5 2186   0.019   1.070  12.898 -0.9498 -0.2082 -0.2184
  140MPD2    N1 2187   0.158   1.401  13.241 -0.1357  0.2923 -0.0433
  140MPD2    H7 2188   0.150   1.438  13.335  1.2096  0.0553  0.1722
  141TMC2    C1 2189   0.272   2.944  14.290  0.9026 -0.3620  0.2061
  141TMC2    C2 2190   0.371   2.862  14.246  0.0557 -0.5526  0.9631
  141TMC2    C3 2191   0.438   2.792  14.344 -0.3064  0.3146 -0.2239
  141TMC2    C4 2192   0.226   2.948  14.423  0.3060 -0.3460  0.2985
  141TMC2    C5 2193   0.296   2.868  14.509 -0.2525  0.2796  0.3066
  141TMC2    C6 2194   0.413   2.794  14.478 -0.0807  0.3905  0.1564
  141TMC2     C 2195   0.195   3.015  14.188  0.2763  0.5230  0.0790
  141TMC2     O 2196   0.213   2.985  14.071  0.1225 -0.0606  0.2091
  141TMC2     H 2197   0.407   2.863  14.144  2.0153  2.1110  1.6788
  141TMC2    H1 2198   0.137   2.998  14.459 -0.3731 -1.5369  0.2893
  141TMC2    H2 2199   0.459   2.729  14.552  2.4384  2.6943  0.6102
  141TMC2    C7 2200   0.250   2.854  14.646 -0.1793 -0.0087  0.0966
  141TMC2    C8 2201   0.565   2.744  14.297  0.6589  0.1083 -0.4479
  141TMC2    O1 2202   0.289   2.752  14.697  0.5855 -0.0743 -0.7069
  141TMC2    O2 2203   0.581   2.703  14.183 -0.2804 -0.0560 -0.3292
  141TMC2    O5 2204   0.656   2.816  14.359  0.1344  0.0510 -0.3524
  141TMC2    H5 2205   0.638   2.851  14.449 -0.4823 -0.7973 -0.1367
  142TMC2    C1 2206   2.456   1.652  10.394 -0.2884 -0.5304 -0.8956
  142TMC2    C2 2207   2.433   1.654  10.257 -0.9816 -0.3661  0.2752
  142TMC2    C3 2208   2.505   1.746  10.184 -0.1661  0.3506  1.0807
  142TMC2    C4 2209   2.555   1.727  10.453 -0.5173 -0.0439  0.2416
  142TMC2    C5 2210   2.624   1.822  10.371  0.0982  0.5164  0.7402
  142TMC2    C6 2211   2.606   1.821  10.240 -0.5975  0.5997  0.0670
  142TMC2     C 2212   2.378   1.557  10.463  1.6498  0.0959  0.1823
  142TMC2     O 2213   2.331   1.469  10.392  0.5888 -0.0829  0.1103
  142TMC2     H 2214   2.340   1.615  10.216 -0.5998  1.4855 -2.3867
  142TMC2    H1 2215   2.557   1.722  10.562  0.7738 -2.4261  0.1128
  142TMC2    H2 2216   2.673   1.875  10.173  1.5986 -1.2943  0.7584
  142TMC2    C7 2217   2.752   1.883  10.426 -0.1568  0.0703 -0.1373
  142TMC2    C8 2218   2.478   1.758  10.047  0.6074  0.5267 -0.3919
  142TMC2    O1 2219   2.774   1.994  10.382 -0.1246  0.1182 -0.8148
  142TMC2    O2 2220   2.523   1.863   9.992 -0.3572  0.1352 -0.3272
  142TMC2    O5 2221   2.486   1.637   9.994 -0.4131  0.1713  0.1088
  142TMC2    H5 2222   2.429   1.571  10.039  0.5239 -1.1589 -0.6542
  143MPD2     C 2223   2.233   1.289  10.872  0.1499 -0.6231 -0.0817
  143MPD2    C1 2224   2.252   1.251  10.739 -0.7082 -0.3025 -0.0032
  143MPD2    C2 2225   2.290   1.342  10.646 -0.6739 -0.8625  0.5855
  143MPD2    C3 2226   2.317   1.473  10.687  0.0149 -0.3598  0.0763
  143MPD2    C4 2227   2.319   1.505  10.824 -0.0818 -0.0853  0.0299
  143MPD2    C5 2228   2.280   1.408  10.915 -0.4802  0.6887 -0.2888
  143MPD2     H 2229   2.279   1.317  10.541 -0.9551 -1.5325  0.7769
  143MPD2    H1 2230   2.331   1.609  10.853 -1.5407  0.3414 -0.8869
  143MPD2    H2 2231   2.194   1.228  10.953  2.8000  0.5290  2.0227
  143MPD2    H3 2232   2.276   1.429  11.021 -0.2628 -0.9937  0.0620
  143MPD2     N 2233   2.363   1.575  10.599  0.4955  0.7847 -0.1808
  143MPD2    H5 2234   2.397   1.660  10.642 -0.1416  0.1109  1.6295
  143MPD2    N1 2235   2.210   1.123  10.706 -0.1694 -0.1308 -0.3472
  143MPD2    H7 2236   2.162   1.069  10.777  1.3427 -1.5119 -0.3695
  144TMC2    C1 2237   1.344   1.095   0.416 -0.5770  0.2556 -0.8228
  144TMC2    C2 2238   1.456   1.074   0.340  0.9189 -0.0153 -0.4635
  144TMC2    C3 2239   1.574   1.058   0.397 -0.7722 -0.0943  0.1270
  144TMC2    C4 2240   1.341   1.081   0.553 -0.9223 -0.6758 -0.2784
  144TMC2    C5 2241   1.466   1.062   0.607  0.1335  0.3452  0.2797
  144TMC2    C6 2242   1.583   1.062   0.528  0.3323  0.1752  0.0215
  144TMC2     C 2243   1.219   1.062   0.365  0.0104  0.4467 -0.2225
  144TMC2     O 2244   1.157   0.990   0.445 -0.3070  0.0904 -0.5103
  144TMC2     H 2245   1.455   1.065   0.232  1.2634  1.8013 -0.6215
  144TMC2    H1 2246   1.250   1.080   0.612 -0.7650  1.6516 -0.0040
  144TMC2    H2 2247   1.683   1.050   0.570  0.2406 -0.4743  0.0599
  144TMC2    C7 2248   1.473   1.019   0.743 -0.2922  0.0659 -0.4166
  144TMC2    C8 2249   1.696   1.009   0.320 -0.3383 -0.0273 -0.0705
  144TMC2    O1 2250   1.574   0.963   0.776  0.2210  0.3897  0.3100
  144TMC2    O2 2251   1.787   0.959   0.379 -0.0528 -0.7189 -0.1036
  144TMC2    O5 2252   1.713   1.070   0.198  0.2613 -0.2162  0.0075
  144TMC2    H5 2253   1.650   1.137   0.165  1.1835 -0.5446 -2.4076
  145MPD2     C 2254   0.890   0.928   0.000 -1.2720 -0.0297  0.1906
  145MPD2    C1 2255   0.903   0.883   0.128  0.6578  0.3708  0.1804
  145MPD2    C2 2256   1.008   0.930   0.205 -0.5689 -0.6418  0.0027
  145MPD2    C3 2257   1.088   1.030   0.155  0.2008 -0.0704  0.7802
  145MPD2    C4 2258   1.072   1.083   0.024 -0.2067 -0.3954 -0.1382
  145MPD2    C5 2259   0.972   1.022  17.691 -0.3835 -0.3111 -0.1153
  145MPD2     H 2260   1.033   0.880   0.298  0.0998  0.3031  0.3394
  145MPD2    H1 2261   1.126   1.172  17.744 -3.0431  1.5568  0.6280
  145MPD2    H2 2262   0.809   0.887  17.689 -1.4074  0.0475  0.3241
  145MPD2    H3 2263   0.966   1.059  17.589  4.2934 -0.8957 -0.5911
  145MPD2     N 2264   1.196   1.086   0.233 -0.3630 -0.3225 -0.5576
  145MPD2    H5 2265   1.262   1.150   0.189 -0.2278  0.3200  0.5855
  145MPD2    N1 2266   0.800   0.798   0.178 -0.1829  0.4665  0.0439
  145MPD2    H7 2267   0.725   0.770   0.116  0.0155 -0.0269  0.0242
  146TMC2    C1 2268   1.844   3.809  12.627 -0.2276 -0.0253  0.7332
  146TMC2    C2 2269   1.824   3.852  12.497 -0.6350 -0.5127 -0.5148
  146TMC2    C3 2270   1.807   3.768  12.389 -0.1763 -0.2254 -0.3129
  146TMC2    C4 2271   1.831   3.677  12.651  0.5269 -0.0820  0.0143
  146TMC2    C5 2272   1.795   3.596  12.542 -0.6315 -0.8811  0.0682
  146TMC2    C6 2273   1.788   3.633  12.414  0.4548  0.5633  0.0597
  146TMC2     C 2274   1.851   3.906  12.729 -0.2600 -0.2788 -0.7607
  146TMC2     O 2275   1.835   4.025  12.699  0.0650 -0.8460 -0.3258
  146TMC2     H 2276   1.821   3.958  12.473  1.1965 -0.6315 -1.2179
  146TMC2    H1 2277   1.836   3.637  12.752 -2.2878 -1.9348 -0.5717
  146TMC2    H2 2278   1.737   3.571  12.342  0.0136 -0.0873  0.9339
  146TMC2    C7 2279   1.779   3.450  12.562 -0.3760 -0.4988 -0.0377
  146TMC2    C8 2280   1.794   3.828  12.258  0.0743 -0.6304 -0.7305
  146TMC2    O1 2281   1.691   3.393  12.506 -0.6257 -0.0133 -0.1720
  146TMC2    O2 2282   1.744   3.937  12.240 -0.1450 -0.1118 -0.0159
  146TMC2    O5 2283   1.818   3.734  12.166  0.1882 -0.0361 -0.5186
  146TMC2    H5 2284   1.877   3.665  12.202 -1.1012  0.5339  2.6821
  147MPD2     C 2285   1.781   3.108  12.936 -0.2169 -0.4112  0.1820
  147MPD2    C1 2286   1.881   3.204  12.956 -0.1464 -0.1022  0.7518
  147MPD2    C2 2287   1.914   3.285  12.845  0.4737 -0.7959 -0.0542
  147MPD2    C3 2288   1.842   3.283  12.726  0.4367  0.0193 -0.6393
  147MPD2    C4 2289   1.738   3.190  12.710  0.1660  0.1286 -0.0053
  147MPD2    C5 2290   1.712   3.104  12.812 -0.0401 -0.0747 -0.3349
  147MPD2     H 2291   1.980   3.368  12.868 -1.3293  0.5594  0.3429
  147MPD2    H1 2292   1.680   3.177  12.620  1.1536  1.1651 -0.7913
  147MPD2    H2 2293   1.763   3.034  13.013  0.0457  0.3468  0.9760
  147MPD2    H3 2294   1.632   3.036  12.783 -0.0986  1.2902 -3.3380
  147MPD2     N 2295   1.861   3.401  12.655  0.1077  0.0752 -0.0849
  147MPD2    H5 2296   1.936   3.463  12.684 -0.2096  0.1521  0.5657
  147MPD2    N1 2297   1.943   3.216  13.090  0.7773  0.3481 -0.4118
  147MPD2    H7 2298   1.902   3.165  13.167  1.3835  3.2612  1.8417
  148TMC2    C1 2299   1.937   3.181  11.037  0.0900  0.0213 -0.4238
  148TMC2    C2 2300   2.021   3.291  11.049 -0.5542 -0.4104  0.4934
  148TMC2    C3 2301   2.151   3.265  11.091 -0.1845 -0.8233  0.7768
  148TMC2    C4 2302   1.983   3.052  11.047  0.3186 -0.0589  0.2470
  148TMC2    C5 2303   2.120   3.033  11.088 -0.0104 -0.1177 -0.4593
  148TMC2    C6 2304   2.199   3.142  11.111  0.0590  0.3480  0.2846
  148TMC2     C 2305   1.816   3.208  10.966 -0.4850 -0.4019 -0.3170
  148TMC2     O 2306   1.774   3.323  10.957  0.5441 -0.1816  0.6599
  148TMC2     H 2307   1.983   3.389  11.023  0.6467 -0.3006 -0.8236
  148TMC2    H1 2308   1.922   2.964  11.033  1.0328 -0.3109 -1.2900
  148TMC2    H2 2309   2.303   3.139  11.142 -0.1552  0.4254  1.0266
  148TMC2    C7 2310   2.179   2.917  11.016 -0.7211  0.2537 -0.4811
  148TMC2    C8 2311   2.241   3.373  11.077  0.4696  0.4871 -0.6430
  148TMC2    O1 2312   2.102   2.841  10.953  0.0133 -0.9814 -0.1988
  148TMC2    O2 2313   2.346   3.375  11.145  0.4483  0.0236  0.1902
  148TMC2    O5 2314   2.249   3.383  10.940  0.0883 -0.1390 -0.0312
  148TMC2    H5 2315   2.182   3.326  10.896  2.7188 -3.8630  0.7757
  149MPD2     C 2316   1.570   3.192  10.798  0.4869 -0.3415  0.6960
  149MPD2    C1 2317   1.665   3.091  10.806 -0.1187  0.5697 -0.4179
  149MPD2    C2 2318   1.656   2.985  10.720 -0.1286  0.2027 -0.3581
  149MPD2    C3 2319   1.547   2.969  10.633 -0.0606  0.0646 -0.2926
  149MPD2    C4 2320   1.450   3.070  10.629 -0.0691  0.0037 -0.1038
  149MPD2    C5 2321   1.465   3.175  10.709  0.8138 -0.5846  0.3396
  149MPD2     H 2322   1.723   2.902  10.737 -0.9761 -0.5559 -0.7391
  149MPD2    H1 2323   1.368   3.067  10.558  0.4571 -0.7016 -0.6872
  149MPD2    H2 2324   1.573   3.286  10.853  0.5258 -0.3340  0.6809
  149MPD2    H3 2325   1.381   3.244  10.709  0.7088 -0.7279  1.7753
  149MPD2     N 2326   1.535   2.865  10.538  0.1743 -0.1951  0.5067
  149MPD2    H5 2327   1.454   2.860  10.477 -0.2204  0.1299  1.0053
  149MPD2    N1 2328   1.776   3.099  10.894 -0.0556 -0.1224  0.2904
  149MPD2    H7 2329   1.833   3.015  10.899 -0.2455 -0.1286  2.2212
  150TMC2    C1 2330   4.178   2.393  12.615 -0.1503  0.1506 -0.9225
  150TMC2    C2 2331   4.085   2.491  12.619  0.9512  0.3143 -0.3107
  150TMC2    C3 2332   4.132   2.614  12.642 -0.5509  0.1424  0.5958
  150TMC2    C4 2333   4.315   2.410  12.586  0.5171 -0.1852  0.0829
  150TMC2    C5 2334   4.352   2.545  12.587 -0.1815 -0.0294 -0.0818
  150TMC2    C6 2335   4.259   2.648  12.602  0.7331 -0.2284  0.4243
  150TMC2     C 2336   4.130   2.261  12.581  0.2493  0.0851  0.6862
  150TMC2     O 2337   4.176   2.158  12.627  0.6776  0.3787 -0.6721
  150TMC2     H 2338   3.979   2.468  12.615  0.5330  1.7056  2.9963
  150TMC2    H1 2339   4.375   2.325  12.557 -1.3615 -2.4699  2.9337
  150TMC2    H2 2340   4.288   2.752  12.608  1.8540 -0.4076 -2.0785
  150TMC2    C7 2341   4.481   2.592  12.553  0.4450 -0.1383 -0.4171
  150TMC2    C8 2342   4.032   2.712  12.638 -0.4399  0.2646  0.1989
  150TMC2    O1 2343   4.492   2.706  12.511  0.8822 -0.4859  0.2000
  150TMC2    O2 2344   4.052   2.822  12.589 -0.2495  0.1719  0.0686
  150TMC2    O5 2345   3.949   2.676  12.733  0.0052 -0.1800  0.0904
  150TMC2    H5 2346   3.974   2.587  12.767  1.7660 -0.1992 -1.2656
  151MPD2     C 2347   3.839   1.976  12.253 -0.0559 -0.8893 -0.0105
  151MPD2    C1 2348   3.826   2.110  12.219 -0.0172  0.1632  0.6027
  151MPD2    C2 2349   3.892   2.199  12.306 -0.2511 -0.2839  0.2728
  151MPD2    C3 2350   3.983   2.161  12.404 -0.2738  0.0059  0.2339
  151MPD2    C4 2351   4.009   2.030  12.423 -0.0463  0.0360 -0.8418
  151MPD2    C5 2352   3.928   1.942  12.358 -0.4697 -0.7110 -0.1835
  151MPD2     H 2353   3.882   2.307  12.298 -0.0469 -0.2831 -0.0087
  151MPD2    H1 2354   4.085   1.986  12.486  0.2650  0.5952 -0.8240
  151MPD2    H2 2355   3.801   1.897  12.189 -0.9959  0.7521 -1.4940
  151MPD2    H3 2356   3.938   1.837  12.381  1.2069 -0.3561  0.7006
  151MPD2     N 2357   4.037   2.270  12.478  0.3428 -0.3873  0.3769
  151MPD2    H5 2358   4.011   2.360  12.439  1.3510 -0.5835 -0.7540
  151MPD2    N1 2359   3.739   2.152  12.117  0.1279  0.2121  0.1705
  151MPD2    H7 2360   3.692   2.077  12.068  3.1823 -0.0222 -2.4477
  152TMC2    C1 2361   4.161   1.984  12.937 -0.7792  0.3550 -0.0615
  152TMC2    C2 2362   4.267   1.971  12.855 -0.5791 -0.0643  0.6029
  152TMC2    C3 2363   4.382   2.033  12.891 -0.4533  0.4423 -0.4589
  152TMC2    C4 2364   4.176   2.038  13.060  0.3190 -0.2323 -0.2874
  152TMC2    C5 2365   4.297   2.082  13.099 -1.0203  0.0945 -0.4812
  152TMC2    C6 2366   4.405   2.091  13.013  0.1846  0.1421  0.2045
  152TMC2     C 2367   4.037   1.916  12.919 -0.8907  0.3538  0.9455
  152TMC2     O 2368   3.940   1.954  12.987 -0.7103  0.2222  0.2208
  152TMC2     H 2369   4.248   1.948  12.751  0.8887  0.1192  0.2923
  152TMC2    H1 2370   4.095   2.024  13.131  1.1583 -0.3026  0.6718
  152TMC2    H2 2371   4.508   2.114  13.038  0.3000  0.1654 -0.2953
  152TMC2    C7 2372   4.312   2.168  13.214 -0.4479  0.4870 -0.6941
  152TMC2    C8 2373   4.476   2.049  12.783 -0.5490 -0.3230  0.4857
  152TMC2    O1 2374   4.241   2.139  13.307 -0.1648  0.4418 -0.2574
  152TMC2    O2 2375   4.499   1.955  12.707 -0.8071 -0.1115  0.5968
  152TMC2    O5 2376   4.454   2.179  12.752  0.3718  0.8353 -0.2122
  152TMC2    H5 2377   4.434   2.240  12.825  3.0267 -2.4426  3.2219
  153MPD2     C 2378   3.932   1.658  12.682  0.7697  0.4431 -0.1111
  153MPD2    C1 2379   3.918   1.752  12.777 -0.1237  0.5992 -0.6447
  153MPD2    C2 2380   3.789   1.756  12.838  0.1211  0.4615  0.1244
  153MPD2    C3 2381   3.683   1.683  12.796 -0.5407 -0.3008 -0.5638
  153MPD2    C4 2382   3.702   1.600  12.689 -0.3449  0.1093  0.1120
  153MPD2    C5 2383   3.829   1.585  12.634 -0.3362  0.4926 -0.1471
  153MPD2     H 2384   3.774   1.805  12.933  1.0548  0.9480  0.0215
  153MPD2    H1 2385   3.624   1.532  12.656  0.6960  0.7394 -3.6225
  153MPD2    H2 2386   4.032   1.635  12.645  1.3795 -0.7362  2.2654
  153MPD2    H3 2387   3.843   1.511  12.556  0.0642 -1.5010  1.8219
  153MPD2     N 2388   3.565   1.691  12.868  0.9473  0.1824 -0.9145
  153MPD2    H5 2389   3.571   1.743  12.955  0.3658  1.0733 -1.4047
  153MPD2    N1 2390   4.034   1.821  12.820  0.2177  0.1001  0.2627
  153MPD2    H7 2391   4.125   1.802  12.779  0.5201 -0.7544  1.3159
  154TMC2    C1 2392   0.400   1.880   0.472 -0.2818  0.0918 -0.2830
  154TMC2    C2 2393   0.406   1.991   0.392 -0.1215 -0.1937 -0.5625
  154TMC2    C3 2394   0.431   1.974   0.254  0.6727 -0.5276 -0.1752
  154TMC2    C4 2395   0.463   1.761   0.431 -0.2979 -0.3218 -0.2804
  154TMC2    C5 2396   0.508   1.756   0.302  0.3812  0.2199  1.0148
  154TMC2    C6 2397   0.478   1.853   0.208 -0.0463 -0.5404 -0.6757
  154TMC2     C 2398   0.380   1.886   0.615 -0.4779  0.0602  0.0579
  154TMC2     O 2399   0.453   1.820   0.688 -0.1715 -0.0850  0.0073
  154TMC2     H 2400   0.386   2.089   0.435 -0.0753 -0.5218  0.1972
  154TMC2    H1 2401   0.481   1.685   0.506  1.9921  0.8618  0.3854
  154TMC2    H2 2402   0.518   1.843   0.108 -0.2855  0.6561 -0.8875
  154TMC2    C7 2403   0.623   1.666   0.268  0.2497  0.1088 -0.5053
  154TMC2    C8 2404   0.448   2.092   0.180 -0.7108 -0.3747  0.3674
  154TMC2    O1 2405   0.688   1.695   0.168 -0.1451 -0.7280  0.4152
  154TMC2    O2 2406   0.485   2.192   0.238 -0.0508  0.1840  0.1423
  154TMC2    O5 2407   0.396   2.066   0.055  0.5612  0.4024 -0.7044
  154TMC2    H5 2408   0.376   1.972   0.033 -0.8320  0.3284  0.8297
  155MPD2     C 2409   0.112   2.071   0.769 -0.3919 -0.7903  0.5085
  155MPD2    C1 2410   0.226   1.999   0.778 -0.8460  0.1232  0.1825
  155MPD2    C2 2411   0.282   1.966   0.895 -0.0074 -0.0447 -0.0584
  155MPD2    C3 2412   0.227   2.018   1.014 -0.3656  0.1347 -0.0470
  155MPD2    C4 2413   0.112   2.094   1.011  0.3627  0.1356  0.1286
  155MPD2    C5 2414   0.053   2.112   0.888 -0.0161 -0.6216 -0.2938
  155MPD2     H 2415   0.376   1.912   0.898  1.2877  2.2931  1.2890
  155MPD2    H1 2416   0.067   2.141   1.097 -0.1761 -1.3535  0.6391
  155MPD2    H2 2417   0.072   2.097   0.671  0.1615 -0.3217  0.4092
  155MPD2    H3 2418   4.703   2.176   0.883 -0.6449 -1.6019 -1.9720
  155MPD2     N 2419   0.301   2.008   1.132 -0.7744  0.2859 -0.7237
  155MPD2    H5 2420   0.399   1.993   1.111 -0.7224  1.5229 -1.3675
  155MPD2    N1 2421   0.273   1.973   0.649 -0.0477  0.2890  0.8456
  155MPD2    H7 2422   0.223   2.018   0.574  0.4758  1.8563  1.4425
  156TMC2    C1 2423   3.941   3.870  11.720  0.3360  0.1913 -0.3064
  156TMC2    C2 2424   3.992   3.750  11.679  0.2713 -0.3620 -0.3597
  156TMC2    C3 2425   4.027   3.754  11.544 -0.1037 -0.4806 -0.1590
  156TMC2    C4 2426   3.924   3.984  11.641 -0.3251  0.2074 -0.6495
  156TMC2    C5 2427   3.964   3.978  11.512 -0.1379 -0.4571  0.0156
  156TMC2    C6 2428   4.008   3.859  11.459 -0.7941 -0.3037 -0.4981
  156TMC2     C 2429   3.881   3.892  11.849  0.5515  0.4446  0.0089
  156TMC2     O 2430   3.804   3.988  11.857  0.3290 -0.1199  0.0113
  156TMC2     H 2431   4.011   3.664  11.743  1.9311  0.0071 -0.3444
  156TMC2    H1 2432   3.909   4.081  11.688  1.9179 -0.3589  1.2309
  156TMC2    H2 2433   4.046   3.866  11.358  0.2196  0.3611 -0.0797
  156TMC2    C7 2434   3.932   4.085  11.423 -0.0843  0.1678 -0.5070
  156TMC2    C8 2435   4.090   3.647  11.484 -0.1203 -0.4378 -0.0127
  156TMC2    O1 2436   3.994   4.101  11.318 -0.4004  0.1647  0.2129
  156TMC2    O2 2437   4.146   3.556  11.540  0.0730 -0.3025 -0.3660
  156TMC2    O5 2438   4.027   3.641  11.367 -0.1178  0.6726 -0.0996
  156TMC2    H5 2439   3.943   3.692  11.363 -0.9022 -0.4735  1.5410
  157MPD2     C 2440   3.903   3.692  12.165  0.1169  0.4669 -0.1047
  157MPD2    C1 2441   3.867   3.796  12.082 -0.4507 -1.1634 -0.6578
  157MPD2    C2 2442   3.774   3.892  12.129  0.3590  0.5315  0.4066
  157MPD2    C3 2443   3.727   3.893  12.259 -0.2690  0.3593  0.9887
  157MPD2    C4 2444   3.755   3.788  12.345 -0.1015  0.9869  0.4089
  157MPD2    C5 2445   3.845   3.688  12.299 -0.5657 -0.3085  0.2309
  157MPD2     H 2446   3.728   3.972  12.071 -2.4675 -1.0632  0.4285
  157MPD2    H1 2447   3.721   3.782  12.449  1.3478  2.7777  0.9843
  157MPD2    H2 2448   3.967   3.616  12.122  0.9298  0.1649  1.6491
  157MPD2    H3 2449   3.861   3.600  12.360  2.3316  0.8690  1.1564
  157MPD2     N 2450   3.652   4.008  12.294 -0.2587 -0.4552  0.1098
  157MPD2    H5 2451   3.627   4.079  12.227  3.7763  2.3013  1.5884
  157MPD2    N1 2452   3.923   3.806  11.953  0.1124 -0.2148  0.1280
  157MPD2    H7 2453   4.001   3.747  11.928 -0.8592 -1.4860  0.0979
  158TMC2    C1 2454   3.585   3.070  13.861 -0.6187 -0.1244 -1.2229
  158TMC2    C2 2455   3.476   3.152  13.873 -0.0394  0.3860  0.4664
  158TMC2    C3 2456   3.362   3.108  13.810  0.6888  0.6434 -0.2478
  158TMC2    C4 2457   3.589   2.944  13.803 -0.2305  0.5838 -0.0978
  158TMC2    C5 2458   3.465   2.899  13.755 -0.3300 -0.0137  0.1068
  158TMC2    C6 2459   3.349   2.981  13.761  0.2308  0.1608  0.0186
  158TMC2     C 2460   3.711   3.136  13.880  0.2428 -0.5624 -0.0598
  158TMC2     O 2461   3.714   3.258  13.880 -0.3745 -0.0498 -0.0719
  158TMC2     H 2462   3.479   3.245  13.929  0.0390  1.4173 -1.2128
  158TMC2    H1 2463   3.680   2.884  13.801 -0.3941  0.3193  0.4895
  158TMC2    H2 2464   3.257   2.953  13.710  0.3282 -2.5491  1.3167
  158TMC2    C7 2465   3.441   2.769  13.699 -0.2609  0.7142 -0.2749
  158TMC2    C8 2466   3.234   3.173  13.832 -0.1990 -0.2322 -0.8473
  158TMC2    O1 2467   3.322   2.739  13.681  0.2598  0.0447 -0.0525
  158TMC2    O2 2468   3.129   3.122  13.872  0.5114 -0.8342  0.5359
  158TMC2    O5 2469   3.254   3.303  13.840  0.4582  0.3747 -0.7375
  158TMC2    H5 2470   3.327   3.339  13.785  1.0547  1.0050  0.4736
  159MPD2     C 2471   4.222   3.167  13.942  0.8500  0.5046  0.0118
  159MPD2    C1 2472   4.185   3.040  13.976 -0.5957  0.2572 -0.3526
  159MPD2    C2 2473   4.053   3.002  13.970 -0.2309 -0.5389  0.1560
  159MPD2    C3 2474   3.954   3.093  13.923  0.2171 -0.8794  0.2351
  159MPD2    C4 2475   3.996   3.225  13.897 -0.7272 -0.6307 -0.2078
  159MPD2    C5 2476   4.130   3.253  13.905 -0.5596 -0.0779 -0.9192
  159MPD2     H 2477   4.018   2.909  14.013 -0.4527 -0.8957 -0.7973
  159MPD2    H1 2478   3.931   3.304  13.859 -0.3435  0.3402  1.1610
  159MPD2    H2 2479   4.327   3.195  13.947  0.8232  0.2461  2.0422
  159MPD2    H3 2480   4.151   3.358  13.886  0.6489 -0.3517 -1.0460
  159MPD2     N 2481   3.816   3.049  13.912  0.2211  0.1890  0.0109
  159MPD2    H5 2482   3.797   2.950  13.911 -0.3518  0.2976  0.5922
  159MPD2    N1 2483   4.273   2.943  14.039  0.6352  0.3287  0.2385
  159MPD2    H7 2484   4.229   2.856  14.066 -0.5256  2.0087  3.8147
  160TMC2    C1 2485   3.968   1.919   2.110 -0.1107  0.0226 -0.1041
  160TMC2    C2 2486   3.894   1.874   2.219  0.4088  0.0188 -0.1488
  160TMC2    C3 2487   3.963   1.811   2.322  0.1909  0.6969  0.6033
  160TMC2    C4 2488   4.105   1.891   2.099  0.2963 -0.4105  0.1230
  160TMC2    C5 2489   4.164   1.820   2.200 -0.4513  0.7305 -0.2340
  160TMC2    C6 2490   4.098   1.787   2.312 -0.5306  0.1101 -0.1164
  160TMC2     C 2491   3.934   2.053   2.075  0.9183  0.4006 -0.1997
  160TMC2     O 2492   3.920   2.129   2.168 -0.1924 -0.2952 -0.0426
  160TMC2     H 2493   3.788   1.896   2.227  0.2323 -0.1613 -1.9643
  160TMC2    H1 2494   4.158   1.909   2.006 -1.5085 -2.5938 -1.3498
  160TMC2    H2 2495   4.142   1.723   2.388  0.7619  1.9615  0.7005
  160TMC2    C7 2496   4.308   1.779   2.194  0.2520  0.3467  0.2654
  160TMC2    C8 2497   3.901   1.758   2.436 -0.3041 -0.1951  0.6413
  160TMC2    O1 2498   4.375   1.758   2.292 -0.0569 -0.3846  0.0646
  160TMC2    O2 2499   3.787   1.714   2.417 -0.0630 -0.4127 -0.2690
  160TMC2    O5 2500   3.957   1.819   2.545 -0.0334  0.0930  0.2885
  160TMC2    H5 2501   4.048   1.853   2.534  0.7615 -2.3597 -0.7681
  161MPD2     C 2502   3.859   2.307   1.940  0.0430  0.8707 -0.6116
  161MPD2    C1 2503   3.859   2.186   1.880 -0.2312 -0.8528  0.3499
  161MPD2    C2 2504   3.835   2.188   1.746  0.2466 -0.1761 -0.0047
  161MPD2    C3 2505   3.800   2.304   1.676  0.5562 -0.3620 -0.4297
  161MPD2    C4 2506   3.778   2.420   1.747  0.0655 -0.1379 -0.1534
  161MPD2    C5 2507   3.817   2.420   1.880 -0.5191  0.3405 -0.4927
  161MPD2     H 2508   3.836   2.093   1.695 -0.9035  1.6189 -3.3849
  161MPD2    H1 2509   3.733   2.512   1.711 -1.2043 -0.4301  0.6844
  161MPD2    H2 2510   3.893   2.313   2.043  2.7004 -0.2802 -1.3897
  161MPD2    H3 2511   3.790   2.501   1.947 -1.9542  0.6333 -1.4294
  161MPD2     N 2512   3.776   2.304   1.536 -0.3619 -0.9622  0.0200
  161MPD2    H5 2513   3.758   2.396   1.496  0.3980 -0.2706  1.3052
  161MPD2    N1 2514   3.906   2.067   1.940 -0.1353  0.0427 -0.1528
  161MPD2    H7 2515   3.906   1.983   1.884  1.2448 -0.1775  0.1567
  162TMC2    C1 2516   1.719   3.299   1.077  0.3538  0.0382 -0.1426
  162TMC2    C2 2517   1.621   3.347   1.155  0.5420  0.8942 -0.5182
  162TMC2    C3 2518   1.651   3.416   1.265  0.1002 -0.0770  0.6892
  162TMC2    C4 2519   1.848   3.304   1.116 -0.0684  0.4989  1.6080
  162TMC2    C5 2520   1.878   3.375   1.229 -0.2603  0.6255  0.1778
  162TMC2    C6 2521   1.780   3.431   1.309 -0.6604 -0.0034  0.2314
  162TMC2     C 2522   1.686   3.230   0.952 -0.0368  0.1553  0.0645
  162TMC2     O 2523   1.782   3.213   0.878  0.2274 -0.2665  1.0469
  162TMC2     H 2524   1.517   3.322   1.134  1.1014 -1.4878 -0.5289
  162TMC2    H1 2525   1.929   3.267   1.054  0.3797  1.6958  1.4692
  162TMC2    H2 2526   1.796   3.481   1.403 -1.2843 -1.8031  1.2884
  162TMC2    C7 2527   2.013   3.417   1.262  0.1482 -0.0018 -0.6075
  162TMC2    C8 2528   1.548   3.469   1.347 -0.7759  0.3241 -0.6761
  162TMC2    O1 2529   2.017   3.521   1.324  0.0313 -0.0372  0.2568
  162TMC2    O2 2530   1.543   3.587   1.383 -0.3545  0.1047 -0.1800
  162TMC2    O5 2531   1.445   3.379   1.364  0.1451  0.4035  0.1453
  162TMC2    H5 2532   1.472   3.288   1.338  0.9921  0.5964  0.3513
  163MPD2     C 2533   1.394   3.155   0.541 -0.3926  0.5509 -0.1311
  163MPD2    C1 2534   1.522   3.117   0.578  0.1596 -0.2478  0.3889
  163MPD2    C2 2535   1.572   3.129   0.703  0.1789  0.4190  0.2167
  163MPD2    C3 2536   1.497   3.188   0.802 -0.9541 -0.4734  0.3831
  163MPD2    C4 2537   1.366   3.217   0.775  0.2724  0.9105 -0.5350
  163MPD2    C5 2538   1.318   3.203   0.645  0.0468 -0.8556  0.2902
  163MPD2     H 2539   1.672   3.089   0.720  0.4519  1.2799  0.6254
  163MPD2    H1 2540   1.310   3.252   0.861 -0.1630 -0.5218 -0.2245
  163MPD2    H2 2541   1.343   3.142   0.447 -0.5468 -0.7140  0.1285
  163MPD2    H3 2542   1.217   3.234   0.619  1.1619  1.8588 -0.7329
  163MPD2     N 2543   1.551   3.227   0.925 -0.2443  0.3287 -0.1355
  163MPD2    H5 2544   1.482   3.257   0.992 -0.8794 -1.4863  0.0184
  163MPD2    N1 2545   1.603   3.068   0.464  0.3873 -1.0237 -0.0699
  163MPD2    H7 2546   1.572   3.076   0.367  0.1998  0.9083  0.1576
  164TMC2    C1 2547   2.451   2.743  11.601 -0.0221 -0.2928 -0.0938
  164TMC2    C2 2548   2.563   2.813  11.639 -0.0821 -0.2480 -0.6747
  164TMC2    C3 2549   2.545   2.945  11.674  0.0486 -0.3267  0.1593
  164TMC2    C4 2550   2.332   2.805  11.569  0.0508  0.2310  0.3958
  164TMC2    C5 2551   2.327   2.943  11.583  0.7505 -0.6535  1.0125
  164TMC2    C6 2552   2.427   3.008  11.646  0.0991  0.4189 -0.2809
  164TMC2     C 2553   2.435   2.603  11.576  0.0656 -0.0184  0.1642
  164TMC2     O 2554   2.331   2.548  11.608  0.0759  0.4338 -0.6679
  164TMC2     H 2555   2.656   2.760  11.655  0.0828 -0.4882 -2.4505
  164TMC2    H1 2556   2.248   2.753  11.524 -1.1489  0.5779  2.2296
  164TMC2    H2 2557   2.407   3.107  11.685 -2.3096  0.0690 -0.6288
  164TMC2    C7 2558   2.206   3.006  11.529  0.6188 -0.5178 -0.0013
  164TMC2    C8 2559   2.665   3.029  11.699  0.1178  0.1975 -0.2888
  164TMC2    O1 2560   2.125   2.930  11.481 -0.1014  0.1113 -0.0314
  164TMC2    O2 2561   2.663   3.152  11.692  0.7190 -0.2642 -0.8764
  164TMC2    O5 2562   2.767   2.960  11.754  0.1349  0.2525  0.1329
  164TMC2    H5 2563   2.773   2.867  11.785  3.0003  0.0615 -1.0235
  165TMC2    C1 2564   3.979   1.460   1.567 -0.3541  0.7713 -0.6099
  165TMC2    C2 2565   3.958   1.594   1.606  0.6671  0.0157 -0.2391
  165TMC2    C3 2566   4.030   1.628   1.719 -0.5094  0.8272 -0.2224
  165TMC2    C4 2567   4.057   1.373   1.643 -1.0943  0.2461  0.3531
  165TMC2    C5 2568   4.096   1.417   1.768 -0.2077  0.1935  0.0336
  165TMC2    C6 2569   4.097   1.544   1.805 -0.4657 -1.1110 -0.2535
  165TMC2     C 2570   3.888   1.410   1.460  0.4213  1.0946  0.1753
  165TMC2     O 2571   3.811   1.490   1.406  0.1070 -0.3145  0.3228
  165TMC2     H 2572   3.912   1.669   1.544 -2.6767  0.1270  2.3944
  165TMC2    H1 2573   4.042   1.266   1.637 -1.1194  0.4697 -3.2185
  165TMC2    H2 2574   4.137   1.582   1.897  1.9417 -1.0805 -1.3243
  165TMC2    C7 2575   4.194   1.323   1.830 -0.0809 -0.1917  0.6309
  165TMC2    C8 2576   4.072   1.766   1.734 -0.4577  0.4877 -0.0129
  165TMC2    O1 2577   4.212   1.220   1.771 -0.4244  0.4778  0.0529
  165TMC2    O2 2578   4.175   1.796   1.789  0.0720 -0.5395  0.3924
  165TMC2    O5 2579   3.956   1.830   1.765  1.2022 -0.3442  0.7974
  165TMC2    H5 2580   3.876   1.784   1.731  2.0339  0.1743 -1.8576
  166MPD2     C 2581   3.777   1.075   1.080 -0.1635  0.1950  0.0716
  166MPD2    C1 2582   3.695   1.161   1.148 -0.3469 -0.4348  0.5382
  166MPD2    C2 2583   3.743   1.242   1.248 -0.1080  0.3780 -0.3902
  166MPD2    C3 2584   3.873   1.218   1.300 -0.6252  0.7899  0.3225
  166MPD2    C4 2585   3.953   1.120   1.238 -0.4292  0.3817 -0.0447
  166MPD2    C5 2586   3.908   1.051   1.134 -0.6977  0.3325  0.5240
  166MPD2     H 2587   3.674   1.313   1.292  0.0711  0.3475 -0.0592
  166MPD2    H1 2588   4.050   1.087   1.273 -0.6682  1.8707  2.0086
  166MPD2    H2 2589   3.744   1.019   0.994 -1.3239 -1.1620  1.4071
  166MPD2    H3 2590   3.972   0.975   1.089 -3.0085 -0.4620 -1.4369
  166MPD2     N 2591   3.935   1.289   1.407  0.0713  0.4231 -0.2383
  166MPD2    H5 2592   4.024   1.256   1.443  0.4603 -0.0582 -1.6625
  166MPD2    N1 2593   3.570   1.163   1.094  0.3920 -0.1455  0.4255
  166MPD2    H7 2594   3.556   1.104   1.012 -0.4365  1.7093 -0.7548
  167TMC2    C1 2595   2.928   2.512  12.791  0.0977 -0.3429  0.3240
  167TMC2    C2 2596   3.017   2.417  12.835 -0.4896 -0.9520  0.4009
  167TMC2    C3 2597   2.967   2.319  12.920 -0.6519  0.3817 -0.0220
  167TMC2    C4 2598   2.796   2.506  12.825 -0.1105 -0.8980  0.2218
  167TMC2    C5 2599   2.755   2.408  12.912 -0.1154 -0.5281  0.8151
  167TMC2    C6 2600   2.837   2.310  12.959  0.5699  0.4920 -0.8124
  167TMC2     C 2601   2.985   2.633  12.727 -0.0337  0.4342 -0.1406
  167TMC2     O 2602   3.106   2.653  12.736  0.8331  0.1277  0.4406
  167TMC2     H 2603   3.120   2.414  12.801 -0.0795  0.8710  1.5124
  167TMC2    H1 2604   2.720   2.568  12.780  1.3172  0.8535  0.2228
  167TMC2    H2 2605   2.794   2.226  13.012 -0.6385  0.8878 -1.1708
  167TMC2    C7 2606   2.614   2.381  12.910  0.7543 -0.2183  0.2930
  167TMC2    C8 2607   3.063   2.214  12.954 -0.4095  0.2140 -0.1637
  167TMC2    O1 2608   2.561   2.345  13.019 -0.6535  0.7548  0.0568
  167TMC2    O2 2609   3.152   2.163  12.887 -0.3003  0.3085  0.5610
  167TMC2    O5 2610   3.021   2.158  13.070 -0.6145  0.1087  0.5173
  167TMC2    H5 2611   2.956   2.217  13.114  0.2356  0.1195  1.7809
  168MPD2     C 2612   2.993   2.904  12.592  0.0005 -0.3560 -0.5453
  168MPD2    C1 2613   2.890   2.813  12.588 -0.3863  0.1222 -0.3974
  168MPD2    C2 2614   2.771   2.838  12.525  0.1320 -0.1912  0.2496
  168MPD2    C3 2615   2.755   2.956  12.456  0.1558 -0.1614  0.8180
  168MPD2    C4 2616   2.855   3.047  12.472  0.4290 -0.3949  0.3383
  168MPD2    C5 2617   2.981   3.011  12.518  0.4058 -0.1506  0.2829
  168MPD2     H 2618   2.700   2.758  12.539 -0.7049 -0.0561 -3.3002
  168MPD2    H1 2619   2.843   3.148  12.433 -0.0482 -0.3247  0.6620
  168MPD2    H2 2620   3.078   2.888  12.657  0.2049  3.5861  0.1419
  168MPD2    H3 2621   3.059   3.087  12.513 -0.8329  1.3513  3.5064
  168MPD2     N 2622   2.628   2.996  12.406  0.4627  0.7221  0.4737
  168MPD2    H5 2623   2.616   3.093  12.378 -1.9099  0.7912  1.6886
  168MPD2    N1 2624   2.885   2.693  12.654 -0.7160 -0.1327 -0.1515
  168MPD2    H7 2625   2.801   2.638  12.642 -1.1415  0.9850 -2.3048
  169MPD1     C 2626   3.316   3.482   8.952  0.4751  0.4106  0.4045
  169MPD1    C1 2627   3.283   3.451   9.081  0.0744  0.6426  0.0156
  169MPD1    C2 2628   3.360   3.354   9.153  0.2362  0.7092 -0.4447
  169MPD1    C3 2629   3.460   3.287   9.092  0.0051 -0.0337  0.0840
  169MPD1    C4 2630   3.497   3.330   8.963 -0.0270 -0.5369 -1.0470
  169MPD1    C5 2631   3.419   3.420   8.897  0.1590 -0.3021  0.3159
  169MPD1     H 2632   3.349   3.333   9.259  2.0674 -4.2928 -1.2954
  169MPD1    H1 2633   3.577   3.290   8.902  0.7595 -0.7084  0.0912
  169MPD1    H2 2634   3.259   3.551   8.891  2.5767 -0.2181 -2.2725
  169MPD1    H3 2635   3.456   3.451   8.800 -0.2802 -1.4760 -0.2338
  169MPD1     N 2636   3.544   3.199   9.164  0.0378  0.2554  0.5255
  169MPD1    H5 2637   3.526   3.210   9.264 -1.7229  0.3892  0.1953
  169MPD1    N1 2638   3.198   3.541   9.151  0.0596  0.0829  0.4089
  169MPD1    H6 2639   3.147   3.596   9.083 -0.3255 -0.0676  0.5794
  169MPD1    H7 2640   3.126   3.486   9.197 -1.4729 -0.6965 -2.9315
  170MPD1     C 2641   2.779   0.142  12.684  0.0386  0.8557 -0.4357
  170MPD1    C1 2642   2.818   0.268  12.721  0.1664  0.1119  0.2640
  170MPD1    C2 2643   2.792   0.300  12.853 -0.9031 -0.4915 -0.9592
  170MPD1    C3 2644   2.718   0.220  12.941  0.0516  0.6558 -0.1031
  170MPD1    C4 2645   2.662   0.105  12.893 -0.5206  0.4650  0.1377
  170MPD1    C5 2646   2.699   0.060  12.769 -0.0445  0.1597 -0.0946
  170MPD1     H 2647   2.831   0.391  12.896 -0.4124 -1.0007 -0.3114
  170MPD1    H1 2648   2.597   0.046  12.957 -0.7711 -0.3390 -0.8662
  170MPD1    H2 2649   2.794   0.114  12.580 -1.8755  1.7574 -0.9613
  170MPD1    H3 2650   2.653   4.707  12.729  1.0897 -0.3523 -0.2618
  170MPD1     N 2651   2.709   0.270  13.070  0.4912  0.3017  0.1905
  170MPD1    H5 2652   2.735   0.367  13.078  0.8496  0.5725 -4.5240
  170MPD1    N1 2653   2.903   0.342  12.640 -0.6267  0.2431 -0.1139
  170MPD1    H6 2654   2.880   0.344  12.541 -0.5026 -0.8574 -0.1653
  170MPD1    H7 2655   2.884   0.439  12.666 -2.5438 -0.2897  0.4323
  171MPD1     C 2656   1.928   1.592  15.532  0.0864  0.6146 -0.2181
  171MPD1    C1 2657   1.833   1.527  15.463  0.8661 -0.2532 -0.6461
  171MPD1    C2 2658   1.795   1.396  15.511 -0.2792  0.0256 -0.2758
  171MPD1    C3 2659   1.864   1.337  15.613 -0.2738  0.4232 -1.3103
  171MPD1    C4 2660   1.974   1.401  15.665 -0.3899 -0.7477 -0.0499
  171MPD1    C5 2661   2.001   1.530  15.628  0.5827  0.5559  0.2781
  171MPD1     H 2662   1.717   1.338  15.463 -1.0768 -1.1963  2.5012
  171MPD1    H1 2663   2.048   1.354  15.729  1.1194  0.1420 -1.1336
  171MPD1    H2 2664   1.969   1.687  15.497 -0.9324  1.7819  1.7363
  171MPD1    H3 2665   2.084   1.582  15.674  1.2377  1.0783 -1.4999
  171MPD1     N 2666   1.836   1.210  15.664  0.4339 -0.5223 -0.5001
  171MPD1    H5 2667   1.896   1.174  15.737 -0.9372 -3.3442 -0.7382
  171MPD1    N1 2668   1.756   1.593  15.365  0.6823 -0.6886 -0.3027
  171MPD1    H6 2669   1.819   1.647  15.307 -0.3307  0.3414 -0.4526
  171MPD1    H7 2670   1.695   1.527  15.316  1.1053 -0.2889 -1.3622
  172MPD1     C 2671   1.169   4.629  17.219 -0.1598 -0.4185 -0.0145
  172MPD1    C1 2672   1.171   0.006  17.138  0.3950  0.3631 -0.1070
  172MPD1    C2 2673   1.071   0.099  17.158  0.3454 -0.3034 -0.1827
  172MPD1    C3 2674   0.973   0.077  17.252  0.7186 -0.5671  0.7992
  172MPD1    C4 2675   0.981   4.703  17.328  0.1355  0.3638  0.3992
  172MPD1    C5 2676   1.076   4.608  17.316 -0.2691  0.1849  0.4653
  172MPD1     H 2677   1.079   0.197  17.113  2.0619 -0.1192  0.5237
  172MPD1    H1 2678   0.898   4.683  17.395 -1.8707  0.1023 -2.1837
  172MPD1    H2 2679   1.238   4.545  17.218  0.1513 -0.1713  0.7057
  172MPD1    H3 2680   1.084   4.516  17.372  0.7893  0.6333  1.0433
  172MPD1     N 2681   0.868   0.169  17.284 -0.4442  0.0468 -0.2069
  172MPD1    H5 2682   0.797   0.129  17.343 -0.4666 -0.0295 -0.2859
  172MPD1    N1 2683   1.291   0.039  17.068  0.4855  0.1285 -0.3648
  172MPD1    H6 2684   1.342   4.697  17.031  1.6684  0.0059  1.5400
  172MPD1    H7 2685   1.272   0.110  16.998 -3.9387 -1.1710 -0.5404
  173MPD1     C 2686   1.622   0.822  14.185 -0.8243 -0.5934 -0.2461
  173MPD1    C1 2687   1.605   0.820  14.323  0.3841  0.7516 -0.9445
  173MPD1    C2 2688   1.619   0.700  14.389 -0.2486  0.3265  0.1493
  173MPD1    C3 2689   1.633   0.581  14.316 -0.5729 -0.0473  0.1598
  173MPD1    C4 2690   1.632   0.591  14.180  0.0747  0.4389  0.0561
  173MPD1    C5 2691   1.642   0.705  14.114  0.4141 -0.9620  0.3973
  173MPD1     H 2692   1.609   0.690  14.497 -1.0861 -0.6413 -0.0168
  173MPD1    H1 2693   1.650   0.505  14.116 -1.2867  0.5982 -0.5313
  173MPD1    H2 2694   1.629   0.917  14.133 -0.3425 -0.3164  0.3281
  173MPD1    H3 2695   1.652   0.710  14.006  0.7952  0.2075  0.4956
  173MPD1     N 2696   1.636   0.461  14.379  0.1246 -0.0886 -0.0122
  173MPD1    H5 2697   1.657   0.385  14.314  1.9620  1.1464 -0.8391
  173MPD1    N1 2698   1.592   0.942  14.397 -0.1015  1.0165 -0.2085
  173MPD1    H6 2699   1.534   1.009  14.346 -1.5167 -0.2392 -0.2742
  173MPD1    H7 2700   1.531   0.923  14.476  2.1648  1.4099  1.6166
  174MPD1     C 2701   1.395   4.485  13.940 -0.5947  0.3125  1.1881
  174MPD1    C1 2702   1.388   4.442  14.070  0.0369 -0.8696 -0.1014
  174MPD1    C2 2703   1.438   4.529  14.175  0.4335  0.0672 -0.9400
  174MPD1    C3 2704   1.468   4.665  14.149 -0.4510  0.6462 -0.2333
  174MPD1    C4 2705   1.488   4.695  14.019 -0.7488  0.4208 -0.4799
  174MPD1    C5 2706   1.454   4.608  13.921 -0.1614  0.3801 -1.0118
  174MPD1     H 2707   1.436   4.485  14.274  2.7979 -0.8600 -1.2927
  174MPD1    H1 2708   1.525   0.057  13.992  0.9543 -0.2289 -0.5218
  174MPD1    H2 2709   1.375   4.425  13.853 -0.1490  1.5709  0.2193
  174MPD1    H3 2710   1.480   4.647  13.823 -0.6889  1.2305 -0.8154
  174MPD1     N 2711   1.485   0.024  14.256  0.3348  0.4597 -0.4349
  174MPD1    H5 2712   1.512   0.119  14.233  0.3287  0.6835  0.4879
  174MPD1    N1 2713   1.351   4.308  14.094 -0.2576 -0.4381  0.9161
  174MPD1    H6 2714   1.271   4.279  14.038  0.1573  1.2930 -0.5801
  174MPD1    H7 2715   1.345   4.280  14.191 -0.2060 -0.0662  1.0273
  175MPD1     C 2716   0.017   1.749  15.541 -0.1542  0.3373  0.4717
  175MPD1    C1 2717   0.110   1.659  15.572 -0.5166 -0.0645 -0.2095
  175MPD1    C2 2718   0.150   1.636  15.706 -0.0943  0.3013  0.0994
  175MPD1    C3 2719   0.073   1.683  15.808 -0.0544  0.2521  0.1091
  175MPD1    C4 2720   4.702   1.770  15.779 -0.6500  0.6934  0.1185
  175MPD1    C5 2721   4.689   1.805  15.646 -0.0345  0.0776  0.2990
  175MPD1     H 2722   0.240   1.576  15.714  0.2480  0.7632 -0.2810
  175MPD1    H1 2723   4.638   1.826  15.846  0.9700 -0.1947  2.4168
  175MPD1    H2 2724   4.732   1.782  15.441  2.0769  0.4565  0.0157
  175MPD1    H3 2725   4.614   1.880  15.622  0.9012  1.1567  0.7803
  175MPD1     N 2726   0.110   1.669  15.940 -0.2064 -0.8702 -0.0677
  175MPD1    H5 2727   0.053   1.717  16.009 -1.1474 -1.7559 -0.2404
  175MPD1    N1 2728   0.186   1.614  15.465  0.3497  0.1401 -0.7501
  175MPD1    H6 2729   0.135   1.610  15.377 -0.3130  1.3209 -0.4068
  175MPD1    H7 2730   0.232   1.525  15.485  1.9353  0.2799 -3.6833
  176MPD1     C 2731   1.480   3.701   0.009  0.3402 -0.6247  0.0465
  176MPD1    C1 2732   1.531   3.825  17.719  0.1322  0.1444 -0.5351
  176MPD1    C2 2733   1.655   3.857   0.017  0.2026 -0.8169  0.3263
  176MPD1    C3 2734   1.726   3.782   0.106  0.1403  0.4670 -0.0629
  176MPD1    C4 2735   1.672   3.672   0.154  0.2022 -0.1848  0.3693
  176MPD1    C5 2736   1.552   3.632   0.105  0.5511  0.4468  0.4977
  176MPD1     H 2737   1.688   3.957  17.739 -0.5948 -1.0246 -1.5658
  176MPD1    H1 2738   1.701   3.627   0.248 -2.4909 -2.2172  0.2126
  176MPD1    H2 2739   1.385   3.656  17.730  0.8832 -0.2738 -2.5457
  176MPD1    H3 2740   1.512   3.538   0.141 -1.4233  0.4550 -1.6701
  176MPD1     N 2741   1.850   3.830   0.149  0.6858  0.1404 -0.7365
  176MPD1    H5 2742   1.901   3.894   0.088  1.3141  1.4297  1.1244
  176MPD1    N1 2743   1.461   3.908  17.621  0.1029 -0.1816  0.3451
  176MPD1    H6 2744   1.364   3.880  17.606 -0.5256  1.4881  1.4043
  176MPD1    H7 2745   1.452   4.001  17.660 -1.2259  0.1532 -0.7695
  177MPD1     C 2746   0.080   2.741  10.810  0.6841  0.3401  0.4423
  177MPD1    C1 2747   4.702   2.778  10.745  0.1749 -0.2507  0.6840
  177MPD1    C2 2748   4.709   2.824  10.617  0.1296 -0.0801  0.1802
  177MPD1    C3 2749   0.092   2.862  10.560  0.9551  0.2611  1.1187
  177MPD1    C4 2750   0.209   2.837  10.631  0.2261  0.5376 -0.1533
  177MPD1    C5 2751   0.198   2.781  10.755 -0.3335 -0.8777  0.3541
  177MPD1     H 2752   4.619   2.823  10.558 -0.3794  0.9549  0.9415
  177MPD1    H1 2753   0.309   2.869  10.602  0.7724 -1.4255 -0.4094
  177MPD1    H2 2754   0.086   2.697  10.908 -0.0444 -1.5730 -0.3713
  177MPD1    H3 2755   0.290   2.764  10.810  0.4534 -0.6426 -0.8880
  177MPD1     N 2756   0.096   2.904  10.421 -0.0355 -0.2210  0.2300
  177MPD1    H5 2757   0.007   2.915  10.374  1.2006  0.6575 -1.9118
  177MPD1    N1 2758   4.569   2.748  10.792  1.0452  0.7574  0.6958
  177MPD1    H6 2759   4.571   2.734  10.893 -1.6419  0.3969  0.7120
  177MPD1    H7 2760   4.493   2.806  10.757  1.2098  1.4313  1.4571
  178MPD1     C 2761   2.955   4.040   0.529  0.4432 -0.0531 -0.2180
  178MPD1    C1 2762   2.882   3.948   0.454 -0.7179  0.0611  0.1017
  178MPD1    C2 2763   2.900   3.946   0.318 -0.2547  0.0294 -0.7097
  178MPD1    C3 2764   2.965   4.047   0.246 -0.5022  0.4698 -0.1720
  178MPD1    C4 2765   3.029   4.139   0.325  0.0625 -0.0488  0.2424
  178MPD1    C5 2766   3.019   4.139   0.462  0.0316  0.2571 -0.3852
  178MPD1     H 2767   2.839   3.873   0.267 -1.4158 -1.4016  2.7378
  178MPD1    H1 2768   3.080   4.219   0.274 -0.4422  0.9342  1.2840
  178MPD1    H2 2769   2.951   4.035   0.638 -0.0484 -0.6926 -0.2608
  178MPD1    H3 2770   3.077   4.213   0.516  0.6720  0.6744 -1.6469
  178MPD1     N 2771   2.965   4.068   0.108  0.2645 -0.6071  0.6421
  178MPD1    H5 2772   3.017   4.149   0.077 -0.4951 -0.1263  0.6298
  178MPD1    N1 2773   2.817   3.848   0.523  0.3034  0.6217 -0.5328
  178MPD1    H6 2774   2.736   3.814   0.470  0.9766 -0.3471 -0.9425
  178MPD1    H7 2775   2.784   3.874   0.616 -0.8565  0.6907 -0.9547
  179MPD1     C 2776   2.466   2.689  15.985 -0.4610 -0.0155  0.5257
  179MPD1    C1 2777   2.457   2.632  16.109 -0.0287  0.2655 -0.0835
  179MPD1    C2 2778   2.460   2.495  16.119 -0.3671 -0.1891 -0.0602
  179MPD1    C3 2779   2.450   2.425  15.993 -0.3772  0.0262 -0.8267
  179MPD1    C4 2780   2.447   2.488  15.871 -0.5236  0.1006 -0.3894
  179MPD1    C5 2781   2.458   2.622  15.869  0.6318 -0.1931  0.0349
  179MPD1     H 2782   2.470   2.453  16.218 -1.0886  1.1942  0.6040
  179MPD1    H1 2783   2.437   2.447  15.771  0.2869 -0.9456 -0.0355
  179MPD1    H2 2784   2.474   2.797  15.986 -3.4856  0.1715  1.8602
  179MPD1    H3 2785   2.467   2.676  15.775 -1.4880  1.5500  0.8366
  179MPD1     N 2786   2.449   2.284  15.983  0.9871 -0.2663  0.1599
  179MPD1    H5 2787   2.454   2.235  15.895 -3.2020 -1.6021  0.6440
  179MPD1    N1 2788   2.459   2.712  16.221  0.5678 -0.0316  0.0451
  179MPD1    H6 2789   2.414   2.802  16.204  2.3552  0.7649 -0.5419
  179MPD1    H7 2790   2.428   2.666  16.306 -0.1835  1.0045  0.3309
  180MPD1     C 2791   2.154   2.905  15.312 -0.2238 -0.4517 -0.0476
  180MPD1    C1 2792   2.246   2.902  15.211 -0.0283 -0.0287  0.6912
  180MPD1    C2 2793   2.212   2.962  15.094 -0.1996  0.1602  0.5632
  180MPD1    C3 2794   2.100   3.037  15.083 -0.0303  0.2526 -0.7250
  180MPD1    C4 2795   2.005   3.029  15.182 -0.2343  0.2234 -0.2236
  180MPD1    C5 2796   2.037   2.970  15.298 -0.1497  0.7466  0.0725
  180MPD1     H 2797   2.267   2.961  15.001 -0.8970 -0.3440  0.1548
  180MPD1    H1 2798   1.909   3.079  15.188 -0.4335 -0.2035  0.1401
  180MPD1    H2 2799   2.171   2.859  15.409 -1.7062 -1.6026 -0.3272
  180MPD1    H3 2800   1.969   2.967  15.382 -0.0941 -1.7572  0.0341
  180MPD1     N 2801   2.072   3.118  14.968  0.4089 -0.0484  0.2317
  180MPD1    H5 2802   2.152   3.120  14.905 -0.0970  0.0593 -0.4001
  180MPD1    N1 2803   2.352   2.812  15.222 -0.7136  0.0038 -0.3807
  180MPD1    H6 2804   2.386   2.809  15.318  0.3877  0.7378 -0.7425
  180MPD1    H7 2805   2.433   2.845  15.168  0.1982  0.8121  1.4793
  181MPD1     C 2806   3.318   0.327   9.362 -0.4199 -0.0812  0.3696
  181MPD1    C1 2807   3.351   0.455   9.341  0.1863  0.0936 -0.0191
  181MPD1    C2 2808   3.445   0.522   9.423 -0.2289  0.0228 -0.3631
  181MPD1    C3 2809   3.512   0.465   9.523  0.3131 -0.2824 -0.2970
  181MPD1    C4 2810   3.474   0.333   9.561 -0.2884 -0.2904  0.1158
  181MPD1    C5 2811   3.383   0.267   9.471 -0.5708 -0.9053 -0.8565
  181MPD1     H 2812   3.455   0.630   9.413 -0.2637  0.1021  0.4672
  181MPD1    H1 2813   3.501   0.285   9.654  0.8085 -0.9002 -0.5230
  181MPD1    H2 2814   3.246   0.271   9.304  2.2210 -1.6693 -1.3828
  181MPD1    H3 2815   3.358   0.164   9.495 -4.3873  0.1420 -0.2885
  181MPD1     N 2816   3.609   0.526   9.606 -0.6486 -0.0378  0.4543
  181MPD1    H5 2817   3.661   0.460   9.664  0.3342 -0.7771 -1.2604
  181MPD1    N1 2818   3.295   0.528   9.230  0.1930 -0.4420  0.0529
  181MPD1    H6 2819   3.268   0.625   9.249 -1.1521 -0.5510 -1.2908
  181MPD1    H7 2820   3.220   0.482   9.179  0.0738 -0.1911  0.0019
  182MPD1     C 2821   0.740   0.015   1.415 -0.2578 -0.4670 -0.4282
  182MPD1    C1 2822   0.728   4.662   1.314  0.3785 -0.7811  0.2596
  182MPD1    C2 2823   0.645   4.702   1.208 -0.5759 -0.1546 -0.6181
  182MPD1    C3 2824   0.573   0.091   1.202 -0.4720  0.1486 -0.0553
  182MPD1    C4 2825   0.572   0.167   1.319  0.0256 -0.7077 -0.7176
  182MPD1    C5 2826   0.654   0.127   1.421  0.9634  0.7734 -0.2772
  182MPD1     H 2827   0.629   4.631   1.127  1.8166 -0.0529 -1.1625
  182MPD1    H1 2828   0.513   0.257   1.332 -1.5561 -1.5045 -2.4643
  182MPD1    H2 2829   0.804   4.737   1.502  2.1893 -1.8989 -2.4938
  182MPD1    H3 2830   0.656   0.177   1.517  0.2220  1.8698 -0.8303
  182MPD1     N 2831   0.492   0.139   1.092 -0.4717 -0.4068  0.0113
  182MPD1    H5 2832   0.441   0.224   1.113  1.0186  0.2962  0.8164
  182MPD1    N1 2833   0.830   4.566   1.292  0.4786 -0.0895  0.9461
  182MPD1    H6 2834   0.806   4.485   1.234 -2.7056  1.2597  0.4038
  182MPD1    H7 2835   0.865   4.525   1.378  0.2624 -0.0939  1.0313
  183MPD1     C 2836   4.374   0.383   8.700  0.0436  0.2712  0.1029
  183MPD1    C1 2837   4.295   0.480   8.764  0.6602  0.1291 -0.1433
  183MPD1    C2 2838   4.317   0.488   8.900 -0.6590 -0.3492 -0.2453
  183MPD1    C3 2839   4.408   0.412   8.971  0.4665 -0.3873 -0.9462
  183MPD1    C4 2840   4.481   0.318   8.900  0.6533 -0.1732  0.1330
  183MPD1    C5 2841   4.470   0.305   8.763 -0.1972 -0.0542 -0.1058
  183MPD1     H 2842   4.250   0.552   8.957  0.4574  0.1104  0.5628
  183MPD1    H1 2843   4.540   0.244   8.953 -0.6084 -1.2553  0.0496
  183MPD1    H2 2844   4.366   0.372   8.592  2.7777 -1.3646  0.0624
  183MPD1    H3 2845   4.532   0.239   8.702 -0.5341  0.5360 -1.0936
  183MPD1     N 2846   4.414   0.424   9.114  0.7496  0.1750  0.6012
  183MPD1    H5 2847   4.348   0.492   9.152 -0.1676  1.0858 -2.6174
  183MPD1    N1 2848   4.197   0.554   8.696 -0.0927 -0.2176 -0.0209
  183MPD1    H6 2849   4.210   0.577   8.598  1.1269 -0.2187  0.1322
  183MPD1    H7 2850   4.169   0.634   8.752 -0.0840  1.1083 -1.9175
  184MPD1     C 2851   4.027   3.262  10.332 -0.0039  0.2482  0.2731
  184MPD1    C1 2852   4.031   3.150  10.257 -0.4896  0.4132  0.5859
  184MPD1    C2 2853   4.111   3.148  10.146  0.5173 -0.0590 -0.6427
  184MPD1    C3 2854   4.165   3.266  10.106 -0.3857 -0.1089 -0.4273
  184MPD1    C4 2855   4.158   3.381  10.175 -0.3349  0.4164  0.0576
  184MPD1    C5 2856   4.082   3.378  10.284  0.0134  0.7663 -0.6142
  184MPD1     H 2857   4.118   3.063  10.080 -3.0286 -0.6235 -0.3269
  184MPD1    H1 2858   4.186   3.475  10.128  0.8902  0.6135  1.1707
  184MPD1    H2 2859   3.979   3.269  10.429 -1.7950 -0.0686 -0.5998
  184MPD1    H3 2860   4.052   3.469  10.334  1.5036 -0.1669  1.9280
  184MPD1     N 2861   4.237   3.270   9.980  0.1092  0.1423  0.5259
  184MPD1    H5 2862   4.280   3.361   9.968 -2.6883  1.6186  1.6485
  184MPD1    N1 2863   3.989   3.023  10.302 -0.6183 -0.1780  0.0884
  184MPD1    H6 2864   3.909   3.022  10.365 -2.4270 -2.3897 -2.2283
  184MPD1    H7 2865   3.982   2.948  10.234  2.0470 -2.3707  2.2403
  185MPD1     C 2866   4.411   2.848   8.985  0.5078 -0.3362  0.5330
  185MPD1    C1 2867   4.304   2.820   9.073 -0.1035  0.0361 -0.3585
  185MPD1    C2 2868   4.320   2.857   9.208  0.0760  0.3304 -0.3268
  185MPD1    C3 2869   4.427   2.941   9.246 -0.0303 -0.3749  0.0539
  185MPD1    C4 2870   4.516   2.981   9.149  0.1781  0.0228  0.0539
  185MPD1    C5 2871   4.520   2.926   9.024  0.1955  0.8906 -0.4507
  185MPD1     H 2872   4.254   2.814   9.282  1.1394 -0.8484 -0.0570
  185MPD1    H1 2873   4.602   3.040   9.178 -1.7019  2.2328  1.1299
  185MPD1    H2 2874   4.410   2.811   8.883 -1.9491 -0.5714  0.6314
  185MPD1    H3 2875   4.600   2.940   8.952 -1.3092  0.3793 -2.2327
  185MPD1     N 2876   4.441   3.000   9.370  0.2481  0.0279  0.0359
  185MPD1    H5 2877   4.510   3.074   9.381 -1.4432  1.4649  0.9566
  185MPD1    N1 2878   4.216   2.716   9.049 -0.8904 -0.5387 -0.3010
  185MPD1    H6 2879   4.197   2.726   8.950 -1.3303 -0.1125 -0.1761
  185MPD1    H7 2880   4.132   2.739   9.101  0.1763 -0.4278  1.3790
  186MPD1     C 2881   2.870   2.172  15.751 -0.8326  0.7773  0.4167
  186MPD1    C1 2882   2.803   2.107  15.851  0.2655 -0.0870  0.0653
  186MPD1    C2 2883   2.792   2.174  15.972  0.5572 -0.3351 -0.2322
  186MPD1    C3 2884   2.835   2.309  15.987 -0.3310  0.0654 -0.1513
  186MPD1    C4 2885   2.896   2.373  15.876 -0.5181  0.6203  0.7114
  186MPD1    C5 2886   2.915   2.300  15.764  0.3295 -0.2135  0.3079
  186MPD1     H 2887   2.751   2.119  16.055 -0.3767 -1.7281 -1.6378
  186MPD1    H1 2888   2.945   2.469  15.886  0.7286  0.3508 -2.8412
  186MPD1    H2 2889   2.882   2.118  15.657  0.8169  2.3132 -0.2563
  186MPD1    H3 2890   2.964   2.347  15.679  0.4441 -2.1335 -0.6925
  186MPD1     N 2891   2.820   2.383  16.111 -0.3869  0.1298 -0.2589
  186MPD1    H5 2892   2.839   2.483  16.111 -1.9960  0.4381 -0.8153
  186MPD1    N1 2893   2.736   1.985  15.829 -0.2128 -0.6630 -0.0177
  186MPD1    H6 2894   2.744   1.916  15.904 -0.7055 -0.0960  0.5644
  186MPD1    H7 2895   2.753   1.939  15.740 -2.1157  0.1658 -0.8230
  187MPD1     C 2896   2.081   4.691   0.454 -0.1586 -0.2572 -0.1710
  187MPD1    C1 2897   2.035   4.579   0.390  0.3228  0.5537  0.3566
  187MPD1    C2 2898   2.030   4.595   0.252 -0.2192  0.3047  0.5908
  187MPD1    C3 2899   2.036   4.717   0.189  0.2279  0.8510 -0.3594
  187MPD1    C4 2900   2.048   0.097   0.265  0.1642  0.2924 -0.4736
  187MPD1    C5 2901   2.087   0.077   0.401 -0.3926 -1.2784 -0.5717
  187MPD1     H 2902   2.013   4.507   0.192 -3.0645 -0.3036  2.3134
  187MPD1    H1 2903   2.051   0.194   0.217  0.0448 -0.1619 -1.4031
  187MPD1    H2 2904   2.110   4.683   0.558  3.7189  0.9736 -1.1555
  187MPD1    H3 2905   2.115   0.156   0.470 -3.7771 -1.3969  0.9250
  187MPD1     N 2906   2.032   4.729   0.047  0.8286  0.2260 -0.5542
  187MPD1    H5 2907   2.034   0.084   0.004  0.1355 -0.2525 -1.6118
  187MPD1    N1 2908   2.058   4.451   0.450  0.3800 -0.1721 -0.3403
  187MPD1    H6 2909   2.024   4.457   0.546  2.5355 -0.5222  0.4335
  187MPD1    H7 2910   1.992   4.385   0.409 -1.1630 -0.7240  3.0269
  188MPD1     C 2911   1.733   0.082  10.501  0.3258 -0.0122 -0.5423
  188MPD1    C1 2912   1.827   4.732  10.447 -0.1686  0.1444 -0.5411
  188MPD1    C2 2913   1.795   4.600  10.418 -0.1834  0.0246  0.3103
  188MPD1    C3 2914   1.658   4.561  10.430  0.2543 -1.1241 -0.2592
  188MPD1    C4 2915   1.564   4.657  10.468 -0.1633 -0.6245 -0.2454
  188MPD1    C5 2916   1.598   0.045  10.512 -0.0624 -0.7112 -0.1344
  188MPD1     H 2917   1.874   4.528  10.401  1.1354  1.4434  0.4800
  188MPD1    H1 2918   1.470   4.618  10.503  1.8602 -3.9737  1.4596
  188MPD1    H2 2919   1.760   0.181  10.537  0.6217  0.4962 -2.2005
  188MPD1    H3 2920   1.522   0.102  10.565  0.2742 -1.3175  0.9963
  188MPD1     N 2921   1.607   4.430  10.427  0.1320  0.0452  0.2577
  188MPD1    H5 2922   1.506   4.425  10.430  0.1890  0.2810  2.3019
  188MPD1    N1 2923   1.958   0.030  10.447  1.0446  0.4751 -0.4962
  188MPD1    H6 2924   1.972   0.128  10.420 -1.6536  0.9887 -0.0122
  188MPD1    H7 2925   2.023   4.708  10.395  0.4229 -0.0423 -0.6798
  189MPD1     C 2926   4.348   0.814   0.311  0.1289 -0.1797  0.3818
  189MPD1    C1 2927   4.259   0.714   0.326  0.0022  0.4894  0.5534
  189MPD1    C2 2928   4.130   0.751   0.296  0.6035  0.4396  0.7162
  189MPD1    C3 2929   4.095   0.883   0.278  0.3887 -0.3483 -0.1643
  189MPD1    C4 2930   4.188   0.980   0.296 -0.1588  0.0781 -0.0075
  189MPD1    C5 2931   4.315   0.939   0.307  0.4081 -0.6160 -0.3859
  189MPD1     H 2932   4.046   0.683   0.291  0.6825  0.4816 -1.1979
  189MPD1    H1 2933   4.165   1.085   0.287 -0.8069 -0.1134 -0.5265
  189MPD1    H2 2934   4.453   0.788   0.315  0.3759  0.4441 -2.4042
  189MPD1    H3 2935   4.387   1.019   0.306  0.7214 -0.9056 -0.9243
  189MPD1     N 2936   3.966   0.900   0.218 -0.0093  0.2538 -0.4136
  189MPD1    H5 2937   3.911   0.815   0.219 -0.0546  0.2874 -0.0768
  189MPD1    N1 2938   4.309   0.581   0.334 -0.7214 -0.3985 -0.3313
  189MPD1    H6 2939   4.385   0.578   0.401 -1.8004 -2.3130  0.8094
  189MPD1    H7 2940   4.237   0.512   0.355 -0.3313 -0.0008  2.2699
  190MPD1     C 2941   1.926   3.810  15.296 -0.5149 -0.1709 -0.6064
  190MPD1    C1 2942   1.917   3.707  15.388  0.0930  0.0766 -0.5169
  190MPD1    C2 2943   2.027   3.660  15.461 -0.2203  0.1462 -0.3710
  190MPD1    C3 2944   2.148   3.714  15.445  0.0378  0.2738 -0.4454
  190MPD1    C4 2945   2.159   3.826  15.359  0.1337 -0.2211 -0.1035
  190MPD1    C5 2946   2.055   3.870  15.289 -0.1079 -0.8188  0.4037
  190MPD1     H 2947   2.014   3.569  15.519 -0.1534  1.3529  1.5335
  190MPD1    H1 2948   2.257   3.872  15.344  0.7352 -1.4973 -0.0958
  190MPD1    H2 2949   1.839   3.848  15.243  0.0870  2.2567  0.1083
  190MPD1    H3 2950   2.077   3.951  15.220  0.2778 -0.0414  1.4308
  190MPD1     N 2951   2.258   3.649  15.512  0.5496 -0.6093 -0.0700
  190MPD1    H5 2952   2.237   3.556  15.545 -1.1713 -1.1617 -2.6654
  190MPD1    N1 2953   1.801   3.630  15.398  0.5313  0.8647  0.0183
  190MPD1    H6 2954   1.791   3.579  15.485  0.9216  1.6907  0.5469
  190MPD1    H7 2955   1.724   3.695  15.383 -1.6185 -2.0022 -1.4115
  191MPD1     C 2956   0.896   1.491  13.083  0.4627  0.0422  0.2654
  191MPD1    C1 2957   0.908   1.542  12.961  0.1835 -0.0213  0.2175
  191MPD1    C2 2958   1.020   1.624  12.936 -0.2992  0.8181  0.1862
  191MPD1    C3 2959   1.124   1.642  13.033  0.8627 -0.4537  0.7591
  191MPD1    C4 2960   1.109   1.581  13.155 -0.2259  0.1777 -0.1493
  191MPD1    C5 2961   0.999   1.501  13.175  0.5213  0.8948 -0.3385
  191MPD1     H 2962   1.026   1.674  12.840  1.6033  0.1459 -0.0384
  191MPD1    H1 2963   1.181   1.593  13.234  0.3460  0.3800 -0.7026
  191MPD1    H2 2964   0.817   1.420  13.103 -0.5668  0.9677 -0.4484
  191MPD1    H3 2965   0.981   1.448  13.267 -0.8351  0.8088 -0.6513
  191MPD1     N 2966   1.235   1.728  13.004 -0.2568 -0.0007  0.2000
  191MPD1    H5 2967   1.232   1.785  12.920  1.5343 -1.6698 -0.9844
  191MPD1    N1 2968   0.798   1.548  12.876 -0.4484 -0.1587  0.2209
  191MPD1    H6 2969   0.819   1.562  12.778 -1.8618 -2.7958 -0.4639
  191MPD1    H7 2970   0.746   1.461  12.876  0.2800 -0.5863 -0.3880
  192MPD1     C 2971   2.153   2.250  13.246 -0.5912  0.1084  0.6054
  192MPD1    C1 2972   2.031   2.268  13.313  0.8793 -0.5823 -0.8736
  192MPD1    C2 2973   1.930   2.178  13.292 -0.0324 -0.3429 -0.0088
  192MPD1    C3 2974   1.961   2.057  13.230  0.2384 -0.6358 -0.7861
  192MPD1    C4 2975   2.088   2.029  13.189  0.7497  0.3241 -0.2698
  192MPD1    C5 2976   2.183   2.129  13.183 -0.1202  0.3111  0.1602
  192MPD1     H 2977   1.833   2.198  13.335  1.5061  1.5263  2.6487
  192MPD1    H1 2978   2.121   1.938  13.139 -1.7817 -0.3300 -0.7238
  192MPD1    H2 2979   2.235   2.320  13.251 -0.6029  0.2409 -1.1182
  192MPD1    H3 2980   2.276   2.109  13.131  0.0412  1.9071 -0.1691
  192MPD1     N 2981   1.866   1.973  13.175 -0.0419  0.2177  0.5074
  192MPD1    H5 2982   1.906   1.911  13.105  2.0945  1.3819  0.7049
  192MPD1    N1 2983   1.998   2.385  13.377 -0.1446 -0.2854  0.1930
  192MPD1    H6 2984   1.937   2.361  13.455 -0.3540  0.9144  0.3923
  192MPD1    H7 2985   2.079   2.418  13.430 -0.5780 -2.0566  1.9536
  193MPD1     C 2986   1.391   1.159  16.097 -0.0284 -0.0655 -0.3346
  193MPD1    C1 2987   1.429   1.027  16.120  0.1740 -0.2214  0.3075
  193MPD1    C2 2988   1.483   1.000  16.249  0.4781 -0.4180 -0.1676
  193MPD1    C3 2989   1.501   1.100  16.338 -0.2354 -0.1995 -0.5944
  193MPD1    C4 2990   1.459   1.225  16.312  0.0447  0.2892 -0.1042
  193MPD1    C5 2991   1.395   1.253  16.195  0.8772 -0.3162  0.3598
  193MPD1     H 2992   1.527   0.902  16.266  0.4683  0.4755  4.9247
  193MPD1    H1 2993   1.470   1.312  16.376  1.5265  1.1363 -1.4881
  193MPD1    H2 2994   1.349   1.189  16.001 -0.4269  0.6379  0.0571
  193MPD1    H3 2995   1.363   1.355  16.177  0.3243 -1.0243 -2.6297
  193MPD1     N 2996   1.575   1.094  16.462 -0.3438 -0.0300  0.1160
  193MPD1    H5 2997   1.564   1.180  16.517  1.0843 -1.7507  3.0862
  193MPD1    N1 2998   1.409   0.918  16.032  0.1549 -0.0640 -0.0082
  193MPD1    H6 2999   1.391   0.937  15.934  0.3024 -0.3586 -0.0909
  193MPD1    H7 3000   1.477   0.843  16.042 -0.0866 -0.4688 -1.4046
  194MPD1     C 3001   4.289   3.433   0.329  0.4031 -0.5416  0.0917
  194MPD1    C1 3002   4.315   3.424   0.195 -0.7443  0.1187 -0.1769
  194MPD1    C2 3003   4.319   3.299   0.132  0.3107 -0.2725  0.1333
  194MPD1    C3 3004   4.297   3.185   0.209 -0.8670 -0.3257 -0.2425
  194MPD1    C4 3005   4.262   3.192   0.344  0.1093 -0.0560 -0.1682
  194MPD1    C5 3006   4.247   3.320   0.394  0.1909 -0.1558 -0.6582
  194MPD1     H 3007   4.358   3.285   0.031 -1.5085  0.2183 -0.6341
  194MPD1    H1 3008   4.237   3.106   0.405 -0.9873  0.5757  0.2827
  194MPD1    H2 3009   4.281   3.532   0.371  0.9687 -1.0162  1.3284
  194MPD1    H3 3010   4.217   3.335   0.497  1.1049  0.0147 -0.4130
  194MPD1     N 3011   4.313   3.061   0.148  0.0312  0.0566 -0.2987
  194MPD1    H5 3012   4.314   2.982   0.211  0.3419 -1.4344 -2.1854
  194MPD1    N1 3013   4.349   3.538   0.124  0.3626  0.2328  0.1421
  194MPD1    H6 3014   4.330   3.536   0.024 -0.4978 -0.1702  0.3141
  194MPD1    H7 3015   4.308   3.627   0.150 -0.0754  0.1716 -0.3432
  195MPD1     C 3016   1.371   0.696   0.559  0.5627  0.4533  0.3758
  195MPD1    C1 3017   1.316   0.644   0.444 -0.6894  0.4289 -0.0788
  195MPD1    C2 3018   1.333   0.509   0.425 -0.4979  0.7252  0.1262
  195MPD1    C3 3019   1.382   0.434   0.528 -0.3930  0.5807  0.3928
  195MPD1    C4 3020   1.441   0.491   0.640  0.0590 -0.2102 -0.3773
  195MPD1    C5 3021   1.449   0.629   0.648  0.1693  0.2359 -0.3325
  195MPD1     H 3022   1.286   0.463   0.338  0.9927  3.0896 -1.9419
  195MPD1    H1 3023   1.485   0.437   0.723  2.7236  1.2060 -0.8839
  195MPD1    H2 3024   1.361   0.801   0.585  0.4202  1.0870 -2.2229
  195MPD1    H3 3025   1.493   0.679   0.733  1.0901  3.1255 -2.4889
  195MPD1     N 3026   1.385   0.293   0.514 -0.0654  0.0633 -0.4090
  195MPD1    H5 3027   1.410   0.250   0.602  3.1621 -2.9395 -2.7970
  195MPD1    N1 3028   1.247   0.723   0.347 -0.1010 -0.3760 -0.3634
  195MPD1    H6 3029   1.205   0.805   0.391  2.2303 -0.7402  2.5363
  195MPD1    H7 3030   1.179   0.665   0.298  0.2577  0.2320 -1.5731
  196MPD1     C 3031   0.527   4.081   0.164  0.1041  0.7180  0.8893
  196MPD1    C1 3032   0.582   4.200   0.115 -0.8542 -0.4940 -0.7888
  196MPD1    C2 3033   0.679   4.264   0.187 -0.3987 -0.0375  0.4891
  196MPD1    C3 3034   0.717   4.221   0.313 -0.3509 -0.4998  0.0533
  196MPD1    C4 3035   0.650   4.113   0.369 -0.6286 -0.0772 -0.5779
  196MPD1    C5 3036   0.558   4.044   0.292 -0.0370  0.2550  0.8140
  196MPD1     H 3037   0.729   4.349   0.143 -1.5286  1.3518  1.8994
  196MPD1    H1 3038   0.672   4.058   0.459 -0.7208 -0.4550 -0.7856
  196MPD1    H2 3039   0.460   4.012   0.113  2.6578 -0.0155 -1.4895
  196MPD1    H3 3040   0.506   3.957   0.330 -2.7914  0.1456 -3.1962
  196MPD1     N 3041   0.807   4.287   0.395 -0.2570 -0.8483  0.1053
  196MPD1    H5 3042   0.833   4.238   0.480 -0.2529 -0.3741  0.3755
  196MPD1    N1 3043   0.551   4.250  17.742 -0.1265 -0.2609  0.0771
  196MPD1    H6 3044   0.451   4.266  17.737 -0.2259 -1.0047 -0.2153
  196MPD1    H7 3045   0.590   4.344  17.739 -0.2458 -0.2096  0.1523
  197MPD1     C 3046   1.031   1.535  17.462  0.1329  0.2475  0.1456
  197MPD1    C1 3047   0.935   1.558  17.558 -0.4706  0.2411 -0.1651
  197MPD1    C2 3048   0.822   1.640  17.538  0.1240 -0.0006  0.0923
  197MPD1    C3 3049   0.812   1.709  17.420  0.2236  0.3299 -0.1864
  197MPD1    C4 3050   0.914   1.689  17.323 -0.8174 -0.9590  0.7614
  197MPD1    C5 3051   1.011   1.597  17.340  0.3854 -0.8454  0.0584
  197MPD1     H 3052   0.741   1.649  17.610  1.0060  2.0532  0.8198
  197MPD1    H1 3053   0.904   1.736  17.226 -0.9996 -4.5420 -0.9844
  197MPD1    H2 3054   1.118   1.475  17.485 -1.1883 -1.6509  0.1975
  197MPD1    H3 3055   1.081   1.579  17.259  1.0143  1.4723  0.0867
  197MPD1     N 3056   0.691   1.777  17.383  0.2515  0.5462  0.0602
  197MPD1    H5 3057   0.681   1.795  17.284  0.8781  0.3124 -0.0409
  197MPD1    N1 3058   0.943   1.476  17.675  0.3882 -0.2379 -0.6128
  197MPD1    H6 3059   1.039   1.457  17.704  0.2737 -1.0396 -0.7628
  197MPD1    H7 3060   0.894   1.529  17.746  3.1070  1.2105  0.2123
  198MPD1     C 3061   1.700   0.122  15.550  0.1929  0.0843 -0.5729
  198MPD1    C1 3062   1.738   0.085  15.683  0.8135 -0.0637  0.3670
  198MPD1    C2 3063   1.843   4.734  15.698  0.7613 -0.3480  0.4326
  198MPD1    C3 3064   1.902   4.667  15.589  0.3205  0.4383  0.1312
  198MPD1    C4 3065   1.840   4.687  15.463 -0.0540  0.1589 -0.5913
  198MPD1    C5 3066   1.740   0.039  15.454 -0.3063  0.3338  0.0397
  198MPD1     H 3067   1.889   4.707  15.793  1.4552  0.8795  0.4444
  198MPD1    H1 3068   1.880   4.651  15.368  0.7229  0.2385 -0.2974
  198MPD1    H2 3069   1.638   0.207  15.526 -2.5911 -1.7451  0.1183
  198MPD1    H3 3070   1.701   0.063  15.355 -0.7716  1.4973  0.5034
  198MPD1     N 3071   2.010   4.580  15.618 -0.0406 -0.7330  0.0045
  198MPD1    H5 3072   2.052   4.585  15.710 -0.1511  3.9751 -0.1984
  198MPD1    N1 3073   1.698   0.162  15.790  0.2186 -0.2753 -0.1738
  198MPD1    H6 3074   1.605   0.194  15.763  0.7374  1.8145  0.5092
  198MPD1    H7 3075   1.685   0.099  15.869 -0.1153 -0.8301 -0.6666
  199MPD1     C 3076   4.159   1.745  10.436 -0.3469 -0.1512  0.0584
  199MPD1    C1 3077   4.156   1.874  10.387  0.0695 -0.4490 -0.3017
  199MPD1    C2 3078   4.056   1.917  10.293 -0.0883  0.2793  0.1633
  199MPD1    C3 3079   3.954   1.827  10.253 -0.3701 -0.2671  0.0084
  199MPD1    C4 3080   3.965   1.702  10.293  0.1422  0.2154 -0.4938
  199MPD1    C5 3081   4.065   1.662  10.383 -0.3820  0.0954 -0.4293
  199MPD1     H 3082   4.068   2.019  10.258  2.5055 -0.6179 -1.5564
  199MPD1    H1 3083   3.882   1.633  10.290  0.3811 -0.1055  0.2234
  199MPD1    H2 3084   4.238   1.708  10.501  1.1662  3.1621  0.1023
  199MPD1    H3 3085   4.062   1.559  10.417  0.9908  0.0531 -0.4451
  199MPD1     N 3086   3.845   1.868  10.175 -0.1401  0.1348 -0.1235
  199MPD1    H5 3087   3.782   1.794  10.146 -0.2736 -0.7826  2.5289
  199MPD1    N1 3088   4.265   1.963  10.413  0.0828  0.3515  0.0298
  199MPD1    H6 3089   4.306   1.941  10.504 -0.9023  0.0059  0.3917
  199MPD1    H7 3090   4.226   2.056  10.415  1.8705  1.0560  2.4616
  200MPD1     C 3091   3.184   0.989  14.502 -0.0998  0.2934  0.4890
  200MPD1    C1 3092   3.260   0.988  14.389  0.5264  0.2035  0.3372
  200MPD1    C2 3093   3.398   1.007  14.401 -0.3371 -0.3228 -0.0826
  200MPD1    C3 3094   3.458   1.018  14.526 -0.1248 -0.8076  0.2703
  200MPD1    C4 3095   3.381   1.003  14.641  0.1903 -0.2849  0.3070
  200MPD1    C5 3096   3.243   0.998  14.629  1.0505 -0.7986  1.1148
  200MPD1     H 3097   3.465   1.004  14.317 -0.0570  1.1797  0.0747
  200MPD1    H1 3098   3.425   1.012  14.740 -3.1224 -0.6368  1.8009
  200MPD1    H2 3099   3.076   0.981  14.502 -0.0667 -0.1026 -1.6645
  200MPD1    H3 3100   3.175   0.990  14.713 -0.5666 -1.4440 -0.2701
  200MPD1     N 3101   3.592   1.063  14.532 -0.0463 -0.0334 -0.0351
  200MPD1    H5 3102   3.648   1.049  14.449  0.2897 -0.1562  0.2106
  200MPD1    N1 3103   3.203   1.007  14.262 -0.4263 -0.2792  0.0379
  200MPD1    H6 3104   3.109   0.974  14.244 -0.8265  2.5116 -2.8434
  200MPD1    H7 3105   3.263   0.989  14.182  0.3863  1.2446  0.3091
  201MPD1     C 3106   4.624   4.538  14.218 -0.1998  0.5989 -0.2328
  201MPD1    C1 3107   4.649   4.416  14.163  0.3325 -0.1493  0.4570
  201MPD1    C2 3108   4.735   4.395  14.055 -0.5406 -0.2406  0.1093
  201MPD1    C3 3109   0.058   4.504  13.997  0.9253 -0.1393 -0.2473
  201MPD1    C4 3110   0.031   4.633  14.047 -0.0266 -0.1998 -0.6387
  201MPD1    C5 3111   4.671   4.648  14.153 -0.2017  0.1267 -0.1916
  201MPD1     H 3112   0.001   4.292  14.021 -0.5389 -0.1752 -0.0887
  201MPD1    H1 3113   0.080   4.726  14.019 -0.2749 -0.5066 -2.1245
  201MPD1    H2 3114   4.565   4.557  14.307 -0.4955 -3.5256  0.4382
  201MPD1    H3 3115   4.648   0.006  14.200 -2.0678 -0.6920  0.5588
  201MPD1     N 3116   0.149   4.486  13.888  0.2291  0.6340 -0.4078
  201MPD1    H5 3117   0.175   4.389  13.875 -1.3462  0.4132 -2.0175
  201MPD1    N1 3118   4.594   4.307  14.229 -0.0894 -0.0693 -0.0851
  201MPD1    H6 3119   4.608   4.209  14.204 -0.6386  0.5713 -2.9742
  201MPD1    H7 3120   4.539   4.326  14.312  1.6290 -0.0648  1.0392
  202MPD1     C 3121   0.155   4.300   8.958 -0.3010  0.4459 -0.2734
  202MPD1    C1 3122   0.231   4.197   9.007 -0.2411  1.1067 -0.2347
  202MPD1    C2 3123   0.297   4.221   9.126  0.5063  0.0199 -0.7648
  202MPD1    C3 3124   0.292   4.342   9.196 -0.2423  0.3244  0.3902
  202MPD1    C4 3125   0.228   4.443   9.138  0.4009  0.1241  0.3215
  202MPD1    C5 3126   0.159   4.422   9.021 -0.1368 -0.6802 -0.1265
  202MPD1     H 3127   0.319   4.131   9.182  2.4771  1.0527  0.0891
  202MPD1    H1 3128   0.212   4.538   9.187  1.7569  2.1866 -3.2814
  202MPD1    H2 3129   0.100   4.294   8.865 -0.7059  1.3631 -0.0904
  202MPD1    H3 3130   0.098   4.502   8.982  0.6723 -0.0456 -0.1081
  202MPD1     N 3131   0.355   4.370   9.313  0.5020  0.4014  0.8325
  202MPD1    H5 3132   0.325   4.455   9.360  1.6100  1.2526 -0.0376
  202MPD1    N1 3133   0.175   4.073   8.971 -0.0378 -0.7624 -0.3060
  202MPD1    H6 3134   0.245   4.000   8.980 -0.7674 -1.5526 -0.9867
  202MPD1    H7 3135   0.127   4.069   8.881  1.3550  0.2491 -1.0906
  203MPD1     C 3136   0.773   0.696  13.140  0.7012 -0.9149  0.0684
  203MPD1    C1 3137   0.736   0.693  13.010  0.0848  1.2526  0.1536
  203MPD1    C2 3138   0.624   0.616  12.980 -0.1635  0.3320  0.4367
  203MPD1    C3 3139   0.536   0.580  13.084 -0.2197  1.0940 -0.1005
  203MPD1    C4 3140   0.577   0.592  13.213 -0.5814  0.6349  0.0009
  203MPD1    C5 3141   0.699   0.649  13.241 -0.0962 -0.0966  0.4349
  203MPD1     H 3142   0.598   0.604  12.876  0.8978  2.3958 -0.0717
  203MPD1    H1 3143   0.521   0.556  13.299  1.4301 -1.7237  0.3033
  203MPD1    H2 3144   0.866   0.746  13.161 -0.1980  1.3325 -1.3365
  203MPD1    H3 3145   0.739   0.646  13.342  0.9542  1.2899  0.0570
  203MPD1     N 3146   0.419   0.501  13.049  0.5532  0.0631  0.7344
  203MPD1    H5 3147   0.401   0.495  12.949 -1.3320 -2.3221  1.2184
  203MPD1    N1 3148   0.833   0.730  12.921  0.2360  0.8346  0.1344
  203MPD1    H6 3149   0.789   0.744  12.831  1.1565  1.6344 -0.1865
  203MPD1    H7 3150   0.872   0.820  12.948 -0.3207  1.2898 -0.5679
  204MPD1     C 3151   4.004   2.543   0.245 -0.1042 -0.2240 -0.7651
  204MPD1    C1 3152   3.902   2.449   0.235 -0.4430  0.7370  0.6099
  204MPD1    C2 3153   3.902   2.355   0.135 -0.1617  0.3378 -0.2035
  204MPD1    C3 3154   4.013   2.329   0.062  0.0264  0.4450 -1.1955
  204MPD1    C4 3155   4.115   2.420   0.075  0.0343  0.4045 -0.4895
  204MPD1    C5 3156   4.113   2.522   0.160  0.2188 -0.8099  0.1309
  204MPD1     H 3157   3.815   2.293   0.117  1.5437 -1.4678 -2.1687
  204MPD1    H1 3158   4.207   2.413   0.018 -0.2998 -2.1603 -0.6792
  204MPD1    H2 3159   3.999   2.630   0.310  0.9772 -1.1575  0.5895
  204MPD1    H3 3160   4.195   2.592   0.154  0.0728 -0.8319 -2.1447
  204MPD1     N 3161   4.013   2.224  17.709 -0.0952  0.2287  0.4231
  204MPD1    H5 3162   3.932   2.165  17.693  0.9953 -2.0147  3.2122
  204MPD1    N1 3163   3.792   2.480   0.310 -0.7917 -0.4687 -0.0495
  204MPD1    H6 3164   3.734   2.398   0.326 -0.6343 -0.5965 -0.1294
  204MPD1    H7 3165   3.820   2.530   0.394 -3.8282 -0.0795  0.7256
  205MPD1     C 3166   3.844   0.755  16.812 -0.3040 -0.2010 -0.3068
  205MPD1    C1 3167   3.935   0.666  16.861  0.0778 -0.1721 -0.3165
  205MPD1    C2 3168   4.029   0.702  16.959  0.2077 -0.9746 -0.3335
  205MPD1    C3 3169   4.036   0.840  16.999 -0.3303 -0.1131  0.1248
  205MPD1    C4 3170   3.937   0.930  16.949 -0.8324  0.7280  0.1332
  205MPD1    C5 3171   3.847   0.886  16.851  0.0930  0.7385  0.3215
  205MPD1     H 3172   4.094   0.623  16.995 -1.3032 -2.4066 -0.7251
  205MPD1    H1 3173   3.941   1.035  16.973 -0.2017  0.5316  0.8644
  205MPD1    H2 3174   3.779   0.728  16.730  0.0230  2.5864 -1.4916
  205MPD1    H3 3175   3.773   0.952  16.807  0.6024  1.4951  0.6076
  205MPD1     N 3176   4.125   0.887  17.093  0.0531  0.1031  0.0389
  205MPD1    H5 3177   4.110   0.982  17.123  0.5947 -0.6144  2.5927
  205MPD1    N1 3178   3.922   0.533  16.815 -0.3869  0.0071 -0.6147
  205MPD1    H6 3179   4.014   0.489  16.812  0.1847  1.3014 -1.8237
  205MPD1    H7 3180   3.873   0.527  16.726  0.7671 -1.4387 -1.1658
  206MPD1     C 3181   4.003   3.055  16.990 -0.3370 -0.2250  0.2429
  206MPD1    C1 3182   3.910   3.130  16.921 -0.4364  0.0136  0.0520
  206MPD1    C2 3183   3.913   3.151  16.786 -0.6632 -0.1393 -0.0533
  206MPD1    C3 3184   4.021   3.105  16.715  0.2267  0.0398  0.1745
  206MPD1    C4 3185   4.124   3.041  16.784 -0.0632  1.2605  0.3220
  206MPD1    C5 3186   4.118   3.019  16.921 -0.3306  0.0787 -0.7219
  206MPD1     H 3187   3.834   3.204  16.734 -0.2453 -0.4773 -1.0288
  206MPD1    H1 3188   4.208   2.989  16.739  0.4584  1.2639  1.2851
  206MPD1    H2 3189   3.984   3.026  17.093  2.6923 -0.4137  0.7657
  206MPD1    H3 3190   4.205   2.976  16.969 -0.4211  2.7230  1.8046
  206MPD1     N 3191   4.013   3.105  16.572 -0.3565  0.1537 -0.4338
  206MPD1    H5 3192   3.922   3.128  16.534  0.0256  1.0393 -0.7914
  206MPD1    N1 3193   3.792   3.152  16.989 -0.4214  0.3710  0.4272
  206MPD1    H6 3194   3.798   3.162  17.090 -2.0833 -0.9070  0.6521
  206MPD1    H7 3195   3.735   3.232  16.960  2.2712  1.8621 -0.6933
  207MPD1     C 3196   2.406   0.459   9.972  0.0180 -0.2858 -0.5078
  207MPD1    C1 3197   2.292   0.414  10.032  0.2287  0.4076 -0.4003
  207MPD1    C2 3198   2.240   0.485  10.141  0.2731  0.3222  0.1414
  207MPD1    C3 3199   2.289   0.606  10.179 -1.0486 -0.1434 -0.4659
  207MPD1    C4 3200   2.393   0.654  10.104  0.2538  0.3797  0.3273
  207MPD1    C5 3201   2.456   0.585  10.003  0.2892 -0.3576 -0.5568
  207MPD1     H 3202   2.151   0.449  10.191 -0.8823  1.5441 -1.0629
  207MPD1    H1 3203   2.424   0.756  10.127  0.8325  0.1603  0.5194
  207MPD1    H2 3204   2.458   0.388   9.909  2.6000 -0.5099  1.8547
  207MPD1    H3 3205   2.546   0.621   9.955  0.1462 -0.5119 -0.9374
  207MPD1     N 3206   2.241   0.691  10.282 -0.4009  0.3183 -0.6508
  207MPD1    H5 3207   2.296   0.775  10.301  1.8896 -1.4170  0.3408
  207MPD1    N1 3208   2.247   0.275  10.011 -0.1865  0.0302 -0.5428
  207MPD1    H6 3209   2.149   0.260  10.035  0.0572 -0.0684  0.4011
  207MPD1    H7 3210   2.255   0.258   9.911 -2.9356  1.9075 -1.0537
  208MPD1     C 3211   0.315   0.444  17.146 -0.0730  0.7199  0.3810
  208MPD1    C1 3212   0.191   0.401  17.104  0.1969  0.2183  0.0541
  208MPD1    C2 3213   0.124   0.311  17.186  0.1230 -0.2220 -0.8884
  208MPD1    C3 3214   0.173   0.263  17.310  1.1065 -0.5827 -0.6496
  208MPD1    C4 3215   0.295   0.309  17.340 -0.3671 -0.4235  0.8423
  208MPD1    C5 3216   0.365   0.396  17.260  0.3646  0.3837  0.3028
  208MPD1     H 3217   0.031   0.271  17.146 -1.6271  2.3671  0.6329
  208MPD1    H1 3218   0.351   0.276  17.426  2.2305  3.5892  0.6665
  208MPD1    H2 3219   0.379   0.509  17.089 -0.3813  0.6604 -0.0316
  208MPD1    H3 3220   0.461   0.430  17.297  1.2578 -2.7444  0.9045
  208MPD1     N 3221   0.104   0.158  17.375 -0.4941  0.3465 -0.3801
  208MPD1    H5 3222   0.011   0.135  17.341  0.1532 -3.0611  0.1980
  208MPD1    N1 3223   0.123   0.445  16.988  0.4640 -0.5239 -0.5310
  208MPD1    H6 3224   0.069   0.376  16.938 -0.2466 -1.0720  0.9706
  208MPD1    H7 3225   0.178   0.510  16.932 -1.8491  1.2957 -0.6908
  209MPD1     C 3226   1.083   0.021  11.570  0.2590 -0.0312  0.2682
  209MPD1    C1 3227   1.057   0.151  11.536  0.3437 -0.1600 -0.3476
  209MPD1    C2 3228   1.167   0.227  11.511 -0.1977  0.0775  0.8445
  209MPD1    C3 3229   1.294   0.184  11.547  0.5785  0.5969  0.0206
  209MPD1    C4 3230   1.317   0.055  11.594 -0.3649 -0.4952 -0.2076
  209MPD1    C5 3231   1.213   4.708  11.594  0.2901 -0.0128 -0.2657
  209MPD1     H 3232   1.149   0.325  11.469 -0.4792 -0.5742 -0.5799
  209MPD1    H1 3233   1.418   0.025  11.620 -0.4200 -1.1413 -0.7203
  209MPD1    H2 3234   1.004   4.686  11.587 -0.9335  1.3079  0.4368
  209MPD1    H3 3235   1.226   4.612  11.641  0.0485  0.9505  1.7586
  209MPD1     N 3236   1.394   0.283  11.528 -0.5992 -0.2933 -0.0537
  209MPD1    H5 3237   1.366   0.373  11.491  0.5922 -0.2952 -0.9584
  209MPD1    N1 3238   0.930   0.184  11.497  0.4881 -0.2975  0.4026
  209MPD1    H6 3239   0.894   0.279  11.505  1.0686  0.2360 -3.3539
  209MPD1    H7 3240   0.859   0.133  11.549 -1.3095 -0.3520 -2.1164
  210MPD1     C 3241   2.387   0.708  11.553  0.1719 -0.2186  0.4643
  210MPD1    C1 3242   2.292   0.724  11.650  0.0860 -0.2450  0.6985
  210MPD1    C2 3243   2.163   0.698  11.627  0.1025 -0.1367  0.2935
  210MPD1    C3 3244   2.118   0.667  11.503 -0.2736  0.0167  0.1341
  210MPD1    C4 3245   2.211   0.658  11.393 -1.2092 -0.1243 -0.2038
  210MPD1    C5 3246   2.343   0.687  11.423 -0.8672  0.1962  0.1238
  210MPD1     H 3247   2.086   0.719  11.700  2.0070  3.1872  1.3418
  210MPD1    H1 3248   2.189   0.614  11.296 -0.2632  1.8659 -1.3219
  210MPD1    H2 3249   2.490   0.725  11.580  0.2352  1.2551 -0.6627
  210MPD1    H3 3250   2.423   0.688  11.349 -0.7179 -0.7706  0.2649
  210MPD1     N 3251   1.988   0.618  11.482 -0.3427  0.4401 -0.2428
  210MPD1    H5 3252   1.973   0.585  11.388  1.4322  1.0992 -0.7624
  210MPD1    N1 3253   2.336   0.753  11.781  0.3665 -0.1771 -0.2263
  210MPD1    H6 3254   2.414   0.819  11.788 -0.0234  0.1590  0.9527
  210MPD1    H7 3255   2.267   0.786  11.848 -0.9572  1.2613 -2.3037
  211MPD1     C 3256   4.512   4.593  16.020 -0.0558  0.1665  0.2354
  211MPD1    C1 3257   4.570   4.711  16.057 -0.3399 -0.1246  0.2904
  211MPD1    C2 3258   4.471   0.068  16.100  0.0910  0.5987  0.2173
  211MPD1    C3 3259   4.337   0.050  16.099  0.7533  0.4345 -0.1324
  211MPD1    C4 3260   4.290   4.665  16.057 -0.1337 -0.1788  0.2449
  211MPD1    C5 3261   4.380   4.576  16.016  0.2559 -0.0998 -0.5354
  211MPD1     H 3262   4.499   0.160  16.149  0.2647  0.4092  0.4730
  211MPD1    H1 3263   4.190   4.625  16.063 -0.2209  0.0503  0.3003
  211MPD1    H2 3264   4.569   4.506  15.991 -1.1115 -0.5840  0.4172
  211MPD1    H3 3265   4.328   4.486  15.984  0.7241 -1.7479  3.3128
  211MPD1     N 3266   4.251   0.147  16.133 -0.3772  0.0323 -0.4020
  211MPD1    H5 3267   4.294   0.237  16.156 -0.0935 -0.3882  0.7116
  211MPD1    N1 3268   4.709   4.728  16.071  0.0406  0.0611  0.2727
  211MPD1    H6 3269   0.027   4.674  16.003 -0.0206  0.9369 -0.4758
  211MPD1    H7 3270   0.007   0.086  16.077 -0.1244  0.2030 -1.0316
  212MPD1     C 3271   3.800   3.667  16.684 -0.6922 -0.3878 -0.5839
  212MPD1    C1 3272   3.761   3.565  16.593 -0.0769 -0.0010 -0.3382
  212MPD1    C2 3273   3.682   3.462  16.650  0.1612  0.1293 -0.1542
  212MPD1    C3 3274   3.626   3.459  16.777 -0.3583  0.5124  0.0760
  212MPD1    C4 3275   3.654   3.571  16.852  0.8472  0.0892  0.1776
  212MPD1    C5 3276   3.742   3.670  16.807  0.3222  0.1992 -0.3113
  212MPD1     H 3277   3.652   3.390  16.574  1.8412 -0.8964  0.1383
  212MPD1    H1 3278   3.621   3.584  16.954  3.7378 -1.5324  1.3146
  212MPD1    H2 3279   3.873   3.740  16.651  0.3298 -0.9251  0.4761
  212MPD1    H3 3280   3.770   3.747  16.878 -0.8172  0.2912  0.0441
  212MPD1     N 3281   3.554   3.352  16.830 -0.4528 -0.1429  0.0250
  212MPD1    H5 3282   3.521   3.363  16.925 -0.0695  2.9692 -0.2026
  212MPD1    N1 3283   3.834   3.551  16.468  0.9184  0.1810 -0.7219
  212MPD1    H6 3284   3.777   3.487  16.413  0.6418  0.4872 -0.7873
  212MPD1    H7 3285   3.855   3.639  16.422 -2.2126  1.8284  1.0634
  213MPD1     C 3286   1.678   3.836  15.660  0.0894  1.1257 -0.3103
  213MPD1    C1 3287   1.543   3.825  15.689  0.9744 -0.0119  0.8639
  213MPD1    C2 3288   1.465   3.881  15.586 -0.4623 -0.3146 -0.1825
  213MPD1    C3 3289   1.511   3.959  15.481  0.4362  0.5551  0.2985
  213MPD1    C4 3290   1.645   3.974  15.466 -0.7264  0.2066  0.9658
  213MPD1    C5 3291   1.729   3.917  15.558 -0.5396  0.4795 -0.3135
  213MPD1     H 3292   1.357   3.874  15.597 -0.5954  0.0125 -1.3282
  213MPD1    H1 3293   1.695   4.023  15.384  1.7233  0.2541  2.4719
  213MPD1    H2 3294   1.750   3.794  15.729  0.2919  2.3605  0.2202
  213MPD1    H3 3295   1.831   3.952  15.550 -0.9353  1.9057  0.7634
  213MPD1     N 3296   1.421   4.014  15.389 -0.0902  0.3353 -0.0698
  213MPD1    H5 3297   1.321   4.012  15.405 -0.1646 -1.2408 -0.8156
  213MPD1    N1 3298   1.497   3.726  15.783  0.1246 -0.1418  0.4697
  213MPD1    H6 3299   1.401   3.748  15.810 -0.2874 -1.9829  0.5108
  213MPD1    H7 3300   1.558   3.732  15.864 -1.7078  0.5321  1.7977
  214MPD1     C 3301   1.014   3.401  15.098 -0.0687 -0.1547  0.3304
  214MPD1    C1 3302   1.130   3.442  15.038  0.0032 -0.3914 -0.1220
  214MPD1    C2 3303   1.152   3.584  15.029  0.1245  0.7872 -0.0290
  214MPD1    C3 3304   1.075   3.671  15.098  0.3658 -0.4506  0.5107
  214MPD1    C4 3305   0.955   3.627  15.148  0.5151  0.0200 -0.5230
  214MPD1    C5 3306   0.929   3.492  15.167 -0.6789  0.0848 -0.1316
  214MPD1     H 3307   1.238   3.617  14.972  1.2277  0.8311  1.6510
  214MPD1    H1 3308   0.891   3.701  15.196  0.9355  0.5433 -0.7799
  214MPD1    H2 3309   0.983   3.297  15.100 -0.8488  0.0571 -0.6298
  214MPD1    H3 3310   0.834   3.457  15.206 -1.0770  0.6632 -0.5880
  214MPD1     N 3311   1.093   3.813  15.094  0.6842 -0.3953  1.0487
  214MPD1    H5 3312   1.030   3.872  15.147  1.3676 -0.9480  2.4739
  214MPD1    N1 3313   1.214   3.351  14.965 -0.4222  0.1993 -0.0333
  214MPD1    H6 3314   1.295   3.407  14.939 -0.6082  0.6913  0.4502
  214MPD1    H7 3315   1.236   3.266  15.016  1.6575  0.1493 -1.0044
  215MPD1     C 3316   0.875   1.036  11.383  0.0047  0.1875  0.1229
  215MPD1    C1 3317   0.965   1.036  11.487 -0.0352 -0.2641 -0.0266
  215MPD1    C2 3318   1.097   0.999  11.466  0.6263  0.0126 -0.1977
  215MPD1    C3 3319   1.149   0.985  11.342  0.1705  0.0444  0.4022
  215MPD1    C4 3320   1.062   1.018  11.235  0.7069 -0.1750  0.2468
  215MPD1    C5 3321   0.927   1.031  11.258  0.5222  0.5647 -1.0183
  215MPD1     H 3322   1.172   0.987  11.544  0.7778 -0.7070 -0.4578
  215MPD1    H1 3323   1.099   1.005  11.134  0.8794  1.2922  0.1306
  215MPD1    H2 3324   0.768   1.046  11.395  0.0169  0.3760  0.0862
  215MPD1    H3 3325   0.857   1.045  11.176 -2.3550  0.0560  1.3507
  215MPD1     N 3326   1.286   0.975  11.342 -0.0286  0.1127  0.4830
  215MPD1    H5 3327   1.342   0.974  11.427 -0.2239 -0.6090  0.5998
  215MPD1    N1 3328   0.915   1.039  11.618 -0.3684  0.0889  0.2889
  215MPD1    H6 3329   0.985   1.070  11.685 -0.4048  1.3357 -0.2512
  215MPD1    H7 3330   0.835   1.100  11.627 -1.9532 -2.2617  2.0647
  216MPD1     C 3331   4.103   3.563  17.369  0.4975  0.5284 -0.3095
  216MPD1    C1 3332   4.191   3.459  17.364  0.7079  0.6904  0.2285
  216MPD1    C2 3333   4.174   3.360  17.457 -1.0264 -0.5163 -0.2096
  216MPD1    C3 3334   4.059   3.351  17.528  0.0860  0.9669  0.0808
  216MPD1    C4 3335   3.958   3.441  17.514 -0.6170 -0.0811  0.6563
  216MPD1    C5 3336   3.985   3.543  17.435 -0.2922  0.3764 -0.1172
  216MPD1     H 3337   4.252   3.293  17.490  0.3989  0.6654 -1.1203
  216MPD1    H1 3338   3.864   3.441  17.568 -0.9529  0.1264  0.0761
  216MPD1    H2 3339   4.115   3.652  17.308  1.4319  2.0179  2.0820
  216MPD1    H3 3340   3.906   3.617  17.442 -0.5393  0.0436  0.6178
  216MPD1     N 3341   4.069   3.250  17.622  0.0925  0.0122 -0.3188
  216MPD1    H5 3342   4.145   3.183  17.616  1.0121  0.9278  1.2041
  216MPD1    N1 3343   4.312   3.468  17.295  0.0194 -0.4497 -0.2329
  216MPD1    H6 3344   4.307   3.531  17.216  0.0817  0.7318  0.7041
  216MPD1    H7 3345   4.352   3.377  17.274  0.2827 -0.1560 -0.9846
  217MPD1     C 3346   4.017   3.311   8.368  0.7599  0.1413  0.3416
  217MPD1    C1 3347   4.131   3.261   8.423  0.1290  0.2736 -0.2685
  217MPD1    C2 3348   4.179   3.309   8.537  0.6930 -0.2397 -0.5270
  217MPD1    C3 3349   4.114   3.410   8.607 -0.6043  0.0801 -0.3494
  217MPD1    C4 3350   3.992   3.448   8.557 -0.2114  0.4761  0.1565
  217MPD1    C5 3351   3.943   3.396   8.441 -0.4311 -0.7252 -0.3377
  217MPD1     H 3352   4.268   3.265   8.579  0.6485  0.6636  0.5229
  217MPD1    H1 3353   3.922   3.515   8.605 -1.0282  0.2705 -0.7439
  217MPD1    H2 3354   3.989   3.270   8.272  3.4806  0.1038 -0.4449
  217MPD1    H3 3355   3.843   3.421   8.408 -0.6504 -2.2455 -0.8410
  217MPD1     N 3356   4.174   3.463   8.725  0.2186 -0.4809  0.1978
  217MPD1    H5 3357   4.109   3.509   8.788  2.5546  1.2779  1.3540
  217MPD1    N1 3358   4.209   3.171   8.346  0.2146  0.3250  0.7854
  217MPD1    H6 3359   4.152   3.103   8.296  2.7432  1.2385 -3.2991
  217MPD1    H7 3360   4.292   3.138   8.395  0.3945  0.1511  0.3628
  218MPD1     C 3361   1.357   1.292  13.283 -0.0433  0.6101 -0.3209
  218MPD1    C1 3362   1.458   1.327  13.193  0.1451  0.2852  0.0965
  218MPD1    C2 3363   1.576   1.259  13.194  0.4522  0.8368 -0.0893
  218MPD1    C3 3364   1.592   1.148  13.274  0.4516  0.4475  0.9693
  218MPD1    C4 3365   1.486   1.098  13.340  0.3808 -0.1412 -0.1151
  218MPD1    C5 3366   1.365   1.169  13.342  0.6866 -0.1565  0.2944
  218MPD1     H 3367   1.653   1.284  13.122 -1.7396 -1.2410 -3.1653
  218MPD1    H1 3368   1.491   1.001  13.390  0.4571 -0.1595 -0.1572
  218MPD1    H2 3369   1.277   1.361  13.310  0.9300  0.6518  2.5057
  218MPD1    H3 3370   1.278   1.143  13.402  0.0976 -3.4366 -1.9575
  218MPD1     N 3371   1.715   1.073  13.255 -0.8333  0.0454 -0.1137
  218MPD1    H5 3372   1.786   1.098  13.187  0.0664 -0.1579  0.7522
  218MPD1    N1 3373   1.441   1.437  13.113 -0.3325 -0.0449 -0.2639
  218MPD1    H6 3374   1.374   1.510  13.137 -1.1149 -0.3863 -1.4129
  218MPD1    H7 3375   1.521   1.472  13.061 -0.7038 -1.1006 -1.5546
  219MPD1     C 3376   2.111   1.129  12.468 -0.6886 -0.5424 -0.3648
  219MPD1    C1 3377   2.217   1.056  12.513 -0.0619 -0.3546  0.2117
  219MPD1    C2 3378   2.208   1.007  12.640  0.4581  0.2533 -0.8738
  219MPD1    C3 3379   2.097   1.014  12.721  0.4205  0.0922  0.3906
  219MPD1    C4 3380   1.980   1.070  12.660  0.6553 -0.5187 -0.8717
  219MPD1    C5 3381   1.993   1.133  12.539  0.4799  0.2807  0.1633
  219MPD1     H 3382   2.298   0.961  12.678 -0.8903 -2.2603 -0.7295
  219MPD1    H1 3383   1.885   1.080  12.712  0.7886  0.7723 -0.8889
  219MPD1    H2 3384   2.108   1.183  12.374  1.7367 -0.7154 -0.5553
  219MPD1    H3 3385   1.907   1.193  12.509 -0.6051 -0.9199  0.9101
  219MPD1     N 3386   2.091   0.969  12.854 -0.4259  0.2977  0.3297
  219MPD1    H5 3387   2.168   0.907  12.879 -0.3551  0.7203  1.1571
  219MPD1    N1 3388   2.340   1.067  12.450 -0.0334  0.0501  0.2819
  219MPD1    H6 3389   2.396   0.994  12.492  0.1481 -0.5388 -0.9779
  219MPD1    H7 3390   2.333   1.048  12.350  1.0254 -0.0289  0.2224
  220MPD1     C 3391   2.251   0.515   9.634  0.2935 -0.1051  0.7113
  220MPD1    C1 3392   2.115   0.484   9.637  0.6060  0.4238  0.5850
  220MPD1    C2 3393   2.043   0.542   9.740 -0.4573  0.0434 -0.5965
  220MPD1    C3 3394   2.085   0.641   9.819  0.6309  0.5235  0.3361
  220MPD1    C4 3395   2.218   0.677   9.811  0.4375 -0.0508 -0.1895
  220MPD1    C5 3396   2.302   0.607   9.725 -0.2257 -0.2719 -0.0089
  220MPD1     H 3397   1.942   0.505   9.757 -0.4256  0.4871  0.5037
  220MPD1    H1 3398   2.264   0.748   9.879  0.3852 -1.2537  1.1040
  220MPD1    H2 3399   2.321   0.465   9.567 -1.1567  0.0482 -0.9123
  220MPD1    H3 3400   2.405   0.637   9.712  0.1146 -1.4708 -0.0823
  220MPD1     N 3401   1.997   0.690   9.920  0.0513  0.3820 -0.1558
  220MPD1    H5 3402   1.916   0.636   9.949  1.2347 -0.9605  0.6785
  220MPD1    N1 3403   2.058   0.383   9.571 -0.6086  0.2619  0.3642
  220MPD1    H6 3404   2.090   0.360   9.478 -0.9402 -2.1838  0.8363
  220MPD1    H7 3405   1.957   0.399   9.569 -0.5933  0.2350 -0.4411
  221MPD1     C 3406   3.561   4.722  16.894 -0.8745 -1.1939 -0.2617
  221MPD1    C1 3407   3.588   4.623  16.802 -0.2785 -0.2016 -0.4073
  221MPD1    C2 3408   3.705   4.631  16.724  0.3683  0.5195 -0.3680
  221MPD1    C3 3409   3.799   4.727  16.751 -0.6651  0.0252  0.1760
  221MPD1    C4 3410   3.771   0.084  16.842  0.8745  0.0190  0.1146
  221MPD1    C5 3411   3.662   0.079  16.919 -0.1775 -0.4387 -0.6946
  221MPD1     H 3412   3.723   4.561  16.643  1.1613  1.5394 -1.0638
  221MPD1    H1 3413   3.842   0.162  16.866 -0.2572  1.2329 -0.4573
  221MPD1    H2 3414   3.471   4.722  16.954 -0.1000 -1.5991  0.8973
  221MPD1    H3 3415   3.647   0.159  16.991  0.0799 -1.0830  0.0697
  221MPD1     N 3416   3.921   4.731  16.687  0.2385 -0.1468 -0.1294
  221MPD1    H5 3417   3.977   0.073  16.717 -1.0200  0.6729  0.0398
  221MPD1    N1 3418   3.487   4.528  16.768 -0.1430 -0.1853 -0.6497
  221MPD1    H6 3419   3.432   4.502  16.849 -0.6707  0.0528 -0.9280
  221MPD1    H7 3420   3.519   4.448  16.713  0.8874  2.2223 -3.5874
  222MPD1     C 3421   4.121   3.521  16.962  0.2956 -0.2055  0.1033
  222MPD1    C1 3422   4.169   3.654  16.986  0.4524 -0.5094 -0.0064
  222MPD1    C2 3423   4.088   3.753  17.049 -0.6512  0.0929 -0.2883
  222MPD1    C3 3424   3.962   3.722  17.099 -0.3491  0.2573 -0.2457
  222MPD1    C4 3425   3.930   3.591  17.088  0.1876 -0.2090  0.4445
  222MPD1    C5 3426   4.001   3.495  17.008  0.2337 -0.0873  1.0353
  222MPD1     H 3427   4.132   3.852  17.053  2.3517 -1.1456 -2.8021
  222MPD1    H1 3428   3.839   3.552  17.132 -0.2422 -0.6293 -0.8305
  222MPD1    H2 3429   4.169   3.451  16.895  2.0149 -0.7179  1.8814
  222MPD1    H3 3430   3.967   3.394  16.989 -1.0355  0.7962 -1.5357
  222MPD1     N 3431   3.886   3.813  17.171 -0.1429  0.1605  0.5527
  222MPD1    H5 3432   3.808   3.773  17.223 -0.0051  0.7658  1.2306
  222MPD1    N1 3433   4.293   3.699  16.925 -0.3693  0.0581 -0.4352
  222MPD1    H6 3434   4.363   3.628  16.910 -2.9525 -2.4109 -0.7974
  222MPD1    H7 3435   4.324   3.784  16.972  2.3662 -0.1424 -1.8866
  223MPD1     C 3436   3.075   3.711  17.589  0.3111  0.3177  0.0108
  223MPD1    C1 3437   3.138   3.788  17.681  0.3544 -0.0748  0.0849
  223MPD1    C2 3438   3.251   3.861  17.642 -0.2067  0.2315  0.1595
  223MPD1    C3 3439   3.291   3.872  17.509  0.0130  0.2990  0.0185
  223MPD1    C4 3440   3.217   3.799  17.416 -0.0979 -0.5216  0.0087
  223MPD1    C5 3441   3.117   3.717  17.455 -0.0905 -0.5340  0.4256
  223MPD1     H 3442   3.318   3.902  17.716  1.0322  2.3617 -2.1491
  223MPD1    H1 3443   3.240   3.801  17.310 -1.5741 -0.6559 -0.3072
  223MPD1    H2 3444   2.988   3.651  17.613  1.4327 -0.2809  2.6116
  223MPD1    H3 3445   3.068   3.661  17.376  1.2002 -1.5827  0.3758
  223MPD1     N 3446   3.402   3.952  17.475  0.6277  0.2065  0.6794
  223MPD1    H5 3447   3.461   3.982  17.552  0.1967  2.3292  0.1925
  223MPD1    N1 3448   3.100   3.768   0.072  0.3991 -0.4015 -0.0498
  223MPD1    H6 3449   3.122   3.844   0.136 -1.7412 -0.1598  0.4211
  223MPD1    H7 3450   3.001   3.752   0.088 -0.2268  0.9950 -2.4285
  224MPD1     C 3451   4.205   4.672   8.836 -0.3310  0.1673 -0.1490
  224MPD1    C1 3452   4.339   4.670   8.839  0.3319  0.0775 -0.0184
  224MPD1    C2 3453   4.398   4.659   8.963 -0.2703  0.4721  0.0477
  224MPD1    C3 3454   4.328   4.659   9.083  0.2501 -0.9208  0.0268
  224MPD1    C4 3455   4.186   4.650   9.075 -0.1713  0.0995  0.5550
  224MPD1    C5 3456   4.130   4.666   8.951  0.3162  0.2436  0.6269
  224MPD1     H 3457   4.506   4.668   8.961 -0.1145 -1.0337  1.3304
  224MPD1    H1 3458   4.135   4.634   9.169 -0.9946  2.2957  0.4695
  224MPD1    H2 3459   4.147   4.665   8.745  0.7453 -3.0113 -0.5571
  224MPD1    H3 3460   4.025   4.645   8.934  0.7342 -2.9363  2.1228
  224MPD1     N 3461   4.391   4.654   9.208  0.0329  0.6133  0.8473
  224MPD1    H5 3462   4.329   4.660   9.288 -0.6080  2.4209  0.2099
  224MPD1    N1 3463   4.417   4.647   8.725 -0.3821  0.0710  0.4394
  224MPD1    H6 3464   4.394   4.690   8.636 -0.3475 -3.8505 -1.4830
  224MPD1    H7 3465   4.516   4.648   8.745 -0.3310 -1.8098  0.3420
  225MPD1     C 3466   1.581   2.683  12.767  0.3534  0.3762 -0.0237
  225MPD1    C1 3467   1.572   2.569  12.838 -0.8161 -0.4298  0.4020
  225MPD1    C2 3468   1.525   2.461  12.772  0.2763  0.2703 -0.3269
  225MPD1    C3 3469   1.475   2.463  12.639  0.4897 -0.5030 -0.4438
  225MPD1    C4 3470   1.484   2.586  12.569  0.0145 -0.1417  0.3634
  225MPD1    C5 3471   1.534   2.695  12.633  0.0864  0.0675 -0.0573
  225MPD1     H 3472   1.539   2.364  12.818  0.7720  0.0202 -1.0074
  225MPD1    H1 3473   1.446   2.587  12.468  0.3811  1.3674  0.2397
  225MPD1    H2 3474   1.613   2.779  12.806  0.7236  1.4889 -3.0812
  225MPD1    H3 3475   1.543   2.795  12.592 -1.8771  0.0992 -0.4080
  225MPD1     N 3476   1.418   2.352  12.566  0.5372  0.3962  0.1118
  225MPD1    H5 3477   1.384   2.371  12.473 -1.1118  0.5007  0.7406
  225MPD1    N1 3478   1.631   2.557  12.967 -0.0747 -0.0127 -0.7557
  225MPD1    H6 3479   1.652   2.641  13.021 -1.7411 -0.1901  0.1718
  225MPD1    H7 3480   1.580   2.488  13.022  1.4710 -0.4590  0.1237
  226MPD1     C 3481   3.752   2.025   9.668 -0.8976  0.5055  0.3947
  226MPD1    C1 3482   3.660   1.925   9.692  0.2509  0.9793 -0.6653
  226MPD1    C2 3483   3.707   1.811   9.753  0.2703 -0.0967 -0.0928
  226MPD1    C3 3484   3.843   1.803   9.782 -0.1037 -0.5809 -0.4752
  226MPD1    C4 3485   3.921   1.909   9.778 -0.2026 -0.3960 -1.3343
  226MPD1    C5 3486   3.874   2.020   9.720 -0.6858 -0.9450 -0.6427
  226MPD1     H 3487   3.644   1.724   9.765  0.1497  0.2150  1.5544
  226MPD1    H1 3488   4.026   1.917   9.802 -0.7005  1.8515  0.0974
  226MPD1    H2 3489   3.716   2.109   9.609  0.2813  2.8670  3.0450
  226MPD1    H3 3490   3.943   2.102   9.713 -0.5464 -1.0027  0.0175
  226MPD1     N 3491   3.894   1.679   9.824 -0.1952 -0.0637  0.2390
  226MPD1    H5 3492   3.830   1.602   9.833 -1.8410  1.3152  0.2532
  226MPD1    N1 3493   3.537   1.914   9.621 -0.4934  0.0500 -0.2407
  226MPD1    H6 3494   3.455   1.876   9.667 -0.4741  0.3568  0.0392
  226MPD1    H7 3495   3.510   2.006   9.586  0.1690  0.0611 -0.7286
  227MPD1     C 3496   4.596   1.368  10.460  0.3580  0.2623 -0.4322
  227MPD1    C1 3497   4.570   1.497  10.419 -0.5921  0.5957 -0.0378
  227MPD1    C2 3498   4.479   1.515  10.317 -0.3990  0.2090 -0.3126
  227MPD1    C3 3499   4.438   1.406  10.241  0.3842 -0.3498  0.2893
  227MPD1    C4 3500   4.475   1.276  10.277 -0.1850 -0.1574 -0.1387
  227MPD1    C5 3501   4.554   1.258  10.389 -0.3778  0.3831 -0.2998
  227MPD1     H 3502   4.430   1.611  10.303  0.3268  0.6628  0.2486
  227MPD1    H1 3503   4.449   1.180  10.236 -0.7870  0.8541 -2.1636
  227MPD1    H2 3504   4.659   1.345  10.546  0.8017  0.9325 -0.5752
  227MPD1    H3 3505   4.589   1.160  10.421 -0.5800  0.6219  0.6687
  227MPD1     N 3506   4.349   1.431  10.136 -0.2743  0.1579  0.6505
  227MPD1    H5 3507   4.312   1.525  10.129  1.6072  0.8743  0.0679
  227MPD1    N1 3508   4.606   1.599  10.512  0.3252 -0.7218 -0.3894
  227MPD1    H6 3509   4.685   1.564  10.566 -0.7445  1.4054  2.5214
  227MPD1    H7 3510   4.631   1.686  10.467 -0.5325  0.4230  1.3485
  228MPD1     C 3511   2.712   3.817  13.438  0.4010  0.1294 -0.1209
  228MPD1    C1 3512   2.697   3.764  13.307  0.4596 -0.1231 -0.7729
  228MPD1    C2 3513   2.593   3.669  13.294  0.4976  0.8490  0.3047
  228MPD1    C3 3514   2.499   3.652  13.393 -0.0814 -0.6117  0.5603
  228MPD1    C4 3515   2.503   3.738  13.505 -0.2097  0.5206  0.6085
  228MPD1    C5 3516   2.612   3.807  13.527  0.7630  0.5536  0.1288
  228MPD1     H 3517   2.588   3.608  13.205  2.5245 -0.7072  1.2490
  228MPD1    H1 3518   2.425   3.739  13.580 -0.0486 -0.2707  0.7782
  228MPD1    H2 3519   2.798   3.881  13.455  0.2274  0.3616 -0.1271
  228MPD1    H3 3520   2.638   3.864  13.615  1.2171  1.0046 -0.2987
  228MPD1     N 3521   2.382   3.579  13.370 -0.6003  0.1911 -0.8848
  228MPD1    H5 3522   2.360   3.549  13.275  1.2171  0.1276 -1.2864
  228MPD1    N1 3523   2.795   3.767  13.213  0.1312 -0.2992  0.0608
  228MPD1    H6 3524   2.751   3.757  13.122  0.8714  2.7676 -0.6541
  228MPD1    H7 3525   2.837   3.860  13.209  1.3011 -0.8189  0.4827
  229MPD1     C 3526   2.498   2.465  14.861 -0.1596  0.1778 -0.1068
  229MPD1    C1 3527   2.441   2.435  14.981 -0.3713 -0.4902 -0.5646
  229MPD1    C2 3528   2.469   2.309  15.032  0.3921 -0.0750  0.9523
  229MPD1    C3 3529   2.559   2.222  14.984 -0.3661 -0.6858 -0.1157
  229MPD1    C4 3530   2.632   2.270  14.873  0.2781  0.5649  0.5457
  229MPD1    C5 3531   2.598   2.385  14.810  0.1865  0.1228 -0.4973
  229MPD1     H 3532   2.418   2.292  15.126 -0.2582  0.1851  0.6472
  229MPD1    H1 3533   2.704   2.213  14.815  0.0407  0.1492  0.6646
  229MPD1    H2 3534   2.467   2.548  14.799  2.2813  0.1137 -1.4135
  229MPD1    H3 3535   2.638   2.418  14.714  2.8260 -0.9755  0.2297
  229MPD1     N 3536   2.588   2.101  15.047 -0.4998 -0.2155 -0.0006
  229MPD1    H5 3537   2.657   2.049  14.994  1.3260 -0.1202  2.2879
  229MPD1    N1 3538   2.335   2.506  15.026  0.0525 -0.5981 -0.3207
  229MPD1    H6 3539   2.296   2.475  15.115  0.2809  1.8027  0.5925
  229MPD1    H7 3540   2.334   2.606  15.007 -1.1588 -0.4620  0.4474
  230MPD1     C 3541   3.154   1.599  15.790 -0.1775 -0.6393  0.4456
  230MPD1    C1 3542   3.086   1.506  15.723 -0.3873  0.2383 -1.5217
  230MPD1    C2 3543   2.993   1.541  15.627 -0.0447 -0.5623  0.0629
  230MPD1    C3 3544   2.948   1.673  15.617  0.0422  0.2986  0.5249
  230MPD1    C4 3545   3.008   1.770  15.697 -0.2430 -0.1131 -0.4121
  230MPD1    C5 3546   3.115   1.731  15.770  0.3422  0.2852  0.8069
  230MPD1     H 3547   2.952   1.461  15.565 -0.7362 -1.4118  1.6352
  230MPD1    H1 3548   2.981   1.875  15.696 -0.6758 -0.2363 -1.4637
  230MPD1    H2 3549   3.244   1.574  15.844  0.4856  1.9919  0.5959
  230MPD1    H3 3550   3.157   1.805  15.837  1.4075 -1.0526  1.6262
  230MPD1     N 3551   2.842   1.689  15.530  0.6550  0.0657  0.4531
  230MPD1    H5 3552   2.803   1.607  15.484  0.5767 -0.6296  1.7419
  230MPD1    N1 3553   3.146   1.384  15.715  0.5046 -0.3144  0.3795
  230MPD1    H6 3554   3.081   1.309  15.690 -0.9350  1.1829 -0.3156
  230MPD1    H7 3555   3.202   1.353  15.794 -2.0776 -0.5865  2.1230
  231MPD1     C 3556   0.177   4.669  15.144  0.1066 -0.7198  0.2740
  231MPD1    C1 3557   0.188   4.539  15.191  0.6506  0.5872 -0.2481
  231MPD1    C2 3558   0.318   4.476  15.185 -0.2415  0.0299 -0.9547
  231MPD1    C3 3559   0.431   4.548  15.136 -0.4676 -0.9472 -0.2268
  231MPD1    C4 3560   0.405   4.671  15.091 -0.2673 -0.7192  0.1109
  231MPD1    C5 3561   0.284   4.731  15.092 -0.3288  0.5082 -0.9388
  231MPD1     H 3562   0.319   4.381  15.236 -0.7946  1.2423  1.3051
  231MPD1    H1 3563   0.483   4.735  15.052 -0.8084 -0.8527 -1.1997
  231MPD1    H2 3564   0.083   4.721  15.162  0.2805 -0.2059 -0.2982
  231MPD1    H3 3565   0.264   0.088  15.042  0.4653 -0.3819 -2.9330
  231MPD1     N 3566   0.552   4.483  15.132 -0.0150 -0.3670 -0.4145
  231MPD1    H5 3567   0.552   4.389  15.170  0.6466  0.1194  0.8044
  231MPD1    N1 3568   0.084   4.477  15.269  0.0350 -0.8951  0.3923
  231MPD1    H6 3569   0.069   4.377  15.264 -1.5036 -0.6750  0.5586
  231MPD1    H7 3570   0.004   4.539  15.282  0.5062 -0.2509  0.2181
  232MPD1     C 3571   3.029   2.636   0.328 -0.2537 -0.0300  0.0006
  232MPD1    C1 3572   2.925   2.704   0.270 -0.4129  1.3588 -0.2045
  232MPD1    C2 3573   2.825   2.630   0.207 -0.2795  0.2241 -0.7124
  232MPD1    C3 3574   2.832   2.488   0.202  0.3597  0.1863 -0.1832
  232MPD1    C4 3575   2.927   2.423   0.268  0.1779  0.0037  0.7231
  232MPD1    C5 3576   3.029   2.496   0.323  0.3466  0.7949  0.0032
  232MPD1     H 3577   2.743   2.677   0.154 -0.9677 -2.8031 -2.3283
  232MPD1    H1 3578   2.936   2.316   0.282  0.5827  0.1310  1.4129
  232MPD1    H2 3579   3.111   2.685   0.378 -1.8387  1.8981  0.7007
  232MPD1    H3 3580   3.113   2.442   0.363  0.6601  1.4501  0.2345
  232MPD1     N 3581   2.720   2.424   0.140 -0.5688 -0.5373 -0.1841
  232MPD1    H5 3582   2.650   2.486   0.101  0.5273  1.5388  1.1929
  232MPD1    N1 3583   2.916   2.847   0.278  0.6401 -0.1649  0.6722
  232MPD1    H6 3584   2.824   2.879   0.307  0.3641 -1.1196  0.8343
  232MPD1    H7 3585   2.989   2.893   0.332  1.0935  1.6332 -1.4420
  233MPD1     C 3586   3.969   0.636   1.031 -0.6292  0.3186  0.5080
  233MPD1    C1 3587   3.964   0.705   1.154  0.8548  0.7666  0.1046
  233MPD1    C2 3588   4.081   0.737   1.217  0.0912  0.4778 -0.4514
  233MPD1    C3 3589   4.203   0.709   1.155 -0.8007  0.2852 -0.2841
  233MPD1    C4 3590   4.203   0.648   1.029 -0.6710 -0.3718 -0.3141
  233MPD1    C5 3591   4.089   0.611   0.966 -0.2403 -0.4382 -0.1636
  233MPD1     H 3592   4.065   0.784   1.313  2.2893  1.9089 -0.7944
  233MPD1    H1 3593   4.294   0.635   0.972 -2.0821 -0.1902 -2.6082
  233MPD1    H2 3594   3.870   0.608   0.997 -0.7285  0.9121  0.3132
  233MPD1    H3 3595   4.089   0.564   0.868 -0.4287 -2.0115  0.5858
  233MPD1     N 3596   4.329   0.753   1.205 -0.2914 -0.1876 -0.3441
  233MPD1    H5 3597   4.412   0.729   1.153  0.1774 -1.3759  0.9438
  233MPD1    N1 3598   3.840   0.715   1.222 -0.1386  0.0226 -0.6209
  233MPD1    H6 3599   3.817   0.794   1.281  2.4767 -1.1943  2.0285
  233MPD1    H7 3600   3.767   0.725   1.151  0.4264 -0.8324 -1.3286
  234MPD1     C 3601   1.184   3.797   9.750 -0.0114 -0.5132  0.1751
  234MPD1    C1 3602   1.114   3.880   9.834 -0.4238 -0.3400 -0.0438
  234MPD1    C2 3603   0.979   3.881   9.811 -0.9831 -0.3000  0.3715
  234MPD1    C3 3604   0.908   3.790   9.730 -0.7563 -0.1782  0.1844
  234MPD1    C4 3605   0.982   3.692   9.667  0.1424  0.2313  0.1921
  234MPD1    C5 3606   1.121   3.696   9.675  0.1022  0.2136  0.6386
  234MPD1     H 3607   0.930   3.967   9.857  1.6584  1.3101  0.2030
  234MPD1    H1 3608   0.942   3.617   9.600 -0.1342  0.5438  0.0055
  234MPD1    H2 3609   1.291   3.812   9.741 -0.4646  1.7458 -1.4733
  234MPD1    H3 3610   1.180   3.637   9.605 -0.4554 -2.4787  2.4495
  234MPD1     N 3611   0.770   3.806   9.720 -0.1306  0.6003  0.7103
  234MPD1    H5 3612   0.732   3.890   9.763  0.6020  0.6872  1.1864
  234MPD1    N1 3613   1.178   3.996   9.893  0.3694  0.3811  0.0259
  234MPD1    H6 3614   1.270   3.986   9.937  1.1061 -0.1330 -1.5954
  234MPD1    H7 3615   1.112   4.039   9.957 -0.3048 -0.7577  0.1037
  235MPD1     C 3616   1.915   2.358  11.507  0.3666 -0.5355  0.2219
  235MPD1    C1 3617   2.030   2.432  11.481 -0.2089  0.6674  0.1827
  235MPD1    C2 3618   2.104   2.414  11.365 -0.6530 -0.6433 -0.3894
  235MPD1    C3 3619   2.068   2.311  11.276  0.4675  0.8144 -0.5966
  235MPD1    C4 3620   1.949   2.239  11.304 -0.9689 -0.2794 -0.5256
  235MPD1    C5 3621   1.877   2.261  11.419  0.3206 -0.0508  0.4893
  235MPD1     H 3622   2.192   2.472  11.342 -0.8053 -0.4745 -0.5517
  235MPD1    H1 3623   1.912   2.161  11.240 -2.5560  1.3988 -1.6491
  235MPD1    H2 3624   1.840   2.376  11.584 -1.8748  2.1483 -2.5707
  235MPD1    H3 3625   1.781   2.211  11.423  0.3704 -0.1077  0.8904
  235MPD1     N 3626   2.173   2.273  11.190  0.5137  0.4550 -0.2263
  235MPD1    H5 3627   2.251   2.337  11.179  0.5394  0.2975 -0.9595
  235MPD1    N1 3628   2.056   2.550  11.564 -0.2290 -0.2710 -0.1311
  235MPD1    H6 3629   2.023   2.535  11.660 -2.5222  0.6775 -0.7741
  235MPD1    H7 3630   2.157   2.560  11.563 -0.1372 -0.9852  1.2119
  236MPD1     C 3631   1.129   2.551   9.702 -0.4700 -0.4010  0.4917
  236MPD1    C1 3632   1.174   2.673   9.747 -0.4312 -0.0435 -0.2741
  236MPD1    C2 3633   1.241   2.685   9.867  0.5417  0.3190 -0.2880
  236MPD1    C3 3634   1.273   2.565   9.931  0.1519 -0.1177  0.5773
  236MPD1    C4 3635   1.226   2.445   9.886 -0.4572 -0.7330  0.1242
  236MPD1    C5 3636   1.153   2.442   9.776 -0.3573  0.6909 -0.2131
  236MPD1     H 3637   1.273   2.782   9.906  1.2220 -0.9846  2.4137
  236MPD1    H1 3638   1.247   2.350   9.934 -2.5481 -1.5222 -0.5014
  236MPD1    H2 3639   1.068   2.545   9.613 -1.6781 -2.0701  1.4335
  236MPD1    H3 3640   1.104   2.355   9.734 -1.5370  0.7092  1.1169
  236MPD1     N 3641   1.354   2.564  10.043 -0.3932 -0.2820 -0.0710
  236MPD1    H5 3642   1.360   2.473  10.087  0.6274 -0.7039 -1.0666
  236MPD1    N1 3643   1.134   2.792   9.689 -0.1905 -0.2883  0.7867
  236MPD1    H6 3644   1.109   2.780   9.592  1.0084 -2.7595  0.7813
  236MPD1    H7 3645   1.207   2.863   9.701 -0.7880  0.2714  1.1226
  237MPD1     C 3646   1.313   0.729  15.634  0.3210  0.3207 -0.4545
  237MPD1    C1 3647   1.222   0.681  15.729  0.3101  0.2680  0.7926
  237MPD1    C2 3648   1.089   0.704  15.703 -0.1383 -0.3506 -0.2609
  237MPD1    C3 3649   1.052   0.761  15.579  0.5418  0.5495 -0.7271
  237MPD1    C4 3650   1.147   0.802  15.485 -0.0581  0.0419 -0.1082
  237MPD1    C5 3651   1.282   0.787  15.514  0.0723 -0.7369 -0.7192
  237MPD1     H 3652   1.015   0.661  15.770  0.3724 -1.2391 -0.2784
  237MPD1    H1 3653   1.129   0.839  15.385  1.0363  1.4878  0.2393
  237MPD1    H2 3654   1.420   0.732  15.650  0.3664 -1.3291 -0.4666
  237MPD1    H3 3655   1.354   0.834  15.449  0.7362 -0.7415  0.0178
  237MPD1     N 3656   0.914   0.774  15.544  0.1311  0.0254 -0.4689
  237MPD1    H5 3657   0.892   0.796  15.447  0.3391  1.7317 -0.1392
  237MPD1    N1 3658   1.262   0.636  15.858  0.4215  0.5258  0.5745
  237MPD1    H6 3659   1.348   0.581  15.867  0.6286  0.4998 -1.5498
  237MPD1    H7 3660   1.187   0.583  15.902 -0.4527  0.2534 -1.2575
  238MPD1     C 3661   2.977   4.076  15.076  0.7669 -0.6475  0.4729
  238MPD1    C1 3662   2.904   4.128  14.974  0.1544 -0.8340  0.0299
  238MPD1    C2 3663   2.768   4.115  14.968  0.3242 -0.2959 -0.2142
  238MPD1    C3 3664   2.704   4.029  15.058 -0.2032 -0.6393  0.2197
  238MPD1    C4 3665   2.780   3.965  15.151  0.4755  0.2495 -0.6515
  238MPD1    C5 3666   2.915   3.986  15.160  0.4982 -0.0326 -0.5651
  238MPD1     H 3667   2.704   4.156  14.890  0.0042  1.0852  0.7707
  238MPD1    H1 3668   2.729   3.905  15.226  0.7576 -0.5605 -1.1198
  238MPD1    H2 3669   3.083   4.090  15.094  0.8573  0.1065 -0.6352
  238MPD1    H3 3670   2.965   3.928  15.238 -1.9263  0.7133  1.5568
  238MPD1     N 3671   2.565   4.004  15.060 -0.2110 -0.1551  0.5396
  238MPD1    H5 3672   2.534   3.934  15.126 -2.4305 -0.9709 -1.3651
  238MPD1    N1 3673   2.967   4.227  14.898 -0.6964 -0.3342 -0.0557
  238MPD1    H6 3674   3.066   4.209  14.884 -0.5149  0.4846  0.1994
  238MPD1    H7 3675   2.926   4.240  14.805 -2.6808 -0.1752  0.8335
  239MPD1     C 3676   3.287   0.201  14.823  0.0356  0.6097 -0.3757
  239MPD1    C1 3677   3.329   0.312  14.758  0.1677 -0.3243  0.6231
  239MPD1    C2 3678   3.269   0.345  14.638 -0.2378 -0.6041  0.0239
  239MPD1    C3 3679   3.155   0.268  14.591  0.2123 -0.0409 -0.0429
  239MPD1    C4 3680   3.101   0.173  14.673  0.1914 -0.1625  0.8740
  239MPD1    C5 3681   3.173   0.140  14.782  0.2471 -0.3602  0.1991
  239MPD1     H 3682   3.308   0.430  14.582 -1.4781  1.3226  2.1079
  239MPD1    H1 3683   3.013   0.121  14.635  0.1037  0.5529  0.0941
  239MPD1    H2 3684   3.346   0.161  14.905 -1.2085 -0.6071 -0.0689
  239MPD1    H3 3685   3.148   0.051  14.839 -0.3552 -1.0624 -1.1431
  239MPD1     N 3686   3.087   0.305  14.475 -0.3727 -0.1733  0.6274
  239MPD1    H5 3687   2.998   0.263  14.452 -0.6289 -0.2786  1.8148
  239MPD1    N1 3688   3.447   0.377  14.802 -0.5582 -0.5591 -0.2232
  239MPD1    H6 3689   3.452   0.364  14.903  1.7505 -0.8283 -0.3686
  239MPD1    H7 3690   3.441   0.476  14.780  0.1196 -0.7285 -1.1940
  240MPD1     C 3691   2.548   4.493  13.847  0.0831 -0.1863 -0.6313
  240MPD1    C1 3692   2.582   4.537  13.971 -0.6290  0.3174 -0.0551
  240MPD1    C2 3693   2.476   4.525  14.065 -0.0621 -0.4384 -0.0333
  240MPD1    C3 3694   2.353   4.479  14.036  0.5359 -0.1018  0.1048
  240MPD1    C4 3695   2.326   4.436  13.905  0.0936 -0.5990  0.1447
  240MPD1    C5 3696   2.417   4.459  13.809 -0.0272  0.4958 -0.0927
  240MPD1     H 3697   2.504   4.554  14.165  0.1199  3.1802 -1.1294
  240MPD1    H1 3698   2.231   4.391  13.877  0.7665 -2.1900  0.3896
  240MPD1    H2 3699   2.631   4.479  13.779  0.1884  0.5022 -0.6416
  240MPD1    H3 3700   2.404   4.425  13.707  1.0055  1.3928 -0.5359
  240MPD1     N 3701   2.256   4.472  14.138 -0.2870 -0.0965 -0.1473
  240MPD1    H5 3702   2.290   4.510  14.225 -0.9010 -0.1189  0.1052
  240MPD1    N1 3703   2.713   4.557  14.015  0.5169 -0.4232  0.2786
  240MPD1    H6 3704   2.707   4.624  14.091 -0.1638 -1.0223  0.7553
  240MPD1    H7 3705   2.774   4.579  13.936 -0.1670  0.5704  0.0284
  241MPD1     C 3706   2.253   4.440  15.141 -0.0268 -0.1557  0.5077
  241MPD1    C1 3707   2.338   4.496  15.040  1.0197 -0.6244  0.6311
  241MPD1    C2 3708   2.291   4.493  14.908 -0.1756 -0.5505  0.4305
  241MPD1    C3 3709   2.167   4.429  14.878 -0.0076 -0.0566 -0.2391
  241MPD1    C4 3710   2.093   4.371  14.981 -0.1699 -0.2185  0.1208
  241MPD1    C5 3711   2.137   4.383  15.113  0.4513  0.0386 -0.1794
  241MPD1     H 3712   2.350   4.534  14.827 -0.5956 -1.9636 -0.5755
  241MPD1    H1 3713   1.998   4.322  14.965  0.0235 -0.2242 -1.0133
  241MPD1    H2 3714   2.283   4.456  15.243  2.0186  1.9048 -0.4277
  241MPD1    H3 3715   2.072   4.344  15.190 -0.5753 -1.7294 -1.9206
  241MPD1     N 3716   2.115   4.404  14.749  0.2244  0.3966  0.1342
  241MPD1    H5 3717   2.021   4.368  14.740  0.2360  0.1561  1.0362
  241MPD1    N1 3718   2.452   4.569  15.075  0.1675 -0.6312 -0.2302
  241MPD1    H6 3719   2.519   4.563  15.000  0.7165  0.5437  0.1593
  241MPD1    H7 3720   2.496   4.532  15.159  0.2093 -0.1102 -0.0217
  242MPD1     C 3721   2.033   2.678  16.211  0.3851  0.5029  0.2973
  242MPD1    C1 3722   1.942   2.748  16.137 -0.1764  0.6397 -0.4166
  242MPD1    C2 3723   1.949   2.728  16.001  0.0724  0.6938  0.5219
  242MPD1    C3 3724   2.025   2.630  15.942 -0.0586  0.5448  0.0976
  242MPD1    C4 3725   2.107   2.552  16.018 -0.2999  0.7729 -0.1927
  242MPD1    C5 3726   2.107   2.571  16.155 -0.3805 -0.4175 -0.0613
  242MPD1     H 3727   1.900   2.803  15.939 -0.1216  0.0944 -0.0469
  242MPD1    H1 3728   2.170   2.478  15.970 -0.1204  2.1258 -2.0875
  242MPD1    H2 3729   2.044   2.686  16.318 -1.4575 -0.5906  0.5571
  242MPD1    H3 3730   2.165   2.512  16.225  0.7598  0.9618  0.1552
  242MPD1     N 3731   2.042   2.613  15.802  0.8878 -0.1566  0.2219
  242MPD1    H5 3732   2.127   2.565  15.774  0.8543  0.3412 -0.7509
  242MPD1    N1 3733   1.893   2.863  16.194 -0.5183 -0.4394 -0.2729
  242MPD1    H6 3734   1.876   2.844  16.293 -2.5970  1.1332 -0.3228
  242MPD1    H7 3735   1.812   2.903  16.147  1.0016  1.9033 -0.9278
  243MPD1     C 3736   2.843   1.716  17.504 -0.1775  0.5638 -0.0082
  243MPD1    C1 3737   2.892   1.707  17.378  0.3343 -0.3995  0.2267
  243MPD1    C2 3738   3.019   1.656  17.355  0.6818 -0.0344 -0.7945
  243MPD1    C3 3739   3.115   1.636  17.456 -0.1013 -0.4020 -0.0864
  243MPD1    C4 3740   3.071   1.666  17.585  0.1999  0.5714 -0.2674
  243MPD1    C5 3741   2.931   1.695  17.610  0.3268  0.5831  0.1614
  243MPD1     H 3742   3.039   1.625  17.253  1.1765 -1.6043 -0.2173
  243MPD1    H1 3743   3.136   1.645  17.670  1.9817  0.9303 -1.5492
  243MPD1    H2 3744   2.739   1.737  17.524 -0.5679 -0.0142 -1.4958
  243MPD1    H3 3745   2.895   1.710  17.711  0.0125  1.5040 -0.0850
  243MPD1     N 3746   3.248   1.587  17.428  0.1516 -0.0586 -0.0227
  243MPD1    H5 3747   3.268   1.564  17.331 -1.4030 -2.9524  0.3275
  243MPD1    N1 3748   2.806   1.708  17.266  0.2751 -0.3108 -0.3046
  243MPD1    H6 3749   2.741   1.785  17.280  0.2522 -0.1945 -1.0178
  243MPD1    H7 3750   2.850   1.731  17.177  2.6519  0.1460  0.9859
  244MPD1     C 3751   4.254   1.606   0.152  0.6943  0.2590  0.2428
  244MPD1    C1 3752   4.242   1.485   0.088 -0.3985 -0.2225 -0.1318
  244MPD1    C2 3753   4.122   1.468   0.019 -0.1179  0.1014 -0.2793
  244MPD1    C3 3754   4.024   1.573   0.002  0.3106 -0.4662 -0.3207
  244MPD1    C4 3755   4.033   1.688   0.075  0.3931 -0.6148  0.3031
  244MPD1    C5 3756   4.153   1.698   0.142  0.2023 -0.6836 -0.4747
  244MPD1     H 3757   4.094   1.370  17.729 -0.7597 -0.1621  0.9111
  244MPD1    H1 3758   3.968   1.774   0.065  0.3765 -0.6587  0.0133
  244MPD1    H2 3759   4.335   1.626   0.221 -0.0052 -2.0687  1.7496
  244MPD1    H3 3760   4.174   1.800   0.172 -0.1678 -0.2288 -1.8058
  244MPD1     N 3761   3.922   1.533  17.656  0.4190 -0.4238  0.2452
  244MPD1    H5 3762   3.933   1.448  17.602 -2.1263 -0.9011  0.4735
  244MPD1    N1 3763   4.324   1.381   0.124  0.0707 -0.4649  0.1603
  244MPD1    H6 3764   4.332   1.328   0.037  1.5941  2.3580 -1.3924
  244MPD1    H7 3765   4.416   1.419   0.142  0.2055 -0.2005 -1.1034
  245MPD1     C 3766   0.858   2.393  13.110 -0.8631 -0.4289 -0.7652
  245MPD1    C1 3767   0.895   2.388  13.239 -0.1774  0.5197  0.8555
  245MPD1    C2 3768   0.934   2.505  13.302 -0.5910  0.3348  0.3443
  245MPD1    C3 3769   0.936   2.625  13.243  0.1537 -0.2161 -0.5067
  245MPD1    C4 3770   0.904   2.630  13.103 -0.8880 -0.4486  0.4473
  245MPD1    C5 3771   0.861   2.515  13.045  0.3117  0.6880 -0.6299
  245MPD1     H 3772   0.971   2.491  13.403 -0.9507 -1.9419  0.1620
  245MPD1    H1 3773   0.895   2.716  13.039  0.2583 -0.7873 -0.1512
  245MPD1    H2 3774   0.820   2.306  13.057 -0.7272 -0.2525 -1.1495
  245MPD1    H3 3775   0.834   2.533  12.942  1.5180 -0.6655 -1.1769
  245MPD1     N 3776   0.981   2.740  13.315  0.3292  0.6144  0.2247
  245MPD1    H5 3777   1.009   2.732  13.412  0.5766 -0.7849  0.0338
  245MPD1    N1 3778   0.912   2.267  13.303  0.4416 -0.3107 -0.3074
  245MPD1    H6 3779   0.847   2.194  13.277 -0.6279  0.4994  0.0977
  245MPD1    H7 3780   0.925   2.279  13.404  1.7516 -1.6803 -0.2967
  246MPD1     C 3781   2.513   2.640  10.365  0.2088 -0.5167 -0.8702
  246MPD1    C1 3782   2.389   2.675  10.312 -0.5120 -0.2991 -0.5731
  246MPD1    C2 3783   2.350   2.804  10.347  0.4422  0.4063  0.0815
  246MPD1    C3 3784   2.419   2.894  10.433  0.3867 -0.4223  0.1327
  246MPD1    C4 3785   2.529   2.842  10.494  0.5521 -0.2014  0.2649
  246MPD1    C5 3786   2.581   2.723  10.451 -0.3560  0.8475 -0.4213
  246MPD1     H 3787   2.258   2.850  10.314 -0.5564 -0.7046  1.3458
  246MPD1    H1 3788   2.589   2.901  10.562  1.1352 -2.1513  1.4477
  246MPD1    H2 3789   2.562   2.546  10.341 -0.6447 -0.4975 -2.6537
  246MPD1    H3 3790   2.676   2.691  10.493  0.2156  3.3973  0.2727
  246MPD1     N 3791   2.372   3.030  10.449  0.7226  0.2140  0.8052
  246MPD1    H5 3792   2.289   3.052  10.395  0.2063 -0.5551  1.2800
  246MPD1    N1 3793   2.304   2.578  10.247  0.4506 -0.1997 -0.0312
  246MPD1    H6 3794   2.235   2.616  10.182  1.0331  0.3486 -0.3382
  246MPD1    H7 3795   2.351   2.494  10.215  1.1092  0.4626 -0.8260
  247MPD1     C 3796   0.029   1.813  16.966  0.5938  0.2510 -0.0135
  247MPD1    C1 3797   0.058   1.777  16.837  0.3067 -0.1279  0.1470
  247MPD1    C2 3798   0.116   1.875  16.754 -0.8007 -0.2478 -0.2752
  247MPD1    C3 3799   0.116   2.003  16.801 -0.7993 -1.0129 -0.0137
  247MPD1    C4 3800   0.096   2.034  16.934  0.2001 -0.5875 -0.7786
  247MPD1    C5 3801   0.045   1.944  17.011 -0.1608 -0.3919 -0.6211
  247MPD1     H 3802   0.144   1.863  16.650 -2.1292 -2.3016 -0.3832
  247MPD1    H1 3803   0.104   2.136  16.970  1.0295 -1.3305  1.1190
  247MPD1    H2 3804   4.729   1.749  17.045  2.3041  1.0310  1.4041
  247MPD1    H3 3805   0.020   1.971  17.113 -0.5615  0.5704 -0.9663
  247MPD1     N 3806   0.178   2.104  16.711 -0.3890  0.2005 -0.2461
  247MPD1    H5 3807   0.194   2.185  16.770 -0.2947 -1.3713  1.8924
  247MPD1    N1 3808   0.053   1.642  16.799  0.3043  0.7880 -0.4256
  247MPD1    H6 3809   0.038   1.638  16.698 -0.0113  0.5437 -0.3671
  247MPD1    H7 3810   4.712   1.590  16.836 -0.5184  1.0930 -1.7369
  248MPD1     C 3811   0.879   1.224   0.340  0.2446 -0.5397  0.3131
  248MPD1    C1 3812   0.760   1.213   0.406 -0.3056  0.3877  0.2046
  248MPD1    C2 3813   0.673   1.321   0.406  0.2808  0.2020  0.1014
  248MPD1    C3 3814   0.705   1.439   0.331  0.1495 -0.1493  0.0576
  248MPD1    C4 3815   0.817   1.438   0.258 -0.2527  0.5819  1.0229
  248MPD1    C5 3816   0.905   1.335   0.259  0.2776  0.2438  0.2195
  248MPD1     H 3817   0.589   1.327   0.475  2.6273 -0.5460  3.0281
  248MPD1    H1 3818   0.846   1.525   0.199 -2.4390 -0.9000 -2.2635
  248MPD1    H2 3819   0.951   1.143   0.344  0.2701 -0.3921  3.2068
  248MPD1    H3 3820   0.991   1.338   0.193 -0.2258  0.1356 -0.4472
  248MPD1     N 3821   0.617   1.545   0.339 -0.1070 -0.0359  0.4518
  248MPD1    H5 3822   0.536   1.532   0.399  0.6716 -0.8444  1.3261
  248MPD1    N1 3823   0.729   1.088   0.460 -0.3485  0.6063  0.0060
  248MPD1    H6 3824   0.806   1.021   0.464  0.3363  1.2832 -2.0118
  248MPD1    H7 3825   0.686   1.097   0.552 -1.1170  0.6867 -0.3551
  249MPD1     C 3826   3.098   0.599  10.176 -0.2394  0.3121  0.4977
  249MPD1    C1 3827   3.011   0.690  10.235  0.0737  0.1118  0.1217
  249MPD1    C2 3828   2.887   0.633  10.261 -0.0015  0.5602 -0.3124
  249MPD1    C3 3829   2.857   0.501  10.238 -0.1877  0.2838  0.5425
  249MPD1    C4 3830   2.950   0.422  10.184 -0.1760 -0.0905  0.3052
  249MPD1    C5 3831   3.071   0.470  10.150  0.0814  0.7659 -0.5062
  249MPD1     H 3832   2.812   0.698  10.304 -0.3915 -0.1786  0.1216
  249MPD1    H1 3833   2.944   0.314  10.179 -2.4659  0.0283  0.6654
  249MPD1    H2 3834   3.185   0.646  10.134 -1.1665  0.2156 -1.5127
  249MPD1    H3 3835   3.143   0.411  10.095  0.8315  0.9376  0.2911
  249MPD1     N 3836   2.732   0.457  10.271 -0.3697 -0.1927  0.5279
  249MPD1    H5 3837   2.673   0.519  10.326  0.9687  1.7178 -0.2018
  249MPD1    N1 3838   3.030   0.825  10.235 -0.2455  0.8031 -0.1023
  249MPD1    H6 3839   2.975   0.874  10.304 -1.1839  0.6200 -0.7248
  249MPD1    H7 3840   3.130   0.837  10.252 -0.4378  3.8296 -1.0183
  250MPD2     C 3841   3.287   0.949  13.035  0.0250  0.0175  0.2933
  250MPD2    C1 3842   3.353   1.001  12.925 -0.1853 -0.4681  0.1875
  250MPD2    C2 3843   3.338   0.929  12.806 -0.8933 -0.8858  0.2754
  250MPD2    C3 3844   3.261   0.808  12.799 -0.3835  0.5686 -0.5147
  250MPD2    C4 3845   3.203   0.755  12.917  0.0163 -0.3793  0.2867
  250MPD2    C5 3846   3.227   0.821  13.030 -0.2669 -0.0674  0.1347
  250MPD2     H 3847   3.395   0.967  12.722  1.2129 -0.9048  1.6843
  250MPD2    H1 3848   3.144   0.664  12.922  0.2048 -0.4513  1.1822
  250MPD2    H2 3849   3.300   0.997  13.131 -1.3886  1.1207 -0.0612
  250MPD2    H3 3850   3.181   0.774  13.116  0.3648  1.0926  1.0957
  250MPD2     N 3851   3.261   0.733  12.675 -0.0623 -0.0325 -0.3841
  250MPD2    H5 3852   3.249   0.633  12.690  2.1129 -0.4943 -1.7017
  250MPD2    N1 3853   3.446   1.113  12.948  0.4240  0.1559 -0.4563
  250MPD2    H7 3854   3.461   1.157  13.038  1.7943 -0.9736 -0.1347
  251TMC3    C1 3855   3.625   1.257  12.890  0.1752  0.4595  0.6448
  251TMC3    C2 3856   3.622   1.319  13.014 -0.1552 -0.3648 -0.0622
  251TMC3    C3 3857   3.733   1.375  13.056 -0.8913 -0.2640 -0.1539
  251TMC3    C4 3858   3.742   1.263  12.814 -0.1973 -0.2009  0.2729
  251TMC3    C5 3859   3.855   1.315  12.863  0.8444  0.0803  0.2909
  251TMC3    C6 3860   3.857   1.371  12.992 -0.0322 -0.6897 -0.1627
  251TMC3     C 3861   3.524   1.162  12.847 -1.3669  0.6480  0.2909
  251TMC3     O 3862   3.541   1.115  12.738  0.0963  0.2383  0.0646
  251TMC3     H 3863   3.530   1.327  13.071  0.6552  0.1204  1.1752
  251TMC3    H1 3864   3.742   1.212  12.719 -1.3373 -0.0523  0.1871
  251TMC3    H2 3865   3.947   1.413  13.035 -1.0377  0.0834  1.1950
  251TMC3    C7 3866   3.983   1.300  12.793 -0.5866 -0.3152 -0.5406
  251TMC3    C8 3867   3.709   1.452  13.175  0.3535 -0.2511  0.3111
  251TMC3    O1 3868   4.085   1.316  12.861 -0.0093 -0.0626  0.1361
  251TMC3    O2 3869   3.597   1.497  13.202 -0.0890 -0.1474 -0.2237
  252TMC3    C1 3870   3.657   2.996   9.217 -0.0081  0.3771 -0.5085
  252TMC3    C2 3871   3.757   2.905   9.186  0.1925  0.0038 -0.1879
  252TMC3    C3 3872   3.764   2.786   9.257 -0.5824  0.4528 -0.4240
  252TMC3    C4 3873   3.566   2.966   9.309 -0.3503  0.3352 -0.4112
  252TMC3    C5 3874   3.574   2.849   9.374  0.3537  0.2793 -0.2563
  252TMC3    C6 3875   3.672   2.758   9.354  0.3488 -0.3794 -0.0806
  252TMC3     C 3876   3.629   3.100   9.113  0.0522 -0.2662 -0.3678
  252TMC3     O 3877   3.649   3.070   8.995  0.1949 -0.0295  0.0629
  252TMC3     H 3878   3.831   2.929   9.110  0.5011  1.0973  0.4572
  252TMC3    H1 3879   3.493   3.036   9.347 -1.4809 -0.9346 -0.2587
  252TMC3    H2 3880   3.671   2.656   9.391  1.6528  0.9108  3.5745
  252TMC3    C7 3881   3.460   2.809   9.453 -0.1263 -0.0758  0.8895
  252TMC3    C8 3882   3.885   2.716   9.252  0.0538 -0.3805 -0.0504
  252TMC3    O1 3883   3.347   2.846   9.417 -0.1322  0.1963 -0.2340
  252TMC3    O2 3884   3.947   2.716   9.147  0.1775  0.0954  0.4662
  253MPD2     C 3885   0.698   1.086  15.339 -0.1192 -0.4501 -0.0796
  253MPD2    C1 3886   0.562   1.070  15.345 -0.4347 -0.0300  0.0760
  253MPD2    C2 3887   0.508   1.078  15.470 -0.2995 -0.7051  0.3383
  253MPD2    C3 3888   0.578   1.112  15.585 -0.3120  0.7042 -0.1104
  253MPD2    C4 3889   0.711   1.148  15.571  0.2071 -0.1514 -0.1842
  253MPD2    C5 3890   0.772   1.137  15.447 -0.1179 -0.0150 -0.5417
  253MPD2     H 3891   0.402   1.053  15.473 -0.1372 -1.3198  0.8388
  253MPD2    H1 3892   0.769   1.181  15.657  0.8160  0.6237 -0.8943
  253MPD2    H2 3893   0.747   1.074  15.243  0.2102 -0.6146  0.1106
  253MPD2    H3 3894   0.877   1.162  15.445  0.1957 -1.0614  3.0681
  253MPD2     N 3895   0.521   1.122  15.714  0.0226 -0.5932  0.4315
  253MPD2    H5 3896   0.580   1.146  15.793 -0.2596 -0.1125  0.4938
  253MPD2    N1 3897   0.481   1.035  15.232  0.5918 -0.0109 -0.4718
  253MPD2    H7 3898   0.387   1.003  15.256 -0.3166  1.0677 -2.5346
  254TMC3    C1 3899   0.360   1.144  15.876 -0.2274  0.8813  0.4375
  254TMC3    C2 3900   0.228   1.168  15.913  0.5461  1.1682 -0.0736
  254TMC3    C3 3901   0.205   1.177  16.050 -0.5345  0.2573  0.1598
  254TMC3    C4 3902   0.458   1.110  15.970 -0.0338 -0.3528  0.1145
  254TMC3    C5 3903   0.423   1.126  16.103 -0.3017  0.1654 -0.5051
  254TMC3    C6 3904   0.296   1.156  16.149 -0.2757 -0.0218  0.4154
  254TMC3     C 3905   0.387   1.142  15.733  0.1135  0.7709  0.0988
  254TMC3     O 3906   0.294   1.132  15.654  0.0094  0.0942 -0.3833
  254TMC3     H 3907   0.157   1.192  15.834  1.6164  0.1943 -1.3430
  254TMC3    H1 3908   0.555   1.063  15.955  1.2191  2.0697  0.5733
  254TMC3    H2 3909   0.280   1.150  16.256  0.5771  1.2527  0.6162
  254TMC3    C7 3910   0.517   1.074  16.206 -0.3096 -0.6516 -0.2842
  254TMC3    C8 3911   0.074   1.227  16.110  0.2611 -0.6676 -0.2243
  254TMC3    O1 3912   0.468   1.000  16.292 -0.5769 -0.7410 -0.1349
  254TMC3    O2 3913   0.069   1.244  16.234 -0.0522  0.4546 -0.4174
  255MPD2     C 3914   3.204   3.086  10.629  0.4329 -0.1583  0.7997
  255MPD2    C1 3915   3.243   3.213  10.589 -1.2803 -0.7026 -0.1489
  255MPD2    C2 3916   3.326   3.230  10.483 -0.4526 -0.4380 -0.0546
  255MPD2    C3 3917   3.371   3.122  10.407 -0.6872  1.3159 -0.0271
  255MPD2    C4 3918   3.335   2.994  10.450  1.3604 -0.7555  0.3777
  255MPD2    C5 3919   3.264   2.978  10.564 -0.5954 -0.8551 -0.3198
  255MPD2     H 3920   3.361   3.329  10.458  2.2749 -1.0132  1.4393
  255MPD2    H1 3921   3.375   2.903  10.406  0.4613 -0.5235 -0.9049
  255MPD2    H2 3922   3.128   3.070  10.705 -0.6572  0.9937 -0.0381
  255MPD2    H3 3923   3.234   2.877  10.587 -0.0929 -0.5879  1.4918
  255MPD2     N 3924   3.462   3.157  10.310 -0.4172  0.2273  0.3429
  255MPD2    H5 3925   3.469   3.258  10.300 -0.4783  0.2608  0.6560
  255MPD2    N1 3926   3.199   3.327  10.663  0.7632  0.1647 -0.1146
  255MPD2    H7 3927   3.147   3.300  10.746  0.8347  0.5631  0.0588
  256TMC3    C1 3928   3.167   3.551  10.740  0.4601  0.1368 -0.8418
  256TMC3    C2 3929   3.253   3.651  10.767  0.7770 -0.4390  0.0406
  256TMC3    C3 3930   3.204   3.777  10.756  0.1806 -0.0283 -0.1308
  256TMC3    C4 3931   3.030   3.572  10.721 -0.4235  0.4486  0.6470
  256TMC3    C5 3932   2.997   3.699  10.692  0.2930  0.2483 -0.2735
  256TMC3    C6 3933   3.076   3.803  10.715  0.1936 -0.5602 -0.1370
  256TMC3     C 3934   3.235   3.461  10.648 -0.5984  0.2119 -0.0896
  256TMC3     O 3935   3.309   3.514  10.566  0.2773 -0.0245  0.4704
  256TMC3     H 3936   3.352   3.625  10.802  0.9957 -0.4774 -0.6033
  256TMC3    H1 3937   2.968   3.487  10.695  1.3303 -0.9201  0.9229
  256TMC3    H2 3938   3.052   3.906  10.690  0.2169 -0.3616  0.6468
  256TMC3    C7 3939   2.937   3.703  10.558 -0.5014  0.4952 -1.0341
  256TMC3    C8 3940   3.281   3.880  10.693 -0.0660  0.6695 -0.4021
  256TMC3    O1 3941   2.938   3.596  10.498  0.7314 -0.0115 -0.2889
  256TMC3    O2 3942   3.262   3.995  10.730  1.2166  0.2323  0.1678
  257MPD2     C 3943   2.254   0.965  13.293 -0.0009  0.0244 -0.2741
  257MPD2    C1 3944   2.353   0.946  13.204  0.5159 -1.6440  0.4338
  257MPD2    C2 3945   2.434   0.830  13.216 -1.5632 -0.2749 -0.2750
  257MPD2    C3 3946   2.401   0.733  13.310 -0.5332  0.1292 -0.0207
  257MPD2    C4 3947   2.287   0.743  13.383 -0.0019 -0.1771  0.2877
  257MPD2    C5 3948   2.212   0.863  13.380  0.6786 -0.0749 -0.4579
  257MPD2     H 3949   2.530   0.825  13.167 -1.6752  0.9874 -0.6260
  257MPD2    H1 3950   2.276   0.669  13.462 -0.2932 -0.4189  0.0193
  257MPD2    H2 3951   2.194   1.055  13.292  1.2897  0.8887 -0.0912
  257MPD2    H3 3952   2.127   0.880  13.444 -0.8154 -0.5097 -2.3308
  257MPD2     N 3953   2.497   0.636  13.332 -0.1403 -0.4569  0.6560
  257MPD2    H5 3954   2.557   0.614  13.253 -1.1783  1.1565 -0.5858
  257MPD2    N1 3955   2.374   1.055  13.113  0.1512  0.1726 -0.5058
  257MPD2    H7 3956   2.308   1.132  13.120  0.4661  0.3742  0.2999
  258TMC3    C1 3957   2.604   0.449  13.434  0.3101  0.6412 -0.0486
  258TMC3    C2 3958   2.608   0.390  13.310 -0.4763  0.4498 -0.1318
  258TMC3    C3 3959   2.665   0.268  13.303 -0.1674 -0.6233 -0.6930
  258TMC3    C4 3960   2.648   0.392  13.549  1.3888  0.0431 -0.3876
  258TMC3    C5 3961   2.700   0.269  13.539  1.1472  0.5925  0.8914
  258TMC3    C6 3962   2.704   0.205  13.420 -0.1870 -0.3634 -0.0071
  258TMC3     C 3963   2.507   0.561  13.450 -0.6843  0.0299 -0.3630
  258TMC3     O 3964   2.452   0.571  13.559 -0.2728 -0.0459  0.1699
  258TMC3     H 3965   2.566   0.433  13.220 -0.0929  1.3604  0.1296
  258TMC3    H1 3966   2.657   0.449  13.641 -0.4699 -0.6796  0.2502
  258TMC3    H2 3967   2.769   0.119  13.414 -0.8414 -0.7613 -1.6301
  258TMC3    C7 3968   2.752   0.198  13.656  0.0803 -0.1710 -0.5672
  258TMC3    C8 3969   2.667   0.189  13.176 -0.2296  0.7002 -0.8695
  258TMC3    O1 3970   2.835   0.109  13.645 -0.0736 -0.9776 -0.0813
  258TMC3    O2 3971   2.661   0.066  13.173 -0.1970  0.6771 -0.4233
  259MPD2     C 3972   1.444   2.810   0.441 -0.2860 -0.0186  0.1652
  259MPD2    C1 3973   1.540   2.714   0.411 -0.1321  0.3467  0.0835
  259MPD2    C2 3974   1.562   2.694   0.274  0.3951 -0.5656 -0.6040
  259MPD2    C3 3975   1.497   2.752   0.169  1.0164 -0.3884 -0.2581
  259MPD2    C4 3976   1.406   2.849   0.202 -0.0595 -0.7869 -0.4121
  259MPD2    C5 3977   1.378   2.867   0.335  0.1345  0.0192  0.0359
  259MPD2     H 3978   1.635   2.621   0.240  1.6935  0.3369  0.2454
  259MPD2    H1 3979   1.342   2.900   0.131  0.2921 -1.5445 -1.2721
  259MPD2    H2 3980   1.424   2.842   0.543 -2.2884 -0.3271 -0.1483
  259MPD2    H3 3981   1.303   2.943   0.353 -1.1110 -0.8598 -1.4780
  259MPD2     N 3982   1.527   2.704   0.042 -0.3099  0.6996 -0.1572
  259MPD2    H5 3983   1.599   2.633   0.037  0.2209  1.1747  0.6187
  259MPD2    N1 3984   1.622   2.646   0.514  0.1101 -0.1148 -0.1664
  259MPD2    H7 3985   1.589   2.659   0.609 -0.0395 -0.5197 -0.1659
  260TMC3    C1 3986   1.507   2.624  17.570  0.1181  0.1466  0.6784
  260TMC3    C2 3987   1.636   2.648  17.531 -0.1610 -0.2287  0.5363
  260TMC3    C3 3988   1.701   2.547  17.471  0.2778  0.2841 -0.3869
  260TMC3    C4 3989   1.444   2.506  17.553  0.3197 -0.2531 -1.0955
  260TMC3    C5 3990   1.515   2.398  17.495 -0.2053  0.3051  0.5596
  260TMC3    C6 3991   1.640   2.426  17.451 -0.2470  0.1566 -0.1425
  260TMC3     C 3992   1.452   2.719  17.673  0.9285 -0.0694  0.3032
  260TMC3     O 3993   1.347   2.777  17.655  0.7544  0.0538 -0.0966
  260TMC3     H 3994   1.679   2.748  17.537 -1.9794  0.3742  3.3286
  260TMC3    H1 3995   1.346   2.499  17.598  0.6609  1.6567 -0.0593
  260TMC3    H2 3996   1.700   2.347  17.409  1.3469  0.7482  1.0209
  260TMC3    C7 3997   1.495   2.264  17.536 -0.9640  0.5041  0.2889
  260TMC3    C8 3998   1.845   2.548  17.465 -0.1858 -0.0181  0.1998
  260TMC3    O1 3999   1.562   2.182  17.481 -0.0941  0.1462 -0.2143
  260TMC3    O2 4000   1.899   2.453  17.413 -0.3081 -0.2866 -0.2285
  261MPD2     C 4001   3.307   0.682  11.823  0.9420  0.2989 -0.4249
  261MPD2    C1 4002   3.393   0.742  11.920 -0.5916  0.0708  0.0928
  261MPD2    C2 4003   3.471   0.849  11.876  0.5800  0.9491  0.3128
  261MPD2    C3 4004   3.469   0.902  11.749 -0.1922  0.7450 -0.7763
  261MPD2    C4 4005   3.390   0.839  11.658 -0.5903  1.0174  0.1567
  261MPD2    C5 4006   3.311   0.731  11.696 -0.2321 -0.3897  0.1650
  261MPD2     H 4007   3.533   0.894  11.953 -1.3274  0.2689  2.2703
  261MPD2    H1 4008   3.387   0.889  11.562 -0.1128  0.4829 -0.1336
  261MPD2    H2 4009   3.242   0.596  11.837  2.2729 -0.6609 -0.0785
  261MPD2    H3 4010   3.246   0.693  11.617 -1.0495 -0.4570  0.8652
  261MPD2     N 4011   3.557   1.004  11.717 -0.0524  0.5855  0.2744
  261MPD2    H5 4012   3.581   1.064  11.796  0.5164  2.0469 -1.0056
  261MPD2    N1 4013   3.402   0.697  12.053  0.2255  0.3621  0.9185
  261MPD2    H7 4014   3.475   0.733  12.113  0.0114 -1.4783  2.3012
  262TMC3    C1 4015   3.673   1.178  11.597  0.2485 -0.1049 -0.2915
  262TMC3    C2 4016   3.642   1.284  11.686 -0.0751 -0.0798  0.1625
  262TMC3    C3 4017   3.700   1.406  11.678  0.5898 -0.0539 -0.5563
  262TMC3    C4 4018   3.751   1.203  11.491 -0.2735  0.3266 -0.0448
  262TMC3    C5 4019   3.814   1.325  11.493 -0.3540  0.2831  0.3319
  262TMC3    C6 4020   3.791   1.426  11.583  0.2932 -0.3204  0.5374
  262TMC3     C 4021   3.598   1.053  11.594 -0.5861  0.2722 -0.7954
  262TMC3     O 4022   3.571   0.999  11.489 -0.1469  0.1257 -0.6260
  262TMC3     H 4023   3.575   1.257  11.767  0.0938 -0.3211  0.2207
  262TMC3    H1 4024   3.777   1.122  11.424 -2.6981 -0.7107  0.2604
  262TMC3    H2 4025   3.840   1.522  11.574  0.0667 -0.4751 -2.5264
  262TMC3    C7 4026   3.932   1.336  11.415 -0.4051 -0.2965 -0.3312
  262TMC3    C8 4027   3.635   1.530  11.726 -0.4731 -0.4859 -0.0242
  262TMC3    O1 4028   3.921   1.289  11.300 -0.1078  0.5582 -0.1205
  262TMC3    O2 4029   3.705   1.630  11.728 -0.1068 -0.0417 -0.9570
  263MPD2     C 4030   4.344   0.028  11.490  0.0530  0.0502  0.0308
  263MPD2    C1 4031   4.431   0.119  11.548 -0.3744 -0.4339  0.8386
  263MPD2    C2 4032   4.474   0.230  11.471 -0.1932  0.7114  0.2482
  263MPD2    C3 4033   4.435   0.244  11.341 -0.4040  0.1365 -0.1911
  263MPD2    C4 4034   4.339   0.159  11.289  0.3148  0.1618  0.1049
  263MPD2    C5 4035   4.294   0.057  11.366 -0.1450  0.3090  0.1316
  263MPD2     H 4036   4.544   0.301  11.511 -0.8855  1.7521 -0.3869
  263MPD2    H1 4037   4.298   0.159  11.188  2.2443 -1.7577 -0.6715
  263MPD2    H2 4038   4.302   4.686  11.551 -0.6299 -1.6706 -2.6618
  263MPD2    H3 4039   4.218   4.731  11.322  1.1952 -0.3219 -1.2816
  263MPD2     N 4040   4.491   0.354  11.270  0.1903  0.5573  0.0772
  263MPD2    H5 4041   4.566   0.409  11.311  2.8608 -1.4105 -2.1971
  263MPD2    N1 4042   4.482   0.092  11.679 -0.7177 -0.4441 -0.1843
  263MPD2    H7 4043   4.450   0.006  11.721 -0.0048  0.1359  1.5345
  264TMC3    C1 4044   4.542   0.488  11.081 -0.6589  0.1848 -0.1439
  264TMC3    C2 4045   4.505   0.535  10.964 -0.3581 -0.6123 -0.4833
  264TMC3    C3 4046   4.597   0.604  10.892 -0.1155  0.2799  0.9841
  264TMC3    C4 4047   4.677   0.485  11.119  0.4290  1.0513  0.0271
  264TMC3    C5 4048   0.036   0.530  11.036 -0.4795  0.0635 -0.5627
  264TMC3    C6 4049   4.729   0.605  10.927 -0.0168 -0.3987 -0.5159
  264TMC3     C 4050   4.452   0.395  11.141  0.4704  0.0304 -0.1207
  264TMC3     O 4051   4.357   0.363  11.075  0.3285  0.0802 -0.0788
  264TMC3     H 4052   4.398   0.525  10.950 -0.1467 -2.6373 -0.5699
  264TMC3    H1 4053   4.713   0.426  11.202 -0.7208 -0.7619 -0.7471
  264TMC3    H2 4054   0.068   0.640  10.858 -0.4118  1.4551 -0.0007
  264TMC3    C7 4055   0.178   0.539  11.082 -0.2275  0.1201 -0.4437
  264TMC3    C8 4056   4.558   0.613  10.757  0.0218 -0.1331  0.8437
  264TMC3    O1 4057   0.199   0.502  11.200 -0.0261  0.4552  0.2418
  264TMC3    O2 4058   4.452   0.558  10.727 -0.0445 -0.3483  0.5652
  265MPD2     C 4059   1.560   0.507  15.386 -0.2874 -0.0884  0.0422
  265MPD2    C1 4060   1.694   0.545  15.379  0.2106 -0.2134  0.6841
  265MPD2    C2 4061   1.780   0.492  15.281 -0.2831  0.0096  0.8195
  265MPD2    C3 4062   1.726   0.401  15.185  0.0978 -0.1103  0.7295
  265MPD2    C4 4063   1.599   0.357  15.205 -0.0004 -0.0503 -0.0733
  265MPD2    C5 4064   1.523   0.405  15.303 -0.6823  0.6641  0.3250
  265MPD2     H 4065   1.886   0.516  15.288 -0.7221  1.5869  2.1315
  265MPD2    H1 4066   1.558   0.271  15.153  0.1549  0.9742 -1.9020
  265MPD2    H2 4067   1.490   0.557  15.451 -0.5563  2.4605 -2.1872
  265MPD2    H3 4068   1.426   0.357  15.309  0.5269 -1.9017 -0.8340
  265MPD2     N 4069   1.798   0.329  15.094  0.1002  0.0870  0.1678
  265MPD2    H5 4070   1.745   0.268  15.032  1.8589 -1.8038  0.5291
  265MPD2    N1 4071   1.745   0.634  15.467  0.2229 -0.3246  0.3190
  265MPD2    H7 4072   1.835   0.676  15.448 -1.1449  3.1887  1.5580
  266TMC3    C1 4073   1.744   0.757  15.666 -0.2242  0.0696  0.0057
  266TMC3    C2 4074   1.722   0.764  15.805  0.1595 -0.1215  0.3987
  266TMC3    C3 4075   1.728   0.883  15.878  0.3764  1.1164 -0.9707
  266TMC3    C4 4076   1.737   0.880  15.604 -0.7960  0.1873  0.6443
  266TMC3    C5 4077   1.759   0.992  15.676  0.1244  0.2773 -0.0116
  266TMC3    C6 4078   1.764   0.993  15.812 -0.1238  0.3974  0.0367
  266TMC3     C 4079   1.696   0.642  15.597  0.4477 -0.2108  0.6218
  266TMC3     O 4080   1.621   0.566  15.655 -0.2879  0.2975 -0.2551
  266TMC3     H 4081   1.692   0.673  15.854 -0.1511 -1.1103 -1.6420
  266TMC3    H1 4082   1.746   0.878  15.496  2.5463  0.4379  0.9175
  266TMC3    H2 4083   1.778   1.085  15.867  1.4443 -0.3620  0.9115
  266TMC3    C7 4084   1.765   1.110  15.596 -0.5178  0.4512 -1.2159
  266TMC3    C8 4085   1.786   0.856  16.011  0.9468 -0.5574  0.4142
  266TMC3    O1 4086   1.718   1.106  15.485 -0.4864 -0.3058  0.2553
  266TMC3    O2 4087   1.799   0.739  16.036  0.0086 -0.3320  0.0312
  267MPD2     C 4088   3.710   2.629   0.723  0.1864 -0.0090  0.6546
  267MPD2    C1 4089   3.833   2.677   0.714  0.1022 -0.1817 -0.4017
  267MPD2    C2 4090   3.863   2.758   0.603 -0.1975 -0.0799  0.2932
  267MPD2    C3 4091   3.762   2.799   0.514  0.7775  0.1911 -0.9774
  267MPD2    C4 4092   3.632   2.751   0.528  0.0900 -0.1774  0.2836
  267MPD2    C5 4093   3.616   2.660   0.632 -0.3665  0.0136 -0.3466
  267MPD2     H 4094   3.968   2.779   0.582 -0.3164  0.5306  0.3003
  267MPD2    H1 4095   3.546   2.779   0.468 -0.4231 -2.3177  0.0235
  267MPD2    H2 4096   3.681   2.584   0.817  0.8387 -2.3878 -0.2756
  267MPD2    H3 4097   3.515   2.636   0.664 -0.5520  1.3097  0.0449
  267MPD2     N 4098   3.793   2.863   0.392 -0.0869 -0.1055  0.0433
  267MPD2    H5 4099   3.710   2.892   0.341  0.7099 -1.2437 -1.9175
  267MPD2    N1 4100   3.921   2.636   0.812 -0.4609  0.5571  0.1742
  267MPD2    H7 4101   3.877   2.595   0.894 -0.5715 -2.5064 -1.4217
  268TMC3    C1 4102   4.133   2.580   0.911 -0.2264  0.4424 -0.4883
  268TMC3    C2 4103   4.271   2.581   0.884 -0.4636  0.3104 -0.3223
  268TMC3    C3 4104   4.340   2.461   0.899 -0.3912 -0.5123 -0.3176
  268TMC3    C4 4105   4.072   2.465   0.959  0.2418 -0.2007  0.2106
  268TMC3    C5 4106   4.152   2.355   0.971 -0.0286 -0.1141  0.0893
  268TMC3    C6 4107   4.287   2.350   0.948  0.5089  0.3517  0.0619
  268TMC3     C 4108   4.056   2.657   0.813  0.1107 -0.0317 -0.4689
  268TMC3     O 4109   4.126   2.722   0.734  0.4270 -0.1549 -0.0924
  268TMC3     H 4110   4.321   2.674   0.857  0.7058 -0.2115  0.0654
  268TMC3    H1 4111   3.968   2.455   0.985 -0.2605  1.9841 -0.9659
  268TMC3    H2 4112   4.346   2.260   0.946  1.8971  1.2898 -0.9065
  268TMC3    C7 4113   4.079   2.242   1.030  0.0667 -0.2752  0.2589
  268TMC3    C8 4114   4.459   2.443   0.820  0.0411 -0.1621 -0.0607
  268TMC3    O1 4115   3.958   2.237   1.029  0.1654 -0.3316  0.3421
  268TMC3    O2 4116   4.530   2.346   0.842 -0.0654  0.5223 -0.1079
  269MPD2     C 4117   4.290   1.045  15.744 -0.2853 -0.1902 -0.7118
  269MPD2    C1 4118   4.161   1.085  15.753 -0.1452 -0.3038 -0.0062
  269MPD2    C2 4119   4.129   1.221  15.761  0.1750 -0.3226 -0.2196
  269MPD2    C3 4120   4.217   1.316  15.736  0.3385 -0.2241  0.2554
  269MPD2    C4 4121   4.346   1.274  15.720 -0.2670 -0.3563 -0.5636
  269MPD2    C5 4122   4.381   1.139  15.722  0.0990  0.0643 -0.4184
  269MPD2     H 4123   4.027   1.252  15.781 -0.0012  1.1607 -3.4376
  269MPD2    H1 4124   4.428   1.342  15.701 -0.6919  0.3379  0.1107
  269MPD2    H2 4125   4.315   0.940  15.734  0.4395 -0.2580  1.8805
  269MPD2    H3 4126   4.486   1.126  15.701 -0.1752  0.5384 -2.1344
  269MPD2     N 4127   4.177   1.449  15.718  0.4212  0.3681  0.1024
  269MPD2    H5 4128   4.081   1.464  15.746  0.0747  0.8729 -1.3986
  269MPD2    N1 4129   4.071   0.979  15.763 -0.0649 -0.4191  0.4955
  269MPD2    H7 4130   4.114   0.887  15.772 -1.3416 -0.9916  0.7434
  270TMC3    C1 4131   3.853   0.872  15.799 -0.3240  0.1877 -0.3147
  270TMC3    C2 4132   3.726   0.871  15.745 -0.4695 -0.0896 -0.4678
  270TMC3    C3 4133   3.658   0.754  15.725  0.7843 -0.5376 -0.2907
  270TMC3    C4 4134   3.913   0.753  15.832  0.5448  0.3923 -0.0700
  270TMC3    C5 4135   3.839   0.641  15.828 -0.0518 -0.1150 -0.6686
  270TMC3    C6 4136   3.712   0.638  15.779 -0.8448  0.2394 -0.5214
  270TMC3     C 4137   3.929   0.993  15.789  0.2201  0.1307  0.6475
  270TMC3     O 4138   3.870   1.094  15.761  0.8338 -0.5958  0.3008
  270TMC3     H 4139   3.698   0.960  15.689  2.7646  1.6521  0.7048
  270TMC3    H1 4140   4.006   0.745  15.887  0.6593  1.1879 -0.1408
  270TMC3    H2 4141   3.654   0.547  15.778 -0.3939 -0.0715  1.4905
  270TMC3    C7 4142   3.918   0.518  15.820  0.1976  0.2104  0.0320
  270TMC3    C8 4143   3.597   0.748  15.590 -0.1081  0.0462 -0.4668
  270TMC3    O1 4144   4.035   0.533  15.791 -0.4906  0.0098  0.2671
  270TMC3    O2 4145   3.638   0.834  15.509 -0.1503 -0.1028 -0.0251
  271MPD2     C 4146   3.405   0.623  13.974 -0.1921  0.2388 -0.1845
  271MPD2    C1 4147   3.354   0.647  14.105 -0.7887  0.5084  1.1220
  271MPD2    C2 4148   3.237   0.713  14.117 -0.6983 -0.3601 -0.5591
  271MPD2    C3 4149   3.171   0.762  14.003 -0.0134  0.0185 -0.2671
  271MPD2    C4 4150   3.241   0.767  13.885  0.7017  0.1902 -0.3310
  271MPD2    C5 4151   3.358   0.695  13.867 -0.1574 -0.4021  0.2816
  271MPD2     H 4152   3.198   0.728  14.218  1.9499  0.0193  0.4024
  271MPD2    H1 4153   3.198   0.821  13.800  0.8507  0.3601 -0.2995
  271MPD2    H2 4154   3.500   0.575  13.956 -1.4210 -0.6098 -4.3495
  271MPD2    H3 4155   3.413   0.702  13.774  0.4777 -0.5482  0.6491
  271MPD2     N 4156   3.050   0.831  14.002  0.4762  0.1045 -0.6664
  271MPD2    H5 4157   3.022   0.861  13.909  1.4705  0.8699 -0.7207
  271MPD2    N1 4158   3.419   0.613  14.226  1.0334  0.5652 -0.4124
  271MPD2    H7 4159   3.363   0.614  14.311 -0.0403  1.2112 -1.1261
  272TMC3    C1 4160   3.583   0.545  14.372  0.5467  0.1687  0.9854
  272TMC3    C2 4161   3.711   0.502  14.395  0.1733 -0.6324 -0.3849
  272TMC3    C3 4162   3.775   0.527  14.512  0.0493  0.0178 -0.0782
  272TMC3    C4 4163   3.529   0.635  14.467 -0.0037  0.1804 -0.0604
  272TMC3    C5 4164   3.598   0.669  14.579  0.1863  0.1216  0.4956
  272TMC3    C6 4165   3.721   0.611  14.608  0.1508 -0.5153  0.2542
  272TMC3     C 4166   3.539   0.549  14.237 -0.6388  0.2894 -0.1186
  272TMC3     O 4167   3.615   0.508  14.153  0.0596 -0.2434  0.0008
  272TMC3     H 4168   3.755   0.430  14.328  0.1994 -1.2101  0.2554
  272TMC3    H1 4169   3.427   0.672  14.456  0.8537  2.2682 -0.9483
  272TMC3    H2 4170   3.766   0.616  14.707 -0.1460 -1.9677  0.4702
  272TMC3    C7 4171   3.515   0.690  14.698 -0.1281 -0.3931 -0.4021
  272TMC3    C8 4172   3.907   0.468  14.521  0.3598  0.3863  0.1009
  272TMC3    O1 4173   3.399   0.649  14.704 -0.6693  0.4512 -0.4403
  272TMC3    O2 4174   3.975   0.443  14.422  0.1363 -0.3014  0.5254
  273MPD2     C 4175   0.622   3.436  12.240  0.2766 -0.3166 -0.0450
  273MPD2    C1 4176   0.612   3.568  12.235  0.9914 -0.5052  0.3274
  273MPD2    C2 4177   0.543   3.630  12.129 -0.1220  0.4903 -0.6432
  273MPD2    C3 4178   0.488   3.561  12.024 -0.0140  0.7778 -0.2477
  273MPD2    C4 4179   0.503   3.424  12.029 -0.6694  0.2959  1.1016
  273MPD2    C5 4180   0.574   3.362  12.131  0.3019 -0.5748  0.2247
  273MPD2     H 4181   0.546   3.738  12.123 -2.3460  0.5456 -0.8765
  273MPD2    H1 4182   0.465   3.363  11.948  0.1876  1.1563  0.0491
  273MPD2    H2 4183   0.667   3.381  12.322 -1.2056 -0.5024  0.6307
  273MPD2    H3 4184   0.576   3.254  12.130 -1.4803 -0.6018 -1.5015
  273MPD2     N 4185   0.429   3.632  11.920  0.0705 -0.2222  0.2209
  273MPD2    H5 4186   0.418   3.732  11.932  3.7255  0.0424  1.4061
  273MPD2    N1 4187   0.643   3.642  12.352 -0.0018 -0.0921 -0.4766
  273MPD2    H7 4188   0.700   3.594  12.421  0.4376  1.0771 -0.0209
  274TMC3    C1 4189   0.297   3.678  11.729  0.1203  0.1682  0.4029
  274TMC3    C2 4190   0.284   3.652  11.591 -0.0874 -0.1602 -0.7546
  274TMC3    C3 4191   0.218   3.750  11.516 -0.1362 -0.2552 -0.1636
  274TMC3    C4 4192   0.250   3.786  11.798  0.0151 -0.8805 -0.5586
  274TMC3    C5 4193   0.194   3.881  11.719 -0.2665  0.1651  0.0838
  274TMC3    C6 4194   0.178   3.864  11.584  0.7771  0.5385 -0.3669
  274TMC3     C 4195   0.377   3.578  11.805 -0.5140 -0.0422  0.1965
  274TMC3     O 4196   0.406   3.473  11.753  0.5664  0.1746  0.4549
  274TMC3     H 4197   0.326   3.563  11.546  0.1482 -0.6357  0.3876
  274TMC3    H1 4198   0.255   3.795  11.906 -0.9049  0.6442 -0.6404
  274TMC3    H2 4199   0.107   3.928  11.533 -2.1998 -1.0437  1.7687
  274TMC3    C7 4200   0.161   4.010  11.782  0.4681 -0.0586 -0.0948
  274TMC3    C8 4201   0.132   3.713  11.410 -0.4032  0.3082  0.8171
  274TMC3    O1 4202   0.084   4.086  11.725  0.4480 -0.8100  0.4185
  274TMC3    O2 4203   0.024   3.773  11.411 -0.2018  0.1605  0.1977
  275MPD2     C 4204   0.442   1.591  14.753  0.9662  0.8621 -1.0615
  275MPD2    C1 4205   0.341   1.678  14.773 -0.2959 -0.3578  0.0219
  275MPD2    C2 4206   0.210   1.647  14.738  0.3797 -0.0009  0.2751
  275MPD2    C3 4207   0.183   1.525  14.665 -0.2356  0.9373 -0.1661
  275MPD2    C4 4208   0.285   1.437  14.648 -0.9188 -0.4090  0.3136
  275MPD2    C5 4209   0.415   1.466  14.697  0.5883 -0.1939  0.0152
  275MPD2     H 4210   0.138   1.714  14.784 -0.9696  0.9362 -3.2103
  275MPD2    H1 4211   0.272   1.344  14.593  0.6412  0.9962 -2.4460
  275MPD2    H2 4212   0.545   1.616  14.778  0.0505  2.3112  1.2830
  275MPD2    H3 4213   0.500   1.413  14.656  0.6976  1.9540 -2.5925
  275MPD2     N 4214   0.051   1.487  14.638 -0.2170  0.3510 -0.3974
  275MPD2    H5 4215   0.036   1.389  14.614 -0.2942  0.6124 -1.3801
  275MPD2    N1 4216   0.360   1.809  14.827  0.3112  0.7864 -0.6899
  275MPD2    H7 4217   0.278   1.869  14.832  0.4876  1.0742 -1.2914
  276TMC3    C1 4218   0.483   1.975  14.932  0.1668 -0.1728  0.3008
  276TMC3    C2 4219   0.360   1.991  14.993  0.2828  0.4154  0.2893
  276TMC3    C3 4220   0.343   2.016  15.123 -0.1741  0.2215  0.7849
  276TMC3    C4 4221   0.591   1.986  15.007 -0.0106  0.2486  0.4042
  276TMC3    C5 4222   0.577   2.004  15.143  0.1880 -0.5801  0.1949
  276TMC3    C6 4223   0.456   2.017  15.202  0.2683 -0.3746 -0.7084
  276TMC3     C 4224   0.482   1.851  14.866 -0.0620  0.0830 -0.5608
  276TMC3     O 4225   0.591   1.802  14.887 -0.4374  0.6061  1.0966
  276TMC3     H 4226   0.269   1.991  14.934 -0.8756  1.6899  2.0862
  276TMC3    H1 4227   0.692   1.973  14.969 -0.3106 -1.3588  0.1563
  276TMC3    H2 4228   0.446   2.028  15.310  1.0491 -0.9613 -0.5721
  276TMC3    C7 4229   0.686   2.065  15.219  0.4791 -0.0402  0.1639
  276TMC3    C8 4230   0.227   1.955  15.169 -0.3743  0.6999 -0.1419
  276TMC3    O1 4231   0.652   2.155  15.297 -0.1823  0.6236  0.4151
  276TMC3    O2 4232   0.125   2.023  15.173 -0.1181 -0.3574 -0.4604
  277MPD2     C 4233   1.829   0.920  13.685 -0.7499  0.5887  0.2002
  277MPD2    C1 4234   1.710   0.985  13.673 -0.7855 -0.3425 -0.5398
  277MPD2    C2 4235   1.593   0.918  13.691  0.2142  0.8055  0.3651
  277MPD2    C3 4236   1.589   0.784  13.726 -0.6978  0.5903 -0.3701
  277MPD2    C4 4237   1.706   0.718  13.747  0.0625  0.3044  0.3389
  277MPD2    C5 4238   1.820   0.791  13.726 -0.0988 -0.1592  0.5067
  277MPD2     H 4239   1.502   0.973  13.671 -1.0871 -1.5735 -0.3210
  277MPD2    H1 4240   1.714   0.611  13.764  3.0413  0.4487 -0.1468
  277MPD2    H2 4241   1.926   0.968  13.694  0.0932 -1.3022  1.2844
  277MPD2    H3 4242   1.917   0.743  13.736 -0.7527 -1.3477  1.2406
  277MPD2     N 4243   1.462   0.732  13.746 -0.0573  0.6102 -0.4846
  277MPD2    H5 4244   1.377   0.786  13.736 -1.0869 -0.8723  0.3574
  277MPD2    N1 4245   1.710   1.120  13.629 -0.8197 -0.7300 -0.0312
  277MPD2    H7 4246   1.787   1.151  13.571 -0.9075  0.8702  0.6910
  278TMC3    C1 4247   1.294   0.587  13.822  0.2444  0.6064 -0.2588
  278TMC3    C2 4248   1.268   0.456  13.847 -0.1890 -0.7864 -0.4353
  278TMC3    C3 4249   1.141   0.412  13.861  0.3302 -0.6568 -0.0426
  278TMC3    C4 4250   1.192   0.679  13.809 -0.3792  0.8302 -0.3014
  278TMC3    C5 4251   1.060   0.631  13.821 -0.0149  0.2185  0.1948
  278TMC3    C6 4252   1.035   0.500  13.849  0.3688 -1.0413  1.2363
  278TMC3     C 4253   1.437   0.609  13.799  0.4975 -0.8735  0.0914
  278TMC3     O 4254   1.516   0.523  13.837  0.0014  0.0123  0.5943
  278TMC3     H 4255   1.351   0.386  13.845 -1.1952 -1.9365 -1.4228
  278TMC3    H1 4256   1.213   0.783  13.790 -1.4929  1.3531  1.4105
  278TMC3    H2 4257   0.933   0.463  13.849  0.5644 -1.5701  0.3326
  278TMC3    C7 4258   0.944   0.720  13.780  0.5630  0.4253  0.0944
  278TMC3    C8 4259   1.127   0.270  13.880  0.5936 -0.3609  0.2871
  278TMC3    O1 4260   0.979   0.822  13.721 -0.0567  0.2415  0.8471
  278TMC3    O2 4261   1.224   0.212  13.924  0.0342  0.7472 -0.1355
  279MPD2     C 4262   0.797   0.133   0.063 -0.2281  0.7534  0.9325
  279MPD2    C1 4263   0.799   0.267   0.017 -0.0571 -0.1171 -0.9053
  279MPD2    C2 4264   0.913   0.346   0.033 -0.4510 -0.2281 -0.0557
  279MPD2    C3 4265   1.027   0.288   0.087  0.2332  0.0401  0.2063
  279MPD2    C4 4266   1.029   0.153   0.118 -0.3650 -0.2179  0.0016
  279MPD2    C5 4267   0.909   0.080   0.114 -0.5068  0.1921  0.1609
  279MPD2     H 4268   0.919   0.445  17.736 -1.4024  0.0990  0.5427
  279MPD2    H1 4269   1.123   0.112   0.154 -0.0610  0.4694 -0.0062
  279MPD2    H2 4270   0.708   0.072   0.059  0.4762 -0.1939 -0.8575
  279MPD2    H3 4271   0.915   4.713   0.143  0.6725  0.3313  0.4123
  279MPD2     N 4272   1.150   0.353   0.090  0.3773 -0.7811  0.4431
  279MPD2    H5 4273   1.234   0.306   0.122 -0.3016 -1.6604  0.9204
  279MPD2    N1 4274   0.692   0.317  17.690  0.7025  0.0346  0.1058
  279MPD2    H7 4275   0.618   0.251  17.669 -0.5246  1.4995 -0.2106
  280TMC3    C1 4276   0.646   0.447  17.497 -0.6963  0.1415 -0.5876
  280TMC3    C2 4277   0.704   0.349  17.424  0.4689  0.8054 -0.2890
  280TMC3    C3 4278   0.744   0.376  17.296 -0.0919  0.0859  1.1349
  280TMC3    C4 4279   0.635   0.570  17.456  0.1346  0.0971 -0.4983
  280TMC3    C5 4280   0.679   0.604  17.330 -0.3331  0.6875  0.6009
  280TMC3    C6 4281   0.727   0.503  17.249  0.4362  0.6594 -0.3414
  280TMC3     C 4282   0.687   0.445  17.639  0.2293 -0.0323  0.3788
  280TMC3     O 4283   0.730   0.550  17.684  0.4177  0.1313 -0.3181
  280TMC3     H 4284   0.727   0.252  17.467 -0.3488  1.1694  0.9582
  280TMC3    H1 4285   0.613   0.653  17.523 -2.6625 -2.0694  1.2727
  280TMC3    H2 4286   0.737   0.534  17.145  0.5798  1.3838 -0.1111
  280TMC3    C7 4287   0.717   0.744  17.298  0.5729 -0.7039  0.0654
  280TMC3    C8 4288   0.847   0.300  17.232  0.0367 -0.5596  0.0096
  280TMC3    O1 4289   0.797   0.759  17.205  0.7323  0.7496  0.2497
  280TMC3    O2 4290   0.921   0.360  17.155  0.1843 -0.1731 -0.7894
  281TMC3    C1 4291   4.666   0.852  12.823 -0.1125 -0.3694 -0.7195
  281TMC3    C2 4292   4.614   0.937  12.725 -0.3044 -0.3991  0.7642
  281TMC3    C3 4293   4.577   0.890  12.603 -0.2315  0.3189  0.2520
  281TMC3    C4 4294   4.680   0.717  12.797  0.0243  0.9481  0.3518
  281TMC3    C5 4295   4.647   0.672  12.666  0.0374  0.2097  0.7346
  281TMC3    C6 4296   4.603   0.757  12.566  0.7410 -0.3511  0.5307
  281TMC3     C 4297   4.674   0.897  12.965  0.6257 -0.6283 -0.2995
  281TMC3     O 4298   4.667   0.809  13.046 -0.6144  0.2012 -0.3073
  281TMC3     H 4299   4.600   1.041  12.753  1.0140  0.6093 -2.3106
  281TMC3    H1 4300   4.717   0.654  12.877  4.3302  0.8660 -1.6725
  281TMC3    H2 4301   4.555   0.717  12.477 -1.6854  0.7573  1.3313
  281TMC3    C7 4302   4.559   0.560  12.672  0.4353  0.4572  0.3520
  281TMC3    C8 4303   4.499   0.980  12.521  0.2129 -0.3573 -0.0192
  281TMC3    O1 4304   4.515   0.513  12.569  0.2074  0.4498 -0.3463
  281TMC3    O2 4305   4.504   0.958  12.404  0.1765  0.2344 -0.2685
  282MPD2     C 4306   1.871   2.297  15.511 -0.3548  0.0319  0.2058
  282MPD2    C1 4307   1.752   2.335  15.574 -0.0682 -1.0597 -0.2591
  282MPD2    C2 4308   1.644   2.374  15.493  0.4093  0.3262 -0.1175
  282MPD2    C3 4309   1.642   2.333  15.364 -0.0647  0.4142  0.3151
  282MPD2    C4 4310   1.763   2.300  15.299 -1.1135 -0.5431  0.3131
  282MPD2    C5 4311   1.872   2.281  15.371 -0.2699  0.0094 -0.6462
  282MPD2     H 4312   1.555   2.415  15.538 -1.1135 -1.9473 -1.0679
  282MPD2    H1 4313   1.778   2.300  15.192 -0.6431  0.0211  0.3793
  282MPD2    H2 4314   1.955   2.250  15.560  0.4463  0.8065 -0.4390
  282MPD2    H3 4315   1.961   2.256  15.315 -1.0704 -0.5552 -1.6546
  282MPD2     N 4316   1.523   2.350  15.285 -0.4114  0.7184 -0.1369
  282MPD2    H5 4317   1.440   2.375  15.337 -0.6609  0.2150 -0.2944
  282MPD2    N1 4318   1.739   2.342  15.721 -0.3553 -0.2141 -0.5274
  282MPD2    H7 4319   1.650   2.377  15.755 -0.6840  1.0329 -2.7181
  283TMC3    C1 4320   1.799   2.327  15.949 -0.0505 -0.8607  0.3495
  283TMC3    C2 4321   1.764   2.455  15.979 -0.0977 -0.5270  0.2339
  283TMC3    C3 4322   1.703   2.473  16.104  0.0007 -0.0046 -0.3579
  283TMC3    C4 4323   1.790   2.217  16.028  0.0774 -0.0937  0.5231
  283TMC3    C5 4324   1.727   2.229  16.150 -0.6253 -0.0129  0.5388
  283TMC3    C6 4325   1.692   2.364  16.191 -0.0419 -0.0854  0.0242
  283TMC3     C 4326   1.829   2.299  15.815 -0.2565  0.3703 -0.1011
  283TMC3     O 4327   1.934   2.242  15.800  0.8097  0.4345  0.1243
  283TMC3     H 4328   1.779   2.529  15.902  2.6096 -0.4495  0.8628
  283TMC3    H1 4329   1.816   2.118  15.991 -1.6802 -0.5848  0.6148
  283TMC3    H2 4330   1.651   2.375  16.291  0.2522  1.7841 -0.0525
  283TMC3    C7 4331   1.618   2.140  16.185  0.0156 -0.0824  1.0713
  283TMC3    C8 4332   1.612   2.588  16.122 -0.2114 -0.1356  0.3639
  283TMC3    O1 4333   1.565   2.138  16.293  0.1111 -0.2470  0.8465
  283TMC3    O2 4334   1.529   2.589  16.212  0.3180  0.0526 -0.4778
  284MPD2     C 4335   0.178   1.234  11.677 -0.0495  0.8377 -0.2290
  284MPD2    C1 4336   0.251   1.351  11.683  0.5156  0.6887 -0.7287
  284MPD2    C2 4337   0.273   1.409  11.804 -0.2627 -0.5822 -0.1201
  284MPD2    C3 4338   0.226   1.354  11.920 -0.1898 -0.0153 -0.0417
  284MPD2    C4 4339   0.161   1.235  11.911 -1.2903 -0.1052  0.0090
  284MPD2    C5 4340   0.144   1.174  11.796 -0.5433  0.4145  0.3031
  284MPD2     H 4341   0.322   1.506  11.800 -1.5460  0.0337 -1.0293
  284MPD2    H1 4342   0.108   1.193  11.995 -1.6415 -0.6118 -0.4602
  284MPD2    H2 4343   0.160   1.179  11.585  1.6058  0.7333 -0.4943
  284MPD2    H3 4344   0.083   1.084  11.797 -0.0800  0.0965 -0.0690
  284MPD2     N 4345   0.224   1.421  12.047  0.2200 -0.1742 -0.0681
  284MPD2    H5 4346   0.187   1.372  12.129 -0.1005  3.3698  1.9137
  284MPD2    N1 4347   0.300   1.419  11.571 -0.7428 -0.0309  0.7484
  284MPD2    H7 4348   0.350   1.503  11.596 -0.8111  0.8058 -1.9271
  285TMC3    C1 4349   0.306   1.492  11.342 -0.6189  0.1511 -0.4080
  285TMC3    C2 4350   0.323   1.468  11.205  0.4118  0.0753  0.0491
  285TMC3    C3 4351   0.354   1.571  11.122 -0.5252 -0.1108 -0.0666
  285TMC3    C4 4352   0.314   1.620  11.387 -0.0072  0.3839 -0.5089
  285TMC3    C5 4353   0.325   1.724  11.295 -0.1241  0.0855 -0.1264
  285TMC3    C6 4354   0.353   1.703  11.161 -0.5488 -0.2094  0.6275
  285TMC3     C 4355   0.271   1.390  11.439 -0.1087 -0.4837 -0.6720
  285TMC3     O 4356   0.234   1.281  11.396  1.0462 -0.1371 -0.1707
  285TMC3     H 4357   0.312   1.367  11.168  1.7928  0.8098 -2.3414
  285TMC3    H1 4358   0.285   1.643  11.489 -4.5492 -0.3064 -1.6272
  285TMC3    H2 4359   0.343   1.790  11.097  0.9077  2.3975  3.8879
  285TMC3    C7 4360   0.267   1.853  11.331 -0.2957  0.3136  0.1979
  285TMC3    C8 4361   0.373   1.533  10.989 -0.0664 -0.3405  0.3902
  285TMC3    O1 4362   0.181   1.854  11.417 -0.5479 -0.3759 -0.0905
  285TMC3    O2 4363   0.333   1.429  10.953 -0.5275  0.5716  0.3561
  286MPD2     C 4364   0.566   0.557   1.844 -0.1157  0.4801 -0.9589
  286MPD2    C1 4365   0.554   0.646   1.739 -0.0888 -0.0247 -0.4493
  286MPD2    C2 4366   0.613   0.615   1.618  0.0770  0.2830  1.0089
  286MPD2    C3 4367   0.690   0.498   1.608  0.5922  0.0895  0.1433
  286MPD2    C4 4368   0.699   0.413   1.712 -0.0900 -0.2135  0.1402
  286MPD2    C5 4369   0.635   0.441   1.833 -0.5223  0.5114  0.5322
  286MPD2     H 4370   0.615   0.686   1.536  0.4919 -0.6126  0.2438
  286MPD2    H1 4371   0.747   0.316   1.710 -3.9556 -2.0776 -2.1271
  286MPD2    H2 4372   0.518   0.571   1.940 -1.3522 -0.4408 -1.4446
  286MPD2    H3 4373   0.637   0.381   1.923 -0.3964 -0.5239 -0.1555
  286MPD2     N 4374   0.750   0.452   1.490  0.0290 -0.4027  0.2635
  286MPD2    H5 4375   0.821   0.379   1.493  1.1170  0.8464  4.1484
  286MPD2    N1 4376   0.481   0.764   1.746 -0.2809 -1.0305 -0.0042
  286MPD2    H7 4377   0.458   0.810   1.658 -0.2033 -0.0197  0.5018
  287TMC3    C1 4378   0.801   0.455   1.267  0.2235 -0.3672 -0.5103
  287TMC3    C2 4379   0.746   0.455   1.137 -0.0073  0.1127  0.3377
  287TMC3    C3 4380   0.807   0.383   1.039 -0.3839  0.7258  0.0790
  287TMC3    C4 4381   0.918   0.387   1.291  0.3572  0.3334 -0.0192
  287TMC3    C5 4382   0.975   0.307   1.193 -0.3261 -0.5535  0.1462
  287TMC3    C6 4383   0.918   0.301   1.068 -0.1971 -0.0881  0.1714
  287TMC3     C 4384   0.713   0.497   1.368 -0.1152 -0.5334  0.3336
  287TMC3     O 4385   0.611   0.558   1.342 -0.5768  0.5588  0.6289
  287TMC3     H 4386   0.644   0.490   1.126  0.1529  0.5550  0.2653
  287TMC3    H1 4387   0.966   0.374   1.387 -1.7158 -2.2551  0.6545
  287TMC3    H2 4388   0.971   0.250   0.989 -0.6048  0.9066 -0.7446
  287TMC3    C7 4389   1.114   0.264   1.215  0.2097  0.1886 -0.4411
  287TMC3    C8 4390   0.743   0.360   0.910  0.0237 -0.0909  0.7132
  287TMC3    O1 4391   1.169   0.326   1.301  0.8134 -0.6351  0.4013
  287TMC3    O2 4392   0.678   0.454   0.873 -0.6184  0.2537 -0.1498
  288TMC3    C1 4393   1.495   0.096  14.479 -0.0782  0.5654  0.2416
  288TMC3    C2 4394   1.511   0.058  14.608 -0.3267  0.2890 -0.3029
  288TMC3    C3 4395   1.563   0.143  14.699 -0.1439  0.3476 -0.0018
  288TMC3    C4 4396   1.537   0.218  14.440  0.1757 -0.2484 -0.4303
  288TMC3    C5 4397   1.607   0.292  14.532  0.1646  0.4293 -0.1655
  288TMC3    C6 4398   1.622   0.261  14.659  0.1436  0.2573  0.3883
  288TMC3     C 4399   1.466   4.725  14.389 -0.4336 -0.4571 -0.8131
  288TMC3     O 4400   1.406   4.628  14.436  0.4914 -0.1052 -0.1266
  288TMC3     H 4401   1.499   4.690  14.632  1.3195  0.0542 -0.4980
  288TMC3    H1 4402   1.487   0.262  14.354  0.6597  2.3482  0.6304
  288TMC3    H2 4403   1.677   0.323  14.730 -2.1543  1.2304  1.3296
  288TMC3    C7 4404   1.627   0.435  14.513  0.0407  0.6645 -0.1719
  288TMC3    C8 4405   1.561   0.114  14.837  0.4005 -0.3834  0.0605
  288TMC3    O1 4406   1.632   0.501  14.615 -0.0629 -0.4376  0.0136
  288TMC3    O2 4407   1.629   0.175  14.919 -0.4535  0.1039  0.3214
  289MPD2     C 4408   1.732   3.922  14.629  0.8296  0.3659  0.2761
  289MPD2    C1 4409   1.708   4.026  14.543 -1.0348  0.0905 -0.2573
  289MPD2    C2 4410   1.579   4.056  14.502 -0.0367 -0.3888  0.0064
  289MPD2    C3 4411   1.469   3.987  14.553  0.1564 -0.2940  0.0182
  289MPD2    C4 4412   1.490   3.886  14.644  0.5275 -0.1813  0.0991
  289MPD2    C5 4413   1.619   3.861  14.679  0.0593  0.4672  0.2347
  289MPD2     H 4414   1.569   4.145  14.442  2.5255  0.0510  0.2314
  289MPD2    H1 4415   1.406   3.822  14.671 -0.0806 -0.4655 -2.4724
  289MPD2    H2 4416   1.827   3.891  14.671  2.2637  2.1132 -1.6664
  289MPD2    H3 4417   1.631   3.786  14.757 -2.6037 -0.3977 -0.1732
  289MPD2     N 4418   1.340   4.018  14.517 -0.2382  0.0372 -0.1878
  289MPD2    H5 4419   1.265   3.977  14.571  1.2066 -2.8132 -0.3508
  289MPD2    N1 4420   1.816   4.106  14.499 -0.7337 -0.5518  0.9557
  289MPD2    H7 4421   1.905   4.090  14.545 -0.4582  0.8174  0.8988
  290TMC3    C1 4422   1.164   4.134  14.418 -0.0981 -0.3662  0.1011
  290TMC3    C2 4423   1.136   4.257  14.370 -0.6466 -0.3097 -0.3065
  290TMC3    C3 4424   1.007   4.294  14.362 -0.3323 -0.1877  0.1392
  290TMC3    C4 4425   1.074   4.043  14.452  0.7922 -0.2664 -0.2271
  290TMC3    C5 4426   0.943   4.077  14.428  0.1121 -0.4844  0.2312
  290TMC3    C6 4427   0.908   4.200  14.382 -0.1302 -0.0655 -0.2680
  290TMC3     C 4428   1.306   4.114  14.422 -0.1309  0.6216  0.4327
  290TMC3     O 4429   1.371   4.159  14.328  0.2961 -0.5014 -0.8331
  290TMC3     H 4430   1.211   4.320  14.323  0.7746 -1.5278  0.3227
  290TMC3    H1 4431   1.099   3.944  14.488  1.2477 -0.8944 -2.3004
  290TMC3    H2 4432   0.804   4.228  14.382  0.0208  0.4802 -2.1789
  290TMC3    C7 4433   0.839   3.974  14.436  0.8240 -0.4102 -0.6375
  290TMC3    C8 4434   0.970   4.424  14.301 -0.2724 -0.1698 -1.0514
  290TMC3    O1 4435   0.724   4.005  14.456 -0.1224 -0.5215 -0.1313
  290TMC3    O2 4436   0.863   4.429  14.245  0.0994 -0.3139  0.2901
  291MPD2     C 4437   0.932   4.311  17.667  0.0773 -0.5161  0.5184
  291MPD2    C1 4438   0.994   4.248   0.029  0.0257  0.4434 -0.7326
  291MPD2    C2 4439   1.069   4.319   0.117 -1.0216  0.1209 -0.1177
  291MPD2    C3 4440   1.099   4.452   0.094  1.0265  0.0449 -0.6589
  291MPD2    C4 4441   1.045   4.504  17.729  0.4467  0.0142 -0.3017
  291MPD2    C5 4442   0.973   4.438  17.639 -0.6660 -0.2942 -1.0762
  291MPD2     H 4443   1.110   4.260   0.199 -1.5777 -0.2145 -0.0840
  291MPD2    H1 4444   1.074   4.605  17.703  2.2247 -0.4175 -0.0195
  291MPD2    H2 4445   0.881   4.245  17.597 -0.3621  1.8634 -1.3849
  291MPD2    H3 4446   0.935   4.482  17.548 -1.2000 -0.6458 -1.0260
  291MPD2     N 4447   1.180   4.538   0.180 -0.1531 -0.0833  0.1927
  291MPD2    H5 4448   1.197   4.632   0.145  0.4103  0.3311  1.5742
  291MPD2    N1 4449   0.965   4.116   0.074  0.3834 -0.0926 -0.3848
  291MPD2    H7 4450   0.999   4.107   0.169 -1.1714 -1.3201  0.0431
  292TMC3    C1 4451   0.848   3.908   0.091 -0.4168 -0.0356  1.1032
  292TMC3    C2 4452   0.853   3.913   0.228  0.4711 -0.4635 -0.1268
  292TMC3    C3 4453   0.862   3.791   0.285 -0.4970  0.0678 -0.5204
  292TMC3    C4 4454   0.827   3.791   0.028 -0.2606 -0.4440 -0.7645
  292TMC3    C5 4455   0.825   3.670   0.091  0.2497  0.9909  0.7408
  292TMC3    C6 4456   0.851   3.667   0.225  0.0552  0.4248  0.3719
  292TMC3     C 4457   0.887   4.020   0.016  0.1481  0.3016  0.5077
  292TMC3     O 4458   0.855   4.023  17.645  0.1642 -0.6202  0.3178
  292TMC3     H 4459   0.868   4.000   0.290  2.6811 -1.0087  0.1035
  292TMC3    H1 4460   0.823   3.789  17.667  1.9244 -0.8994 -0.8389
  292TMC3    H2 4461   0.881   3.575   0.274 -0.3097 -0.7281 -1.5648
  292TMC3    C7 4462   0.822   3.552   0.015 -0.0869  0.3705 -0.0025
  292TMC3    C8 4463   0.834   3.787   0.427  0.6592 -0.0662  0.2819
  292TMC3    O1 4464   0.867   3.446   0.066 -0.2888  0.1937  0.0861
  292TMC3    O2 4465   0.887   3.886   0.480 -0.0613 -0.3605  0.9177
  293MPD2     C 4466   2.963   0.932  12.487  0.3951  0.3078 -0.0733
  293MPD2    C1 4467   2.832   0.914  12.532  0.5013  0.2707 -0.3741
  293MPD2    C2 4468   2.802   0.938  12.665  0.6254  0.1617 -0.0229
  293MPD2    C3 4469   2.889   0.998  12.751 -0.1108  0.1928  0.7043
  293MPD2    C4 4470   3.009   1.034  12.695 -0.3491  0.4235 -0.5312
  293MPD2    C5 4471   3.047   1.006  12.560  0.0636 -0.7389  0.6503
  293MPD2     H 4472   2.709   0.907  12.713 -0.6091  0.8742 -1.9672
  293MPD2    H1 4473   3.074   1.095  12.757  2.5177 -1.4853 -1.6732
  293MPD2    H2 4474   2.994   0.912  12.385  0.8369  1.0496 -0.0888
  293MPD2    H3 4475   3.144   1.034  12.523  0.0187  0.1519  1.2045
  293MPD2     N 4476   2.857   1.020  12.886 -0.2262  0.1337  0.4093
  293MPD2    H5 4477   2.769   0.977  12.914  1.4077 -3.1703  0.3965
  293MPD2    N1 4478   2.740   0.850  12.447  0.7646  0.6540  0.5508
  293MPD2    H7 4479   2.779   0.820  12.358  1.8819 -0.1477  1.3128
  294TMC3    C1 4480   2.531   0.763  12.364 -0.6140  0.5406 -0.7718
  294TMC3    C2 4481   2.406   0.719  12.394  0.4257 -0.2558 -0.1836
  294TMC3    C3 4482   2.338   0.628  12.315  0.0406  0.0082  0.0533
  294TMC3    C4 4483   2.590   0.730  12.242 -0.5512  0.4435  0.2179
  294TMC3    C5 4484   2.515   0.650  12.156 -0.3242 -0.5234  0.5236
  294TMC3    C6 4485   2.393   0.602  12.189 -0.0096  0.0849  0.0176
  294TMC3     C 4486   2.603   0.826  12.477  0.2780 -0.1265  0.3228
  294TMC3     O 4487   2.536   0.868  12.572  0.5202  0.4118  0.1641
  294TMC3     H 4488   2.357   0.744  12.488  1.9183  1.0524  0.2373
  294TMC3    H1 4489   2.691   0.764  12.222 -0.7936  0.2993 -1.2346
  294TMC3    H2 4490   2.347   0.531  12.121  0.4351  0.3275 -0.5328
  294TMC3    C7 4491   2.582   0.606  12.040 -0.6217 -0.4450  0.1107
  294TMC3    C8 4492   2.227   0.551  12.366  0.4621 -0.4497 -0.0220
  294TMC3    O1 4493   2.550   0.500  11.990  0.3566 -0.4703 -0.3345
  294TMC3    O2 4494   2.157   0.597  12.454 -0.5513  0.4910 -0.3253
  295MPD2     C 4495   3.960   0.291   0.669 -0.0270 -0.0494  0.1936
  295MPD2    C1 4496   3.894   0.232   0.558  0.3389 -0.8549 -0.1413
  295MPD2    C2 4497   3.768   0.199   0.568 -0.4321  0.4850  0.9710
  295MPD2    C3 4498   3.695   0.256   0.676 -0.6514 -0.1876  0.2454
  295MPD2    C4 4499   3.754   0.333   0.765  0.1637  0.8930  0.4845
  295MPD2    C5 4500   3.890   0.349   0.769  0.2875  0.5927  0.5708
  295MPD2     H 4501   3.714   0.163   0.481  1.6328 -0.3676  0.0556
  295MPD2    H1 4502   3.698   0.379   0.846 -2.1893 -1.8810  0.4097
  295MPD2    H2 4503   4.065   0.317   0.671 -0.2340  0.6380  1.8670
  295MPD2    H3 4504   3.932   0.392   0.859  2.3804 -4.6745  2.1565
  295MPD2     N 4505   3.553   0.227   0.690 -0.0808 -0.3264  0.3141
  295MPD2    H5 4506   3.503   0.274   0.765 -0.9540 -0.5260 -0.1450
  295MPD2    N1 4507   3.965   0.208   0.433  0.0441 -0.4965 -0.6505
  295MPD2    H7 4508   3.903   0.173   0.360  0.0751  1.0084 -1.3963
  296TMC3    C1 4509   3.336   0.146   0.648  0.2552  0.0353  0.2926
  296TMC3    C2 4510   3.280   0.265   0.627 -0.6941  0.3237 -0.5105
  296TMC3    C3 4511   3.147   0.273   0.593 -0.9991  0.1466  0.2633
  296TMC3    C4 4512   3.264   0.031   0.621 -0.0296 -0.2284  0.1121
  296TMC3    C5 4513   3.134   0.042   0.582  0.2056 -0.9953  0.2260
  296TMC3    C6 4514   3.071   0.162   0.576 -0.2013  0.4780  0.0819
  296TMC3     C 4515   3.476   0.138   0.618 -0.3829 -0.1538  0.0638
  296TMC3     O 4516   3.502   0.056   0.529  0.1534  0.1553  0.4737
  296TMC3     H 4517   3.335   0.359   0.629 -2.2920  1.2524  0.5378
  296TMC3    H1 4518   3.319   4.675   0.613 -0.3419 -0.5017  1.0590
  296TMC3    H2 4519   2.967   0.187   0.558 -0.6236 -1.9689 -0.9225
  296TMC3    C7 4520   3.044   4.672   0.605  0.2274  0.0447  0.3431
  296TMC3    C8 4521   3.094   0.393   0.540 -0.2616 -0.6345  0.0217
  296TMC3    O1 4522   2.931   4.700   0.572  0.3651  0.0595  0.0046
  296TMC3    O2 4523   3.017   0.382   0.444 -0.6882 -0.0833 -0.5555
  297MPD2     C 4524   0.686   1.317  16.497  0.4468 -0.5236 -0.1195
  297MPD2    C1 4525   0.666   1.434  16.427 -0.0372  0.5080  0.2582
  297MPD2    C2 4526   0.774   1.511  16.411 -0.1090  0.2178 -0.6467
  297MPD2    C3 4527   0.894   1.483  16.467  0.4548  0.0510  0.0841
  297MPD2    C4 4528   0.902   1.382  16.555 -0.2139  0.2108  0.2017
  297MPD2    C5 4529   0.802   1.290  16.564 -0.9693  0.5996  0.5146
  297MPD2     H 4530   0.762   1.596  16.345  2.4908 -0.6125 -2.2397
  297MPD2    H1 4531   0.990   1.356  16.613 -0.3788 -0.4971  0.1281
  297MPD2    H2 4532   0.615   1.235  16.510  1.2362 -1.2449 -0.3481
  297MPD2    H3 4533   0.805   1.209  16.636 -3.4563 -0.6709 -0.7570
  297MPD2     N 4534   0.979   1.595  16.468  0.4965  0.7018  0.0590
  297MPD2    H5 4535   0.942   1.684  16.436 -0.2378 -0.3085 -1.8565
  297MPD2    N1 4536   0.549   1.461  16.356 -0.5005  0.4518 -0.5233
  297MPD2    H7 4537   0.547   1.542  16.295 -1.4152 -0.7044 -2.0256
  298TMC3    C1 4538   0.328   1.487  16.317 -0.3638 -0.1859  0.6132
  298TMC3    C2 4539   0.325   1.518  16.187  0.0472 -1.1549 -0.1178
  298TMC3    C3 4540   0.218   1.574  16.137 -0.1945 -0.2909 -0.6945
  298TMC3    C4 4541   0.221   1.505  16.398 -0.3332 -0.2333  0.2560
  298TMC3    C5 4542   0.106   1.559  16.342  0.3390  0.0009 -0.2923
  298TMC3    C6 4543   0.108   1.602  16.211 -0.2695 -0.0984 -0.0931
  298TMC3     C 4544   0.429   1.402  16.382  0.2047 -0.3668  0.2961
  298TMC3     O 4545   0.394   1.316  16.464  0.0761  0.1673  0.3176
  298TMC3     H 4546   0.418   1.507  16.132  0.7044  1.2582  0.5395
  298TMC3    H1 4547   0.230   1.474  16.501 -2.6859 -2.2820 -0.1523
  298TMC3    H2 4548   0.020   1.644  16.164 -0.2818 -0.2496 -0.2065
  298TMC3    C7 4549   4.733   1.589  16.426 -0.0496  0.4044 -0.2063
  298TMC3    C8 4550   0.199   1.572  15.990  0.4186  0.6737  0.6920
  298TMC3    O1 4551   0.005   1.547  16.538  0.0318  0.4741  0.6224
  298TMC3    O2 4552   0.263   1.485  15.931 -0.6190 -1.0196  0.0538
  299MPD2     C 4553   0.999   1.001  10.789  0.4140  0.3421  0.2257
  299MPD2    C1 4554   1.125   1.019  10.727 -0.2148 -0.5578  0.1997
  299MPD2    C2 4555   1.160   0.941  10.618 -0.5116 -0.3692  0.0222
  299MPD2    C3 4556   1.070   0.838  10.575  0.4688 -0.0525  0.5514
  299MPD2    C4 4557   0.953   0.815  10.644  0.4146  0.1557 -0.3387
  299MPD2    C5 4558   0.914   0.898  10.750 -0.4193 -0.1841  0.9270
  299MPD2     H 4559   1.256   0.942  10.568 -0.3253  0.3038  0.3939
  299MPD2    H1 4560   0.890   0.730  10.621  0.5133 -0.1985  0.7125
  299MPD2    H2 4561   0.974   1.065  10.873  1.0719  1.1908 -0.2320
  299MPD2    H3 4562   0.819   0.882  10.799  0.0932  2.3943  2.7506
  299MPD2     N 4563   1.098   0.754  10.468  0.7667 -0.0732 -0.2150
  299MPD2    H5 4564   1.028   0.684  10.443  0.1175  1.1367 -1.8045
  299MPD2    N1 4565   1.211   1.112  10.792  0.5651  0.9076 -0.1179
  299MPD2    H7 4566   1.174   1.156  10.876  0.6028  0.9303 -0.1130
  300TMC3    C1 4567   1.203   0.655  10.289  0.4921  0.0177 -0.4223
  300TMC3    C2 4568   1.324   0.631  10.223  0.1674 -0.0332  0.1098
  300TMC3    C3 4569   1.320   0.590  10.095 -0.5177  0.6169  0.5836
  300TMC3    C4 4570   1.086   0.642  10.223 -0.7305 -0.3806  0.4656
  300TMC3    C5 4571   1.084   0.591  10.095  0.1308 -0.4620  0.4233
  300TMC3    C6 4572   1.204   0.562  10.032 -0.1316  0.0132 -0.2991
  300TMC3     C 4573   1.213   0.747  10.394 -0.5708 -0.1129 -0.1427
  300TMC3     O 4574   1.318   0.810  10.388  0.6386 -0.2465 -0.2911
  300TMC3     H 4575   1.411   0.637  10.288 -0.1938 -2.3129  0.8216
  300TMC3    H1 4576   0.994   0.673  10.271 -0.3624  0.5649  0.5685
  300TMC3    H2 4577   1.220   0.551   9.925 -2.1381  1.4824 -0.7397
  300TMC3    C7 4578   0.981   0.623  10.000  0.0513  0.1214 -0.7585
  300TMC3    C8 4579   1.408   0.682  10.023  0.2432 -0.2951  0.7002
  300TMC3    O1 4580   0.993   0.571   9.890 -0.1176 -0.1506  0.2815
  300TMC3    O2 4581   1.462   0.659   9.914  0.4927  0.2279  0.1716
  301MPD2     C 4582   3.907   2.988   1.046  0.9338  0.0092  0.2186
  301MPD2    C1 4583   3.794   2.929   0.992 -0.0182 -0.3829 -0.3003
  301MPD2    C2 4584   3.767   2.798   1.029 -0.3525  0.1264  0.2836
  301MPD2    C3 4585   3.849   2.726   1.114  0.4429  0.6164 -0.1405
  301MPD2    C4 4586   3.966   2.784   1.151  0.1590  0.0005  0.3026
  301MPD2    C5 4587   3.996   2.913   1.117 -0.2675  0.0429  0.0883
  301MPD2     H 4588   3.676   2.763   0.982 -0.2462  1.6319 -1.0641
  301MPD2    H1 4589   4.046   2.724   1.191 -0.8974 -0.6585  1.4164
  301MPD2    H2 4590   3.948   3.086   1.022  0.4012  0.6191  1.7671
  301MPD2    H3 4591   4.092   2.955   1.146 -0.4096 -0.0564  0.7083
  301MPD2     N 4592   3.820   2.597   1.159  0.0564  0.5208  0.0176
  301MPD2    H5 4593   3.882   2.546   1.221 -0.4412  0.4237  0.4320
  301MPD2    N1 4594   3.708   2.987   0.897 -0.2571  0.0968  0.6604
  301MPD2    H7 4595   3.623   2.937   0.872 -0.3003 -0.2992  1.6184
  302TMC3    C1 4596   3.709   2.383   1.162 -0.2514 -0.1497  0.3847
  302TMC3    C2 4597   3.765   2.340   1.280  0.2263 -0.0308  0.0018
  302TMC3    C3 4598   3.748   2.212   1.320 -0.3561  0.5369  0.1238
  302TMC3    C4 4599   3.620   2.295   1.091  0.0610  0.6322 -0.6274
  302TMC3    C5 4600   3.611   2.165   1.136  0.0846  0.0450  0.2625
  302TMC3    C6 4601   3.677   2.126   1.247  0.0474 -0.3581  0.1259
  302TMC3     C 4602   3.712   2.520   1.119 -0.2751 -0.1502  0.6452
  302TMC3     O 4603   3.621   2.546   1.041 -0.7140 -0.0657 -0.3383
  302TMC3     H 4604   3.826   2.410   1.337  0.2152 -0.7720  0.9163
  302TMC3    H1 4605   3.579   2.324   0.995 -1.2986  1.6302  0.2353
  302TMC3    H2 4606   3.665   2.023   1.277  1.5962 -0.3349  0.8677
  302TMC3    C7 4607   3.498   2.084   1.085  0.2558 -0.0106 -0.4220
  302TMC3    C8 4608   3.767   2.190   1.458  0.0254  0.1198 -0.3085
  302TMC3    O1 4609   3.504   1.966   1.105  0.2253  0.3137  0.1790
  302TMC3    O2 4610   3.759   2.075   1.485 -0.4351  0.0620  0.0159
  303MPD2     C 4611   3.894   0.965  10.594  0.0489  0.0235 -0.2392
  303MPD2    C1 4612   3.902   0.864  10.500  0.7959  0.1136  0.2517
  303MPD2    C2 4613   3.824   0.869  10.387 -0.4627  0.5668  0.2360
  303MPD2    C3 4614   3.729   0.966  10.372  0.2503  0.1806 -0.7296
  303MPD2    C4 4615   3.723   1.060  10.476  0.8516  0.3246  0.0687
  303MPD2    C5 4616   3.805   1.061  10.587 -0.9311  0.0187  0.0215
  303MPD2     H 4617   3.834   0.797  10.307  1.0770 -0.5968  1.4782
  303MPD2    H1 4618   3.641   1.131  10.479 -0.1824 -0.8527  0.0434
  303MPD2    H2 4619   3.944   0.947  10.689  1.5004  0.1934 -0.9657
  303MPD2    H3 4620   3.795   1.131  10.669 -3.9235 -0.2547 -0.1168
  303MPD2     N 4621   3.644   0.972  10.262 -0.0881  0.0263  0.0759
  303MPD2    H5 4622   3.596   1.060  10.245 -0.3328  0.2234  1.8305
  303MPD2    N1 4623   3.991   0.759  10.526  0.0959  0.3584  0.6507
  303MPD2    H7 4624   4.022   0.748  10.622 -0.1692  0.0964  0.7056
  304TMC3    C1 4625   4.105   0.557  10.490 -0.0178 -0.0902 -0.1578
  304TMC3    C2 4626   4.027   0.481  10.568 -0.4926  0.0716 -0.4211
  304TMC3    C3 4627   4.073   0.355  10.589 -0.0592  0.5167  0.1258
  304TMC3    C4 4628   4.212   0.513  10.418  0.7302  0.8658 -0.0688
  304TMC3    C5 4629   4.254   0.387  10.434  0.2464  0.3298 -0.8314
  304TMC3    C6 4630   4.187   0.310  10.522  0.1560  0.2080  0.1338
  304TMC3     C 4631   4.037   0.673  10.437  0.1684  0.7111  0.3455
  304TMC3     O 4632   4.030   0.682  10.317  0.6005 -0.3319  0.6531
  304TMC3     H 4633   3.940   0.519  10.621 -0.8303  0.3089 -1.1445
  304TMC3    H1 4634   4.272   0.580  10.358  1.0041 -0.3639 -1.1508
  304TMC3    H2 4635   4.222   0.207  10.526  0.8161  0.5058  1.7499
  304TMC3    C7 4636   4.289   0.317  10.318  0.7826 -0.3872 -0.3329
  304TMC3    C8 4637   3.971   0.246  10.583 -0.1862  0.1313  0.1381
  304TMC3    O1 4638   4.375   0.375  10.252  0.5063 -0.1854  0.1070
  304TMC3    O2 4639   4.013   0.141  10.526  0.2743  0.5912 -0.1169
  305MPD2     C 4640   1.424   2.017  14.102 -0.3326  0.2302  0.2865
  305MPD2    C1 4641   1.457   2.137  14.161  0.0816  0.8540  0.3530
  305MPD2    C2 4642   1.465   2.258  14.088 -0.7048  0.2423  0.3941
  305MPD2    C3 4643   1.427   2.253  13.952 -0.1479  0.4432 -0.5590
  305MPD2    C4 4644   1.383   2.135  13.899 -0.4606 -1.2380 -0.1025
  305MPD2    C5 4645   1.380   2.021  13.974 -0.1037  0.1234  0.4929
  305MPD2     H 4646   1.487   2.351  14.140  1.2588  0.3191 -0.5899
  305MPD2    H1 4647   1.342   2.127  13.799 -0.2176  0.3339 -0.3189
  305MPD2    H2 4648   1.420   1.924  14.157  2.3853  1.0445  1.8717
  305MPD2    H3 4649   1.344   1.928  13.932 -0.9750  0.2785  0.9170
  305MPD2     N 4650   1.464   2.353  13.860  0.6450  0.1224 -0.0930
  305MPD2    H5 4651   1.455   2.332  13.761  2.2118 -0.9785  0.0110
  305MPD2    N1 4652   1.476   2.141  14.299 -0.3136 -0.4866 -0.3026
  305MPD2    H7 4653   1.478   2.052  14.349  2.0122 -0.5014 -0.4430
  306TMC3    C1 4654   1.462   2.224  14.522  0.3998 -0.0953 -0.1870
  306TMC3    C2 4655   1.566   2.148  14.564 -0.0408  0.0317  0.3452
  306TMC3    C3 4656   1.631   2.187  14.681  0.1895  0.2220 -0.0222
  306TMC3    C4 4657   1.413   2.327  14.596  0.2679  0.0672  0.3401
  306TMC3    C5 4658   1.476   2.359  14.714 -0.4795 -0.0297  0.8093
  306TMC3    C6 4659   1.578   2.291  14.757  0.4792 -0.9547 -0.1678
  306TMC3     C 4660   1.459   2.255  14.379 -0.1557 -0.1834 -0.5927
  306TMC3     O 4661   1.433   2.371  14.349  0.3344 -0.4015  0.6107
  306TMC3     H 4662   1.611   2.074  14.498  1.5099  1.3992 -0.1193
  306TMC3    H1 4663   1.317   2.372  14.571 -0.3683 -0.7162  1.3242
  306TMC3    H2 4664   1.618   2.304  14.857 -0.4237 -0.9185  0.1930
  306TMC3    C7 4665   1.443   2.488  14.777 -0.0967  0.0910 -0.1115
  306TMC3    C8 4666   1.732   2.096  14.737  0.1419  0.0222  0.4067
  306TMC3    O1 4667   1.352   2.556  14.745 -0.2697  0.7495 -0.8225
  306TMC3    O2 4668   1.734   1.980  14.697  0.3816  0.2625 -0.1567
  307MPD2     C 4669   4.675   1.430   0.187  0.3082 -0.6669 -0.0245
  307MPD2    C1 4670   4.602   1.483   0.296 -0.2265  0.6123 -0.1883
  307MPD2    C2 4671   4.549   1.407   0.394 -0.1069  0.4764  0.1678
  307MPD2    C3 4672   4.575   1.274   0.398 -0.1262  0.5389  0.5125
  307MPD2    C4 4673   4.645   1.219   0.296  0.4977  0.2672 -0.1523
  307MPD2    C5 4674   4.686   1.292   0.185 -0.0119  0.3766 -0.5218
  307MPD2     H 4675   4.483   1.451   0.467  0.4689  0.5738  0.6254
  307MPD2    H1 4676   4.661   1.112   0.296 -1.4235 -0.0202 -1.3365
  307MPD2    H2 4677   4.705   1.492   0.103 -1.5402  0.6370  0.2916
  307MPD2    H3 4678   4.732   1.238   0.103 -0.2817  0.4256 -0.7048
  307MPD2     N 4679   4.529   1.210   0.515  0.4944  0.0066  0.7672
  307MPD2    H5 4680   4.458   1.264   0.563  0.9564  1.2228  0.0937
  307MPD2    N1 4681   4.584   1.622   0.309 -0.5593 -0.1175 -0.7303
  307MPD2    H7 4682   4.523   1.652   0.384 -1.0298 -1.9855 -0.3546
  308TMC3    C1 4683   4.342   0.857   0.750 -0.6271 -0.7222 -0.0965
  308TMC3    C2 4684   4.292   0.946   0.843  0.3406 -0.2601  0.1329
  308TMC3    C3 4685   4.333   1.072   0.839 -0.1003  0.2336  0.4115
  308TMC3    C4 4686   4.443   0.902   0.660  0.2639 -0.3502 -0.6335
  308TMC3    C5 4687   4.474   1.033   0.656 -0.1886 -0.0635 -0.0664
  308TMC3    C6 4688   4.430   1.119   0.756  0.0763 -0.3097 -0.3579
  308TMC3     C 4689   4.251   0.762   0.689  0.2496  0.3364  0.1951
  308TMC3     O 4690   4.289   0.652   0.654  0.3081  0.2943  0.1451
  308TMC3     H 4691   4.208   0.919   0.906 -0.2498  1.0782 -0.0829
  308TMC3    H1 4692   4.469   0.836   0.578  2.7625  1.0418 -0.9512
  308TMC3    H2 4693   4.454   1.224   0.760 -1.5081  0.1124 -1.5277
  308TMC3    C7 4694   4.552   1.078   0.547  0.1049  0.3143 -0.9413
  308TMC3    C8 4695   4.287   1.162   0.936  0.2467  0.1530 -0.6694
  308TMC3    O1 4696   4.616   0.995   0.486 -0.3365 -0.4903 -0.4929
  308TMC3    O2 4697   4.290   1.114   1.049 -0.2189 -0.2980  0.7743
  309MPD2     C 4698   3.724   1.249  17.081  0.1811 -0.1991  0.4360
  309MPD2    C1 4699   3.629   1.241  16.981  0.0745  0.3890  0.1154
  309MPD2    C2 4700   3.495   1.226  17.018  0.2174  0.6933  0.6133
  309MPD2    C3 4701   3.450   1.225  17.146 -0.3169 -0.5058  1.0316
  309MPD2    C4 4702   3.543   1.255  17.240  0.6031  0.6311  0.2729
  309MPD2    C5 4703   3.681   1.256  17.211  0.1465 -0.3607  0.5385
  309MPD2     H 4704   3.418   1.217  16.942  0.0288 -0.0555  0.8893
  309MPD2    H1 4705   3.510   1.246  17.343 -1.9643  0.4744 -0.5772
  309MPD2    H2 4706   3.831   1.248  17.064 -0.2083 -1.7831 -1.8218
  309MPD2    H3 4707   3.753   1.257  17.292  0.9676 -0.1493 -0.1946
  309MPD2     N 4708   3.314   1.217  17.192  0.4047 -0.0160  0.0536
  309MPD2    H5 4709   3.297   1.231  17.291  0.6624  4.3237 -0.5092
  309MPD2    N1 4710   3.675   1.245  16.848 -0.5077  0.0659 -0.1320
  309MPD2    H7 4711   3.602   1.251  16.777 -0.7374 -0.6400  0.0407
  310TMC3    C1 4712   3.808   1.307  16.660  0.4786  0.1217 -0.1797
  310TMC3    C2 4713   3.708   1.393  16.623  0.5683  0.0500 -0.0872
  310TMC3    C3 4714   3.724   1.467  16.509  0.3795 -0.2534  0.2252
  310TMC3    C4 4715   3.915   1.287  16.578  0.1034 -0.3166  0.3469
  310TMC3    C5 4716   3.924   1.363  16.465  0.1088  0.3085 -0.0872
  310TMC3    C6 4717   3.828   1.446  16.427  1.0606 -0.4119 -0.7624
  310TMC3     C 4718   3.806   1.268  16.795  0.2745  0.0881  0.6480
  310TMC3     O 4719   3.912   1.286  16.860  0.0664  0.7357  0.2840
  310TMC3     H 4720   3.620   1.418  16.682 -0.4327 -0.8251 -1.2005
  310TMC3    H1 4721   3.995   1.225  16.616  0.5662  0.1879  0.1940
  310TMC3    H2 4722   3.822   1.483  16.325 -1.6575 -0.5008 -0.6327
  310TMC3    C7 4723   4.002   1.306  16.357 -0.6433 -0.7712 -0.0040
  310TMC3    C8 4724   3.598   1.499  16.443  0.3790  0.5101  0.2890
  310TMC3    O1 4725   4.039   1.382  16.272 -0.1582  0.2343  0.5522
  310TMC3    O2 4726   3.513   1.415  16.445  0.6034 -0.0405  0.0997
  311MPD2     C 4727   0.744   2.703  12.522 -0.4442 -0.3998 -0.4541
  311MPD2    C1 4728   0.807   2.760  12.626 -0.0947 -0.1940  0.5191
  311MPD2    C2 4729   0.737   2.764  12.747  0.7952 -0.4102  0.3094
  311MPD2    C3 4730   0.609   2.715  12.760 -0.5283 -0.7196  0.3077
  311MPD2    C4 4731   0.554   2.649  12.649  0.8982  0.2721  0.4415
  311MPD2    C5 4732   0.618   2.647  12.531  0.4641 -0.4040 -0.2785
  311MPD2     H 4733   0.793   2.818  12.823 -0.8647 -2.1495  2.7284
  311MPD2    H1 4734   0.457   2.602  12.652 -0.0883  2.2193 -0.8726
  311MPD2    H2 4735   0.791   2.690  12.425 -0.9082  1.9962 -1.0039
  311MPD2    H3 4736   0.578   2.594  12.445 -0.2276 -2.7489  1.4837
  311MPD2     N 4737   0.545   2.720  12.888  0.0083  0.3266  0.1652
  311MPD2    H5 4738   0.600   2.760  12.964  0.3321  1.4537 -0.6790
  311MPD2    N1 4739   0.939   2.819  12.622 -0.0581 -0.8278  0.3505
  311MPD2    H7 4740   0.988   2.851  12.705  0.1724 -1.7599  0.5751
  312TMC3    C1 4741   0.396   2.665  13.059 -0.3899  0.0135  0.3937
  312TMC3    C2 4742   0.266   2.678  13.095 -0.8821  0.0088 -0.0723
  312TMC3    C3 4743   0.229   2.642  13.219  0.2631  0.7430 -0.3019
  312TMC3    C4 4744   0.496   2.633  13.147  0.4499  0.0269  0.2879
  312TMC3    C5 4745   0.458   2.594  13.270  0.4982  0.2557  0.0777
  312TMC3    C6 4746   0.321   2.587  13.308 -0.1847  0.3927  0.2586
  312TMC3     C 4747   0.417   2.673  12.917 -0.8517 -0.2906 -0.7481
  312TMC3     O 4748   0.323   2.640  12.846  0.2006  0.1528 -0.2219
  312TMC3     H 4749   0.197   2.712  13.018  1.4594  1.2460 -1.6037
  312TMC3    H1 4750   0.598   2.608  13.120  0.1820 -0.8083  0.0407
  312TMC3    H2 4751   0.292   2.588  13.413  2.0409  1.1318  0.8633
  312TMC3    C7 4752   0.554   2.615  13.373  0.0999 -0.5890 -0.2445
  312TMC3    C8 4753   0.095   2.575  13.221  0.1076 -0.2497 -0.7184
  312TMC3    O1 4754   0.634   2.702  13.350 -0.0616  0.1194 -0.2094
  312TMC3    O2 4755   0.028   2.599  13.119  0.1464  0.1644  0.2918
  313MPD2     C 4756   4.684   1.643  11.110 -0.0047 -0.4072  0.1872
  313MPD2    C1 4757   4.591   1.686  11.019 -0.4805 -0.3811  0.3652
  313MPD2    C2 4758   4.514   1.600  10.943 -0.0967 -0.2295  0.2921
  313MPD2    C3 4759   4.543   1.464  10.956 -0.3850  0.5727  0.3454
  313MPD2    C4 4760   4.638   1.422  11.050  0.3099 -0.2688 -0.2221
  313MPD2    C5 4761   4.707   1.509  11.125  0.9242  0.1182 -0.0470
  313MPD2     H 4762   4.433   1.631  10.878  0.6711 -0.2830 -0.7022
  313MPD2    H1 4763   4.671   1.321  11.072  0.0744 -0.3440 -0.2140
  313MPD2    H2 4764   0.005   1.712  11.170 -2.3398  1.2955  0.5046
  313MPD2    H3 4765   0.041   1.463  11.193  1.1876  0.7912  0.1302
  313MPD2     N 4766   4.474   1.363  10.885 -0.1447  0.1893  0.0926
  313MPD2    H5 4767   4.409   1.399  10.815 -0.2337  0.1996  0.1806
  313MPD2    N1 4768   4.571   1.825  11.008  0.5487  0.7893 -0.3386
  313MPD2    H7 4769   4.493   1.858  10.952  0.6661 -0.2708 -1.1182
  314TMC3    C1 4770   4.588   2.048  11.040 -0.1251 -0.0210  1.3269
  314TMC3    C2 4771   4.669   2.158  11.049 -0.7624  0.5070  0.1765
  314TMC3    C3 4772   4.619   2.277  11.005  0.2637 -0.1958 -0.5824
  314TMC3    C4 4773   4.458   2.056  10.995  0.0112 -0.2187  0.3956
  314TMC3    C5 4774   4.408   2.184  10.962 -0.1940  0.5427  0.4696
  314TMC3    C6 4775   4.491   2.288  10.957  0.3569 -0.6796 -0.9870
  314TMC3     C 4776   4.649   1.922  11.060  0.0312 -0.1595  0.4118
  314TMC3     O 4777   0.028   1.924  11.094 -0.2101 -0.1304 -0.4188
  314TMC3     H 4778   0.037   2.158  11.076 -0.5834 -0.4039 -0.5199
  314TMC3    H1 4779   4.395   1.969  10.993 -1.0135  0.5636 -1.0766
  314TMC3    H2 4780   4.447   2.387  10.947 -1.0928 -1.0280  1.9689
  314TMC3    C7 4781   4.300   2.178  10.863  0.4874 -0.1920  0.0020
  314TMC3    C8 4782   4.704   2.394  11.016  0.6491  0.0489  0.0792
  314TMC3    O1 4783   4.222   2.087  10.887  0.6662 -0.7881  0.5175
  314TMC3    O2 4784   4.658   2.489  11.079 -0.5735 -0.6528  0.4485
  315MPD2     C 4785   0.228   1.029   0.553 -0.2385  0.0341  0.0083
  315MPD2    C1 4786   0.355   1.016   0.497  0.1941  0.1188  1.2091
  315MPD2    C2 4787   0.399   1.112   0.410  0.4186  0.4361 -0.5310
  315MPD2    C3 4788   0.316   1.219   0.378  0.0124 -0.0439  0.6342
  315MPD2    C4 4789   0.198   1.230   0.436 -0.1960 -0.0173  0.3968
  315MPD2    C5 4790   0.158   1.143   0.530 -0.2146  0.9275  0.3419
  315MPD2     H 4791   0.498   1.112   0.364  0.4810 -2.1740 -0.3893
  315MPD2    H1 4792   0.133   1.309   0.401 -0.8337 -1.0141 -0.6773
  315MPD2    H2 4793   0.186   0.958   0.624 -1.9638  1.4370  0.3942
  315MPD2    H3 4794   0.061   1.162   0.575  0.2652  1.0117  1.3443
  315MPD2     N 4795   0.362   1.306   0.280 -0.2990  0.1574  0.8284
  315MPD2    H5 4796   0.444   1.283   0.226 -0.5679 -1.3110  1.0460
  315MPD2    N1 4797   0.429   0.903   0.502 -0.1651 -0.0628 -0.6695
  315MPD2    H7 4798   0.513   0.901   0.446  1.5821 -0.2359  1.9333
  316TMC3    C1 4799   0.348   1.485   0.117 -0.4200  0.5484  0.4793
  316TMC3    C2 4800   0.408   1.409   0.020 -0.3792 -1.1485 -0.5893
  316TMC3    C3 4801   0.408   1.451  17.643 -0.7367 -0.7921  0.3853
  316TMC3    C4 4802   0.293   1.601   0.076 -0.2157 -1.0187  0.1132
  316TMC3    C5 4803   0.277   1.627  17.683 -0.1442  0.3422  0.4754
  316TMC3    C6 4804   0.350   1.560  17.591  0.7912  0.0470  0.7673
  316TMC3     C 4805   0.305   1.427   0.248 -0.3363 -0.6690  0.1792
  316TMC3     O 4806   0.234   1.500   0.319 -0.6967 -0.2987 -0.1975
  316TMC3     H 4807   0.465   1.319   0.043  2.1043  0.9276  1.3760
  316TMC3    H1 4808   0.249   1.674   0.143  1.2993 -0.1177  0.1147
  316TMC3    H2 4809   0.350   1.597  17.489 -0.4730 -0.3583  0.6103
  316TMC3    C7 4810   0.237   1.762  17.652 -0.3303  0.2773  0.0624
  316TMC3    C8 4811   0.507   1.396  17.548 -0.1804  0.2526 -0.1157
  316TMC3    O1 4812   0.262   1.849  17.733  0.2367 -0.1132  0.6671
  316TMC3    O2 4813   0.552   1.471  17.460  0.6473  0.0680  0.1320
  317MPD2     C 4814   1.926   4.059  12.982  0.3748  0.0245 -0.2123
  317MPD2    C1 4815   1.911   3.919  12.969  0.4484 -0.6313 -0.3025
  317MPD2    C2 4816   1.930   3.834  13.086 -1.7421  0.0673  0.5630
  317MPD2    C3 4817   1.963   3.891  13.211 -0.3885 -0.5114 -0.1003
  317MPD2    C4 4818   1.989   4.028  13.209 -0.3434  0.2460 -0.5248
  317MPD2    C5 4819   1.975   4.106  13.098  0.8344 -0.1958  0.6979
  317MPD2     H 4820   1.924   3.726  13.080 -1.2221  0.1003 -0.5874
  317MPD2    H1 4821   2.038   4.080  13.291 -2.2487 -0.4935  1.0906
  317MPD2    H2 4822   1.920   4.123  12.894  0.3200  1.1588  0.6197
  317MPD2    H3 4823   2.010   4.209  13.099  1.3899 -0.3854  1.2659
  317MPD2     N 4824   1.971   3.806  13.328  0.6594 -0.1435 -0.1055
  317MPD2    H5 4825   1.941   3.710  13.319  0.9340 -0.0872 -1.7919
  317MPD2    N1 4826   1.889   3.852  12.848 -0.2022 -0.2599  0.2755
  317MPD2    H7 4827   1.898   3.751  12.849  0.5512 -0.2086 -0.7476
  318TMC3    C1 4828   2.033   3.741  13.545 -0.0822 -0.2997  0.0207
  318TMC3    C2 4829   1.924   3.661  13.557  0.1455  0.3092  0.4132
  318TMC3    C3 4830   1.884   3.616  13.680  0.2716 -0.3712 -0.5304
  318TMC3    C4 4831   2.106   3.779  13.663 -0.2823 -0.3613  0.7425
  318TMC3    C5 4832   2.062   3.713  13.773 -0.2008  0.3454 -0.1708
  318TMC3    C6 4833   1.956   3.632  13.790  0.1932  0.3364  0.3109
  318TMC3     C 4834   2.040   3.843  13.446  0.2975 -0.2937  0.1543
  318TMC3     O 4835   2.098   3.948  13.468  0.5928 -0.0174  0.4504
  318TMC3     H 4836   1.885   3.619  13.464  0.9691  3.2763 -1.2632
  318TMC3    H1 4837   2.187   3.851  13.665 -1.6471  1.2229 -0.8084
  318TMC3    H2 4838   1.921   3.582  13.879 -0.8828 -1.5608 -1.1836
  318TMC3    C7 4839   2.164   3.713  13.878 -0.2052  0.0315  0.1989
  318TMC3    C8 4840   1.765   3.526  13.681 -0.3381  0.6253  0.7871
  318TMC3    O1 4841   2.133   3.710  13.999  0.2702 -0.5680  0.1071
  318TMC3    O2 4842   1.743   3.451  13.775  0.2539 -0.1429 -0.0696
  319MPD2     C 4843   2.780   0.525  16.716  0.4482  0.3146  0.0492
  319MPD2    C1 4844   2.723   0.399  16.747  0.1845  0.5974 -0.1587
  319MPD2    C2 4845   2.654   0.333  16.645  0.3534 -0.6621 -0.4128
  319MPD2    C3 4846   2.642   0.386  16.518 -0.4314 -0.2070  0.2625
  319MPD2    C4 4847   2.709   0.500  16.479 -0.3049  0.1069  0.2868
  319MPD2    C5 4848   2.775   0.567  16.579 -0.3259 -0.7622  0.2065
  319MPD2     H 4849   2.606   0.240  16.674  2.0881 -1.3497  0.2552
  319MPD2    H1 4850   2.694   0.549  16.384  1.9852 -0.1950 -0.2442
  319MPD2    H2 4851   2.833   0.588  16.786  0.8087 -3.0535  2.7648
  319MPD2    H3 4852   2.818   0.662  16.547  0.8678 -0.8361  1.6089
  319MPD2     N 4853   2.554   0.333  16.419 -0.1477 -0.1662 -0.1057
  319MPD2    H5 4854   2.562   0.367  16.324 -0.9914 -0.1743 -0.1819
  319MPD2    N1 4855   2.730   0.349  16.878 -0.4468 -0.1085 -0.0725
  319MPD2    H7 4856   2.701   0.253  16.889  0.9275 -0.5067  0.1329
  320TMC3    C1 4857   2.353   0.222  16.347  0.3801  0.2335  0.0728
  320TMC3    C2 4858   2.336   0.315  16.255 -0.0321 -0.0451  0.2549
  320TMC3    C3 4859   2.233   0.294  16.163 -0.1510  0.4220  0.2077
  320TMC3    C4 4860   2.272   0.113  16.369  0.2332  0.2951  0.5566
  320TMC3    C5 4861   2.171   0.091  16.275  0.2085  0.3739 -0.4188
  320TMC3    C6 4862   2.154   0.176  16.164 -0.8099 -0.6688 -0.0494
  320TMC3     C 4863   2.457   0.240  16.446 -0.5270 -0.3290  0.7552
  320TMC3     O 4864   2.439   0.171  16.549 -0.5313  0.1240  0.7321
  320TMC3     H 4865   2.405   0.398  16.244  2.0865 -1.8004  0.3623
  320TMC3    H1 4866   2.308   0.034  16.434  2.4656 -0.0031 -1.0338
  320TMC3    H2 4867   2.079   0.152  16.090 -0.6277 -1.7636  0.1231
  320TMC3    C7 4868   2.120   4.693  16.255  0.1651 -0.2658  0.3668
  320TMC3    C8 4869   2.187   0.382  16.058  0.4888 -0.1664 -0.8110
  320TMC3    O1 4870   2.075   4.674  16.142 -0.2701 -0.3498  0.7837
  320TMC3    O2 4871   2.116   0.334  15.967 -0.6334 -0.8664 -0.7505
  321TMC3    C1 4872   2.713   0.352  17.114 -0.0431  0.3458 -0.1866
  321TMC3    C2 4873   2.808   0.256  17.138 -0.0609 -0.0811  0.1881
  321TMC3    C3 4874   2.882   0.252  17.256  0.2358 -0.1747 -0.5803
  321TMC3    C4 4875   2.672   0.426  17.230  0.2413 -0.5225 -0.1736
  321TMC3    C5 4876   2.742   0.410  17.343 -0.1038  0.2774 -0.1043
  321TMC3    C6 4877   2.838   0.322  17.367  0.0833  0.4606 -0.5837
  321TMC3     C 4878   2.740   0.427  16.995 -1.1735  0.1749 -0.0164
  321TMC3     O 4879   2.761   0.547  17.011 -0.4463  0.2761  0.3047
  321TMC3     H 4880   2.851   0.208  17.050  3.0522  1.6559  0.7551
  321TMC3    H1 4881   2.616   0.519  17.224 -1.4035 -1.4772  0.2276
  321TMC3    H2 4882   2.890   0.315  17.462  0.2513 -0.7916 -0.7721
  321TMC3    C7 4883   2.767   0.532  17.413  0.6878 -0.3330 -0.0711
  321TMC3    C8 4884   3.025   0.267  17.249 -0.2419 -0.6653 -0.1080
  321TMC3    O1 4885   2.680   0.617  17.424  0.4266  0.2728  0.0964
  321TMC3    O2 4886   3.064   0.340  17.338  0.7385  0.0104  0.5509
  322MPD2     C 4887   2.291   2.500  13.933 -0.1415  0.7926 -0.4324
  322MPD2    C1 4888   2.183   2.418  13.942  0.0296  0.4605  0.1017
  322MPD2    C2 4889   2.154   2.319  13.850 -0.5808  0.3753 -0.9960
  322MPD2    C3 4890   2.237   2.295  13.747  0.3769 -0.3802  0.0010
  322MPD2    C4 4891   2.359   2.364  13.742 -0.6191  0.0168 -0.0045
  322MPD2    C5 4892   2.385   2.462  13.837 -0.7675  0.2627  0.1817
  322MPD2     H 4893   2.067   2.257  13.866 -0.5995  0.7274  0.2301
  322MPD2    H1 4894   2.438   2.338  13.672  0.7848 -0.4783  1.7480
  322MPD2    H2 4895   2.320   2.575  14.006  1.4431  0.5572 -0.8235
  322MPD2    H3 4896   2.477   2.520  13.835 -0.0922 -0.9047 -1.9213
  322MPD2     N 4897   2.210   2.180  13.665  0.4088  0.5241 -0.1273
  322MPD2    H5 4898   2.121   2.132  13.679  0.9803 -0.8140 -1.0564
  322MPD2    N1 4899   2.103   2.440  14.054  0.1573 -0.5688  0.0010
  322MPD2    H7 4900   2.143   2.516  14.109  1.0642  0.9793 -2.7928
  323TMC3    C1 4901   1.911   2.452  14.193 -0.1810  0.3978  0.5125
  323TMC3    C2 4902   1.976   2.559  14.247  0.4660 -0.5069  0.0521
  323TMC3    C3 4903   2.026   2.545  14.368 -0.1997 -0.2620  0.0754
  323TMC3    C4 4904   1.868   2.349  14.267 -0.0329  0.2561 -0.1028
  323TMC3    C5 4905   1.922   2.342  14.391  0.0915 -0.4327  0.7128
  323TMC3    C6 4906   2.003   2.435  14.440  0.2227  0.1685 -0.2516
  323TMC3     C 4907   1.968   2.407  14.071 -0.3412  0.2069  0.1755
  323TMC3     O 4908   1.898   2.329  14.004  0.0117 -0.2117 -0.3800
  323TMC3     H 4909   2.008   2.639  14.182 -0.3579  0.3036  0.6485
  323TMC3    H1 4910   1.841   2.263  14.207 -4.1724  0.8011  0.9692
  323TMC3    H2 4911   2.060   2.417  14.530 -2.7516 -0.1605  1.5335
  323TMC3    C7 4912   1.929   2.201  14.431 -0.0381 -0.1925  0.4248
  323TMC3    C8 4913   2.151   2.608  14.376 -0.5446 -0.1762  0.0359
  323TMC3    O1 4914   1.827   2.145  14.405 -0.2134  0.1616 -0.0558
  323TMC3    O2 4915   2.212   2.635  14.270  0.3607 -0.0379 -0.3881
  324MPD2     C 4916   3.531   2.943  14.252  0.2076 -0.0770  0.1764
  324MPD2    C1 4917   3.521   3.066  14.313 -0.3190  0.6536 -0.2736
  324MPD2    C2 4918   3.408   3.139  14.280 -0.2595  0.2482 -0.6349
  324MPD2    C3 4919   3.304   3.079  14.202 -0.4515 -0.3144 -0.0715
  324MPD2    C4 4920   3.321   2.951  14.150  0.3379 -0.2103 -0.5165
  324MPD2    C5 4921   3.438   2.890  14.168  0.0252  0.5239 -0.8658
  324MPD2     H 4922   3.410   3.241  14.315  0.3338  0.8054 -2.2852
  324MPD2    H1 4923   3.243   2.899  14.094 -0.2514  0.7348 -0.5618
  324MPD2    H2 4924   3.622   2.884  14.252 -0.2648 -0.7958  1.4759
  324MPD2    H3 4925   3.459   2.793  14.124  0.7740  0.3765 -0.1853
  324MPD2     N 4926   3.174   3.140  14.170 -0.3725 -0.1910 -0.2183
  324MPD2    H5 4927   3.105   3.082  14.122 -0.9606 -1.1103  1.7222
  324MPD2    N1 4928   3.621   3.135  14.382 -0.0520  0.2205  0.2317
  324MPD2    H7 4929   3.613   3.235  14.393  0.9187  0.2862  0.3332
  325TMC3    C1 4930   2.998   3.290  14.155 -0.3062 -0.2467 -0.8316
  325TMC3    C2 4931   2.923   3.202  14.090  0.7455 -0.1837 -0.4116
  325TMC3    C3 4932   2.789   3.229  14.070 -0.8389  0.0591  0.0636
  325TMC3    C4 4933   2.940   3.403  14.201  0.0842  1.1915 -0.5307
  325TMC3    C5 4934   2.802   3.420  14.193  0.2472 -0.4034  0.5909
  325TMC3    C6 4935   2.724   3.334  14.120 -0.1173  0.8034  0.3771
  325TMC3     C 4936   3.132   3.267  14.188 -0.4026  0.4774 -0.0496
  325TMC3     O 4937   3.198   3.361  14.242 -0.1996 -0.0060 -0.1373
  325TMC3     H 4938   2.966   3.114  14.045  0.3181 -0.6232  0.0458
  325TMC3    H1 4939   3.000   3.478  14.250  2.4099 -1.1723  0.2489
  325TMC3    H2 4940   2.623   3.363  14.093  0.4068  1.6156 -0.7420
  325TMC3    C7 4941   2.742   3.536  14.238 -0.5629 -0.1625  0.1820
  325TMC3    C8 4942   2.721   3.128  13.986  0.5559  0.1608 -0.0677
  325TMC3    O1 4943   2.805   3.641  14.247  0.2500  0.2931  0.2601
  325TMC3    O2 4944   2.783   3.044  13.923  0.6912 -0.2109  0.2463
  326MPD2     C 4945   4.328   4.058  11.286  0.2639  1.0632 -0.2499
  326MPD2    C1 4946   4.332   4.089  11.146 -0.5176 -0.1499  0.5283
  326MPD2    C2 4947   4.416   4.187  11.105  0.4900 -0.1057 -0.2757
  326MPD2    C3 4948   4.486   4.254  11.202  0.1281  0.1487  0.2888
  326MPD2    C4 4949   4.477   4.230  11.334  0.0156  0.0608  0.3970
  326MPD2    C5 4950   4.397   4.130  11.372 -0.3244  0.0606  0.1884
  326MPD2     H 4951   4.435   4.196  10.998 -0.5975 -0.9765 -0.5294
  326MPD2    H1 4952   4.531   4.288  11.408 -0.3521 -1.0150  1.5134
  326MPD2    H2 4953   4.265   3.982  11.331  0.8306  0.2384 -0.8394
  326MPD2    H3 4954   4.399   4.104  11.477 -1.6150 -0.0424  0.1867
  326MPD2     N 4955   4.591   4.338  11.165  0.3660 -0.2744 -0.9041
  326MPD2    H5 4956   4.639   4.389  11.238  0.5923 -0.4426 -0.9349
  326MPD2    N1 4957   4.290   4.010  11.036 -0.5584 -0.1429 -0.0079
  326MPD2    H7 4958   4.335   4.032  10.948  0.6481 -1.6946  0.2249
  327TMC3    C1 4959   4.249   3.805  10.932  0.2182  0.1020  0.0978
  327TMC3    C2 4960   4.240   3.873  10.816  0.0102  0.0735 -0.1909
  327TMC3    C3 4961   4.300   3.813  10.705 -1.4017  0.5385  0.0270
  327TMC3    C4 4962   4.329   3.700  10.955  0.3515  0.2592 -0.1009
  327TMC3    C5 4963   4.388   3.642  10.851 -0.1136  0.6970  0.4575
  327TMC3    C6 4964   4.379   3.703  10.726  0.2235  1.1130  0.0123
  327TMC3     C 4965   4.222   3.895  11.048  0.2734 -0.6185 -0.7112
  327TMC3     O 4966   4.190   3.836  11.144 -0.1203 -0.1626 -0.1609
  327TMC3     H 4967   4.183   3.965  10.809  0.4090  0.3912  0.7675
  327TMC3    H1 4968   4.331   3.651  11.052  0.0899  1.2008  0.3846
  327TMC3    H2 4969   4.447   3.676  10.646 -1.8901  0.1308 -1.4548
  327TMC3    C7 4970   4.505   3.570  10.881 -0.0931  0.3292  0.1159
  327TMC3    C8 4971   4.292   3.885  10.579  0.1422  0.5644  0.2885
  327TMC3    O1 4972   4.565   3.522  10.784  0.6765 -0.1053  0.1206
  327TMC3    O2 4973   4.253   3.998  10.602  0.0111  0.0748  0.4300
  328MPD2     C 4974   2.359   4.421   0.002  0.2792  0.2465 -0.1377
  328MPD2    C1 4975   2.279   4.305  17.744 -0.4756 -0.7971  0.6002
  328MPD2    C2 4976   2.234   4.268  17.619 -0.1700  0.9125  0.2189
  328MPD2    C3 4977   2.248   4.356  17.509 -0.2906 -0.1388  0.1091
  328MPD2    C4 4978   2.300   4.475  17.529  0.2787  0.7812 -0.4964
  328MPD2    C5 4979   2.367   4.505  17.641 -0.5098 -1.0687 -0.0206
  328MPD2     H 4980   2.179   4.177  17.597  0.8428  0.5994 -1.0058
  328MPD2    H1 4981   2.315   4.535  17.441  2.7065 -2.0634 -1.9864
  328MPD2    H2 4982   2.410   4.453   0.093 -0.7357  0.8612  0.2124
  328MPD2    H3 4983   2.428   4.594  17.650  0.8787 -1.9638 -0.7251
  328MPD2     N 4984   2.202   4.332  17.375 -0.3645 -0.3540  0.0693
  328MPD2    H5 4985   2.202   4.410  17.310  1.6579 -0.7990 -0.4536
  328MPD2    N1 4986   2.271   4.220   0.105  0.0396 -0.6172  0.2643
  328MPD2    H7 4987   2.275   4.269   0.194 -3.0440  0.6171 -0.2482
  329TMC3    C1 4988   2.162   4.040   0.215  0.1860  0.9926  0.7545
  329TMC3    C2 4989   2.188   4.089   0.338 -0.4547 -0.0502  0.3957
  329TMC3    C3 4990   2.138   4.014   0.445  0.1600 -0.0189 -0.3261
  329TMC3    C4 4991   2.091   3.928   0.194 -0.0808  0.3523  0.4207
  329TMC3    C5 4992   2.034   3.868   0.295  0.4556  0.0211  0.1033
  329TMC3    C6 4993   2.052   3.908   0.428 -0.8844  0.5461 -0.3104
  329TMC3     C 4994   2.230   4.092   0.101 -0.2700  0.9169 -0.1213
  329TMC3     O 4995   2.214   4.018   0.002  0.2583 -0.7284  1.0234
  329TMC3     H 4996   2.218   4.191   0.360 -0.7815 -0.2440  1.7657
  329TMC3    H1 4997   2.080   3.885   0.095 -0.1030 -1.2063  1.0907
  329TMC3    H2 4998   1.998   3.870   0.515  0.1427  0.1609  0.1640
  329TMC3    C7 4999   1.902   3.801   0.276 -0.4316  0.6062 -0.0447
  329TMC3    C8 5000   2.101   4.109   0.552  0.0890  0.5561  0.1979
  329TMC3    O1 5001   1.843   3.750   0.369  0.1105 -0.4885  0.1156
  329TMC3    O2 5002   2.188   4.151   0.624  0.3026 -0.0677 -0.3588
  330TMC3    C1 5003   0.265   3.074  10.021  0.0981 -0.5610  0.5323
  330TMC3    C2 5004   0.160   3.022   9.949 -0.7224  0.2737  0.4249
  330TMC3    C3 5005   0.065   2.951  10.024  0.1064 -0.1919 -0.2278
  330TMC3    C4 5006   0.281   3.039  10.154 -0.2540 -0.0987 -0.1635
  330TMC3    C5 5007   0.193   2.960  10.216  0.1447  0.5200  0.0625
  330TMC3    C6 5008   0.079   2.919  10.155 -0.0307 -0.7116  0.0088
  330TMC3     C 5009   0.367   3.161   9.966 -0.3709  0.1896  0.3547
  330TMC3     O 5010   0.465   3.189  10.035 -0.3980  0.6899  1.1664
  330TMC3     H 5011   0.142   3.043   9.844 -0.0355  0.1969  0.2937
  330TMC3    H1 5012   0.358   3.089  10.210 -2.5798  1.3448  1.7505
  330TMC3    H2 5013   0.016   2.839  10.192  0.8328 -1.1254  0.5972
  330TMC3    C7 5014   0.213   2.936  10.352  0.1395 -0.5096  0.1226
  330TMC3    C8 5015   4.680   2.920   9.956 -0.9091 -0.4010  0.4913
  330TMC3    O1 5016   0.324   2.951  10.395  0.3025 -0.4233  0.1288
  330TMC3    O2 5017   4.678   2.928   9.833 -0.1141  0.0509 -0.1457
  331MPD2     C 5018   3.637   2.369  13.037  0.6309  0.2572  0.7808
  331MPD2    C1 5019   3.537   2.346  12.939  0.2955 -0.3613 -0.0240
  331MPD2    C2 5020   3.451   2.236  12.949  0.2570  0.0023 -0.1952
  331MPD2    C3 5021   3.461   2.153  13.060 -0.3006 -0.2315 -0.6134
  331MPD2    C4 5022   3.552   2.182  13.161 -0.2697 -0.1685  0.3282
  331MPD2    C5 5023   3.630   2.293  13.147 -1.3157  0.1696  0.2924
  331MPD2     H 5024   3.369   2.226  12.879  0.6639 -1.3206 -0.4864
  331MPD2    H1 5025   3.577   2.121  13.247  3.3292  0.6420 -0.1315
  331MPD2    H2 5026   3.709   2.451  13.038 -0.9244  1.6317  1.3525
  331MPD2    H3 5027   3.696   2.316  13.230  2.0997 -0.3207 -2.3006
  331MPD2     N 5028   3.372   2.039  13.059 -0.2055 -0.3346  0.3601
  331MPD2    H5 5029   3.303   2.029  12.986  1.0993  0.8915 -1.0535
  331MPD2    N1 5030   3.530   2.420  12.819  0.3977  0.1217  0.5966
  331MPD2    H7 5031   3.477   2.389  12.738 -0.6395  0.8048  1.0149
  332TMC3    C1 5032   3.308   1.826  13.100  0.1253  0.5355 -0.0264
  332TMC3    C2 5033   3.190   1.846  13.037 -0.1669  0.0977 -0.1764
  332TMC3    C3 5034   3.148   1.767  12.932  0.3574 -0.2681  0.5796
  332TMC3    C4 5035   3.389   1.722  13.054  0.5026 -0.7955 -0.3525
  332TMC3    C5 5036   3.352   1.653  12.939 -0.1106  0.9210 -0.3624
  332TMC3    C6 5037   3.232   1.675  12.881 -0.4913 -0.8279  0.3503
  332TMC3     C 5038   3.380   1.936  13.152  0.5019 -0.5602 -0.3971
  332TMC3     O 5039   3.462   1.908  13.240 -0.0295 -0.4150 -0.0712
  332TMC3     H 5040   3.127   1.928  13.068  1.2707  0.3543  2.0238
  332TMC3    H1 5041   3.479   1.701  13.111  0.5043  0.2016  0.0126
  332TMC3    H2 5042   3.201   1.630  12.787 -0.8352 -2.2916  1.1648
  332TMC3    C7 5043   3.456   1.614  12.847 -0.0361  0.4088  0.2872
  332TMC3    C8 5044   3.062   1.833  12.836 -0.8373 -0.1779  0.3038
  332TMC3    O1 5045   3.422   1.550  12.752 -0.2357  0.2921 -0.3179
  332TMC3    O2 5046   3.081   1.818  12.716  0.0765  0.4841  0.1158
  333MPD2     C 5047   2.968   3.065  11.216  0.2802  0.0200  0.0491
  333MPD2    C1 5048   3.080   2.985  11.206  0.1276  0.3492 -0.4311
  333MPD2    C2 5049   3.096   2.872  11.285  0.0436  0.7269  0.1909
  333MPD2    C3 5050   2.995   2.843  11.374 -0.3380  0.5422  0.5463
  333MPD2    C4 5051   2.875   2.909  11.374  0.6354 -0.5784  0.5762
  333MPD2    C5 5052   2.868   3.024  11.293  0.3129  0.0188 -0.1771
  333MPD2     H 5053   3.192   2.823  11.283  0.1889  1.0680 -0.7956
  333MPD2    H1 5054   2.795   2.885  11.444 -1.5814  2.4577 -0.9133
  333MPD2    H2 5055   2.950   3.150  11.150 -2.2797 -0.8085 -0.3179
  333MPD2    H3 5056   2.776   3.081  11.284  0.4280  0.2634  0.2048
  333MPD2     N 5057   3.017   2.738  11.458  0.3264 -0.3461 -0.5396
  333MPD2    H5 5058   3.108   2.696  11.444  1.6827  2.6333 -0.7026
  333MPD2    N1 5059   3.175   3.026  11.107  0.6397  0.3975 -0.2167
  333MPD2    H7 5060   3.150   3.097  11.038 -0.1298 -2.8511 -3.3406
  334TMC3    C1 5061   3.368   3.026  10.984 -0.7113 -0.8211  0.7729
  334TMC3    C2 5062   3.455   2.933  10.929  0.2128 -0.3730 -0.6947
  334TMC3    C3 5063   3.562   2.980  10.856  0.2932  0.0498 -0.0093
  334TMC3    C4 5064   3.375   3.158  10.957 -0.8479 -0.5393 -0.5418
  334TMC3    C5 5065   3.471   3.209  10.871 -0.5901  0.6380  0.1239
  334TMC3    C6 5066   3.557   3.111  10.815 -0.1878  0.0084 -0.3002
  334TMC3     C 5067   3.295   2.971  11.095 -0.0058 -0.3543 -0.5419
  334TMC3     O 5068   3.361   2.898  11.170  0.5701 -0.0784 -0.0255
  334TMC3     H 5069   3.443   2.826  10.939 -0.3294  0.1251  4.0104
  334TMC3    H1 5070   3.301   3.213  11.013 -1.2703  0.3308 -1.9478
  334TMC3    H2 5071   3.636   3.151  10.752 -0.3888  0.6640 -0.1352
  334TMC3    C7 5072   3.516   3.346  10.893 -0.1833  0.3982  0.5660
  334TMC3    C8 5073   3.621   2.885  10.765 -0.9830  0.0598 -0.5076
  334TMC3    O1 5074   3.465   3.407  10.991 -0.0699 -0.6657 -0.4327
  334TMC3    O2 5075   3.635   2.921  10.649 -0.4616 -0.2350  0.5301
  335TMC3    C1 5076   2.911   4.029  17.622  0.0190 -0.1669 -0.4169
  335TMC3    C2 5077   2.813   4.002  17.526  0.0947 -0.5822 -0.0733
  335TMC3    C3 5078   2.846   4.037  17.397 -0.1591  0.0465  0.3469
  335TMC3    C4 5079   3.032   4.097  17.595 -0.3867  0.5568 -0.3629
  335TMC3    C5 5080   3.054   4.128  17.464  0.2403  0.1584 -0.4780
  335TMC3    C6 5081   2.969   4.089  17.369  0.1461  0.2705  0.0667
  335TMC3     C 5082   2.885   4.002   0.018 -0.0881 -0.3973 -0.5851
  335TMC3     O 5083   2.775   3.960   0.050 -0.0660  0.3425  0.5170
  335TMC3     H 5084   2.719   3.960  17.559  0.2900 -1.5348 -0.7273
  335TMC3    H1 5085   3.108   4.117  17.669  0.0107  1.1044 -0.9152
  335TMC3    H2 5086   2.981   4.121  17.266  4.1839 -1.6444 -0.0386
  335TMC3    C7 5087   3.173   4.192  17.417 -0.0509  0.7016  0.4508
  335TMC3    C8 5088   2.754   4.010  17.286 -0.5487 -0.1739  0.2818
  335TMC3    O1 5089   3.191   4.193  17.297  0.2466  0.3316  0.0106
  335TMC3    O2 5090   2.768   4.081  17.184 -0.0759 -0.1051 -0.1472
  336MPD2     C 5091   2.714   1.570  16.418 -0.5731  0.1330  0.1594
  336MPD2    C1 5092   2.658   1.552  16.292  0.0222  0.6465 -0.2854
  336MPD2    C2 5093   2.664   1.417  16.247  0.3295 -0.7390  0.6103
  336MPD2    C3 5094   2.708   1.313  16.317 -0.3487  0.0912  0.0344
  336MPD2    C4 5095   2.767   1.340  16.438  0.0557 -0.6635  0.1796
  336MPD2    C5 5096   2.771   1.464  16.490 -0.8817  0.3372 -0.3601
  336MPD2     H 5097   2.609   1.386  16.159 -0.1480  0.2479  0.5558
  336MPD2    H1 5098   2.790   1.261  16.508  1.3702 -1.0691 -0.7166
  336MPD2    H2 5099   2.735   1.664  16.469 -0.4325 -0.9439  2.1063
  336MPD2    H3 5100   2.814   1.465  16.589 -0.2974 -0.5430 -0.6101
  336MPD2     N 5101   2.707   1.180  16.275 -0.9135  0.2723 -0.2900
  336MPD2    H5 5102   2.742   1.111  16.340 -0.9436 -0.2331 -0.8016
  336MPD2    N1 5103   2.605   1.654  16.209 -0.2487 -0.4196  0.2282
  336MPD2    H7 5104   2.564   1.621  16.122  2.5223 -1.3758 -0.7027
  337TMC3    C1 5105   2.524   1.863  16.151  0.8836 -0.2249 -0.9036
  337TMC3    C2 5106   2.442   1.799  16.055 -0.7402 -0.1169 -0.5696
  337TMC3    C3 5107   2.368   1.874  15.970 -0.2963 -0.3135 -0.1332
  337TMC3    C4 5108   2.532   2.003  16.155 -0.4520  0.0290  0.0499
  337TMC3    C5 5109   2.459   2.068  16.058  0.3254  0.5929  0.0038
  337TMC3    C6 5110   2.382   2.007  15.961 -0.3617 -0.1083  0.7406
  337TMC3     C 5111   2.591   1.785  16.247 -0.2281 -0.1638  0.3083
  337TMC3     O 5112   2.643   1.838  16.347  0.3316 -0.0513 -0.1254
  337TMC3     H 5113   2.418   1.696  16.078  0.0611 -0.2365 -0.2698
  337TMC3    H1 5114   2.603   2.055  16.218  3.2569 -2.4276 -2.0667
  337TMC3    H2 5115   2.320   2.067  15.894 -0.2216 -2.9790 -1.9453
  337TMC3    C7 5116   2.434   2.205  16.089  0.6361  0.1163  0.5224
  337TMC3    C8 5117   2.242   1.809  15.943 -0.1750  0.1862 -0.2782
  337TMC3    O1 5118   2.435   2.226  16.208  0.5062 -0.1932 -0.1736
  337TMC3    O2 5119   2.208   1.730  16.031 -0.7920  0.1389  0.3329
  338MPD2     C 5120   3.502   1.494   0.893  0.0253  0.2567  0.1854
  338MPD2    C1 5121   3.389   1.479   0.815  0.8311  0.3797  0.8936
  338MPD2    C2 5122   3.268   1.540   0.838 -0.5720  0.3553  0.1731
  338MPD2    C3 5123   3.256   1.611   0.954 -0.5252 -0.4660  0.1863
  338MPD2    C4 5124   3.361   1.615   1.045  0.5475  0.2006  0.8428
  338MPD2    C5 5125   3.487   1.563   1.010  0.0308 -0.2961  0.7215
  338MPD2     H 5126   3.185   1.524   0.770  0.4816 -0.0301 -1.0287
  338MPD2    H1 5127   3.347   1.667   1.139  0.3010 -1.9691  2.0106
  338MPD2    H2 5128   3.601   1.464   0.862  0.6657  2.0575  0.4763
  338MPD2    H3 5129   3.558   1.578   1.090  1.2384  1.4232 -0.6722
  338MPD2     N 5130   3.128   1.667   0.995 -0.4167 -0.4965  0.2893
  338MPD2    H5 5131   3.117   1.694   1.092  2.3859 -0.4593  0.5973
  338MPD2    N1 5132   3.398   1.405   0.692  0.2503 -0.4176  0.9040
  338MPD2    H7 5133   3.322   1.418   0.626 -0.6702 -0.6806  1.9144
  339TMC3    C1 5134   2.902   1.721   0.950  0.3841  0.0405  0.2248
  339TMC3    C2 5135   2.843   1.686   1.065 -0.2165 -0.5106  0.5156
  339TMC3    C3 5136   2.719   1.726   1.104  0.3470 -0.2519 -0.7950
  339TMC3    C4 5137   2.830   1.779   0.854 -1.0188  0.0997 -0.2006
  339TMC3    C5 5138   2.693   1.808   0.882 -0.1416 -0.6216 -0.3903
  339TMC3    C6 5139   2.636   1.784   1.008  0.7713 -0.3436  0.6306
  339TMC3     C 5140   3.026   1.677   0.901 -0.6537  0.2163 -0.2517
  339TMC3     O 5141   3.034   1.658   0.782 -1.0641  0.4936 -0.2587
  339TMC3     H 5142   2.905   1.647   1.145 -0.2626 -0.6885  0.4654
  339TMC3    H1 5143   2.883   1.810   0.765 -0.3622  0.0410  0.1688
  339TMC3    H2 5144   2.534   1.812   1.029  0.1464 -3.2329  1.3613
  339TMC3    C7 5145   2.625   1.858   0.763  0.4451  0.5843  0.6055
  339TMC3    C8 5146   2.648   1.653   1.202  0.3433  0.4495 -0.4246
  339TMC3    O1 5147   2.691   1.900   0.668 -0.5287 -0.0012 -0.2327
  339TMC3    O2 5148   2.552   1.705   1.254  0.1141 -0.3715  0.1467
  340MPD2     C 5149   2.747   3.942  10.160 -0.5170 -0.4101  0.0645
  340MPD2    C1 5150   2.776   3.810  10.176 -0.8465  0.4148  0.3320
  340MPD2    C2 5151   2.810   3.769  10.299  0.6207 -0.9297  0.7412
  340MPD2    C3 5152   2.827   3.853  10.401  0.0651  0.1798 -0.7534
  340MPD2    C4 5153   2.793   3.988  10.394 -1.2789 -0.0097  0.0340
  340MPD2    C5 5154   2.751   4.031  10.268 -0.1409 -0.0366 -0.3063
  340MPD2     H 5155   2.824   3.663  10.313 -2.8669 -1.4128  0.6021
  340MPD2    H1 5156   2.792   4.052  10.481 -0.3963 -1.2374  0.9537
  340MPD2    H2 5157   2.722   3.983  10.062  2.3038  0.4470 -0.2865
  340MPD2    H3 5158   2.731   4.135  10.243 -1.3411 -0.3738 -0.7720
  340MPD2     N 5159   2.883   3.817  10.522  0.3173 -0.1841 -0.2820
  340MPD2    H5 5160   2.884   3.883  10.599 -0.2018 -0.6186  0.1015
  340MPD2    N1 5161   2.777   3.730  10.058 -0.0156 -0.7925  0.0749
  340MPD2    H7 5162   2.742   3.769   9.971  0.2871 -1.9412 -0.5635
  341TMC3    C1 5163   2.840   3.550   9.923 -0.2241  0.7921 -0.1986
  341TMC3    C2 5164   2.811   3.415   9.914  0.1139  0.6393  0.5477
  341TMC3    C3 5165   2.862   3.343   9.807 -0.3880 -0.2439  0.1223
  341TMC3    C4 5166   2.904   3.618   9.824 -0.5431  0.4087 -0.2362
  341TMC3    C5 5167   2.954   3.541   9.726  0.0398  0.3421  0.8257
  341TMC3    C6 5168   2.933   3.405   9.710  0.8265  0.2647 -0.3716
  341TMC3     C 5169   2.817   3.602  10.056  0.0786  0.2267  0.7691
  341TMC3     O 5170   2.848   3.527  10.144 -0.2773  0.5507  0.4242
  341TMC3     H 5171   2.765   3.368  10.000 -0.8995  1.0150  0.2148
  341TMC3    H1 5172   2.914   3.726   9.822  2.6420  0.1141  0.0021
  341TMC3    H2 5173   2.971   3.354   9.621  2.3869 -0.0464  0.4765
  341TMC3    C7 5174   3.034   3.608   9.625 -0.2214  0.1711  0.3498
  341TMC3    C8 5175   2.854   3.196   9.815  0.0862 -0.7435  0.7711
  341TMC3    O1 5176   3.036   3.543   9.520  0.1703 -0.4442 -0.3954
  341TMC3    O2 5177   2.749   3.165   9.872 -0.8874 -0.1385  0.5566
  342MPD2     C 5178   0.727   2.139  17.310  0.5186 -0.3503 -0.1422
  342MPD2    C1 5179   0.794   2.173  17.193 -0.3854  0.2329 -0.0330
  342MPD2    C2 5180   0.852   2.305  17.186  0.2809 -0.0998 -0.0270
  342MPD2    C3 5181   0.833   2.392  17.298 -0.5379 -0.5999 -0.4770
  342MPD2    C4 5182   0.766   2.352  17.408  0.5426 -0.4275  0.4613
  342MPD2    C5 5183   0.733   2.221  17.419  0.4604  0.0379 -0.8607
  342MPD2     H 5184   0.897   2.335  17.092  0.1947  0.1330  0.0073
  342MPD2    H1 5185   0.738   2.416  17.491  1.4347  0.2742  0.2202
  342MPD2    H2 5186   0.685   2.040  17.314  1.3962 -0.8417 -2.8212
  342MPD2    H3 5187   0.686   2.182  17.509  2.2025 -0.7047 -0.2745
  342MPD2     N 5188   0.888   2.524  17.314 -0.5445 -0.6287 -0.1805
  342MPD2    H5 5189   0.875   2.581  17.397 -1.3482 -0.2038 -0.6012
  342MPD2    N1 5190   0.812   2.076  17.089 -0.8146  0.1918  0.0110
  342MPD2    H7 5191   0.875   2.115  17.021 -0.7230  1.1020  0.6161
  343TMC3    C1 5192   0.849   1.869  16.991 -0.1523 -0.1376 -0.1903
  343TMC3    C2 5193   0.986   1.877  16.993 -0.0283  0.4112  0.4254
  343TMC3    C3 5194   1.056   1.761  16.974  0.1644 -0.6307 -0.1863
  343TMC3    C4 5195   0.784   1.752  16.969  0.0300 -0.5278  0.0268
  343TMC3    C5 5196   0.855   1.640  16.933  0.0998 -0.2251 -0.3722
  343TMC3    C6 5197   0.990   1.644  16.939  0.1304 -0.4030  0.6745
  343TMC3     C 5198   0.768   1.945  17.082 -0.0820 -0.0777  0.0025
  343TMC3     O 5199   0.678   1.886  17.147  0.2432  0.6205  0.2686
  343TMC3     H 5200   1.037   1.966  17.027  2.1887 -1.2265  1.3678
  343TMC3    H1 5201   0.677   1.746  16.981 -0.0947  1.6721  0.0103
  343TMC3    H2 5202   1.040   1.550  16.917  0.4245 -0.0737 -0.0679
  343TMC3    C7 5203   0.789   1.511  16.950  0.7365 -0.2891 -0.1054
  343TMC3    C8 5204   1.200   1.764  16.997  0.0951 -0.1499  0.2373
  343TMC3    O1 5205   0.670   1.509  16.974 -0.0340  0.9757  0.1461
  343TMC3    O2 5206   1.248   1.871  17.016 -0.7397  0.4688 -0.5363
  344MPD2     C 5207   1.498   1.836  10.611  0.0909 -0.6059  0.2059
  344MPD2    C1 5208   1.604   1.797  10.692  0.4033 -0.7103 -0.1420
  344MPD2    C2 5209   1.706   1.890  10.710 -0.5962  0.1309  0.8733
  344MPD2    C3 5210   1.706   2.004  10.631  0.1591  0.2820  0.3159
  344MPD2    C4 5211   1.600   2.035  10.551  0.4284  0.0356 -0.5361
  344MPD2    C5 5212   1.490   1.953  10.540 -0.6085 -0.4433 -0.5939
  344MPD2     H 5213   1.789   1.867  10.776 -0.5578  1.3297  1.2256
  344MPD2    H1 5214   1.582   2.123  10.491  1.9684  0.9274  0.3298
  344MPD2    H2 5215   1.412   1.770  10.606 -0.0318 -0.5585  1.8289
  344MPD2    H3 5216   1.398   1.983  10.491 -1.0258 -1.4847 -0.4526
  344MPD2     N 5217   1.818   2.089  10.620 -0.1589 -0.4487 -0.0396
  344MPD2    H5 5218   1.815   2.171  10.560 -2.2959 -0.8401 -0.4645
  344MPD2    N1 5219   1.600   1.678  10.762  0.4426  0.7444 -0.5395
  344MPD2    H7 5220   1.662   1.670  10.842  0.5652 -0.5648 -0.7704
  345TMC3    C1 5221   2.042   2.167  10.634  0.3615 -0.5858 -0.2014
  345TMC3    C2 5222   2.116   2.237  10.723  0.5992 -0.5471  0.4269
  345TMC3    C3 5223   2.199   2.334  10.678 -0.5215 -0.1278  0.2097
  345TMC3    C4 5224   2.046   2.191  10.500 -0.1715 -0.5075 -0.2766
  345TMC3    C5 5225   2.112   2.305  10.463  0.3269  0.3723  0.6574
  345TMC3    C6 5226   2.185   2.380  10.549 -1.2128 -0.1015  0.1309
  345TMC3     C 5227   1.942   2.081  10.688 -0.1173 -0.1173 -0.8962
  345TMC3     O 5228   1.975   2.012  10.783 -0.3735  0.2845 -0.1934
  345TMC3     H 5229   2.107   2.221  10.830 -1.2608  0.1729  0.3739
  345TMC3    H1 5230   1.985   2.140  10.426  0.7484  1.2822 -2.2651
  345TMC3    H2 5231   2.242   2.466  10.516 -0.1798 -0.9700 -0.3361
  345TMC3    C7 5232   2.083   2.369  10.339  0.0156 -0.1604  0.7126
  345TMC3    C8 5233   2.249   2.427  10.778  0.5872  0.1843 -0.1972
  345TMC3    O1 5234   2.105   2.307  10.232  0.2259  0.4588 -0.3896
  345TMC3    O2 5235   2.187   2.436  10.880 -0.2098  0.3243 -0.1931
  346MPD2     C 5236   1.237   3.461  14.527 -0.4162 -0.2181 -0.4228
  346MPD2    C1 5237   1.334   3.407  14.450 -0.7150 -0.5562 -0.0713
  346MPD2    C2 5238   1.463   3.419  14.493  1.1043  0.0907  0.2500
  346MPD2    C3 5239   1.495   3.460  14.624 -0.0065  0.2488  0.5796
  346MPD2    C4 5240   1.393   3.506  14.701  0.6091 -0.1743  0.2214
  346MPD2    C5 5241   1.264   3.524  14.652  0.1214  0.6161  0.3225
  346MPD2     H 5242   1.536   3.386  14.421  0.5587  0.8296 -0.6459
  346MPD2    H1 5243   1.418   3.545  14.799  2.5113  1.2653 -0.8615
  346MPD2    H2 5244   1.134   3.475  14.494 -1.0410 -0.0095  1.5784
  346MPD2    H3 5245   1.182   3.565  14.710  0.2970  1.2027  0.1646
  346MPD2     N 5246   1.621   3.459  14.684  0.9054  0.0085  0.0053
  346MPD2    H5 5247   1.625   3.492  14.780 -2.7439 -0.9797  0.4655
  346MPD2    N1 5248   1.312   3.349  14.321 -0.4559 -0.9456 -0.0455
  346MPD2    H7 5249   1.396   3.326  14.270  1.4234  0.8066  2.2671
  347TMC3    C1 5250   1.857   3.445  14.698 -0.4371 -0.1181  0.8882
  347TMC3    C2 5251   1.976   3.479  14.637 -0.1637  0.2159  0.0897
  347TMC3    C3 5252   2.085   3.417  14.682 -0.1476  0.5515 -0.0151
  347TMC3    C4 5253   1.850   3.355  14.799 -0.0853 -0.2858 -0.8014
  347TMC3    C5 5254   1.966   3.293  14.845  0.4496 -0.7650  0.2065
  347TMC3    C6 5255   2.081   3.326  14.776  0.6594  0.2117  0.3278
  347TMC3     C 5256   1.741   3.443  14.613 -0.1211  0.2344  0.4982
  347TMC3     O 5257   1.758   3.423  14.493  0.2160  0.0785  0.6679
  347TMC3     H 5258   1.960   3.546  14.554 -1.2407  0.7150  0.7055
  347TMC3    H1 5259   1.755   3.321  14.840 -0.0253  0.9537  0.3554
  347TMC3    H2 5260   2.171   3.271  14.802 -1.8370 -1.5076  5.3546
  347TMC3    C7 5261   1.952   3.190  14.948  0.2993  0.2140 -0.3637
  347TMC3    C8 5262   2.208   3.431  14.616 -0.0955  0.1586  0.7461
  347TMC3    O1 5263   1.843   3.189  15.002 -0.8589  0.2403  0.0573
  347TMC3    O2 5264   2.298   3.346  14.631  0.3204  0.8024 -0.1329
  348MPD2     C 5265   0.986   3.268  11.933 -0.5755  0.0596 -0.2981
  348MPD2    C1 5266   0.870   3.240  11.862 -0.4630 -0.0181  0.4470
  348MPD2    C2 5267   0.802   3.349  11.806  0.0968  0.5293 -0.0378
  348MPD2    C3 5268   0.862   3.470  11.806 -0.5173  0.1983  0.2178
  348MPD2    C4 5269   0.980   3.496  11.876  0.3918  0.3097  0.5382
  348MPD2    C5 5270   1.043   3.394  11.945 -0.3352 -0.0906 -0.2231
  348MPD2     H 5271   0.709   3.344  11.751 -1.6033  0.7635  2.7882
  348MPD2    H1 5272   1.031   3.591  11.877  0.0002  0.5420 -1.0393
  348MPD2    H2 5273   1.039   3.192  11.990 -1.2981 -0.7492 -0.7088
  348MPD2    H3 5274   1.132   3.418  12.002 -2.2339  0.8489  2.3249
  348MPD2     N 5275   0.794   3.570  11.727 -0.0990 -0.1599 -0.6209
  348MPD2    H5 5276   0.717   3.535  11.671 -0.3293  0.2611 -0.5643
  348MPD2    N1 5277   0.818   3.110  11.852 -0.1056  0.6785 -0.0321
  348MPD2    H7 5278   0.739   3.091  11.791 -0.2143  1.3474 -0.1015
  349TMC3    C1 5279   0.789   2.872  11.880  0.3616  0.1113 -0.3826
  349TMC3    C2 5280   0.834   2.762  11.944  0.4436 -0.4529 -0.4084
  349TMC3    C3 5281   0.750   2.656  11.952 -0.2402 -0.5736 -0.6339
  349TMC3    C4 5282   0.666   2.888  11.830  0.1341 -0.5163  0.2494
  349TMC3    C5 5283   0.586   2.772  11.846 -0.2108 -0.5549 -0.3389
  349TMC3    C6 5284   0.627   2.651  11.895  0.2089  0.0589 -0.4906
  349TMC3     C 5285   0.869   2.994  11.911  0.3369 -0.2753 -0.2530
  349TMC3     O 5286   0.960   2.989  11.988  0.0104  0.0533  0.3923
  349TMC3     H 5287   0.933   2.761  11.987  0.2334  0.8042  0.1251
  349TMC3    H1 5288   0.624   2.973  11.778 -1.8365 -0.8830  1.2329
  349TMC3    H2 5289   0.556   2.569  11.901 -1.1920  1.2370 -1.0041
  349TMC3    C7 5290   0.468   2.768  11.755 -0.7225  0.6007 -0.6893
  349TMC3    C8 5291   0.786   2.559  12.056  0.1346  0.0528  0.0394
  349TMC3    O1 5292   0.443   2.667  11.693  0.1852  0.0797 -0.3585
  349TMC3    O2 5293   0.887   2.588  12.116 -0.4700 -0.3909  0.1798
  350MPD2     C 5294   3.909   1.178  10.101 -0.8087 -0.2294 -0.4147
  350MPD2    C1 5295   3.983   1.062  10.103  0.7029 -0.2718 -0.7031
  350MPD2    C2 5296   4.082   1.053  10.195  0.6143  0.2077 -0.2446
  350MPD2    C3 5297   4.099   1.146  10.294 -0.9191 -0.1243 -0.1619
  350MPD2    C4 5298   4.027   1.267  10.294  0.2270 -0.4267  0.3404
  350MPD2    C5 5299   3.941   1.281  10.194  0.4531  0.4608  0.1048
  350MPD2     H 5300   4.150   0.968  10.196  3.2678  2.2999 -0.5817
  350MPD2    H1 5301   4.025   1.350  10.363  0.2243  0.1003 -0.2970
  350MPD2    H2 5302   3.828   1.198  10.032 -1.9956 -0.3838  0.9128
  350MPD2    H3 5303   3.871   1.364  10.188  0.1652  0.3419  1.8092
  350MPD2     N 5304   4.196   1.115  10.396 -0.0448  0.5913 -0.1780
  350MPD2    H5 5305   4.254   1.032  10.389 -0.2754  0.4142  0.0237
  350MPD2    N1 5306   3.968   0.958  10.017 -0.4357  0.5810 -0.2870
  350MPD2    H7 5307   4.023   0.875  10.037 -0.8067  0.5785  0.7311
  351TMC3    C1 5308   3.876   0.816   9.847 -0.3807  0.3164  0.8426
  351TMC3    C2 5309   3.987   0.741   9.844 -0.2117  0.9893  0.2525
  351TMC3    C3 5310   3.970   0.622   9.771 -0.1861  0.7632 -0.2701
  351TMC3    C4 5311   3.756   0.787   9.784 -0.1191  0.0657  0.3731
  351TMC3    C5 5312   3.756   0.681   9.705 -0.2072 -0.2853 -0.0667
  351TMC3    C6 5313   3.858   0.580   9.708  0.9532 -0.0455 -0.5718
  351TMC3     C 5314   3.873   0.942   9.917  0.0098  0.6534 -0.0912
  351TMC3     O 5315   3.791   1.022   9.881  0.7359  0.0258  0.3353
  351TMC3     H 5316   4.089   0.776   9.858  0.0986 -0.4494  1.5827
  351TMC3    H1 5317   3.664   0.846   9.787 -1.5669 -2.1731 -0.1013
  351TMC3    H2 5318   3.870   0.491   9.648  0.4950 -1.4761  1.4652
  351TMC3    C7 5319   3.639   0.660   9.619  0.1490  0.1726 -0.5380
  351TMC3    C8 5320   4.095   0.533   9.765  0.5578 -0.5375 -0.2238
  351TMC3    O1 5321   3.566   0.748   9.580  0.1797  0.3456 -0.5114
  351TMC3    O2 5322   4.095   0.454   9.670 -0.1389 -0.2105 -0.3869
  352MPD2     C 5323   3.196   3.855   0.747 -0.0956 -0.4412 -0.3975
  352MPD2    C1 5324   3.159   3.722   0.762 -0.0904  0.2375  0.2060
  352MPD2    C2 5325   3.244   3.615   0.746  0.9746 -0.5346 -0.1881
  352MPD2    C3 5326   3.375   3.632   0.715  0.1134 -0.3419  0.0807
  352MPD2    C4 5327   3.422   3.763   0.703 -0.0849  0.0495 -0.6423
  352MPD2    C5 5328   3.329   3.867   0.718 -0.7330  0.3186  0.1240
  352MPD2     H 5329   3.216   3.517   0.784  0.8246 -0.2301  0.4887
  352MPD2    H1 5330   3.517   3.780   0.653  1.4101 -2.9086  1.1854
  352MPD2    H2 5331   3.133   3.943   0.751  0.4668 -0.1132  1.3398
  352MPD2    H3 5332   3.361   3.967   0.693  0.8669  0.0073  0.8942
  352MPD2     N 5333   3.467   3.529   0.686  0.2398  0.4435  0.1012
  352MPD2    H5 5334   3.566   3.551   0.683  0.7342 -1.9243 -1.7731
  352MPD2    N1 5335   3.026   3.699   0.806 -0.4463  0.5261  0.3291
  352MPD2    H7 5336   2.965   3.779   0.813 -0.5274  0.4583  0.3871
  353TMC3    C1 5337   3.523   3.311   0.624 -0.1236  0.4513  0.6200
  353TMC3    C2 5338   3.603   3.273   0.725 -0.1036 -0.8931  0.1446
  353TMC3    C3 5339   3.628   3.138   0.742 -0.4083  0.4243 -0.3305
  353TMC3    C4 5340   3.467   3.219   0.539  0.1937  0.2244  0.0189
  353TMC3    C5 5341   3.477   3.084   0.571 -0.6539  0.2947  0.7635
  353TMC3    C6 5342   3.563   3.042   0.668  0.0636  0.4323 -0.6314
  353TMC3     C 5343   3.423   3.405   0.647 -0.1928 -0.8433 -0.3825
  353TMC3     O 5344   3.304   3.372   0.633  0.1035  0.1867  0.3379
  353TMC3     H 5345   3.657   3.345   0.785  2.0165 -2.8610  0.5755
  353TMC3    H1 5346   3.397   3.246   0.461 -1.8532 -1.8081  1.1392
  353TMC3    H2 5347   3.572   2.936   0.691  0.4459  0.6529  0.2290
  353TMC3    C7 5348   3.354   3.006   0.585  0.7436  0.0220  0.1782
  353TMC3    C8 5349   3.736   3.108   0.834 -0.2690 -0.2681  0.2158
  353TMC3    O1 5350   3.368   2.889   0.611 -0.2821 -0.2796  0.4350
  353TMC3    O2 5351   3.812   3.198   0.868  0.3028  0.5475 -0.1438
  354TMC3    C1 5352   4.050   4.427  13.467  0.1373 -0.0631  0.8851
  354TMC3    C2 5353   4.068   4.560  13.440 -0.2336 -0.3331  0.4542
  354TMC3    C3 5354   4.125   4.599  13.318 -0.1739 -0.6110 -0.4174
  354TMC3    C4 5355   4.089   4.331  13.375  0.5796 -0.1097  0.1945
  354TMC3    C5 5356   4.174   4.377  13.272  0.1591  0.4706 -0.2505
  354TMC3    C6 5357   4.183   4.510  13.241 -0.4459  0.4940 -0.1168
  354TMC3     C 5358   4.005   4.381  13.600  0.8858 -1.0291  0.5873
  354TMC3     O 5359   4.005   4.259  13.618  0.1322 -0.3745  1.0039
  354TMC3     H 5360   4.026   4.642  13.497 -0.4999  0.1300 -0.4058
  354TMC3    H1 5361   4.090   4.227  13.405  0.3756 -0.0511  0.4092
  354TMC3    H2 5362   4.234   4.541  13.151 -0.2314 -0.6471 -0.3868
  354TMC3    C7 5363   4.293   4.292  13.243 -0.4643  0.5266  0.8818
  354TMC3    C8 5364   4.180   4.737  13.302 -0.6590 -0.0458 -0.3366
  354TMC3    O1 5365   4.276   4.175  13.212 -0.0104 -0.1278 -0.1533
  354TMC3    O2 5366   4.203   0.041  13.188 -0.0832  0.4388 -0.2762
  355MPD2     C 5367   0.522   0.438  12.379 -0.7538  0.1237  0.4839
  355MPD2    C1 5368   0.533   0.530  12.279  0.5566  0.0593 -0.2012
  355MPD2    C2 5369   0.557   0.661  12.321  0.3048  0.0002  0.4424
  355MPD2    C3 5370   0.581   0.691  12.451  0.6366 -0.4346  0.0992
  355MPD2    C4 5371   0.577   0.600  12.553 -0.1467 -0.2645  0.0395
  355MPD2    C5 5372   0.537   0.477  12.514  0.0837  0.0837  0.5896
  355MPD2     H 5373   0.572   0.742  12.250  0.7988  0.4197  1.0317
  355MPD2    H1 5374   0.602   0.623  12.656  0.4420  2.3003 -0.6789
  355MPD2    H2 5375   0.490   0.336  12.358 -1.1931  0.8315 -2.3499
  355MPD2    H3 5376   0.514   0.401  12.588 -2.2738  1.4154  1.2444
  355MPD2     N 5377   0.606   0.829  12.470  0.7277  0.5885  0.6306
  355MPD2    H5 5378   0.609   0.887  12.386 -0.7788  0.3137  0.3946
  355MPD2    N1 5379   0.521   0.486  12.150  0.3129 -0.6610 -0.3873
  355MPD2    H7 5380   0.477   0.395  12.144 -1.3475  0.1598 -0.5987
  356TMC3    C1 5381   0.712   1.023  12.548 -0.4801  0.4555  0.2224
  356TMC3    C2 5382   0.689   1.072  12.422  0.0087 -0.2060 -0.5602
  356TMC3    C3 5383   0.752   1.184  12.382  0.0374 -0.6676 -0.7538
  356TMC3    C4 5384   0.796   1.083  12.639 -0.4418  0.9203  0.3676
  356TMC3    C5 5385   0.852   1.204  12.594  0.0617  0.5496 -0.5012
  356TMC3    C6 5386   0.830   1.257  12.466 -0.8573  0.0636 -0.1703
  356TMC3     C 5387   0.654   0.891  12.584  0.3895  0.2632 -0.1465
  356TMC3     O 5388   0.676   0.856  12.693 -0.0327  0.0232 -0.2935
  356TMC3     H 5389   0.599   1.045  12.368  0.6414 -0.3275 -1.5485
  356TMC3    H1 5390   0.825   1.036  12.732 -0.5086  0.6595  0.2570
  356TMC3    H2 5391   0.878   1.347  12.430  1.5681 -0.6563  1.2816
  356TMC3    C7 5392   0.975   1.240  12.662 -0.4863  1.0106  0.0238
  356TMC3    C8 5393   0.759   1.211  12.236  0.3197 -0.1931  0.1865
  356TMC3    O1 5394   1.019   1.169  12.752  0.2219  0.1395  0.2088
  356TMC3    O2 5395   0.684   1.147  12.166  0.3545 -0.3104  0.1607
  357MPD2     C 5396   0.521   0.713   1.013  0.8857  0.2870 -0.0946
  357MPD2    C1 5397   0.400   0.684   0.956 -0.0287  0.2489  0.0939
  357MPD2    C2 5398   0.278   0.747   0.981 -0.3023 -0.1857 -0.3282
  357MPD2    C3 5399   0.284   0.845   1.085  0.0169 -0.6579  0.8534
  357MPD2    C4 5400   0.405   0.877   1.145  0.0755  0.3350 -0.3429
  357MPD2    C5 5401   0.522   0.813   1.106  0.7651 -0.0316  0.4024
  357MPD2     H 5402   0.187   0.727   0.925 -2.1386  1.3373  2.0991
  357MPD2    H1 5403   0.416   0.968   1.203  1.8067  0.5084 -0.9554
  357MPD2    H2 5404   0.609   0.653   0.992  1.2067  0.7345 -0.0268
  357MPD2    H3 5405   0.616   0.853   1.141  0.9290  0.4314 -0.5681
  357MPD2     N 5406   0.169   0.903   1.141  0.1304 -0.2497  0.1171
  357MPD2    H5 5407   0.186   0.956   1.226 -0.5620 -1.1025  0.7845
  357MPD2    N1 5408   0.405   0.568   0.875 -0.2397 -0.6453 -0.1356
  357MPD2    H7 5409   0.496   0.526   0.859 -0.2135 -0.4877 -0.4030
  358TMC3    C1 5410   0.334   0.369   0.780  0.5055  0.6322  0.9732
  358TMC3    C2 5411   0.248   0.304   0.702  0.3468  0.0869  0.7259
  358TMC3    C3 5412   0.247   0.169   0.698  0.2761 -0.0746  0.3091
  358TMC3    C4 5413   0.416   0.300   0.862 -0.1387 -0.3773  0.2090
  358TMC3    C5 5414   0.405   0.160   0.868 -0.1053  0.0198  0.0448
  358TMC3    C6 5415   0.340   0.096   0.766 -1.1761 -0.0007  0.3332
  358TMC3     C 5416   0.295   0.505   0.826  0.1444  0.8986  0.0427
  358TMC3     O 5417   0.178   0.533   0.814 -0.1972  0.4134 -0.4095
  358TMC3     H 5418   0.178   0.357   0.637  0.7069 -0.8161 -0.3979
  358TMC3    H1 5419   0.470   0.349   0.943 -1.0070 -0.6022  0.9214
  358TMC3    H2 5420   0.356   4.726   0.755  1.9157  0.4438  0.6136
  358TMC3    C7 5421   0.463   0.071   0.972 -0.1326  0.0474  0.3042
  358TMC3    C8 5422   0.174   0.096   0.595 -0.1549 -0.1940  0.5480
  358TMC3    O1 5423   0.510   4.707   0.926  0.0489  0.6578  0.1881
  358TMC3    O2 5424   0.143   0.152   0.493 -0.4219  0.3725  0.2032
  359MPD2     C 5425   0.631   3.516  13.054  0.2347  0.3849  0.1555
  359MPD2    C1 5426   0.551   3.583  12.967 -0.3319  0.1807  0.6935
  359MPD2    C2 5427   0.416   3.584  12.970  0.2705 -0.2402 -0.1971
  359MPD2    C3 5428   0.354   3.501  13.060  0.0120  0.4847  1.2283
  359MPD2    C4 5429   0.428   3.432  13.150 -0.2987 -0.7907 -0.4266
  359MPD2    C5 5430   0.562   3.452  13.156  0.2989  0.4721  0.4361
  359MPD2     H 5431   0.364   3.631  12.887  2.4602  2.3876 -0.0564
  359MPD2    H1 5432   0.381   3.356  13.211  1.0799  0.7620  2.5119
  359MPD2    H2 5433   0.738   3.509  13.041  0.2148  1.0645 -0.3073
  359MPD2    H3 5434   0.618   3.390  13.226 -0.3984 -0.1777  0.4239
  359MPD2     N 5435   0.216   3.478  13.062 -0.6735 -0.2735  0.7133
  359MPD2    H5 5436   0.167   3.404  13.110 -0.2774  0.2368  1.8971
  359MPD2    N1 5437   0.610   3.664  12.860  0.2009 -0.7489 -0.3720
  359MPD2    H7 5438   0.541   3.695  12.793  0.3540 -1.0291 -0.6609
  360TMC3    C1 5439   0.748   3.787  12.728 -0.1270  0.1263  0.5386
  360TMC3    C2 5440   0.833   3.891  12.726  0.0741 -0.1868  0.1199
  360TMC3    C3 5441   0.844   3.960  12.605 -0.3292 -0.4520 -0.2794
  360TMC3    C4 5442   0.683   3.738  12.615  0.7805 -0.2589 -0.0878
  360TMC3    C5 5443   0.691   3.814  12.500  0.0149 -0.1590 -0.6403
  360TMC3    C6 5444   0.774   3.925  12.493  0.6198  0.0795  0.3689
  360TMC3     C 5445   0.737   3.706  12.852 -0.5919  0.6006  0.2268
  360TMC3     O 5446   0.828   3.705  12.930 -0.3562 -0.0604  0.1722
  360TMC3     H 5447   0.913   3.898  12.799  0.3396  0.6448 -0.2505
  360TMC3    H1 5448   0.617   3.653  12.624  0.8645 -0.2928  0.2123
  360TMC3    H2 5449   0.753   4.003  12.420  0.0194 -2.1465 -1.8114
  360TMC3    C7 5450   0.626   3.775  12.375  0.7837  0.0241  0.2121
  360TMC3    C8 5451   0.961   4.040  12.580  0.1528  0.1528 -0.0079
  360TMC3    O1 5452   0.564   3.861  12.313 -0.2385  0.6924 -0.6974
  360TMC3    O2 5453   1.000   4.133  12.654 -0.2068  0.2416  0.3907
  361MPD2     C 5454   1.880   2.602  16.524 -0.7819 -0.3262 -0.1586
  361MPD2    C1 5455   1.922   2.650  16.642  0.6781  0.1595 -0.0296
  361MPD2    C2 5456   2.040   2.609  16.699 -0.7291  0.6099 -0.3768
  361MPD2    C3 5457   2.106   2.502  16.647  0.4880 -0.4446 -0.2732
  361MPD2    C4 5458   2.064   2.452  16.526  0.2368  0.2413  0.5406
  361MPD2    C5 5459   1.948   2.499  16.465 -0.4383 -1.1589  0.3485
  361MPD2     H 5460   2.076   2.659  16.789 -1.1693  1.2762 -0.5688
  361MPD2    H1 5461   2.119   2.373  16.475  0.2147 -1.4538  3.1766
  361MPD2    H2 5462   1.796   2.647  16.473 -2.8573 -2.5032  1.3487
  361MPD2    H3 5463   1.911   2.455  16.373  0.6117 -1.8578  0.2657
  361MPD2     N 5464   2.209   2.440  16.708  0.7725  0.0430 -0.0629
  361MPD2    H5 5465   2.248   2.356  16.667  1.9858  0.3908  0.3708
  361MPD2    N1 5466   1.853   2.755  16.715  0.7451  0.3557 -0.4850
  361MPD2    H7 5467   1.893   2.791  16.801 -0.1786  1.6342 -0.6074
  362TMC3    C1 5468   1.696   2.902  16.799  0.5046  0.2498  0.4058
  362TMC3    C2 5469   1.576   2.883  16.854  1.1400  0.5578  1.0410
  362TMC3    C3 5470   1.506   2.994  16.897 -0.1407  0.1704 -1.3112
  362TMC3    C4 5471   1.745   3.031  16.771  0.1789 -0.1958 -0.4290
  362TMC3    C5 5472   1.672   3.138  16.821  0.1944 -0.7886  0.1288
  362TMC3    C6 5473   1.559   3.120  16.894 -0.2271 -0.3476 -0.0298
  362TMC3     C 5474   1.724   2.799  16.702 -0.1538  0.4771 -0.0409
  362TMC3     O 5475   1.646   2.786  16.606  0.4046 -0.0256  0.1676
  362TMC3     H 5476   1.531   2.784  16.857  0.0679  0.9734 -0.9132
  362TMC3    H1 5477   1.843   3.045  16.726 -0.2223  0.6444 -1.0492
  362TMC3    H2 5478   1.505   3.208  16.926  2.5267  0.9317  1.1177
  362TMC3    C7 5479   1.662   3.256  16.725 -0.3814  0.3531  0.7249
  362TMC3    C8 5480   1.360   2.976  16.920 -0.4365  0.5589 -0.4228
  362TMC3    O1 5481   1.547   3.294  16.713 -0.2543  0.3718 -0.0513
  362TMC3    O2 5482   1.314   2.869  16.885 -0.5906 -0.0945 -0.3825
  363TMC3    C1 5483   4.494   0.396   9.336 -0.1004 -0.4308 -0.3708
  363TMC3    C2 5484   4.611   0.380   9.405 -0.0701  0.4413 -0.2531
  363TMC3    C3 5485   4.646   0.470   9.503 -0.4894 -0.8726  0.3757
  363TMC3    C4 5486   4.405   0.493   9.376 -0.3130 -0.1805  0.0756
  363TMC3    C5 5487   4.447   0.582   9.475  0.8033  0.4495  0.0888
  363TMC3    C6 5488   4.569   0.580   9.526  0.3896 -0.0183 -0.3750
  363TMC3     C 5489   4.494   0.352   9.201  0.2025 -0.0569  0.0981
  363TMC3     O 5490   4.573   0.263   9.175 -0.0653 -0.1247  0.0094
  363TMC3     H 5491   4.673   0.294   9.381 -0.4474  0.1139 -0.0595
  363TMC3    H1 5492   4.317   0.515   9.317  0.8985 -0.8916 -1.9765
  363TMC3    H2 5493   4.602   0.655   9.597  1.9104  2.5052 -3.7748
  363TMC3    C7 5494   4.371   0.700   9.503  0.3876  0.0102 -0.3739
  363TMC3    C8 5495   0.020   0.452   9.602  0.1099  0.2700  0.6894
  363TMC3    O1 5496   4.438   0.784   9.558 -0.8271 -0.2490  0.3960
  363TMC3    O2 5497   0.038   0.529   9.694  0.5400  0.8903 -0.2351
  364MPD2     C 5498   4.220   3.918  10.088 -0.6933  1.0817  0.0383
  364MPD2    C1 5499   4.262   4.015  10.176  0.6629 -0.7724 -0.6572
  364MPD2    C2 5500   4.280   3.972  10.304 -0.7703 -0.1594  0.3340
  364MPD2    C3 5501   4.264   3.838  10.336  0.0425 -0.3969  0.8785
  364MPD2    C4 5502   4.221   3.743  10.252  0.1287 -0.0809  0.4318
  364MPD2    C5 5503   4.199   3.785  10.123 -0.6340  0.2552 -0.3221
  364MPD2     H 5504   4.325   4.036  10.380  1.4518 -0.9112 -0.3559
  364MPD2    H1 5505   4.201   3.641  10.282  2.7196 -0.3796  1.1475
  364MPD2    H2 5506   4.199   3.952   9.987  1.2699 -1.5380 -1.2493
  364MPD2    H3 5507   4.171   3.702  10.060 -0.5521  0.4591 -0.6300
  364MPD2     N 5508   4.269   3.801  10.472 -0.2295 -0.2991 -0.0485
  364MPD2    H5 5509   4.286   3.703  10.492  0.6499 -0.3116 -0.8081
  364MPD2    N1 5510   4.273   4.152  10.144 -0.1143  0.2742 -0.2632
  364MPD2    H7 5511   4.276   4.178  10.046 -0.7337 -0.8364 -0.5740
  365TMC3    C1 5512   4.301   4.396  10.178 -0.4446  0.6724 -0.2709
  365TMC3    C2 5513   4.360   4.405  10.062 -0.2128  0.3022  0.7705
  365TMC3    C3 5514   4.457   4.492  10.025  0.0711 -0.0948  0.0332
  365TMC3    C4 5515   4.316   4.502  10.269 -0.3951  0.4711 -0.5722
  365TMC3    C5 5516   4.412   4.590  10.237  0.1535  0.3698 -0.0561
  365TMC3    C6 5517   4.476   4.597  10.112 -0.6399  0.2706  0.7912
  365TMC3     C 5518   4.271   4.258  10.234  0.4937 -0.2365  0.3294
  365TMC3     O 5519   4.268   4.255  10.357 -0.7767 -0.2033  0.7185
  365TMC3     H 5520   4.331   4.328   9.991  0.6624 -0.1043  0.8480
  365TMC3    H1 5521   4.272   4.496  10.368  0.4101  2.0913 -0.1029
  365TMC3    H2 5522   4.549   4.670  10.082 -0.1439 -0.6489 -0.2207
  365TMC3    C7 5523   4.448   4.695  10.329 -0.1894 -0.0852 -0.6378
  365TMC3    C8 5524   4.487   4.513   9.888  0.2615 -0.2763  0.0615
  365TMC3    O1 5525   4.533   0.032  10.282  0.1012 -0.2558  0.0033
  365TMC3    O2 5526   4.480   4.629   9.845 -0.0549 -0.4768 -0.0570
  366MPD2     C 5527   2.202   0.576  15.357 -0.1856  0.2160 -0.0720
  366MPD2    C1 5528   2.284   0.683  15.382 -0.5073 -0.1126  0.4926
  366MPD2    C2 5529   2.416   0.689  15.338 -0.0717  0.0748 -0.7435
  366MPD2    C3 5530   2.449   0.598  15.241 -0.4469 -0.4928  0.4604
  366MPD2    C4 5531   2.377   0.480  15.220  0.2685  0.7648  0.0713
  366MPD2    C5 5532   2.261   0.468  15.294  0.5716 -0.1164  0.2759
  366MPD2     H 5533   2.488   0.766  15.365  0.8174 -0.0059 -2.9180
  366MPD2    H1 5534   2.415   0.405  15.151 -0.4452  0.9529 -0.5303
  366MPD2    H2 5535   2.095   0.572  15.376  0.2809  3.5272  3.4352
  366MPD2    H3 5536   2.201   0.379  15.279 -2.6346  2.2869 -1.1450
  366MPD2     N 5537   2.564   0.628  15.173  0.2809 -0.1984  0.5539
  366MPD2    H5 5538   2.623   0.705  15.205  2.3755 -0.4117 -2.8249
  366MPD2    N1 5539   2.242   0.806  15.443 -0.3526 -0.0957 -0.1137
  366MPD2    H7 5540   2.313   0.878  15.448  0.7173 -1.2494  1.6541
  367TMC3    C1 5541   2.111   0.979  15.479  0.3149  0.1440  0.2397
  367TMC3    C2 5542   2.214   1.037  15.549  0.3887 -0.2472  0.0660
  367TMC3    C3 5543   2.239   1.170  15.525 -0.3301 -0.1374 -0.3389
  367TMC3    C4 5544   2.026   1.046  15.392 -0.5572 -0.4696 -0.0521
  367TMC3    C5 5545   2.056   1.180  15.372  0.0695  0.1384 -0.2080
  367TMC3    C6 5546   2.162   1.242  15.434 -0.1147  0.1067 -0.2177
  367TMC3     C 5547   2.114   0.836  15.474  0.2440  0.4904 -0.2088
  367TMC3     O 5548   2.005   0.782  15.452 -0.9309 -0.0483  0.2258
  367TMC3     H 5549   2.265   0.990  15.633  0.3573  0.0355  0.2416
  367TMC3    H1 5550   1.949   0.990  15.341 -1.2318  1.4424 -1.1360
  367TMC3    H2 5551   2.180   1.348  15.427  1.1635 -0.0279  1.1316
  367TMC3    C7 5552   2.000   1.254  15.262  0.4404  0.1746  0.3788
  367TMC3    C8 5553   2.339   1.241  15.597 -0.0587  0.4035  0.3807
  367TMC3    O1 5554   2.078   1.338  15.220  0.0993 -0.5236  0.1757
  367TMC3    O2 5555   2.373   1.180  15.695  0.3541 -0.0970 -0.2766
  368MPD2     C 5556   3.516   2.789  13.172  0.2344 -0.1324 -0.4567
  368MPD2    C1 5557   3.495   2.920  13.198 -0.6910 -0.4659 -0.0522
  368MPD2    C2 5558   3.550   2.969  13.315  0.1988  0.0962 -0.4426
  368MPD2    C3 5559   3.645   2.897  13.391  0.3066 -0.1634  0.5449
  368MPD2    C4 5560   3.668   2.767  13.356 -0.3309  0.5272 -0.2748
  368MPD2    C5 5561   3.604   2.714  13.246  0.0333 -0.6831 -0.4895
  368MPD2     H 5562   3.518   3.068  13.345 -0.4920 -0.9870  2.3380
  368MPD2    H1 5563   3.745   2.708  13.405  1.1600  2.9785  0.3363
  368MPD2    H2 5564   3.465   2.742  13.088 -0.3301  2.3996 -1.5229
  368MPD2    H3 5565   3.621   2.615  13.205 -1.9779 -1.0379 -0.4497
  368MPD2     N 5566   3.724   2.962  13.486 -0.0616  0.3885  0.2450
  368MPD2    H5 5567   3.815   2.920  13.503 -0.1999  0.5457  1.3779
  368MPD2    N1 5568   3.396   2.983  13.119 -0.0736 -0.5864  0.1010
  368MPD2    H7 5569   3.369   2.942  13.031 -0.9637 -2.6822  1.3578
  369TMC3    C1 5570   3.224   3.122  13.054 -0.6548  0.0995 -0.0350
  369TMC3    C2 5571   3.191   3.256  13.042  0.1537 -0.2122  0.9093
  369TMC3    C3 5572   3.062   3.292  13.010  0.2048 -0.8631 -0.6007
  369TMC3    C4 5573   3.130   3.031  13.019 -0.3893  0.2326 -0.2560
  369TMC3    C5 5574   3.000   3.066  12.976 -0.3277  0.6489  0.3906
  369TMC3    C6 5575   2.969   3.196  12.982 -0.9791  0.9324  0.7031
  369TMC3     C 5576   3.336   3.104  13.141  0.1903  0.2287  1.1995
  369TMC3     O 5577   3.355   3.199  13.220 -0.0582 -0.3225  1.0979
  369TMC3     H 5578   3.268   3.333  13.050  0.5369 -0.4732 -0.2211
  369TMC3    H1 5579   3.138   2.931  13.060  1.2601  0.1100 -0.8628
  369TMC3    H2 5580   2.869   3.235  12.966 -0.1291  1.6148 -3.0225
  369TMC3    C7 5581   2.896   2.967  13.009  0.7334  0.4017  0.2747
  369TMC3    C8 5582   3.028   3.424  12.977  0.0303 -0.4328 -0.6316
  369TMC3    O1 5583   2.921   2.881  13.093 -1.1977  0.5413  0.3720
  369TMC3    O2 5584   2.916   3.459  13.005  0.0424  0.1632 -0.4642
  370TMC3    C1 5585   2.795   3.509  16.214 -0.0286  0.2899  0.5435
  370TMC3    C2 5586   2.718   3.461  16.317 -0.2873  0.3853 -0.3358
  370TMC3    C3 5587   2.685   3.330  16.309  0.7905 -0.3371 -0.5015
  370TMC3    C4 5588   2.818   3.434  16.098  0.0814 -0.4954 -0.3753
  370TMC3    C5 5589   2.775   3.309  16.089 -0.6360  0.3892  0.5443
  370TMC3    C6 5590   2.706   3.257  16.194 -0.4168  0.0674  0.6091
  370TMC3     C 5591   2.920   3.566  16.266 -0.2776  0.5183 -0.0041
  370TMC3     O 5592   2.935   3.558  16.387  0.8249  0.1254  0.1710
  370TMC3     H 5593   2.715   3.523  16.406  4.3175  0.0727  0.0495
  370TMC3    H1 5594   2.878   3.478  16.019  0.0351 -0.3727 -0.3418
  370TMC3    H2 5595   2.687   3.150  16.192 -0.4183  0.0853 -0.1609
  370TMC3    C7 5596   2.838   3.227  15.987 -0.1446  0.6767 -0.2232
  370TMC3    C8 5597   2.659   3.254  16.430  0.3186  0.0970 -0.3922
  370TMC3    O1 5598   2.871   3.282  15.881 -0.1273 -0.2575  0.1305
  370TMC3    O2 5599   2.687   3.136  16.419  0.9021  0.4721  0.0843
  371TMC3    C1 5600   4.183   1.684  15.664  0.2283  0.4281  0.0562
  371TMC3    C2 5601   4.047   1.683  15.649  0.7015 -0.4655  0.7980
  371TMC3    C3 5602   3.981   1.802  15.636  0.4423 -0.4420  0.2449
  371TMC3    C4 5603   4.253   1.805  15.674  0.1526  0.1554 -0.0754
  371TMC3    C5 5604   4.181   1.924  15.644 -0.5491  0.6428  0.0476
  371TMC3    C6 5605   4.046   1.923  15.639 -0.2030 -0.2901  0.4041
  371TMC3     C 5606   4.257   1.560  15.672  0.2679 -0.7680  0.2482
  371TMC3     O 5607   4.374   1.570  15.654  0.3311 -0.7355  0.1900
  371TMC3     H 5608   3.997   1.588  15.637 -2.4908  1.4875 -1.2807
  371TMC3    H1 5609   4.361   1.804  15.684  0.1262 -0.4946  0.1350
  371TMC3    H2 5610   3.996   2.014  15.609 -1.1842 -0.2148  2.2824
  371TMC3    C7 5611   4.240   2.057  15.637 -0.4818 -0.1122 -0.4596
  371TMC3    C8 5612   3.836   1.796  15.634  0.0655  0.6620  0.3987
  371TMC3    O1 5613   4.169   2.144  15.589  0.0398 -0.7354 -0.1769
  371TMC3    O2 5614   3.780   1.712  15.562  0.2716  0.0524 -0.1045
  372MPD2     C 5615   3.478   2.557  13.510 -0.4708 -0.0332 -0.1868
  372MPD2    C1 5616   3.563   2.575  13.613 -0.7728  0.5734 -0.8184
  372MPD2    C2 5617   3.659   2.484  13.644 -0.2164 -0.0322  1.1964
  372MPD2    C3 5618   3.645   2.354  13.588 -0.0232 -0.3206 -0.1362
  372MPD2    C4 5619   3.547   2.328  13.490  0.1439 -0.1656  0.1949
  372MPD2    C5 5620   3.469   2.433  13.453  0.4996  0.0918 -0.4341
  372MPD2     H 5621   3.730   2.506  13.723 -0.6540  1.2982  1.2210
  372MPD2    H1 5622   3.527   2.231  13.446 -2.9096  0.0351  1.1678
  372MPD2    H2 5623   3.403   2.627  13.476 -1.4260 -0.7133  0.5183
  372MPD2    H3 5624   3.389   2.424  13.379 -0.0172 -1.1870  0.2935
  372MPD2     N 5625   3.745   2.261  13.625 -0.1452  0.7188 -0.7095
  372MPD2    H5 5626   3.806   2.279  13.704  1.0610  0.2871 -1.5306
  372MPD2    N1 5627   3.555   2.696  13.681 -0.2163  0.2893  0.3289
  372MPD2    H7 5628   3.637   2.734  13.728  0.0896 -1.7460  1.4244
  373TMC3    C1 5629   3.892   2.077  13.605 -0.5860  0.7887 -0.3376
  373TMC3    C2 5630   3.923   2.082  13.736  0.4682 -0.1495  0.6726
  373TMC3    C3 5631   4.003   1.987  13.789 -0.2691 -1.0871 -0.3402
  373TMC3    C4 5632   3.958   1.988  13.522  0.0195  0.0395  0.5554
  373TMC3    C5 5633   4.043   1.895  13.577  0.1163  0.7142  0.6649
  373TMC3    C6 5634   4.061   1.895  13.710 -0.7092  0.4553  0.6447
  373TMC3     C 5635   3.786   2.155  13.541  0.3029  0.0111 -0.3854
  373TMC3     O 5636   3.740   2.122  13.434 -0.2014 -0.2172 -0.0563
  373TMC3     H 5637   3.864   2.145  13.802 -2.5171 -1.7063 -0.5078
  373TMC3    H1 5638   3.935   1.979  13.417 -0.4209  3.6354  0.3432
  373TMC3    H2 5639   4.133   1.823  13.750 -0.3561  0.0909 -0.6349
  373TMC3    C7 5640   4.155   1.859  13.489  0.4416  0.7680  0.5755
  373TMC3    C8 5641   4.044   1.979  13.925 -0.0278 -0.0508  0.5141
  373TMC3    O1 5642   4.260   1.882  13.541 -0.1950  0.1521  0.2095
  373TMC3    O2 5643   4.043   1.870  13.975  0.1224 -0.3170  0.7440
  374TMC3    C1 5644   4.318   3.174   9.780 -0.9038 -0.6076 -0.5407
  374TMC3    C2 5645   4.450   3.205   9.807 -0.4204  0.2120 -0.0278
  374TMC3    C3 5646   4.546   3.180   9.706  0.1722 -0.0008  0.5944
  374TMC3    C4 5647   4.289   3.096   9.675 -0.2082 -0.3830  0.2357
  374TMC3    C5 5648   4.387   3.067   9.583  0.4126 -0.1575  0.7468
  374TMC3    C6 5649   4.518   3.117   9.585  0.6357 -0.5477  0.2179
  374TMC3     C 5650   4.205   3.192   9.872 -0.1983  0.4318 -0.8112
  374TMC3     O 5651   4.096   3.137   9.849  0.0586  0.1708  0.0383
  374TMC3     H 5652   4.468   3.264   9.896  1.0727  1.4195 -1.1369
  374TMC3    H1 5653   4.185   3.071   9.661  0.1892 -1.6088 -0.5152
  374TMC3    H2 5654   4.599   3.095   9.516 -0.3019 -0.6197 -0.8535
  374TMC3    C7 5655   4.355   2.981   9.477  0.0762  1.1192 -0.5200
  374TMC3    C8 5656   4.680   3.237   9.722  0.6652 -0.3209  0.1539
  374TMC3    O1 5657   4.280   2.892   9.501 -0.0692  0.0389  0.0165
  374TMC3    O2 5658   0.014   3.238   9.619  0.5238  0.0880 -0.1742
  375MPD2     C 5659   4.322   4.472  16.824  0.1234 -0.5567 -0.1197
  375MPD2    C1 5660   4.239   4.366  16.811  0.2426  0.0809  0.0555
  375MPD2    C2 5661   4.280   4.250  16.743 -0.0983  0.0704 -0.7419
  375MPD2    C3 5662   4.405   4.243  16.682 -0.1774 -0.1805  0.5609
  375MPD2    C4 5663   4.493   4.346  16.703 -0.1748 -0.1332 -0.2250
  375MPD2    C5 5664   4.447   4.455  16.778 -0.2190 -0.1481 -0.0890
  375MPD2     H 5665   4.209   4.169  16.746 -0.4624  0.5007  2.2138
  375MPD2    H1 5666   4.590   4.345  16.656 -0.3001 -2.0882 -0.4638
  375MPD2    H2 5667   4.299   4.567  16.871 -3.0805 -0.3583 -2.1644
  375MPD2    H3 5668   4.508   4.544  16.778 -1.0258  0.4019 -0.7886
  375MPD2     N 5669   4.449   4.126  16.620  0.3883  0.5686  0.5690
  375MPD2    H5 5670   4.547   4.117  16.596  0.1455 -1.1897  0.2255
  375MPD2    N1 5671   4.106   4.373  16.855  0.0931 -0.3573 -0.0450
  375MPD2    H7 5672   4.050   4.291  16.835 -1.0072 -0.0613  1.7590
  376TMC3    C1 5673   4.452   3.915  16.518 -0.1221  0.2678  0.0188
  376TMC3    C2 5674   4.579   3.908  16.557 -0.4662 -0.1893  0.2421
  376TMC3    C3 5675   4.672   3.863  16.460 -0.4233  0.0224  0.5303
  376TMC3    C4 5676   4.413   3.876  16.393  0.3697  0.9745  0.2451
  376TMC3    C5 5677   4.503   3.816  16.314 -0.8243 -0.7289  0.5516
  376TMC3    C6 5678   4.636   3.808  16.347 -0.2741  0.7229 -0.0894
  376TMC3     C 5679   4.371   4.022  16.575  0.6100  0.3035  0.2047
  376TMC3     O 5680   4.249   4.017  16.562 -0.0077  0.0697  0.0292
  376TMC3     H 5681   4.610   3.942  16.655 -1.9755 -0.0810  0.6757
  376TMC3    H1 5682   4.309   3.890  16.368  0.3665  0.4321 -0.0328
  376TMC3    H2 5683   4.700   3.761  16.274 -0.2976 -2.6370  2.0705
  376TMC3    C7 5684   4.465   3.771  16.184 -0.0289  0.0210  0.2833
  376TMC3    C8 5685   0.064   3.912  16.468  1.0094  0.1311 -0.1130
  376TMC3    O1 5686   4.553   3.757  16.101 -0.2026  0.3998 -0.2298
  376TMC3    O2 5687   0.106   3.949  16.364 -0.3685  0.4844 -0.5418
  377MPD2     C 5688   2.636   3.529  12.759  0.2094  0.2012 -0.0758
  377MPD2    C1 5689   2.602   3.444  12.656 -0.8129 -0.6643 -0.2444
  377MPD2    C2 5690   2.504   3.343  12.669 -0.4275 -0.5130 -0.2569
  377MPD2    C3 5691   2.428   3.343  12.789  0.6990 -0.7566 -0.0249
  377MPD2    C4 5692   2.461   3.430  12.892  0.5835 -0.6284 -0.8395
  377MPD2    C5 5693   2.569   3.513  12.877  0.0020  0.3932  1.0881
  377MPD2     H 5694   2.477   3.285  12.582 -1.0118  0.2855 -0.6056
  377MPD2    H1 5695   2.397   3.444  12.979  2.3859  0.6816  0.2968
  377MPD2    H2 5696   2.700   3.614  12.741  0.0301  0.6874  1.6343
  377MPD2    H3 5697   2.595   3.583  12.955 -0.0863 -0.4982  1.9147
  377MPD2     N 5698   2.319   3.253  12.810 -0.3483  0.5094 -0.4640
  377MPD2    H5 5699   2.271   3.253  12.899 -1.2628  0.2849 -0.9558
  377MPD2    N1 5700   2.665   3.465  12.531 -0.2202  0.2126  0.4168
  377MPD2    H7 5701   2.725   3.546  12.534  1.0941 -0.6660 -2.9693
  378TMC3    C1 5702   2.705   3.379  12.081  0.1126 -0.2303 -0.2399
  378TMC3    C2 5703   2.733   3.339  12.205 -0.1121  0.0193  0.4288
  378TMC3    C3 5704   2.711   3.431  12.302  1.2820  0.4890 -0.0019
  378TMC3    C4 5705   2.664   3.501  12.044 -0.1394 -1.0010  0.3505
  378TMC3    C5 5706   2.644   3.589  12.143 -0.4590 -0.2219 -0.1493
  378TMC3    C6 5707   2.674   3.558  12.270  0.9590 -0.3056 -0.3813
  378TMC3     C 5708   2.633   3.273  12.013 -0.0401  0.2904 -0.2840
  378TMC3     O 5709   2.539   3.320  11.953  0.8329  0.5391 -1.0575
  378TMC3     H 5710   2.792   3.251  12.229  1.2288  1.2812  1.7206
  378TMC3    H1 5711   2.648   3.512  11.937  0.4014  2.6670  0.6577
  378TMC3    H2 5712   2.661   3.638  12.341 -2.3652 -0.7467 -0.4803
  378TMC3    C7 5713   2.548   3.696  12.114  0.4602 -0.8854  0.3274
  378TMC3    C8 5714   2.662   3.377  12.423 -0.4645  0.4465  0.1759
  378TMC3    O1 5715   2.463   3.732  12.193  0.0751 -0.5711  0.5938
  378TMC3    O2 5716   2.628   3.260  12.414 -0.4559  0.3994  0.5004
  379MPD2     C 5717   3.315   1.860  16.207  0.5516  0.0781  0.1134
  379MPD2    C1 5718   3.284   1.737  16.267  0.1343  0.4574  0.1360
  379MPD2    C2 5719   3.378   1.661  16.331 -0.4014 -0.1019  0.2604
  379MPD2    C3 5720   3.511   1.698  16.335 -0.3701 -0.0365  0.4263
  379MPD2    C4 5721   3.539   1.818  16.273  0.3032 -0.4346  0.4620
  379MPD2    C5 5722   3.447   1.900  16.209  0.6238 -0.0281  0.0222
  379MPD2     H 5723   3.356   1.564  16.374 -1.3758  0.3686  0.8317
  379MPD2    H1 5724   3.641   1.856  16.273 -0.5706  1.9269  1.9433
  379MPD2    H2 5725   3.255   1.919  16.139 -0.0544 -1.3430 -0.5760
  379MPD2    H3 5726   3.482   1.986  16.153  0.7624  0.3898  0.7511
  379MPD2     N 5727   3.616   1.621  16.378 -0.1326 -0.4345  0.2564
  379MPD2    H5 5728   3.709   1.663  16.380  0.3104 -1.4775  1.4057
  379MPD2    N1 5729   3.154   1.685  16.237  0.4243 -0.0228 -0.3541
  379MPD2    H7 5730   3.100   1.730  16.163 -0.6268 -1.4277 -0.4435
  380TMC3    C1 5731   2.991   1.521  16.215 -0.1921  0.2249  0.1159
  380TMC3    C2 5732   3.018   1.390  16.189  0.3078 -0.2851 -0.1108
  380TMC3    C3 5733   2.977   1.328  16.075  0.3373  0.6167  0.1374
  380TMC3    C4 5734   2.932   1.602  16.119 -0.2795  0.4117 -0.4162
  380TMC3    C5 5735   2.880   1.537  16.012 -0.5541  0.1866  0.7263
  380TMC3    C6 5736   2.898   1.399  15.987  0.5967 -0.5665 -0.3934
  380TMC3     C 5737   3.103   1.570  16.295  0.6917  0.3885 -0.1108
  380TMC3     O 5738   3.145   1.503  16.390  0.1974  0.0651  0.1884
  380TMC3     H 5739   3.066   1.324  16.261  1.5149  1.5199  0.7290
  380TMC3    H1 5740   2.897   1.703  16.141  2.0710  1.3393 -0.9651
  380TMC3    H2 5741   2.872   1.346  15.896 -1.1761 -2.5996  1.2840
  380TMC3    C7 5742   2.776   1.604  15.934  0.4127  0.1396 -0.1715
  380TMC3    C8 5743   3.056   1.219  16.016 -0.4183  0.1508 -0.6671
  380TMC3    O1 5744   2.774   1.727  15.941  0.7272  0.4462  0.0037
  380TMC3    O2 5745   3.008   1.173  15.912 -0.4794 -0.2211  0.0403
  381TMC3    C1 5746   2.820   2.439  16.342 -0.3689 -0.0945  0.1868
  381TMC3    C2 5747   2.863   2.563  16.299  0.2397 -0.3157  0.4409
  381TMC3    C3 5748   2.874   2.663  16.394  0.7455 -0.5759 -0.2635
  381TMC3    C4 5749   2.743   2.437  16.453 -0.2634 -0.0297 -0.2938
  381TMC3    C5 5750   2.733   2.547  16.535  0.2721 -0.3460 -0.4683
  381TMC3    C6 5751   2.812   2.657  16.512 -0.4538 -0.7062  0.7228
  381TMC3     C 5752   2.789   2.338  16.240  0.4589 -0.1770 -0.4428
  381TMC3     O 5753   2.760   2.224  16.271 -0.0575 -0.1204  0.1957
  381TMC3     H 5754   2.906   2.585  16.202  0.4875 -0.5052  0.5087
  381TMC3    H1 5755   2.693   2.342  16.467  1.9111 -1.4674 -2.3679
  381TMC3    H2 5756   2.817   2.738  16.585 -1.6576 -2.0619  2.3074
  381TMC3    C7 5757   2.691   2.526  16.670 -0.5938 -0.1985  0.3056
  381TMC3    C8 5758   2.986   2.752  16.365  0.0294  0.0329  0.1397
  381TMC3    O1 5759   2.688   2.410  16.709  0.1871 -0.3031 -0.3093
  381TMC3    O2 5760   3.067   2.719  16.280 -0.2944  0.3968  0.4729
  382MPD2     C 5761   2.333   0.410  16.932  0.7490 -0.6286 -1.0509
  382MPD2    C1 5762   2.295   0.460  17.057 -0.4486  0.5065  0.5359
  382MPD2    C2 5763   2.259   0.368  17.152  0.6397  0.2175  1.1738
  382MPD2    C3 5764   2.242   0.228  17.115  0.0576  0.7504  0.5142
  382MPD2    C4 5765   2.292   0.187  16.994  0.0882  0.8334  0.0022
  382MPD2    C5 5766   2.329   0.280  16.898  0.7564  0.3031  0.6934
  382MPD2     H 5767   2.233   0.402  17.251  1.0291 -0.3030  1.4552
  382MPD2    H1 5768   2.295   0.083  16.966  3.2006  0.9961 -0.2280
  382MPD2    H2 5769   2.382   0.471  16.856  1.1006 -0.4474 -0.6799
  382MPD2    H3 5770   2.344   0.256  16.793 -1.1887  1.5081  0.1497
  382MPD2     N 5771   2.179   0.136  17.195 -0.0554 -0.0260  0.3790
  382MPD2    H5 5772   2.148   0.052  17.147 -1.6700  1.3930 -1.0390
  382MPD2    N1 5773   2.290   0.596  17.092  0.1745  0.3967  0.0092
  382MPD2    H7 5774   2.246   0.616  17.181  1.0509  1.1214  0.2857
  383TMC3    C1 5775   2.074   0.030  17.389 -0.4251  0.0902 -0.0739
  383TMC3    C2 5776   1.998   4.688  17.309  0.7551 -0.1785  0.4089
  383TMC3    C3 5777   1.907   4.612  17.374  0.0884  0.3948 -0.0113
  383TMC3    C4 5778   2.072   0.019  17.524  0.2383 -0.1134 -0.4616
  383TMC3    C5 5779   1.985   4.670  17.583 -0.1929  0.3837 -0.1244
  383TMC3    C6 5780   1.902   4.597  17.511 -0.8229  0.2198  0.3097
  383TMC3     C 5781   2.154   0.142  17.333  0.0367  0.1547 -0.6345
  383TMC3     O 5782   2.173   0.233  17.411  0.3159 -0.7280 -0.2212
  383TMC3     H 5783   1.995   4.696  17.201 -1.3798  1.2162  0.5621
  383TMC3    H1 5784   2.125   0.093  17.583  0.2098 -0.7636  0.3765
  383TMC3    H2 5785   1.827   4.542  17.566  0.7250 -0.1885  1.9970
  383TMC3    C7 5786   2.014   4.627  17.711 -0.3232  0.0943 -0.1350
  383TMC3    C8 5787   1.813   4.541  17.290 -0.2877  0.4626  0.1544
  383TMC3    O1 5788   1.988   4.507  17.731 -0.2429  0.4539 -0.0330
  383TMC3    O2 5789   1.780   4.596  17.183 -0.2382 -0.0669 -0.3856
  384MPD2     C 5790   3.802   1.552  12.221 -0.1273 -0.5390  0.4345
  384MPD2    C1 5791   3.764   1.468  12.118  0.4689 -0.2867  0.7484
  384MPD2    C2 5792   3.853   1.414  12.033 -0.2450  0.7104  0.1980
  384MPD2    C3 5793   3.987   1.426  12.063 -0.3775 -0.4570 -0.7469
  384MPD2    C4 5794   4.026   1.493  12.175 -0.2149  0.3199 -0.3378
  384MPD2    C5 5795   3.930   1.563  12.250 -1.3695 -0.2588 -0.3710
  384MPD2     H 5796   3.817   1.353  11.951  1.1277 -0.1538  0.2371
  384MPD2    H1 5797   4.132   1.507  12.192 -0.3826  1.3512 -0.1506
  384MPD2    H2 5798   3.729   1.601  12.286 -1.1889  0.3421 -1.4140
  384MPD2    H3 5799   3.964   1.619  12.337 -2.3617  0.1207 -0.2248
  384MPD2     N 5800   4.086   1.356  11.987 -0.1306  0.1670 -0.0363
  384MPD2    H5 5801   4.179   1.345  12.027  0.1474  1.0503 -0.4395
  384MPD2    N1 5802   3.629   1.450  12.085  0.5426  0.4394 -0.3517
  384MPD2    H7 5803   3.601   1.386  12.012  0.9177 -0.8423  0.6177
  385TMC3    C1 5804   4.134   1.178  11.841 -0.5198 -0.4576  0.6453
  385TMC3    C2 5805   4.161   1.140  11.712  0.3078 -0.0520  0.4451
  385TMC3    C3 5806   4.144   1.007  11.678  0.7040  0.2807  0.4876
  385TMC3    C4 5807   4.082   1.081  11.923  0.7547  0.2250 -0.3859
  385TMC3    C5 5808   4.068   0.953  11.895  0.4667 -0.9245  0.1482
  385TMC3    C6 5809   4.097   0.913  11.767 -0.1825  0.0458 -0.6572
  385TMC3     C 5810   4.058   1.297  11.861  0.9657  0.1194  0.4472
  385TMC3     O 5811   3.984   1.338  11.773  0.2705 -0.3163 -0.4086
  385TMC3     H 5812   4.197   1.211  11.639 -1.2056 -0.2968 -0.5562
  385TMC3    H1 5813   4.037   1.117  12.015 -0.3050  0.0555 -0.8369
  385TMC3    H2 5814   4.062   0.822  11.721 -0.6017 -0.5479  0.8145
  385TMC3    C7 5815   3.940   0.901  11.942 -0.9111 -0.1758  0.1954
  385TMC3    C8 5816   4.202   0.979  11.549  0.2992  0.2254  0.0023
  385TMC3    O1 5817   3.847   0.895  11.867 -0.1747 -0.4304  0.2041
  385TMC3    O2 5818   4.276   1.059  11.500  0.4564 -0.1521  0.0239
  386TMC3    C1 5819   3.454   3.545  12.342 -0.0542  0.2774  0.4519
  386TMC3    C2 5820   3.518   3.573  12.225  0.4715 -0.2883 -0.1333
  386TMC3    C3 5821   3.463   3.672  12.144  0.6907  0.3237 -0.5624
  386TMC3    C4 5822   3.326   3.585  12.357 -0.3182  0.3023  0.1978
  386TMC3    C5 5823   3.271   3.676  12.275 -0.0844 -0.2107 -0.1037
  386TMC3    C6 5824   3.342   3.725  12.170 -0.6713  0.1589  0.3495
  386TMC3     C 5825   3.504   3.447  12.438  1.2895 -0.9939 -0.0442
  386TMC3     O 5826   3.440   3.439  12.542  0.5583  0.7216  0.2428
  386TMC3     H 5827   3.625   3.559  12.235  0.8597  0.8314 -2.6138
  386TMC3    H1 5828   3.263   3.551  12.438 -0.0977 -2.4887 -0.8058
  386TMC3    H2 5829   3.311   3.812  12.113 -0.9375 -0.1344  0.0472
  386TMC3    C7 5830   3.133   3.716  12.286  0.0450 -0.6168 -1.1003
  386TMC3    C8 5831   3.509   3.690  12.008 -0.2513  0.3275  0.2873
  386TMC3    O1 5832   3.068   3.686  12.386 -0.7287 -0.6042 -0.9896
  386TMC3    O2 5833   3.458   3.789  11.947  0.2002 -0.6418 -0.1204
  387MPD2     C 5834   1.243   3.818  10.200  0.6770 -0.2534 -0.0546
  387MPD2    C1 5835   1.300   3.798  10.313 -0.1957 -0.5868 -0.6029
  387MPD2    C2 5836   1.359   3.677  10.351  0.2304 -0.0745 -0.1622
  387MPD2    C3 5837   1.361   3.572  10.268  0.1681 -0.4966  0.5295
  387MPD2    C4 5838   1.283   3.585  10.155 -0.4178  0.7801 -0.1260
  387MPD2    C5 5839   1.227   3.706  10.124  0.0213  0.1069 -0.1464
  387MPD2     H 5840   1.417   3.680  10.442 -1.1940 -1.0412  0.7761
  387MPD2    H1 5841   1.272   3.504  10.084 -0.4866  0.6681  0.0128
  387MPD2    H2 5842   1.210   3.918  10.175 -0.4690 -0.8978 -1.1409
  387MPD2    H3 5843   1.173   3.719  10.031 -0.5586  2.0691  0.4625
  387MPD2     N 5844   1.443   3.455  10.303 -0.1284  0.3117  0.2824
  387MPD2    H5 5845   1.493   3.460  10.391  2.3911 -0.3884 -1.0962
  387MPD2    N1 5846   1.338   3.910  10.397  0.0257  0.3981 -0.4143
  387MPD2    H7 5847   1.400   3.884  10.472 -0.1375  2.1407  0.3182
  388TMC3    C1 5848   1.399   4.117  10.468  0.0769  0.1425 -0.9880
  388TMC3    C2 5849   1.480   4.208  10.407 -0.4350  0.2975  0.1634
  388TMC3    C3 5850   1.617   4.203  10.432 -0.4698 -0.0293  0.3554
  388TMC3    C4 5851   1.441   4.045  10.572 -0.3382 -0.4289  0.4667
  388TMC3    C5 5852   1.576   4.041  10.599  0.8363  0.4108  0.6067
  388TMC3    C6 5853   1.668   4.117  10.523 -0.4682  0.0565  0.0524
  388TMC3     C 5854   1.314   4.042  10.380 -0.5693 -0.0220 -1.4864
  388TMC3     O 5855   1.271   4.102  10.283  0.2041  0.1909  0.0571
  388TMC3     H 5856   1.448   4.257  10.315 -0.6278 -2.4801 -1.2473
  388TMC3    H1 5857   1.369   3.981  10.621 -0.2356  0.4016  1.6888
  388TMC3    H2 5858   1.774   4.125  10.546 -0.7682 -0.5346  1.5921
  388TMC3    C7 5859   1.607   3.908  10.636 -0.0770 -0.1902  0.3556
  388TMC3    C8 5860   1.693   4.321  10.418 -0.1869  0.7440 -0.5251
  388TMC3    O1 5861   1.511   3.834  10.637 -0.1333 -0.3005  0.2759
  388TMC3    O2 5862   1.816   4.311  10.422  0.4253 -0.2623  0.1043
  389MPD2     C 5863   0.795   1.279  10.568 -0.3785 -0.9888 -0.6052
  389MPD2    C1 5864   0.886   1.365  10.623  0.5588 -0.1148 -0.0536
  389MPD2    C2 5865   0.886   1.394  10.763 -0.0034 -0.0888  0.0509
  389MPD2    C3 5866   0.793   1.326  10.843  0.0812 -0.4296 -0.4023
  389MPD2    C4 5867   0.700   1.234  10.779  0.6706 -0.4643  0.4939
  389MPD2    C5 5868   0.701   1.215  10.643  0.1711  0.2678  0.2840
  389MPD2     H 5869   0.954   1.474  10.791  1.0205 -1.1532  0.6068
  389MPD2    H1 5870   0.624   1.174  10.828  0.4532 -1.4612 -1.0802
  389MPD2    H2 5871   0.791   1.257  10.462  0.7440 -1.2435 -0.5994
  389MPD2    H3 5872   0.638   1.139  10.598 -1.7036  2.3934 -0.6572
  389MPD2     N 5873   0.777   1.354  10.985 -0.1198 -0.2228  0.5079
  389MPD2    H5 5874   0.712   1.298  11.039 -3.1480  0.0150 -2.8755
  389MPD2    N1 5875   0.977   1.417  10.527  0.0785 -0.8711  0.6933
  389MPD2    H7 5876   0.977   1.376  10.434  1.5036  0.9644 -0.1180
  390TMC3    C1 5877   0.796   1.438  11.197 -0.6982  0.0467  0.4847
  390TMC3    C2 5878   0.686   1.359  11.228  0.5941  0.3140 -0.2056
  390TMC3    C3 5879   0.649   1.342  11.363 -0.5707 -0.2153  0.0811
  390TMC3    C4 5880   0.854   1.522  11.292  0.3395 -0.4631  0.4092
  390TMC3    C5 5881   0.805   1.509  11.422 -1.2892  0.7788 -0.4647
  390TMC3    C6 5882   0.711   1.421  11.460 -0.3063 -1.0880  0.0906
  390TMC3     C 5883   0.828   1.459  11.056 -0.3252  0.1096  0.3628
  390TMC3     O 5884   0.909   1.546  11.027  0.7264  0.3186  0.4983
  390TMC3     H 5885   0.643   1.287  11.160 -0.2858  0.8531 -0.2128
  390TMC3    H1 5886   0.930   1.596  11.272 -1.4518  0.6323 -2.3231
  390TMC3    H2 5887   0.692   1.397  11.564 -0.0408  2.5008  0.9819
  390TMC3    C7 5888   0.856   1.597  11.525 -0.3690  0.2102  0.0486
  390TMC3    C8 5889   0.590   1.227  11.413 -0.0826 -0.5397 -0.1641
  390TMC3    O1 5890   0.965   1.650  11.507  0.1132 -0.3058  0.5478
  390TMC3    O2 5891   0.638   1.190  11.520  0.5227 -0.2936 -0.6570
  391MPD2     C 5892   0.543   3.319  11.198  0.0669  0.8467 -0.8749
  391MPD2    C1 5893   0.555   3.458  11.177  0.0257  0.6741 -0.4043
  391MPD2    C2 5894   0.537   3.502  11.042  0.0358  0.5012  0.3189
  391MPD2    C3 5895   0.493   3.407  10.942  0.2195 -0.6528 -0.2054
  391MPD2    C4 5896   0.476   3.276  10.973 -0.1647 -0.5227 -0.3873
  391MPD2    C5 5897   0.505   3.241  11.099  0.0920  0.0196 -0.1719
  391MPD2     H 5898   0.540   3.607  11.017  2.2098  0.4717  0.4594
  391MPD2    H1 5899   0.441   3.199  10.905 -2.3483 -1.8604  2.2822
  391MPD2    H2 5900   0.572   3.277  11.293  1.1754  0.6840 -1.2782
  391MPD2    H3 5901   0.508   3.136  11.126 -1.0012 -0.2344 -1.0555
  391MPD2     N 5902   0.450   3.464  10.815  0.0855  0.3151 -0.2517
  391MPD2    H5 5903   0.447   3.565  10.806 -0.6691  0.3269  0.1167
  391MPD2    N1 5904   0.600   3.544  11.284 -0.0491  0.4998  0.5349
  391MPD2    H7 5905   0.634   3.497  11.367 -1.3104  1.3000  1.5071
  392TMC3    C1 5906   0.412   3.478  10.577  1.1394 -0.1678  0.2318
  392TMC3    C2 5907   0.354   3.426  10.463 -0.4612 -0.6819  0.3298
  392TMC3    C3 5908   0.358   3.498  10.346 -0.0113  0.9315  0.3443
  392TMC3    C4 5909   0.485   3.585  10.573 -0.8215  0.0799 -0.3249
  392TMC3    C5 5910   0.497   3.656  10.454  0.1307 -0.1293  0.3337
  392TMC3    C6 5911   0.432   3.613  10.337 -0.2502 -0.0932 -0.1890
  392TMC3     C 5912   0.414   3.394  10.700 -0.4915 -0.0974  0.2111
  392TMC3     O 5913   0.394   3.274  10.677 -0.1459 -0.0321  0.1996
  392TMC3     H 5914   0.304   3.329  10.463 -0.5248 -0.6451 -1.7056
  392TMC3    H1 5915   0.523   3.627  10.666 -1.4239 -0.5026  0.1798
  392TMC3    H2 5916   0.461   3.643  10.237  2.3882  1.4533  1.0615
  392TMC3    C7 5917   0.540   3.795  10.464  0.5825 -0.0796 -1.0358
  392TMC3    C8 5918   0.261   3.461  10.249 -0.2299  0.2698 -0.1237
  392TMC3    O1 5919   0.603   3.824  10.565 -0.2791 -0.5496  0.1929
  392TMC3    O2 5920   0.183   3.371  10.277 -0.1715 -0.3467 -0.1616
  393TMC3    C1 5921   3.432   1.419  10.972  0.0422  0.4727  0.3625
  393TMC3    C2 5922   3.523   1.510  11.006 -0.7263  0.1891  0.3417
  393TMC3    C3 5923   3.608   1.495  11.108  0.0582 -0.1218 -0.1766
  393TMC3    C4 5924   3.424   1.299  11.045  0.5794 -1.3382 -0.1142
  393TMC3    C5 5925   3.518   1.281  11.141 -0.0219 -0.0398 -0.2846
  393TMC3    C6 5926   3.604   1.380  11.181  0.2637  0.6489  0.3898
  393TMC3     C 5927   3.362   1.455  10.855 -0.3658  0.0191 -0.0514
  393TMC3     O 5928   3.385   1.560  10.798  0.2572 -0.4795 -0.2968
  393TMC3     H 5929   3.534   1.601  10.948 -0.0152 -1.0230 -1.4051
  393TMC3    H1 5930   3.359   1.216  11.019  2.0792 -1.2664 -3.9618
  393TMC3    H2 5931   3.679   1.344  11.250 -0.5003 -0.1151  0.8223
  393TMC3    C7 5932   3.569   1.150  11.141 -0.3317 -0.2260 -0.2253
  393TMC3    C8 5933   3.744   1.538  11.088  0.5585 -0.6323  0.7876
  393TMC3    O1 5934   3.481   1.062  11.134 -0.1128  0.3986 -0.7212
  393TMC3    O2 5935   3.785   1.539  10.970 -0.1113 -0.2322 -0.2579
  394TMC3    C1 5936   1.181   1.521  10.464 -0.3424 -0.1114 -0.4674
  394TMC3    C2 5937   1.232   1.399  10.427  0.3569  0.0172  0.5547
  394TMC3    C3 5938   1.338   1.397  10.346  0.5258  0.5906 -0.0324
  394TMC3    C4 5939   1.224   1.639  10.405  0.3622 -0.1706 -0.0306
  394TMC3    C5 5940   1.325   1.626  10.314  0.5478  0.1521 -0.0034
  394TMC3    C6 5941   1.393   1.509  10.288 -0.1367  0.6246  0.2271
  394TMC3     C 5942   1.058   1.521  10.548  0.4289  0.0101 -0.0315
  394TMC3     O 5943   1.050   1.615  10.626  0.0008  0.5677  0.2390
  394TMC3     H 5944   1.199   1.309  10.477  2.8693 -2.0546 -1.5560
  394TMC3    H1 5945   1.176   1.734  10.426 -1.0662 -0.7780 -0.5309
  394TMC3    H2 5946   1.474   1.514  10.216  0.6114 -1.7411  0.8796
  394TMC3    C7 5947   1.382   1.756  10.286  0.4176  0.1741  0.4814
  394TMC3    C8 5948   1.357   1.268  10.291 -0.0799 -0.2314 -1.0458
  394TMC3    O1 5949   1.310   1.853  10.281  0.2427 -0.1795 -0.5045
  394TMC3    O2 5950   1.262   1.196  10.287  0.1569 -0.1510 -0.4652
  395TMC3    C1 5951   0.035   3.537  15.452  0.4689 -0.0161  0.0327
  395TMC3    C2 5952   4.732   3.423  15.392 -0.1246 -0.5898  0.2554
  395TMC3    C3 5953   0.040   3.403  15.261 -0.1130  0.7663 -0.0078
  395TMC3    C4 5954   0.096   3.632  15.375 -0.0700  0.2239 -0.1677
  395TMC3    C5 5955   0.129   3.615  15.246  0.2592 -0.1433  0.1211
  395TMC3    C6 5956   0.105   3.497  15.179 -0.0585 -0.1946 -0.0226
  395TMC3     C 5957   0.040   3.561  15.596  0.3339 -0.2713  0.0536
  395TMC3     O 5958   0.088   3.665  15.637 -0.2669  0.1701  0.0596
  395TMC3     H 5959   4.684   3.346  15.452 -2.1366  1.6800  1.5331
  395TMC3    H1 5960   0.128   3.724  15.422 -0.7087  2.0786 -3.3924
  395TMC3    H2 5961   0.144   3.472  15.081  0.0473  0.8139 -0.2453
  395TMC3    C7 5962   0.223   3.712  15.198  0.7266  0.3012 -0.4957
  395TMC3    C8 5963   0.042   3.265  15.220  0.4610 -0.2536 -0.3583
  395TMC3    O1 5964   0.219   3.822  15.251  0.6448  0.5925 -0.1568
  395TMC3    O2 5965   0.011   3.185  15.311  0.4907 -0.3662 -0.6869
  396MPD2     C 5966   0.322   0.103  16.985  0.1561  0.6297  0.0585
  396MPD2    C1 5967   0.439   0.101  17.063  0.7207 -0.0617  0.1736
  396MPD2    C2 5968   0.554   0.171  17.019 -0.3101 -0.2849 -0.0858
  396MPD2    C3 5969   0.545   0.257  16.909  0.6278  0.3615  0.4047
  396MPD2    C4 5970   0.419   0.259  16.839  0.0320  1.1837  1.1530
  396MPD2    C5 5971   0.310   0.187  16.875  0.2407  0.1475  0.4157
  396MPD2     H 5972   0.646   0.173  17.076  1.1233 -0.8442 -2.3778
  396MPD2    H1 5973   0.415   0.314  16.746 -1.2602 -1.4224 -0.3307
  396MPD2    H2 5974   0.238   0.037  17.006  0.7717 -0.8644 -2.2198
  396MPD2    H3 5975   0.223   0.192  16.810 -0.2504 -0.7619  1.0132
  396MPD2     N 5976   0.661   0.336  16.881  1.5721  0.4586 -0.1422
  396MPD2    H5 5977   0.747   0.316  16.930  2.8977  0.5908 -2.3860
  396MPD2    N1 5978   0.441   0.010  17.172 -0.0672  0.6371 -0.0638
  396MPD2    H7 5979   0.367   4.678  17.173 -1.0090  1.6342 -0.6162
  397TMC3    C1 5980   0.523   4.613  17.340 -0.2195 -0.1929 -0.4603
  397TMC3    C2 5981   0.613   4.526  17.278 -0.6676 -0.1139  0.1261
  397TMC3    C3 5982   0.562   4.418  17.202  0.8198 -0.0003  0.2130
  397TMC3    C4 5983   0.394   4.559  17.353  0.2637  0.1583  0.3960
  397TMC3    C5 5984   0.355   4.441  17.297  0.1226 -0.1845 -0.4593
  397TMC3    C6 5985   0.430   4.383  17.207  0.2410  0.3646 -0.0489
  397TMC3     C 5986   0.538   4.736  17.270 -0.3544  0.5578 -0.7339
  397TMC3     O 5987   0.639   0.067  17.302 -0.0895  0.4818 -0.2558
  397TMC3     H 5988   0.714   4.560  17.257 -0.3995 -0.0998  1.4228
  397TMC3    H1 5989   0.316   4.627  17.385  0.8165  1.1571 -0.3794
  397TMC3    H2 5990   0.396   4.297  17.150 -1.5242  0.5051  0.8046
  397TMC3    C7 5991   0.273   4.352  17.374  0.2065  0.4968  0.5659
  397TMC3    C8 5992   0.611   4.419  17.064  0.4232 -0.3728  0.2182
  397TMC3    O1 5993   0.219   4.259  17.310  0.0795 -0.4897 -0.0985
  397TMC3    O2 5994   0.528   4.412  16.976  0.7115  0.3224 -0.0920
  398MPD2     C 5995   3.393   1.450   0.168  0.1203 -0.2078  0.0862
  398MPD2    C1 5996   3.528   1.423   0.201 -0.2258  0.5233  0.7711
  398MPD2    C2 5997   3.580   1.487   0.316  0.3596  0.2236 -0.3927
  398MPD2    C3 5998   3.504   1.578   0.383 -0.2215 -0.5075 -0.1352
  398MPD2    C4 5999   3.372   1.600   0.342 -0.4061 -0.0313  0.7661
  398MPD2    C5 6000   3.315   1.530   0.245  0.4298  0.2911 -0.4785
  398MPD2     H 6001   3.685   1.469   0.339 -0.1904 -2.5950 -0.0343
  398MPD2    H1 6002   3.321   1.684   0.387 -2.1485 -0.6154 -0.0943
  398MPD2    H2 6003   3.341   1.396   0.089  0.3182 -0.4434  0.1154
  398MPD2    H3 6004   3.208   1.538   0.227 -0.5165 -2.1134  4.2479
  398MPD2     N 6005   3.573   1.651   0.483  0.0361  0.5156 -0.0485
  398MPD2    H5 6006   3.668   1.631   0.513 -0.6277 -1.9438  0.3300
  398MPD2    N1 6007   3.594   1.309   0.138  0.4139  0.1132 -0.6859
  398MPD2    H7 6008   3.667   1.266   0.194  1.0744 -0.3726 -1.9075
  399TMC3    C1 6009   3.621   1.124   0.009  0.4746  0.1587  0.1856
  399TMC3    C2 6010   3.743   1.126   0.068  0.1366  0.3496 -0.1209
  399TMC3    C3 6011   3.805   1.012   0.088  0.5879 -0.2742  0.4443
  399TMC3    C4 6012   3.550   1.013  17.730  0.2650  0.0273 -0.8585
  399TMC3    C5 6013   3.610   0.893   0.026  0.1771  0.1240 -0.0691
  399TMC3    C6 6014   3.742   0.890   0.074  0.1366 -0.4160  0.3901
  399TMC3     C 6015   3.551   1.245   0.021 -0.1689  0.2126 -0.1105
  399TMC3     O 6016   3.456   1.263  17.692 -0.1904  0.5525 -0.1583
  399TMC3     H 6017   3.796   1.220   0.065 -1.5866  1.3097 -0.9799
  399TMC3    H1 6018   3.456   1.023  17.676 -0.9189  3.2946  1.8337
  399TMC3    H2 6019   3.796   0.797   0.090  3.5612  1.5998  0.3157
  399TMC3    C7 6020   3.530   0.771   0.028 -0.3400 -0.8693 -0.1835
  399TMC3    C8 6021   3.914   1.026   0.178 -0.2863  0.4731  0.1236
  399TMC3    O1 6022   3.593   0.667   0.040 -0.3344  0.1768 -0.4405
  399TMC3    O2 6023   3.953   1.138   0.205 -0.1113  0.3055  0.0621
  400TMC3    C1 6024   2.086   4.226  17.205  0.0680 -0.3103 -0.2021
  400TMC3    C2 6025   1.980   4.142  17.185  0.0655 -0.0336 -0.3443
  400TMC3    C3 6026   1.892   4.171  17.086 -0.0843 -0.7286  0.0374
  400TMC3    C4 6027   2.097   4.340  17.129 -0.2090 -0.0320  0.5057
  400TMC3    C5 6028   2.009   4.361  17.022  0.6408  0.2117  0.0104
  400TMC3    C6 6029   1.898   4.284  17.007 -0.6120  0.3116  0.1530
  400TMC3     C 6030   2.150   4.216  17.333  0.6311  0.4046  0.0876
  400TMC3     O 6031   2.128   4.115  17.396 -0.3236  0.2735 -0.4766
  400TMC3     H 6032   1.955   4.063  17.255 -1.0508  0.8557  0.2574
  400TMC3    H1 6033   2.195   4.385  17.119 -0.0542  0.1315  2.9045
  400TMC3    H2 6034   1.806   4.305  16.954 -0.2151  0.4328 -0.4846
  400TMC3    C7 6035   2.033   4.474  16.942 -0.2576  0.1547  0.2180
  400TMC3    C8 6036   1.783   4.077  17.053  0.0879  0.2122 -0.8916
  400TMC3    O1 6037   2.119   4.545  16.988  0.3457 -0.4133  0.0753
  400TMC3    O2 6038   1.769   3.988  17.137 -0.4122  0.6534 -0.5145
  401MPD2     C 6039   0.612   2.825   1.386 -0.6808 -0.3196 -0.9065
  401MPD2    C1 6040   0.546   2.774   1.277 -0.0732  0.7222 -0.6901
  401MPD2    C2 6041   0.518   2.643   1.288  0.2115  0.7943  0.0755
  401MPD2    C3 6042   0.541   2.568   1.407 -0.3081  0.8378 -0.0315
  401MPD2    C4 6043   0.603   2.628   1.511  0.0023  0.2490 -0.7529
  401MPD2    C5 6044   0.631   2.759   1.500  0.1071 -1.0517 -0.0738
  401MPD2     H 6045   0.488   2.591   1.199  1.0367 -0.2893  0.4308
  401MPD2    H1 6046   0.628   2.573   1.600 -0.5464  1.1078 -0.0656
  401MPD2    H2 6047   0.661   2.921   1.388 -1.2270 -0.0929  1.0165
  401MPD2    H3 6048   0.677   2.806   1.587  0.4868  0.5296 -1.1276
  401MPD2     N 6049   0.507   2.431   1.403 -0.1403  0.5580  0.5771
  401MPD2    H5 6050   0.464   2.393   1.319  0.4191  1.5787 -0.1749
  401MPD2    N1 6051   0.518   2.843   1.158 -0.7456 -0.0013  0.7922
  401MPD2    H7 6052   0.460   2.797   1.089 -0.1929  0.0805  0.2787
  402TMC3    C1 6053   0.518   2.199   1.461  0.7586 -0.8377 -0.5674
  402TMC3    C2 6054   0.619   2.102   1.471 -0.6344  0.9282  0.0509
  402TMC3    C3 6055   0.590   1.982   1.409 -0.1615  0.7980  0.7547
  402TMC3    C4 6056   0.392   2.181   1.420 -0.0170  0.3345 -0.2890
  402TMC3    C5 6057   0.377   2.064   1.345  0.4945  0.3811 -0.3452
  402TMC3    C6 6058   0.468   1.963   1.347  0.5924 -0.5379 -0.2355
  402TMC3     C 6059   0.554   2.333   1.493 -0.2587  0.2580  0.3975
  402TMC3     O 6060   0.651   2.348   1.573  0.3141 -0.3150  0.3321
  402TMC3     H 6061   0.718   2.133   1.505 -0.4542 -1.9617  2.1423
  402TMC3    H1 6062   0.325   2.265   1.410 -0.6032 -0.4595 -2.9918
  402TMC3    H2 6063   0.457   1.877   1.281 -1.6825 -0.5905  0.1952
  402TMC3    C7 6064   0.271   2.063   1.252 -0.1947 -0.2486 -0.0043
  402TMC3    C8 6065   0.697   1.914   1.346 -0.3798  0.0317  0.2824
  402TMC3    O1 6066   0.166   2.101   1.296 -0.2101 -0.0968 -0.0147
  402TMC3    O2 6067   0.675   1.848   1.242  0.1785 -0.2169  0.1654
  403MPD2     C 6068   3.259   0.731  13.389 -0.0511 -0.0883 -0.3679
  403MPD2    C1 6069   3.264   0.869  13.406 -0.3097 -0.6691 -0.4937
  403MPD2    C2 6070   3.373   0.925  13.476 -0.2498 -0.0573  0.5487
  403MPD2    C3 6071   3.468   0.847  13.542 -0.5071  0.0421  0.5930
  403MPD2    C4 6072   3.462   0.705  13.526  0.2256 -0.3738 -0.4762
  403MPD2    C5 6073   3.361   0.655  13.446 -0.2645 -0.6380  0.5459
  403MPD2     H 6074   3.378   1.033  13.489 -0.8228 -0.0696  0.8516
  403MPD2    H1 6075   3.536   0.634  13.563  2.0580  2.6707  1.7132
  403MPD2    H2 6076   3.182   0.679  13.333 -0.3109  0.1233 -0.2093
  403MPD2    H3 6077   3.370   0.551  13.419  0.2357 -0.3417 -0.4233
  403MPD2     N 6078   3.566   0.914  13.608 -0.1667  0.5335 -0.3383
  403MPD2    H5 6079   3.558   1.015  13.621  1.5048  0.3808  1.9747
  403MPD2    N1 6080   3.161   0.942  13.353  0.3389  0.2534 -0.3099
  403MPD2    H7 6081   3.084   0.890  13.312  1.2037 -1.1147 -0.1988
  404TMC3    C1 6082   2.998   1.102  13.323 -0.5587  0.2670  1.4760
  404TMC3    C2 6083   2.920   1.006  13.378  0.0435  0.2367  0.2290
  404TMC3    C3 6084   2.836   0.931  13.297  0.4280 -0.3301  0.1633
  404TMC3    C4 6085   2.982   1.147  13.198 -0.2261 -0.7317 -0.3217
  404TMC3    C5 6086   2.890   1.077  13.122 -0.2315  0.2006 -0.3390
  404TMC3    C6 6087   2.826   0.970  13.169 -0.2307 -0.2143  0.0164
  404TMC3     C 6088   3.138   1.079  13.361  0.4968 -0.3955  0.4780
  404TMC3     O 6089   3.221   1.168  13.374  0.1965 -0.0637 -0.2406
  404TMC3     H 6090   2.946   0.977  13.479  0.2061  0.3344  0.2149
  404TMC3    H1 6091   3.031   1.237  13.165  0.9617 -0.6921  1.5229
  404TMC3    H2 6092   2.760   0.909  13.107 -0.6228 -1.6789  1.8580
  404TMC3    C7 6093   2.936   1.083  12.982  0.9950  0.5991 -0.1097
  404TMC3    C8 6094   2.880   0.793  13.309  1.0747 -0.3186 -0.5426
  404TMC3    O1 6095   3.046   1.135  12.971  0.2094  0.0537  0.4874
  404TMC3    O2 6096   2.949   0.761  13.215 -0.2495  0.0504 -0.0585
  405MPD2     C 6097   3.491   1.751  14.565  0.4621  0.0474 -0.9923
  405MPD2    C1 6098   3.516   1.634  14.491  0.4692 -0.6214 -0.0735
  405MPD2    C2 6099   3.429   1.591  14.397 -0.5419 -0.0079 -0.0000
  405MPD2    C3 6100   3.316   1.663  14.363 -0.7898 -0.3431 -0.7554
  405MPD2    C4 6101   3.291   1.777  14.438  0.0619  0.0511  0.5438
  405MPD2    C5 6102   3.374   1.820  14.542 -0.7127  0.5016 -0.1522
  405MPD2     H 6103   3.447   1.499  14.342 -1.3037 -1.9633  2.9527
  405MPD2    H1 6104   3.197   1.831  14.429 -0.3246 -0.9435 -1.4197
  405MPD2    H2 6105   3.560   1.798  14.634 -1.5256 -0.7748  1.5599
  405MPD2    H3 6106   3.357   1.911  14.599 -1.6663 -0.3507  0.9180
  405MPD2     N 6107   3.229   1.605  14.257  0.2740  0.4002 -0.0095
  405MPD2    H5 6108   3.249   1.511  14.225 -0.2665  0.5988 -0.9193
  405MPD2    N1 6109   3.636   1.565  14.522  0.2755  0.5695 -0.5347
  405MPD2    H7 6110   3.695   1.593  14.600 -0.0064 -0.3142 -0.0030
  406TMC3    C1 6111   2.871   1.422  14.055 -1.0717 -0.0175  0.3155
  406TMC3    C2 6112   2.957   1.329  14.004 -0.4273 -0.8306  0.4896
  406TMC3    C3 6113   3.092   1.358  14.010 -0.2146 -0.4244 -0.3168
  406TMC3    C4 6114   2.922   1.539  14.112 -0.5551 -0.4609 -0.4424
  406TMC3    C5 6115   3.057   1.561  14.113 -0.9125 -0.1200  0.1414
  406TMC3    C6 6116   3.149   1.474  14.056 -0.2127 -0.6537  0.5140
  406TMC3     C 6117   2.733   1.378  14.078  1.0347 -0.1048  0.3509
  406TMC3     O 6118   2.674   1.323  13.985 -0.1547  0.5972  0.1100
  406TMC3     H 6119   2.927   1.228  13.978 -3.2286  0.2966 -0.6290
  406TMC3    H1 6120   2.852   1.616  14.145 -1.0805  0.2595 -3.2570
  406TMC3    H2 6121   3.247   1.517  14.039 -0.2244 -0.1851  1.6234
  406TMC3    C7 6122   3.112   1.655  14.208  0.0163  0.0673 -0.2305
  406TMC3    C8 6123   3.180   1.249  13.978  0.3692  0.1852 -0.6398
  406TMC3    O1 6124   3.056   1.763  14.237  0.5097  0.5334 -0.2345
  406TMC3    O2 6125   3.137   1.145  13.939  0.4918  0.4677  0.0520
  407MPD2     C 6126   1.036   3.151   9.826  0.6857 -0.1736 -0.9100
  407MPD2    C1 6127   1.130   3.194   9.917 -0.0774 -0.0262  0.2419
  407MPD2    C2 6128   1.087   3.269  10.023  0.1442  0.0414 -0.0396
  407MPD2    C3 6129   0.947   3.289  10.039  0.0982 -0.3416  0.0664
  407MPD2    C4 6130   0.860   3.218   9.963  0.1736  0.1940  0.0594
  407MPD2    C5 6131   0.902   3.158   9.853 -0.2503 -0.2550  0.2407
  407MPD2     H 6132   1.156   3.311  10.095  0.4138  1.4154 -1.0762
  407MPD2    H1 6133   0.753   3.209   9.979  0.0007  0.2771 -1.0679
  407MPD2    H2 6134   1.079   3.097   9.742 -0.5103  1.3993 -2.5205
  407MPD2    H3 6135   0.835   3.108   9.784  0.0231  0.7310 -0.7444
  407MPD2     N 6136   0.892   3.364  10.148 -0.4395 -0.2181 -0.3027
  407MPD2    H5 6137   0.793   3.381  10.136 -0.4803 -0.7247 -0.7415
  407MPD2    N1 6138   1.268   3.179   9.903 -0.3777  0.0221 -0.3831
  407MPD2    H7 6139   1.332   3.224   9.968  1.2961 -2.0958 -0.5851
  408TMC3    C1 6140   1.475   3.134   9.785  0.1600 -0.4007 -0.0876
  408TMC3    C2 6141   1.552   3.043   9.709  0.7305  0.3182  0.9653
  408TMC3    C3 6142   1.677   3.077   9.688 -0.4102 -0.1312 -0.1365
  408TMC3    C4 6143   1.535   3.238   9.853  0.3452  0.0140 -0.4475
  408TMC3    C5 6144   1.665   3.266   9.824  0.0224 -0.1534  0.2848
  408TMC3    C6 6145   1.737   3.186   9.747 -0.7708 -0.0793 -0.6805
  408TMC3     C 6146   1.333   3.104   9.804  0.0482 -0.2833 -0.3009
  408TMC3     O 6147   1.286   3.035   9.716 -0.3681 -0.4910  0.2543
  408TMC3     H 6148   1.508   2.955   9.662  1.3245  1.9887 -2.6584
  408TMC3    H1 6149   1.476   3.313   9.905 -1.2249 -0.7910 -1.0343
  408TMC3    H2 6150   1.836   3.211   9.711 -0.8204 -0.7014 -1.2441
  408TMC3    C7 6151   1.743   3.323   9.929  0.7637 -0.3947  0.3962
  408TMC3    C8 6152   1.765   2.961   9.675  0.1808 -0.8145  0.7739
  408TMC3    O1 6153   1.861   3.280   9.926 -0.5091  0.3921  0.3996
  408TMC3    O2 6154   1.721   2.862   9.622 -0.2036 -0.1101  0.7576
  409MPD2     C 6155   0.629   3.979  17.029 -0.0261  0.3241  0.0704
  409MPD2    C1 6156   0.749   3.911  17.031 -0.6235 -0.3572  0.0703
  409MPD2    C2 6157   0.847   3.966  16.947  0.5683  0.0454 -0.2573
  409MPD2    C3 6158   0.826   4.071  16.866  0.3430  1.0839 -0.1749
  409MPD2    C4 6159   0.704   4.137  16.871 -0.4491  0.5285 -0.0239
  409MPD2    C5 6160   0.606   4.091  16.953  0.5295 -0.4687  0.2226
  409MPD2     H 6161   0.938   3.909  16.935  0.3100 -0.5184  0.4434
  409MPD2    H1 6162   0.672   4.224  16.814  0.4019  0.7632 -0.1494
  409MPD2    H2 6163   0.543   3.949  17.088  0.3466 -1.2034 -0.1565
  409MPD2    H3 6164   0.507   4.135  16.946  0.4178 -0.7224  0.1989
  409MPD2     N 6165   0.922   4.130  16.781  0.5355  0.6233 -0.0589
  409MPD2    H5 6166   0.892   4.204  16.717 -0.0596 -0.2617 -0.8068
  409MPD2    N1 6167   0.787   3.801  17.111 -1.0010  0.3244  0.4497
  409MPD2    H7 6168   0.881   3.766  17.102 -0.0836  2.0484  3.0818
  410TMC3    C1 6169   1.156   4.194  16.745 -0.1570  1.0072  0.1985
  410TMC3    C2 6170   1.266   4.217  16.822  0.0239 -0.4508 -0.1461
  410TMC3    C3 6171   1.319   4.340  16.828  0.1608 -0.4132 -0.4456
  410TMC3    C4 6172   1.110   4.287  16.655  0.1807 -1.7871 -0.2526
  410TMC3    C5 6173   1.186   4.404  16.643  0.1146  0.1161 -0.2571
  410TMC3    C6 6174   1.279   4.441  16.744  0.5267 -0.4430 -0.6888
  410TMC3     C 6175   1.057   4.103  16.802  0.2539 -0.3984  0.3547
  410TMC3     O 6176   1.109   4.024  16.883  0.0139  0.3301  0.9536
  410TMC3     H 6177   1.294   4.143  16.896 -0.3573  1.4246  1.8931
  410TMC3    H1 6178   1.033   4.252  16.587 -0.1860  0.3874 -0.9529
  410TMC3    H2 6179   1.322   4.540  16.747 -0.1821 -0.1707  0.3714
  410TMC3    C7 6180   1.120   4.504  16.564 -0.2236  0.8077  0.4800
  410TMC3    C8 6181   1.414   4.376  16.924  0.2452 -0.1416 -0.2433
  410TMC3    O1 6182   1.020   4.462  16.507  0.6610 -0.1799 -0.1352
  410TMC3    O2 6183   1.454   4.494  16.930  0.4796  0.4742 -0.1712
  411MPD2     C 6184   0.936   4.257  14.793 -0.1655  0.6290  0.3139
  411MPD2    C1 6185   0.830   4.344  14.772  1.0803  0.4946 -1.0013
  411MPD2    C2 6186   0.703   4.292  14.788 -0.3308  0.6867  0.5921
  411MPD2    C3 6187   0.681   4.157  14.802 -0.3657  0.4370  0.6846
  411MPD2    C4 6188   0.790   4.074  14.796 -0.7699  0.2103  0.0662
  411MPD2    C5 6189   0.917   4.122  14.798 -0.5606 -0.0219  0.0139
  411MPD2     H 6190   0.622   4.363  14.780 -0.0291  0.7951 -1.4914
  411MPD2    H1 6191   0.783   3.968  14.816 -2.0362  0.1389 -0.8086
  411MPD2    H2 6192   1.040   4.285  14.779  0.3566  0.0982  3.0626
  411MPD2    H3 6193   0.996   4.049  14.812 -2.5675 -2.1533  0.1058
  411MPD2     N 6194   0.559   4.096  14.820 -0.2161  0.4129 -0.9120
  411MPD2    H5 6195   0.553   3.995  14.817 -0.9472  0.4760 -1.6296
  411MPD2    N1 6196   0.844   4.480  14.743  0.4387 -0.4780 -0.3891
  411MPD2    H7 6197   0.760   4.529  14.717  1.9547  1.8718 -0.8333
  412TMC3    C1 6198   0.329   4.096  14.879  0.2169 -0.2166  0.1810
  412TMC3    C2 6199   0.225   4.162  14.944  0.5926 -0.7607  1.3393
  412TMC3    C3 6200   0.114   4.081  14.966  0.7912 -0.2977 -0.9300
  412TMC3    C4 6201   0.325   3.972  14.827 -0.2123  0.8453 -0.1866
  412TMC3    C5 6202   0.208   3.903  14.848  0.0310 -0.1757 -0.0308
  412TMC3    C6 6203   0.112   3.950  14.926  0.7189 -0.3151 -0.3112
  412TMC3     C 6204   0.452   4.173  14.866 -0.2281 -0.0977 -0.4473
  412TMC3     O 6205   0.441   4.286  14.909 -0.1985 -0.3491 -0.3527
  412TMC3     H 6206   0.229   4.259  14.991  1.4442  0.0406 -0.4056
  412TMC3    H1 6207   0.392   3.946  14.746  0.1647 -1.3036  0.8134
  412TMC3    H2 6208   0.020   3.896  14.946 -0.1747  1.7639  1.2044
  412TMC3    C7 6209   0.177   3.802  14.750 -0.2990  0.4324  0.0528
  412TMC3    C8 6210   4.736   4.145  14.918  0.1976 -0.2974  0.0856
  412TMC3    O1 6211   0.265   3.734  14.702 -0.0711 -0.4773 -0.5408
  412TMC3    O2 6212   4.690   4.084  14.823  0.3075 -0.3176 -0.5049
  413MPD2     C 6213   2.619   2.624  15.556 -0.6337 -0.0983  0.1556
  413MPD2    C1 6214   2.529   2.552  15.475 -0.3441  0.3653  0.2509
  413MPD2    C2 6215   2.584   2.456  15.391 -0.1895  0.0214 -0.0835
  413MPD2    C3 6216   2.713   2.418  15.403  0.3954 -0.3250 -0.8817
  413MPD2    C4 6217   2.802   2.485  15.485 -0.1943 -1.5163 -0.0938
  413MPD2    C5 6218   2.749   2.597  15.556 -1.0816 -0.5108 -0.1721
  413MPD2     H 6219   2.523   2.397  15.324  0.5505 -1.4929  0.5656
  413MPD2    H1 6220   2.906   2.455  15.498  1.4465  3.6702 -0.8497
  413MPD2    H2 6221   2.574   2.710  15.603 -0.3977  1.0571 -1.7174
  413MPD2    H3 6222   2.803   2.667  15.620  0.7336 -2.4958  0.4646
  413MPD2     N 6223   2.753   2.306  15.323  1.1919  0.8458  0.0415
  413MPD2    H5 6224   2.689   2.262  15.258  0.0227  1.2309  0.9228
  413MPD2    N1 6225   2.391   2.584  15.481  0.7414  1.0705  0.0610
  413MPD2    H7 6226   2.368   2.662  15.541 -0.8664 -1.2296  2.4408
  414TMC3    C1 6227   2.892   2.146  15.227 -0.2389 -0.2333 -0.8889
  414TMC3    C2 6228   2.968   2.035  15.269 -0.2547  0.3306 -0.1885
  414TMC3    C3 6229   3.073   1.991  15.185 -0.7695  0.4719  0.4791
  414TMC3    C4 6230   2.919   2.206  15.110  0.1021  0.2711 -0.0307
  414TMC3    C5 6231   3.025   2.161  15.026 -0.3911  0.0063  0.2655
  414TMC3    C6 6232   3.101   2.052  15.069 -0.3398 -0.4014 -0.5634
  414TMC3     C 6233   2.871   2.240  15.333  0.8364 -0.0578  0.5006
  414TMC3     O 6234   2.971   2.247  15.403 -0.1773 -0.0369  0.3735
  414TMC3     H 6235   2.962   1.991  15.367 -3.8225 -0.3136 -0.6726
  414TMC3    H1 6236   2.874   2.302  15.089 -0.5670  0.2672  1.4015
  414TMC3    H2 6237   3.189   2.024  15.012 -1.4483  0.7435 -2.8154
  414TMC3    C7 6238   3.087   2.257  14.941  0.0299 -1.0405 -0.4907
  414TMC3    C8 6239   3.144   1.874  15.237 -0.4312  0.1643 -0.6790
  414TMC3    O1 6240   3.014   2.316  14.864  0.6190  0.1094 -0.4855
  414TMC3    O2 6241   3.088   1.769  15.262  0.2793 -0.0758  0.1917
  415TMC3    C1 6242   3.538   0.882  10.052  0.3245 -0.0032 -0.1839
  415TMC3    C2 6243   3.466   1.001  10.038  0.1477 -0.4351 -0.3784
  415TMC3    C3 6244   3.350   1.002   9.961  0.2488 -0.9555  0.8076
  415TMC3    C4 6245   3.505   0.763   9.997 -0.1005 -0.0339 -0.2041
  415TMC3    C5 6246   3.388   0.767   9.924  0.4674 -0.1572 -0.2899
  415TMC3    C6 6247   3.310   0.881   9.904 -0.2855 -0.2505  0.3929
  415TMC3     C 6248   3.619   0.865  10.177  1.1937 -0.0150 -0.4702
  415TMC3     O 6249   3.660   0.749  10.189 -0.2416 -0.3387 -0.2022
  415TMC3     H 6250   3.512   1.086  10.086  2.0030 -0.8210 -1.4764
  415TMC3    H1 6251   3.548   0.668  10.027 -0.1941 -0.4762 -1.4788
  415TMC3    H2 6252   3.214   0.874   9.854 -0.0846  0.1415 -0.0456
  415TMC3    C7 6253   3.314   0.652   9.888  0.3024 -0.1404  0.0938
  415TMC3    C8 6254   3.258   1.118   9.974  0.4720 -1.1341 -0.7860
  415TMC3    O1 6255   3.194   0.661   9.868  0.6886 -0.2106  0.5119
  415TMC3    O2 6256   3.139   1.093   9.948 -0.5369  0.2956  0.6994
  416MPD2     C 6257   0.271   4.367  12.135  0.0201 -0.0704  0.1964
  416MPD2    C1 6258   0.160   4.369  12.049  0.2137  0.0359  0.0935
  416MPD2    C2 6259   0.141   4.252  11.966 -0.3012  0.4421  0.5140
  416MPD2    C3 6260   0.237   4.148  11.965 -0.0709  0.4543  0.2024
  416MPD2    C4 6261   0.351   4.158  12.046 -0.0251 -0.1871 -0.4226
  416MPD2    C5 6262   0.366   4.271  12.127 -0.0254  0.6009  0.1631
  416MPD2     H 6263   0.062   4.245  11.892 -0.1600 -1.2126  0.4995
  416MPD2    H1 6264   0.426   4.081  12.060  1.0231  1.0446  0.8294
  416MPD2    H2 6265   0.283   4.444  12.210 -2.2596  0.4588  0.0251
  416MPD2    H3 6266   0.454   4.269  12.191 -1.6151  0.3402  2.3211
  416MPD2     N 6267   0.243   4.034  11.885  0.1726  0.1911 -0.3674
  416MPD2    H5 6268   0.315   3.965  11.906 -0.5230 -0.0685  1.1514
  416MPD2    N1 6269   0.083   4.486  12.046  0.5999  0.3980 -0.0664
  416MPD2    H7 6270   0.113   4.559  12.110  1.4903  0.2848 -0.3613
  417TMC3    C1 6271   4.679   4.651  11.964  0.1648 -0.4317 -0.6722
  417TMC3    C2 6272   4.685   4.707  12.086 -0.6989 -0.6140  0.7856
  417TMC3    C3 6273   4.670   0.107  12.087 -0.1551 -0.2607 -0.4994
  417TMC3    C4 6274   4.631   4.713  11.858  0.5271 -0.4156 -0.1053
  417TMC3    C5 6275   4.607   0.106  11.865 -0.6740 -0.3745  0.0619
  417TMC3    C6 6276   4.643   0.181  11.975  0.2393 -0.1654 -0.2216
  417TMC3     C 6277   4.731   4.516  11.955  0.4728  0.5593 -0.2919
  417TMC3     O 6278   4.681   4.443  11.867 -0.0998 -0.2810  0.2001
  417TMC3     H 6279   4.713   4.656  12.177  1.5825 -0.6112  0.0757
  417TMC3    H1 6280   4.644   4.672  11.758 -1.5344 -1.7187  0.1696
  417TMC3    H2 6281   4.611   0.285  11.984  1.3455  0.1265  0.2901
  417TMC3    C7 6282   4.556   0.183  11.754  0.1024 -0.3835  0.0663
  417TMC3    C8 6283   4.686   0.175  12.215  0.6185  0.8859  0.7478
  417TMC3    O1 6284   4.565   0.303  11.742  0.0342 -0.0600 -0.0277
  417TMC3    O2 6285   4.651   0.115  12.313  0.2710  0.7853 -0.6288
  418TMC3    C1 6286   3.694   2.007   0.748  0.0600 -0.6133 -0.5149
  418TMC3    C2 6287   3.618   1.964   0.647  0.0128  0.0938  0.0331
  418TMC3    C3 6288   3.611   1.828   0.639 -0.2131  0.2245 -0.5379
  418TMC3    C4 6289   3.773   1.929   0.836  0.0322  0.0217  0.2084
  418TMC3    C5 6290   3.751   1.797   0.822 -0.4171 -0.2025  0.0601
  418TMC3    C6 6291   3.667   1.745   0.727  0.0658 -0.2740 -0.0109
  418TMC3     C 6292   3.770   2.122   0.697  0.5417  0.4027  0.8797
  418TMC3     O 6293   3.710   2.217   0.639 -0.5234 -0.5044  0.0813
  418TMC3     H 6294   3.562   2.032   0.584  2.0321  1.5076 -0.2133
  418TMC3    H1 6295   3.825   1.970   0.922  0.4628 -2.2309  1.0445
  418TMC3    H2 6296   3.656   1.638   0.713  2.1622 -1.0450  4.1580
  418TMC3    C7 6297   3.810   1.717   0.940 -0.0295  0.3789 -0.3045
  418TMC3    C8 6298   3.530   1.770   0.529  0.1551 -0.6254 -0.2250
  418TMC3    O1 6299   3.809   1.782   1.048  0.4119 -0.5254  0.5595
  418TMC3    O2 6300   3.444   1.844   0.484 -0.1729  0.0884  0.2111
  419MPD2     C 6301   2.082   4.078  12.333 -0.0532  0.7668  0.6433
  419MPD2    C1 6302   2.118   4.205  12.319 -0.0558 -0.2341  0.2337
  419MPD2    C2 6303   2.155   4.272  12.432 -0.1779  0.2435 -0.2049
  419MPD2    C3 6304   2.161   4.222  12.561  0.2513  0.1524 -0.0869
  419MPD2    C4 6305   2.134   4.089  12.574  0.3145  0.4042 -0.6419
  419MPD2    C5 6306   2.096   4.020  12.459 -0.3565  0.4249 -0.2464
  419MPD2     H 6307   2.184   4.376  12.420 -2.0040  0.9293  1.2257
  419MPD2    H1 6308   2.132   4.040  12.671 -0.6773 -0.0096 -0.8756
  419MPD2    H2 6309   2.058   4.017  12.246  0.1080  0.1419  1.0379
  419MPD2    H3 6310   2.071   3.915  12.469 -0.3499  0.6020  1.7834
  419MPD2     N 6311   2.183   4.312  12.668 -0.6519 -0.3147  0.2832
  419MPD2    H5 6312   2.191   4.410  12.643 -0.6536 -0.3184  0.2683
  419MPD2    N1 6313   2.094   4.289  12.204  0.3549  0.6735 -0.2657
  419MPD2    H7 6314   2.126   4.385  12.211  0.0017  0.8595 -1.1709
  420TMC3    C1 6315   2.178   4.387  12.895  0.9551  0.3314 -0.2265
  420TMC3    C2 6316   2.117   4.500  12.847  0.2901 -0.0824  0.0595
  420TMC3    C3 6317   2.043   4.575  12.934 -0.0922 -0.0006  0.4137
  420TMC3    C4 6318   2.188   4.366  13.025 -0.2596  0.5885  0.3477
  420TMC3    C5 6319   2.110   4.443  13.107  0.1209 -0.2444 -0.0027
  420TMC3    C6 6320   2.031   4.554  13.069  0.0695 -0.1333  0.4419
  420TMC3     C 6321   2.199   4.275  12.799  0.3813  0.7156 -0.0422
  420TMC3     O 6322   2.240   4.173  12.848  0.6807 -0.2237  0.2376
  420TMC3     H 6323   2.117   4.522  12.741 -0.5234 -0.1423  0.0499
  420TMC3    H1 6324   2.254   4.286  13.058 -0.1575  1.2946  1.8830
  420TMC3    H2 6325   1.956   4.610  13.123  1.7079  2.3364  0.1804
  420TMC3    C7 6326   2.108   4.412  13.246  0.1262 -0.0371  0.7510
  420TMC3    C8 6327   1.985   4.693  12.873  0.0465 -0.1985 -0.2762
  420TMC3    O1 6328   2.167   4.310  13.273 -0.2489  0.7322 -0.2587
  420TMC3    O2 6329   1.972   4.689  12.754 -0.2250 -0.0540 -0.1892
  421TMC3    C1 6330   3.760   0.950  13.736 -0.1625 -0.4424 -0.8512
  421TMC3    C2 6331   3.749   1.087  13.730 -0.5256  0.0790 -0.2840
  421TMC3    C3 6332   3.837   1.168  13.802 -0.5812  0.3725  0.4405
  421TMC3    C4 6333   3.858   0.897  13.816  0.1485 -0.4709 -0.0984
  421TMC3    C5 6334   3.949   0.976  13.885  0.4186  0.2341  1.1774
  421TMC3    C6 6335   3.939   1.111  13.876  0.1168 -0.8002 -0.2317
  421TMC3     C 6336   3.681   0.856  13.655 -0.2232 -0.2692 -1.4131
  421TMC3     O 6337   3.706   0.736  13.666 -0.1488  0.3890  0.3831
  421TMC3     H 6338   3.680   1.135  13.661 -0.0199 -1.6457 -2.0124
  421TMC3    H1 6339   3.854   0.789  13.824 -1.2231 -0.4396 -0.4303
  421TMC3    H2 6340   3.991   1.174  13.948  0.0882  0.9247 -1.7018
  421TMC3    C7 6341   4.042   0.922  13.980  0.0061  0.1704 -0.1448
  421TMC3    C8 6342   3.807   1.305  13.835  0.0156 -0.0971  0.8006
  421TMC3    O1 6343   4.110   1.009  14.038 -0.1847  0.3264  0.2638
  421TMC3    O2 6344   3.895   1.361  13.903 -0.1368 -0.3007 -0.5447
  422TMC3    C1 6345   1.337   2.987  12.441  0.5721 -0.6550  0.0355
  422TMC3    C2 6346   1.335   3.095  12.523  0.1201  1.2786 -0.2735
  422TMC3    C3 6347   1.224   3.105  12.604  0.4673  0.1420  0.5792
  422TMC3    C4 6348   1.239   2.893  12.442  0.1757 -0.0841 -0.3024
  422TMC3    C5 6349   1.144   2.904  12.538  0.1740  0.9777  0.5104
  422TMC3    C6 6350   1.131   3.012  12.612 -0.4549 -0.0506  0.1782
  422TMC3     C 6351   1.463   2.977  12.357  0.4102 -0.5930 -0.2641
  422TMC3     O 6352   1.553   3.048  12.400  0.0407  0.4521 -0.0980
  422TMC3     H 6353   1.410   3.174  12.516  1.1143  0.3797  0.1123
  422TMC3    H1 6354   1.233   2.808  12.375  0.1698 -1.6480  1.6840
  422TMC3    H2 6355   1.051   3.034  12.683  1.1617 -0.2838  2.0672
  422TMC3    C7 6356   1.027   2.817  12.518  0.9261 -0.7433  0.6389
  422TMC3    C8 6357   1.201   3.242  12.663 -0.6021 -0.2323  0.4447
  422TMC3    O1 6358   1.024   2.748  12.416 -0.1660 -0.4660  1.0354
  422TMC3    O2 6359   1.158   3.245  12.774  0.6733  0.5185 -0.1104
  423MPD2     C 6360   2.358   3.187   0.623  0.2542  0.3812 -0.0011
  423MPD2    C1 6361   2.454   3.276   0.570 -0.2149  0.2887  0.1358
  423MPD2    C2 6362   2.467   3.281   0.439  0.6788 -0.2572  0.0853
  423MPD2    C3 6363   2.400   3.185   0.355  0.0703  0.1821 -0.0052
  423MPD2    C4 6364   2.313   3.103   0.414 -0.4102  0.1115 -0.1783
  423MPD2    C5 6365   2.287   3.106   0.546 -0.3090  0.3282 -0.3130
  423MPD2     H 6366   2.529   3.359   0.395  1.6352 -0.6824  0.7009
  423MPD2    H1 6367   2.252   3.031   0.360 -0.4325 -1.1621  1.5406
  423MPD2    H2 6368   2.333   3.178   0.728 -1.9535  0.3332 -0.5489
  423MPD2    H3 6369   2.234   3.030   0.603 -1.4895  1.7135  0.4236
  423MPD2     N 6370   2.420   3.174   0.217 -0.0192  0.4940  0.2343
  423MPD2    H5 6371   2.391   3.090   0.168  0.1653  0.3690  0.3431
  423MPD2    N1 6372   2.532   3.358   0.660  0.1849 -0.4324  0.2054
  423MPD2    H7 6373   2.602   3.415   0.613  0.8494 -1.0990  0.3947
  424TMC3    C1 6374   2.618   3.475   0.851 -0.4790 -0.4540  0.4207
  424TMC3    C2 6375   2.743   3.488   0.793 -0.0474  0.0722  0.8906
  424TMC3    C3 6376   2.819   3.597   0.836 -0.8071 -0.2960 -0.4614
  424TMC3    C4 6377   2.569   3.552   0.954 -0.0255 -0.3428 -0.0885
  424TMC3    C5 6378   2.646   3.658   0.989 -0.9126 -0.2309  0.1912
  424TMC3    C6 6379   2.771   3.684   0.934  0.1815 -0.3637 -0.0377
  424TMC3     C 6380   2.517   3.385   0.794  0.3891 -0.7564 -0.7308
  424TMC3     O 6381   2.421   3.349   0.861  0.7114 -0.5426  0.1023
  424TMC3     H 6382   2.788   3.424   0.717 -0.0642 -1.8393  2.4994
  424TMC3    H1 6383   2.478   3.521   1.006 -0.3888 -0.2195 -0.6489
  424TMC3    H2 6384   2.820   3.776   0.962  0.7528 -0.5103 -0.5601
  424TMC3    C7 6385   2.599   3.745   1.090  0.9363 -0.6018 -1.1672
  424TMC3    C8 6386   2.961   3.581   0.809  0.3484 -0.1087  0.1588
  424TMC3    O1 6387   2.678   3.811   1.153  0.2326 -0.1181  0.7361
  424TMC3    O2 6388   2.995   3.469   0.773 -0.3350  0.0233  0.3875
  425MPD2     C 6389   1.793   2.841  17.253 -0.1273  0.4269 -0.1078
  425MPD2    C1 6390   1.712   2.735  17.207 -0.5773  0.0954  0.1070
  425MPD2    C2 6391   1.575   2.739  17.227 -0.6692 -0.0031 -0.3575
  425MPD2    C3 6392   1.510   2.847  17.289 -1.0248  0.3088  0.2342
  425MPD2    C4 6393   1.589   2.951  17.331 -0.5346  0.0380 -0.6567
  425MPD2    C5 6394   1.727   2.941  17.316 -0.3871 -0.5345 -0.0081
  425MPD2     H 6395   1.518   2.654  17.192 -0.3772  0.6994 -2.6002
  425MPD2    H1 6396   1.552   3.040  17.379  1.8793 -0.7960  2.7365
  425MPD2    H2 6397   1.900   2.838  17.241 -0.0316 -1.5616  1.3065
  425MPD2    H3 6398   1.786   3.025  17.351 -0.1538 -2.0986  3.4094
  425MPD2     N 6399   1.364   2.846  17.285  0.6586  0.2651  0.2052
  425MPD2    H5 6400   1.330   2.754  17.258  0.0218  0.2673  0.9976
  425MPD2    N1 6401   1.771   2.633  17.132  1.3773  0.1488 -0.1540
  425MPD2    H7 6402   1.872   2.636  17.121  1.5303  1.5784  1.5812
  426TMC3    C1 6403   1.783   2.443  16.987  0.7905 -0.4174 -0.1728
  426TMC3    C2 6404   1.769   2.424  16.850 -0.5377  0.0555 -0.1001
  426TMC3    C3 6405   1.844   2.330  16.796  0.3424 -0.5299  0.4303
  426TMC3    C4 6406   1.870   2.368  17.062 -0.2054  0.4373 -0.2700
  426TMC3    C5 6407   1.942   2.268  16.996  0.5336 -0.4050 -0.5647
  426TMC3    C6 6408   1.923   2.244  16.864  0.8559 -0.2158 -0.0229
  426TMC3     C 6409   1.704   2.554  17.043  0.1219 -0.7524 -0.2816
  426TMC3     O 6410   1.589   2.565  17.003  0.7387  0.4562 -0.1200
  426TMC3     H 6411   1.690   2.475  16.796 -0.4925  0.2400  0.0109
  426TMC3    H1 6412   1.882   2.387  17.168 -1.0533 -1.4230  0.1542
  426TMC3    H2 6413   1.975   2.164  16.813  0.8364 -1.1018  1.3539
  426TMC3    C7 6414   1.984   2.145  17.065 -0.1745 -0.1299  0.3556
  426TMC3    C8 6415   1.779   2.248  16.684 -0.2445  0.3973 -0.3820
  426TMC3    O1 6416   2.077   2.081  17.019  0.1828 -0.4598  0.5594
  426TMC3    O2 6417   1.863   2.208  16.600  0.6771 -0.7901  0.1330
  427MPD2     C 6418   0.193   0.298  15.433 -0.0298  0.2327  0.6129
  427MPD2    C1 6419   0.168   0.165  15.459 -0.7629  0.1868 -0.7326
  427MPD2    C2 6420   0.053   0.109  15.418 -0.2279 -0.6151 -1.1199
  427MPD2    C3 6421   4.694   0.197  15.353 -0.1280  0.2358  0.5048
  427MPD2    C4 6422   4.718   0.335  15.342  0.7856 -0.1659  0.1280
  427MPD2    C5 6423   0.103   0.388  15.380 -1.2616  0.1222  0.1912
  427MPD2     H 6424   0.037   0.004  15.437  2.8373 -0.9961 -0.5074
  427MPD2    H1 6425   4.649   0.394  15.284  0.5049  1.0713  1.7095
  427MPD2    H2 6426   0.280   0.354  15.467 -0.0161  0.0206  0.9329
  427MPD2    H3 6427   0.136   0.491  15.370 -1.3552  0.1313 -0.0130
  427MPD2     N 6428   4.568   0.152  15.311  0.0032 -0.2310 -0.1972
  427MPD2    H5 6429   4.506   0.224  15.275  1.7420 -0.4675 -3.7131
  427MPD2    N1 6430   0.257   0.079  15.529  0.0385 -0.3817 -0.4874
  427MPD2    H7 6431   0.258   4.715  15.522  1.1688 -0.2852 -1.8387
  428TMC3    C1 6432   0.462   0.018  15.639  0.2007 -0.4596  0.0439
  428TMC3    C2 6433   0.425   4.638  15.706 -0.1340  0.1755 -0.5809
  428TMC3    C3 6434   0.528   4.550  15.743  0.6225 -0.2056  0.2137
  428TMC3    C4 6435   0.598   0.043  15.613  0.6849 -0.2371 -0.0418
  428TMC3    C5 6436   0.698   4.687  15.646  0.1487 -0.0551  0.0010
  428TMC3    C6 6437   0.663   4.569  15.709  1.2869 -0.1471  0.9633
  428TMC3     C 6438   0.364   0.126  15.601  0.1670 -0.9476  0.4778
  428TMC3     O 6439   0.402   0.242  15.621 -0.1082 -0.0706 -0.0825
  428TMC3     H 6440   0.319   4.623  15.726 -0.4181  2.7308 -0.1717
  428TMC3    H1 6441   0.621   0.128  15.550  0.4795 -0.5166 -0.4952
  428TMC3    H2 6442   0.734   4.489  15.727 -0.6761 -1.5860  2.2285
  428TMC3    C7 6443   0.835   4.707  15.615  0.1994  0.2241 -0.4086
  428TMC3    C8 6444   0.503   4.465  15.859 -0.6338  0.2169  0.2788
  428TMC3    O1 6445   0.918   4.672  15.704  0.8701 -0.0345 -0.5249
  428TMC3    O2 6446   0.590   4.376  15.870  0.2153  0.0765  0.6071
  429MPD2     C 6447   1.624   0.193   0.067 -0.2495  0.1316  0.4164
  429MPD2    C1 6448   1.643   0.102  17.713 -0.1507 -0.5489 -0.1601
  429MPD2    C2 6449   1.684   0.139  17.588 -0.1553  0.1464 -0.7384
  429MPD2    C3 6450   1.712   0.275  17.569 -0.0101  0.7090  0.1445
  429MPD2    C4 6451   1.688   0.365  17.669  0.0026 -0.3121  0.6728
  429MPD2    C5 6452   1.641   0.323   0.037  0.2945  0.0161  0.4764
  429MPD2     H 6453   1.723   0.071  17.514 -1.7073 -1.2785 -0.2455
  429MPD2    H1 6454   1.686   0.474  17.665  2.3358 -0.4295 -3.3539
  429MPD2    H2 6455   1.588   0.173   0.167  0.0354 -1.1495  0.2570
  429MPD2    H3 6456   1.615   0.388   0.120 -2.1944 -1.7161  1.0428
  429MPD2     N 6457   1.757   0.322  17.442  0.3079 -0.2713  0.6950
  429MPD2    H5 6458   1.767   0.247  17.375 -0.1937  1.7945 -1.6761
  429MPD2    N1 6459   1.629   4.696  17.733  0.1096  0.1628  0.6140
  429MPD2    H7 6460   1.609   4.640  17.651  0.8104  1.2115 -0.2787
  430TMC3    C1 6461   1.797   0.468  17.265 -0.4890  0.3224  0.2979
  430TMC3    C2 6462   1.764   0.581  17.193  0.3168 -0.0200  0.0009
  430TMC3    C3 6463   1.802   0.588  17.065 -0.1912 -0.9304  0.5182
  430TMC3    C4 6464   1.871   0.367  17.205  0.5194 -0.1641 -0.2529
  430TMC3    C5 6465   1.912   0.380  17.076 -0.0328 -0.6677  0.3952
  430TMC3    C6 6466   1.872   0.490  16.999  0.2844 -0.1106 -0.2406
  430TMC3     C 6467   1.747   0.456  17.399 -1.1532  0.2098  0.9620
  430TMC3     O 6468   1.702   0.557  17.452 -0.0016 -0.3716 -0.3803
  430TMC3     H 6469   1.703   0.661  17.233 -1.2753 -1.0040 -0.4843
  430TMC3    H1 6470   1.894   0.274  17.257  0.5087 -0.6843 -1.1748
  430TMC3    H2 6471   1.909   0.487  16.897 -0.2085 -0.2881 -0.4153
  430TMC3    C7 6472   1.906   0.249  17.012 -0.1005 -1.1325 -0.7132
  430TMC3    C8 6473   1.747   0.684  16.969  0.0433  0.6002 -0.9368
  430TMC3    O1 6474   1.911   0.158  17.092  0.6228  0.3331 -0.1115
  430TMC3    O2 6475   1.801   0.685  16.854  0.2862 -0.6125  0.1033
  431MPD2     C 6476   2.034   0.327  12.450 -0.3090  0.0139 -0.6080
  431MPD2    C1 6477   2.100   0.333  12.330  0.1184  0.0095 -0.1208
  431MPD2    C2 6478   2.084   0.221  12.254 -0.6603 -0.0116  0.3885
  431MPD2    C3 6479   1.986   0.122  12.287  0.6698 -0.0161 -0.2198
  431MPD2    C4 6480   1.923   0.117  12.411 -0.6561 -0.1718  0.2091
  431MPD2    C5 6481   1.955   0.223  12.494 -0.3099  0.2767 -0.1898
  431MPD2     H 6482   2.145   0.213  12.165  0.9580  1.1976  1.3965
  431MPD2    H1 6483   1.861   0.034  12.443  1.2307 -1.5336  0.3559
  431MPD2    H2 6484   2.042   0.404  12.526 -2.1164  0.9981 -1.4176
  431MPD2    H3 6485   1.902   0.230  12.589  3.4082  0.8587  1.8217
  431MPD2     N 6486   1.962   0.012  12.191  0.2733  0.1939 -1.0681
  431MPD2    H5 6487   1.907   4.672  12.227  1.7018 -0.6962 -0.8023
  431MPD2    N1 6488   2.193   0.436  12.291  0.5023  0.0782 -0.4835
  431MPD2    H7 6489   2.246   0.410  12.209 -0.8193 -0.4713 -1.1487
  432TMC3    C1 6490   1.961   4.614  12.002  0.5442 -0.1774  0.2476
  432TMC3    C2 6491   1.955   4.603  11.867  0.5232  0.1769 -0.1771
  432TMC3    C3 6492   1.967   4.484  11.800  0.6301  0.4915  1.0241
  432TMC3    C4 6493   1.978   4.497  12.070 -0.5700  0.5027 -0.6241
  432TMC3    C5 6494   2.006   4.376  12.006 -0.3940  0.2784 -0.2519
  432TMC3    C6 6495   2.006   4.365  11.870  0.1914  0.5942  0.1681
  432TMC3     C 6496   2.012   0.004  12.064 -0.4469 -0.2108 -0.4536
  432TMC3     O 6497   2.075   0.078  11.990  0.0106 -0.2383 -0.5166
  432TMC3     H 6498   1.958   4.696  11.811  0.6583  0.5716  0.4897
  432TMC3    H1 6499   1.976   4.503  12.179  0.5861 -1.3598 -0.5129
  432TMC3    H2 6500   2.032   4.272  11.821  0.8421  0.4830  0.7187
  432TMC3    C7 6501   2.045   4.253  12.083  0.0879 -0.0824  0.8855
  432TMC3    C8 6502   2.031   4.514  11.676 -0.9731 -0.6071 -0.8379
  432TMC3    O1 6503   2.016   4.142  12.040 -0.7104 -0.2523  0.1022
  432TMC3    O2 6504   1.958   4.520  11.577  0.3852  0.5350  0.2877
  433MPD2     C 6505   0.868   3.773  11.121  0.2575 -0.0488 -0.1336
  433MPD2    C1 6506   0.910   3.652  11.167 -0.3838  0.0451  0.7371
  433MPD2    C2 6507   0.991   3.651  11.280  0.2897  0.2032 -0.1491
  433MPD2    C3 6508   1.026   3.766  11.348  0.7820  0.5610  0.3608
  433MPD2    C4 6509   0.982   3.883  11.306  0.1895  0.4386 -0.8746
  433MPD2    C5 6510   0.910   3.891  11.193 -0.4626  0.8267 -0.4392
  433MPD2     H 6511   1.052   3.566  11.308 -0.9971 -1.0633 -1.1717
  433MPD2    H1 6512   1.007   3.975  11.357  0.9908  0.4467 -1.2940
  433MPD2    H2 6513   0.822   3.787  11.024 -1.2168  2.7148  0.9733
  433MPD2    H3 6514   0.884   3.987  11.151 -0.3655  1.2654  0.5065
  433MPD2     N 6515   1.115   3.758  11.456 -0.3898 -0.3190  0.0657
  433MPD2    H5 6516   1.135   3.665  11.491  1.4837 -0.0851 -0.3452
  433MPD2    N1 6517   0.878   3.536  11.095 -0.1094  0.1843  0.2192
  433MPD2    H7 6518   0.843   3.547  11.000 -0.6551  0.9881  0.5057
  434TMC3    C1 6519   0.884   3.303  11.040  0.2637 -0.0100 -0.5251
  434TMC3    C2 6520   0.890   3.174  11.078 -0.1971  0.1866  0.0439
  434TMC3    C3 6521   0.896   3.078  10.984  0.2716  0.0403 -0.5744
  434TMC3    C4 6522   0.899   3.339  10.909  0.2098 -0.2802 -0.1533
  434TMC3    C5 6523   0.911   3.244  10.818  0.0229  0.6981 -0.3857
  434TMC3    C6 6524   0.906   3.112  10.854 -0.6174  0.1840 -0.1543
  434TMC3     C 6525   0.900   3.407  11.140 -0.1279  0.7450  0.1611
  434TMC3     O 6526   0.953   3.365  11.244  0.0223 -0.0162  0.1999
  434TMC3     H 6527   0.882   3.145  11.183  1.8422 -0.1276  0.1172
  434TMC3    H1 6528   0.904   3.441  10.873  0.6062 -0.0673  0.5063
  434TMC3    H2 6529   0.918   3.035  10.779 -3.9118 -0.8647  0.4167
  434TMC3    C7 6530   0.857   3.289  10.693  0.1039 -0.1587  0.1996
  434TMC3    C8 6531   0.985   2.977  11.037  0.0920 -1.1244  0.0572
  434TMC3    O1 6532   0.790   3.391  10.688  0.4519 -0.6021 -0.4002
  434TMC3    O2 6533   0.937   2.909  11.123 -0.2584  0.5706  0.1657
  435MPD2     C 6534   3.028   3.293  15.409 -0.6105  0.0493 -0.0069
  435MPD2    C1 6535   2.991   3.302  15.540 -0.4006 -0.0883  0.3867
  435MPD2    C2 6536   3.084   3.244  15.626 -0.0160  0.3865 -0.0765
  435MPD2    C3 6537   3.205   3.195  15.591 -0.0606 -0.1222  0.0768
  435MPD2    C4 6538   3.234   3.178  15.459 -0.2948  0.1859  0.1413
  435MPD2    C5 6539   3.148   3.233  15.372  0.2286 -0.5121  0.2452
  435MPD2     H 6540   3.062   3.274  15.728  1.7274  0.2414  0.3499
  435MPD2    H1 6541   3.329   3.160  15.410 -0.2262 -0.0658  0.3688
  435MPD2    H2 6542   2.975   3.324  15.319  0.0486 -1.4875 -0.9228
  435MPD2    H3 6543   3.171   3.225  15.266 -1.1603 -1.2088 -0.0093
  435MPD2     N 6544   3.285   3.147  15.693  0.5381  0.0884 -0.0704
  435MPD2    H5 6545   3.251   3.159  15.788 -1.2736 -0.7630 -0.6105
  435MPD2    N1 6546   2.867   3.352  15.589  0.2917 -0.0154  0.2759
  435MPD2    H7 6547   2.847   3.332  15.686  1.5020  1.1020  0.7547
  436TMC3    C1 6548   2.494   3.429  15.754 -0.0831  0.2348  0.6165
  436TMC3    C2 6549   2.615   3.390  15.700  0.3974  0.0307  0.4190
  436TMC3    C3 6550   2.663   3.467  15.595 -0.1905 -0.2613  0.6401
  436TMC3    C4 6551   2.417   3.526  15.701  0.5396  0.1990 -0.1821
  436TMC3    C5 6552   2.476   3.602  15.601  0.2856 -0.0970 -0.1439
  436TMC3    C6 6553   2.596   3.573  15.548 -0.7814 -0.1539 -0.5663
  436TMC3     C 6554   2.466   3.364  15.881  0.1191 -0.1265 -1.0322
  436TMC3     O 6555   2.524   3.259  15.901  0.0086 -0.6927  0.5670
  436TMC3     H 6556   2.667   3.301  15.734 -1.0597 -0.4582  1.4008
  436TMC3    H1 6557   2.322   3.557  15.743  0.8036 -1.1210  1.4184
  436TMC3    H2 6558   2.633   3.633  15.466  1.4228 -1.9091 -0.8909
  436TMC3    C7 6559   2.392   3.689  15.522  0.3846  0.8730 -0.0283
  436TMC3    C8 6560   2.776   3.423  15.510 -0.5648 -0.2637 -0.0947
  436TMC3    O1 6561   2.450   3.790  15.479 -0.1716  0.7626  0.1212
  436TMC3    O2 6562   2.794   3.466  15.399 -0.5769 -0.1224 -0.1117
  437TMC3    C1 6563   1.438   1.834  13.052  0.5259 -0.4840 -0.0870
  437TMC3    C2 6564   1.525   1.873  13.145 -0.5052  1.1215 -0.3568
  437TMC3    C3 6565   1.653   1.902  13.107 -0.3407 -0.5090 -0.2557
  437TMC3    C4 6566   1.479   1.807  12.925 -0.6026 -1.1099  0.5075
  437TMC3    C5 6567   1.605   1.832  12.888 -0.1647 -0.0019 -0.4860
  437TMC3    C6 6568   1.700   1.878  12.985  0.2742  0.2847 -0.3541
  437TMC3     C 6569   1.329   1.757  13.095 -0.6188 -0.8461 -0.4795
  437TMC3     O 6570   1.345   1.721  13.207  0.5710  0.3336 -0.2956
  437TMC3     H 6571   1.497   1.902  13.246  0.8181  1.6729 -0.1535
  437TMC3    H1 6572   1.410   1.772  12.849 -2.1718  2.2264  0.3703
  437TMC3    H2 6573   1.792   1.921  12.948  0.1377  0.9068  0.0360
  437TMC3    C7 6574   1.650   1.770  12.763  0.0016 -0.9782 -0.1971
  437TMC3    C8 6575   1.733   1.971  13.207  0.4577 -0.4868  0.0251
  437TMC3    O1 6576   1.581   1.767  12.665 -0.9877 -0.5212 -0.2222
  437TMC3    O2 6577   1.681   2.020  13.307 -0.1049 -0.5024 -0.3796
  438MPD2     C 6578   3.971   1.849  16.784  0.1254  0.0353  0.3494
  438MPD2    C1 6579   4.026   1.752  16.868  0.2957 -0.6803 -0.1136
  438MPD2    C2 6580   4.011   1.767  16.999  0.4826  0.1248  0.1963
  438MPD2    C3 6581   3.948   1.875  17.054 -0.1824  0.1927 -0.5377
  438MPD2    C4 6582   3.890   1.973  16.969 -0.0453  1.0240  0.2712
  438MPD2    C5 6583   3.910   1.961  16.834 -0.2692 -0.4478 -0.0839
  438MPD2     H 6584   4.060   1.695  17.064  0.6578 -0.2287 -0.3324
  438MPD2    H1 6585   3.836   2.058  17.008 -1.9648  0.0547 -0.2691
  438MPD2    H2 6586   3.973   1.844  16.676  0.0683 -2.3783  0.4662
  438MPD2    H3 6587   3.861   2.025  16.762  0.5602  3.1012  2.5238
  438MPD2     N 6588   3.957   1.880  17.189  0.0242 -0.2656 -0.6532
  438MPD2    H5 6589   3.992   1.794  17.231 -0.3443  1.4043  2.9712
  438MPD2    N1 6590   4.104   1.639  16.826  0.4082 -0.1590 -0.0186
  438MPD2    H7 6591   4.146   1.577  16.895  1.1026 -0.6470 -0.8706
  439TMC3    C1 6592   4.190   1.486  16.678  0.1482  0.4166 -0.4772
  439TMC3    C2 6593   4.237   1.465  16.547  0.2301 -0.2122 -0.7709
  439TMC3    C3 6594   4.289   1.343  16.517  0.2380  0.1590  0.0620
  439TMC3    C4 6595   4.200   1.385  16.772 -0.4347 -0.1446 -0.3918
  439TMC3    C5 6596   4.256   1.268  16.736 -0.6609  0.9201  0.3734
  439TMC3    C6 6597   4.306   1.247  16.616  0.3805  0.7223  0.0742
  439TMC3     C 6598   4.099   1.594  16.693  0.3059 -0.6196  0.3545
  439TMC3     O 6599   4.053   1.644  16.590  0.3321 -0.4448 -0.0462
  439TMC3     H 6600   4.218   1.545  16.477 -0.5166  0.4569  0.1836
  439TMC3    H1 6601   4.138   1.390  16.861 -0.1471 -1.7817 -0.0896
  439TMC3    H2 6602   4.362   1.157  16.593  1.6145  1.6042 -0.3788
  439TMC3    C7 6603   4.301   1.178  16.844 -0.5336 -0.2510 -0.3645
  439TMC3    C8 6604   4.395   1.344  16.419 -0.2860  0.2607 -0.9799
  439TMC3    O1 6605   4.333   1.224  16.957  0.0832  0.3832 -0.0807
  439TMC3    O2 6606   4.495   1.281  16.450  0.1254 -0.0021 -0.1059
  440MPD2     C 6607   2.847   1.417  14.888  0.3987 -0.2347 -0.2113
  440MPD2    C1 6608   2.855   1.426  15.028  0.4895 -0.1726 -0.2088
  440MPD2    C2 6609   2.932   1.338  15.096  0.2933 -0.3394  0.1845
  440MPD2    C3 6610   3.005   1.242  15.024 -1.0354 -0.4982  0.4315
  440MPD2    C4 6611   2.992   1.233  14.893 -0.3653  0.6513  0.0369
  440MPD2    C5 6612   2.917   1.322  14.822 -0.0095  0.0025 -0.2482
  440MPD2     H 6613   2.947   1.343  15.203  1.2126 -1.4912  0.1138
  440MPD2    H1 6614   3.053   1.160  14.840  0.7572 -0.1390  2.4322
  440MPD2    H2 6615   2.786   1.472  14.817 -0.8156 -1.1597  0.1284
  440MPD2    H3 6616   2.901   1.314  14.715 -0.6256 -3.3633  0.0948
  440MPD2     N 6617   3.099   1.156  15.082  0.0883 -0.6500 -0.5255
  440MPD2    H5 6618   3.163   1.106  15.021  0.1391 -2.6625  1.2027
  440MPD2    N1 6619   2.802   1.533  15.104  0.3355  0.2364 -0.1984
  440MPD2    H7 6620   2.810   1.525  15.205  0.0418  1.2497 -0.0991
  441TMC3    C1 6621   3.260   1.088  15.243  0.2915 -0.5698  0.4890
  441TMC3    C2 6622   3.354   1.174  15.198  0.6051  0.4600 -0.1079
  441TMC3    C3 6623   3.460   1.199  15.281  0.8593  0.0934 -0.1903
  441TMC3    C4 6624   3.268   1.024  15.368  0.8627  0.1813  0.2056
  441TMC3    C5 6625   3.384   1.055  15.442 -0.0106 -0.4869 -0.3570
  441TMC3    C6 6626   3.487   1.135  15.399 -0.1533  0.3059  0.1545
  441TMC3     C 6627   3.125   1.132  15.213 -0.6946 -0.0536  0.3340
  441TMC3     O 6628   3.056   1.155  15.314  0.0563  0.2750 -0.2636
  441TMC3     H 6629   3.338   1.238  15.111 -0.5372 -0.7508 -0.7765
  441TMC3    H1 6630   3.200   0.951  15.411 -0.3035 -1.0812 -3.7516
  441TMC3    H2 6631   3.570   1.168  15.462 -1.7901  2.8443  0.9926
  441TMC3    C7 6632   3.365   1.049  15.584  0.1878  0.3705  0.6340
  441TMC3    C8 6633   3.519   1.333  15.288  0.4965 -0.0501  0.9424
  441TMC3    O1 6634   3.267   0.986  15.619  0.0107  0.1893 -0.0476
  441TMC3    O2 6635   3.641   1.343  15.316 -1.0224  0.1680 -0.2183
  442MPD2     C 6636   1.302   2.567  16.549  0.1776 -0.2394 -0.1133
  442MPD2    C1 6637   1.187   2.496  16.588 -0.3842 -0.6236  0.2222
  442MPD2    C2 6638   1.174   2.359  16.574 -0.2469 -0.1732 -0.0377
  442MPD2    C3 6639   1.287   2.292  16.532  0.3758  0.5399 -0.0216
  442MPD2    C4 6640   1.402   2.360  16.502 -0.1889  1.0634  0.0532
  442MPD2    C5 6641   1.412   2.495  16.508  0.3534 -0.1529 -0.5321
  442MPD2     H 6642   1.079   2.310  16.594 -0.6504  0.7105  0.1766
  442MPD2    H1 6643   1.495   2.307  16.485 -1.2561 -1.3457  1.6993
  442MPD2    H2 6644   1.298   2.675  16.543 -0.5925 -0.2763 -0.1825
  442MPD2    H3 6645   1.504   2.541  16.474 -0.3330  2.1837  0.8203
  442MPD2     N 6646   1.295   2.156  16.519 -0.2300 -0.0044 -0.0417
  442MPD2    H5 6647   1.383   2.121  16.482  1.1459  3.6499 -0.2394
  442MPD2    N1 6648   1.078   2.569  16.643  0.0756  0.1246  0.0649
  442MPD2    H7 6649   0.992   2.519  16.661 -0.3358  0.9144  0.2940
  443TMC3    C1 6650   0.951   2.736  16.745  0.1355  0.0122 -0.2004
  443TMC3    C2 6651   0.887   2.848  16.707 -0.2524  0.4823 -0.0214
  443TMC3    C3 6652   0.761   2.856  16.744  0.1817  1.2020 -0.1807
  443TMC3    C4 6653   0.891   2.638  16.828  0.0435  0.6038 -0.5220
  443TMC3    C5 6654   0.762   2.659  16.873 -0.5093  0.3375  0.6581
  443TMC3    C6 6655   0.695   2.775  16.832  0.3193  0.4175 -0.3566
  443TMC3     C 6656   1.068   2.704  16.670  0.1509 -0.0619 -0.2474
  443TMC3     O 6657   1.146   2.799  16.660 -0.1424  0.7035 -0.1157
  443TMC3     H 6658   0.927   2.924  16.641 -1.0700 -0.6658 -1.8476
  443TMC3    H1 6659   0.948   2.556  16.870 -1.6828 -1.6710 -2.5990
  443TMC3    H2 6660   0.589   2.791  16.847 -0.0381 -0.2668 -2.1041
  443TMC3    C7 6661   0.704   2.560  16.955  0.1850 -0.6398 -0.1624
  443TMC3    C8 6662   0.676   2.960  16.691  0.1375 -0.2874 -0.0000
  443TMC3    O1 6663   0.722   2.441  16.931 -0.1225 -0.7929  0.1174
  443TMC3    O2 6664   0.623   3.032  16.774 -0.2179 -1.0102  0.7164
  444MPD2     C 6665   1.496   1.717  17.016 -0.0760  0.0461  0.1177
  444MPD2    C1 6666   1.405   1.628  16.963  0.2231  0.1847 -0.4021
  444MPD2    C2 6667   1.451   1.511  16.907 -0.0863 -0.1157  0.1164
  444MPD2    C3 6668   1.589   1.477  16.911 -0.1830  1.0641 -0.4263
  444MPD2    C4 6669   1.686   1.567  16.967 -0.4315 -0.2440 -0.5120
  444MPD2    C5 6670   1.630   1.687  17.018  0.3424  0.6557  0.2769
  444MPD2     H 6671   1.379   1.446  16.858 -2.5739  1.1499  2.0784
  444MPD2    H1 6672   1.794   1.557  16.979 -0.3373  0.7701 -0.4724
  444MPD2    H2 6673   1.463   1.810  17.059  0.8054 -0.0441  0.9941
  444MPD2    H3 6674   1.700   1.766  17.043  0.1056  1.3483 -1.2484
  444MPD2     N 6675   1.634   1.358  16.853  0.2415 -0.6508  0.1177
  444MPD2    H5 6676   1.567   1.291  16.818 -0.1032 -0.7447  0.9684
  444MPD2    N1 6677   1.266   1.646  16.968  0.3767  0.7046  0.2499
  444MPD2    H7 6678   1.217   1.559  16.950  0.6170  0.6822 -0.2988
  445TMC3    C1 6679   1.783   1.182  16.789  1.4947 -0.0400 -0.5201
  445TMC3    C2 6680   1.689   1.136  16.698 -0.9019  0.3784 -0.2189
  445TMC3    C3 6681   1.721   1.026  16.632  0.5294  0.1385 -0.1508
  445TMC3    C4 6682   1.894   1.115  16.826 -0.9630  0.5870  0.2522
  445TMC3    C5 6683   1.915   0.994  16.761 -0.3598 -0.2821 -0.0666
  445TMC3    C6 6684   1.829   0.951  16.662  0.0814 -0.7854 -0.0190
  445TMC3     C 6685   1.762   1.308  16.854 -0.0798 -0.1614  1.0436
  445TMC3     O 6686   1.871   1.366  16.878  0.2287 -0.2407  0.2287
  445TMC3     H 6687   1.602   1.198  16.679 -0.7690  0.6943  0.2201
  445TMC3    H1 6688   1.974   1.156  16.887 -0.5876 -1.3413  1.0666
  445TMC3    H2 6689   1.836   0.852  16.619  1.0734 -1.4707  1.7503
  445TMC3    C7 6690   2.053   0.950  16.745  0.4563 -0.6077 -0.0013
  445TMC3    C8 6691   1.651   0.995  16.503 -0.1080  0.7426  0.2434
  445TMC3    O1 6692   2.140   1.038  16.720 -0.2671  0.1337 -0.0851
  445TMC3    O2 6693   1.674   0.885  16.455  0.0897 -0.0951 -0.0147
  446MPD2     C 6694   0.877   2.798  11.580 -0.1190 -0.4502  0.0649
  446MPD2    C1 6695   0.827   2.900  11.502  0.0624  0.1019  0.1804
  446MPD2    C2 6696   0.909   3.003  11.465 -0.1850 -0.1387 -0.7061
  446MPD2    C3 6697   1.041   3.004  11.504  1.2743  0.0017  0.1005
  446MPD2    C4 6698   1.084   2.914  11.595  0.0836 -0.2233  0.1442
  446MPD2    C5 6699   1.002   2.809  11.631  0.4878  1.2182 -0.0203
  446MPD2     H 6700   0.876   3.075  11.390 -0.0523  0.0026 -0.6286
  446MPD2    H1 6701   1.189   2.911  11.619  0.0394  0.6256  0.4280
  446MPD2    H2 6702   0.825   2.706  11.606  0.7977 -1.4607 -1.7024
  446MPD2    H3 6703   1.048   2.725  11.684  0.5482  2.1943  1.4743
  446MPD2     N 6704   1.129   3.090  11.429 -0.5871  0.8783 -0.0015
  446MPD2    H5 6705   1.092   3.145  11.352 -0.4843  2.2003  0.8942
  446MPD2    N1 6706   0.686   2.893  11.473  0.1774  0.1550 -0.6232
  446MPD2    H7 6707   0.640   2.802  11.474 -1.8260  1.1822  0.6174
  447TMC3    C1 6708   1.326   3.139  11.320  0.0117 -1.0164 -0.3464
  447TMC3    C2 6709   1.264   3.192  11.211  0.1152 -0.2212 -0.6803
  447TMC3    C3 6710   1.343   3.266  11.127  0.0022  0.2563 -0.2843
  447TMC3    C4 6711   1.466   3.157  11.332  0.0625  0.0280  0.5792
  447TMC3    C5 6712   1.538   3.217  11.234  0.2741 -0.1498  0.4264
  447TMC3    C6 6713   1.478   3.283  11.138  0.0823 -0.2931  0.0736
  447TMC3     C 6714   1.266   3.085  11.438  0.5226 -0.3740  0.2464
  447TMC3     O 6715   1.340   3.022  11.513  0.2997  0.4144 -0.0878
  447TMC3     H 6716   1.158   3.187  11.190 -0.4438  2.6165  1.4166
  447TMC3    H1 6717   1.517   3.127  11.423  0.4198  0.1684  0.4240
  447TMC3    H2 6718   1.531   3.334  11.059  1.1001 -1.5195 -0.0344
  447TMC3    C7 6719   1.655   3.295  11.272 -0.5715  0.3058 -0.3050
  447TMC3    C8 6720   1.269   3.355  11.036  0.3941  0.2352  0.2339
  447TMC3    O1 6721   1.660   3.418  11.258 -0.4135  0.7293 -0.0003
  447TMC3    O2 6722   1.189   3.299  10.968  0.8567 -0.0832 -0.1754
  448TMC3    C1 6723   4.360   2.904  17.735 -0.1392  0.6228  0.5890
  448TMC3    C2 6724   4.336   2.848  17.611  0.2347 -0.8481 -0.5966
  448TMC3    C3 6725   4.411   2.737  17.581 -0.4083 -0.7911  0.1307
  448TMC3    C4 6726   4.453   2.852   0.078 -0.1457  0.7253  0.5628
  448TMC3    C5 6727   4.514   2.742   0.034 -0.7814  0.4152 -0.8343
  448TMC3    C6 6728   4.498   2.679  17.666  0.7229  0.4500  0.1958
  448TMC3     C 6729   4.317   3.039   0.010  0.1411 -0.5496  0.1537
  448TMC3     O 6730   4.293   3.111  17.662  0.2609 -0.3455  0.0824
  448TMC3     H 6731   4.269   2.896  17.540  0.2489  0.0238 -0.0300
  448TMC3    H1 6732   4.492   2.914   0.158  0.4289  1.8469 -0.6004
  448TMC3    H2 6733   4.548   2.586  17.644  0.3639  0.3159 -0.0477
  448TMC3    C7 6734   4.598   2.681   0.135  0.0965 -0.1995  0.2293
  448TMC3    C8 6735   4.345   2.652  17.483  0.2217 -0.9751 -0.2437
  448TMC3    O1 6736   4.686   2.608   0.090 -0.0221  0.1866  0.3900
  448TMC3    O2 6737   4.394   2.540  17.490 -0.0407 -0.8523  0.5178
  449MPD2     C 6738   1.135   1.494  14.302 -0.8552 -0.1030  0.0461
  449MPD2    C1 6739   1.004   1.537  14.293 -0.5102 -0.1783 -0.0736
  449MPD2    C2 6740   0.906   1.446  14.264 -0.2234 -0.3771  0.2265
  449MPD2    C3 6741   0.941   1.312  14.248 -0.0031 -0.1554  0.7396
  449MPD2    C4 6742   1.071   1.268  14.261  0.3216 -0.3096  0.6358
  449MPD2    C5 6743   1.164   1.361  14.292 -0.3411  0.2308  0.1175
  449MPD2     H 6744   0.803   1.473  14.246 -0.8249 -0.7681  3.0682
  449MPD2    H1 6745   1.112   1.173  14.230  0.0358  0.2826 -1.5579
  449MPD2    H2 6746   1.217   1.562  14.320 -1.8116  1.1518 -0.3432
  449MPD2    H3 6747   1.266   1.325  14.292 -0.3229  0.2811  0.3011
  449MPD2     N 6748   0.839   1.228  14.190 -0.3046  0.4885  0.0656
  449MPD2    H5 6749   0.749   1.274  14.179 -0.0589  0.2062 -3.0077
  449MPD2    N1 6750   0.975   1.672  14.285  0.4359  0.0790  0.1396
  449MPD2    H7 6751   0.877   1.697  14.275  0.2089 -1.1760 -0.7211
  450TMC3    C1 6752   0.980   1.884  14.225  0.7737 -0.0224 -0.4105
  450TMC3    C2 6753   1.027   1.939  14.106  0.2378 -0.1845  0.2680
  450TMC3    C3 6754   0.938   1.994  14.024  0.4957  0.1963 -0.3525
  450TMC3    C4 6755   0.847   1.891  14.259  0.4406 -0.2851 -0.5975
  450TMC3    C5 6756   0.756   1.942  14.169 -0.5289 -0.1416  0.4068
  450TMC3    C6 6757   0.808   1.998  14.055  0.1468  0.2689 -0.3794
  450TMC3     C 6758   1.058   1.775  14.277  0.3398 -0.3137  0.3260
  450TMC3     O 6759   1.179   1.773  14.255  0.3510 -0.2198  0.2320
  450TMC3     H 6760   1.133   1.933  14.087 -0.0250  0.4747 -1.3968
  450TMC3    H1 6761   0.809   1.856  14.354 -0.5132  1.0479 -0.4838
  450TMC3    H2 6762   0.731   2.032  13.987  1.2238  0.1616 -1.6508
  450TMC3    C7 6763   0.651   1.844  14.156  0.5263 -0.3641  0.2918
  450TMC3    C8 6764   0.983   2.032  13.892  0.4913  0.3947 -0.2163
  450TMC3    O1 6765   0.687   1.743  14.214  0.2189 -0.2819 -0.0382
  450TMC3    O2 6766   0.921   2.121  13.834 -0.2155 -0.9065  0.1250
  451MPD2     C 6767   2.175   4.564   1.017 -0.4408 -0.1174 -0.4056
  451MPD2    C1 6768   2.203   4.651   0.914  0.3406 -0.6225 -0.0695
  451MPD2    C2 6769   2.267   4.591   0.809 -0.1069  0.0338 -0.6249
  451MPD2    C3 6770   2.314   4.459   0.809  0.1820 -0.1245  0.3359
  451MPD2    C4 6771   2.285   4.383   0.916  0.2588 -1.1977  1.1426
  451MPD2    C5 6772   2.224   4.435   1.019 -0.4171  0.0650  0.2800
  451MPD2     H 6773   2.303   4.652   0.726 -0.3819  1.0561  0.0103
  451MPD2    H1 6774   2.314   4.280   0.935 -0.4324 -1.5387  0.4006
  451MPD2    H2 6775   2.120   4.594   1.105  0.6773 -1.3290  0.7214
  451MPD2    H3 6776   2.205   4.368   1.101  1.6030 -0.6876  0.1257
  451MPD2     N 6777   2.394   4.401   0.711 -0.2076 -0.2404  0.5514
  451MPD2    H5 6778   2.420   4.303   0.724 -0.1906 -0.0404  1.9930
  451MPD2    N1 6779   2.177   0.052   0.929 -0.0803  0.2306  0.3062
  451MPD2    H7 6780   2.145   0.071   1.024 -2.0886 -0.1675 -0.2974
  452TMC3    C1 6781   2.528   4.357   0.525  0.7111 -0.5457  0.4055
  452TMC3    C2 6782   2.497   4.225   0.539 -0.5209  0.4126 -0.1014
  452TMC3    C3 6783   2.570   4.137   0.464 -0.3208  0.8787  0.2181
  452TMC3    C4 6784   2.624   4.404   0.444  0.7173  0.5100  0.6123
  452TMC3    C5 6785   2.682   4.309   0.356  0.2592 -0.9890  0.1394
  452TMC3    C6 6786   2.660   4.171   0.371 -0.2064 -0.2176  0.0039
  452TMC3     C 6787   2.457   4.456   0.601 -0.0510 -0.3423  0.1545
  452TMC3     O 6788   2.473   4.574   0.566  0.5358 -0.2672  0.6137
  452TMC3     H 6789   2.413   4.187   0.597 -0.8046  2.1033  0.5935
  452TMC3    H1 6790   2.654   4.507   0.430 -0.0258  0.7928  1.1083
  452TMC3    H2 6791   2.707   4.100   0.303  0.4260  0.5704 -0.3843
  452TMC3    C7 6792   2.744   4.359   0.235 -0.3093  0.3535 -1.1868
  452TMC3    C8 6793   2.512   4.009   0.451 -0.1994  0.8054 -0.3219
  452TMC3    O1 6794   2.815   4.459   0.252  0.5929 -0.2331  0.1897
  452TMC3    O2 6795   2.500   3.964   0.340  0.1146  0.4500  0.1950
  453TMC3    C1 6796   3.597   2.293  11.991  0.2299  0.5134 -0.2301
  453TMC3    C2 6797   3.525   2.186  11.942 -0.5279  0.0703 -0.6040
  453TMC3    C3 6798   3.399   2.209  11.894 -0.2203  0.1553 -0.0587
  453TMC3    C4 6799   3.547   2.416  11.967  0.3055 -0.6797 -0.2527
  453TMC3    C5 6800   3.425   2.431  11.904 -0.0085  0.5637 -0.0822
  453TMC3    C6 6801   3.346   2.328  11.867  0.5220 -0.0939 -0.0787
  453TMC3     C 6802   3.702   2.283  12.087 -0.6892 -0.1966 -0.2530
  453TMC3     O 6803   3.746   2.385  12.139  0.2100 -0.3138 -0.1514
  453TMC3     H 6804   3.550   2.085  11.971  2.8732  0.8314 -0.8787
  453TMC3    H1 6805   3.605   2.507  11.981 -1.2984  0.2872  0.1312
  453TMC3    H2 6806   3.256   2.344  11.810 -0.0949 -1.0088  0.6289
  453TMC3    C7 6807   3.374   2.569  11.894 -0.2194 -0.2225  0.1449
  453TMC3    C8 6808   3.323   2.097  11.839 -0.5586  0.6652 -0.5094
  453TMC3    O1 6809   3.302   2.598  11.797  0.5150  0.1875 -0.3118
  453TMC3    O2 6810   3.203   2.116  11.828  0.6497 -0.3242  0.2899
  454MPD2     C 6811   2.452   1.154  16.508  0.1515  1.0069 -0.0709
  454MPD2    C1 6812   2.401   1.280  16.489  0.2121  0.6488  0.1472
  454MPD2    C2 6813   2.389   1.357  16.604 -0.1318  0.1441  0.6195
  454MPD2    C3 6814   2.403   1.297  16.730  0.1673  0.2971 -0.1088
  454MPD2    C4 6815   2.461   1.176  16.741  0.1864 -0.5507  0.0302
  454MPD2    C5 6816   2.480   1.100  16.625  0.1576  0.1854  0.4495
  454MPD2     H 6817   2.363   1.462  16.595 -3.1270 -0.5325  1.5477
  454MPD2    H1 6818   2.474   1.122  16.834 -0.8860  0.3479  0.7082
  454MPD2    H2 6819   2.475   1.094  16.420  1.0948  2.2945 -0.7077
  454MPD2    H3 6820   2.524   1.001  16.624  1.4628  0.7685  0.7529
  454MPD2     N 6821   2.362   1.371  16.849 -0.0621 -0.9845  0.1198
  454MPD2    H5 6822   2.397   1.334  16.937  0.9502  1.2039  0.6281
  454MPD2    N1 6823   2.359   1.330  16.366 -0.1651  0.5190 -0.0174
  454MPD2    H7 6824   2.350   1.431  16.368  4.4134  0.9055 -0.4288
  455TMC3    C1 6825   2.175   1.481  16.747  0.4977  0.0129 -0.4974
  455TMC3    C2 6826   2.128   1.612  16.740  0.0183 -0.2917  0.1568
  455TMC3    C3 6827   2.025   1.618  16.650 -0.0023  0.0724  0.5200
  455TMC3    C4 6828   2.119   1.371  16.680 -0.4187 -1.1318 -0.3246
  455TMC3    C5 6829   2.017   1.398  16.590 -0.2335 -0.2677 -0.5280
  455TMC3    C6 6830   1.967   1.519  16.578 -0.3545  0.2953  0.8805
  455TMC3     C 6831   2.269   1.470  16.854 -0.1600  0.4850 -0.5522
  455TMC3     O 6832   2.234   1.533  16.954 -0.2246  0.4160 -0.2223
  455TMC3     H 6833   2.168   1.688  16.807  0.4068 -0.8201  0.5206
  455TMC3    H1 6834   2.160   1.272  16.693 -0.1095 -0.7886  1.2555
  455TMC3    H2 6835   1.880   1.541  16.517  2.2476  0.7113 -2.6573
  455TMC3    C7 6836   1.967   1.304  16.493 -0.0674 -0.6662  0.8942
  455TMC3    C8 6837   1.955   1.747  16.664 -0.3806  0.7948  0.1868
  455TMC3    O1 6838   1.861   1.330  16.439  0.3331  0.0835 -0.3173
  455TMC3    O2 6839   2.019   1.851  16.678 -0.1755  0.5946 -0.4461
  456MPD2     C 6840   4.406   1.760  16.343  0.0341  0.7472 -0.0551
  456MPD2    C1 6841   4.515   1.725  16.426 -0.1230 -0.2702 -0.2890
  456MPD2    C2 6842   4.509   1.753  16.563 -0.4470 -0.5041 -0.1722
  456MPD2    C3 6843   4.400   1.816  16.616 -0.4207  0.0497  0.3470
  456MPD2    C4 6844   4.289   1.845  16.536  0.3946  0.2310  0.3630
  456MPD2    C5 6845   4.293   1.815  16.400  0.2589 -0.0148 -0.6462
  456MPD2     H 6846   4.598   1.727  16.619  0.6555  0.5383 -1.4735
  456MPD2    H1 6847   4.202   1.897  16.576  0.2412 -1.3646  2.0806
  456MPD2    H2 6848   4.410   1.713  16.246  0.2004  0.0678  0.2834
  456MPD2    H3 6849   4.210   1.853  16.340  0.8664  1.7888 -0.3586
  456MPD2     N 6850   4.396   1.849  16.749 -0.0428  0.3236 -0.5651
  456MPD2    H5 6851   4.459   1.804  16.816  0.9975  0.8722 -1.1898
  456MPD2    N1 6852   4.637   1.672  16.367  0.3977 -0.3410 -0.3578
  456MPD2    H7 6853   4.649   1.683  16.267 -0.4045 -2.1376 -0.6651
  457TMC3    C1 6854   4.306   1.961  16.946  0.3292 -0.7166  0.1530
  457TMC3    C2 6855   4.231   2.065  17.004 -0.1051  0.3720  0.0276
  457TMC3    C3 6856   4.237   2.077  17.139  0.4867  0.0973  0.0167
  457TMC3    C4 6857   4.378   1.872  17.020  1.0306 -0.0034 -0.4077
  457TMC3    C5 6858   4.375   1.888  17.156  0.0333  0.0705 -0.0779
  457TMC3    C6 6859   4.301   1.988  17.216 -0.2375  0.0537  0.7761
  457TMC3     C 6860   4.314   1.950  16.800  0.6863 -0.3847  0.1136
  457TMC3     O 6861   4.257   2.042  16.744 -0.1558 -0.7107 -0.2574
  457TMC3     H 6862   4.192   2.144  16.941  0.9301 -0.1002 -1.2232
  457TMC3    H1 6863   4.438   1.794  16.976 -0.2514 -0.2890 -1.6516
  457TMC3    H2 6864   4.286   1.977  17.323  1.6153  2.2280  1.2598
  457TMC3    C7 6865   4.483   1.843  17.233 -0.4082 -0.0976 -0.1879
  457TMC3    C8 6866   4.232   2.211  17.202 -0.2190  0.0100  0.4243
  457TMC3    O1 6867   4.536   1.734  17.202  0.2830  0.3499 -0.4450
  457TMC3    O2 6868   4.318   2.228  17.286  0.4340  0.3975 -0.2107
  458MPD2     C 6869   1.999   1.508  12.486 -0.4948  0.3227  0.3338
  458MPD2    C1 6870   2.032   1.498  12.618  0.2909  0.9674  0.1080
  458MPD2    C2 6871   1.950   1.555  12.718  0.7335 -0.2070 -0.0993
  458MPD2    C3 6872   1.838   1.630  12.684  0.6175  0.0407  0.2195
  458MPD2    C4 6873   1.800   1.624  12.549 -0.2917 -0.2919 -0.8811
  458MPD2    C5 6874   1.888   1.582  12.451  0.2344  0.0174 -0.1886
  458MPD2     H 6875   1.980   1.546  12.822 -1.5572 -0.2758  0.5589
  458MPD2    H1 6876   1.712   1.675  12.511  1.2110  1.2269 -2.3343
  458MPD2    H2 6877   2.056   1.459  12.408  0.0199 -0.8272  1.4325
  458MPD2    H3 6878   1.863   1.592  12.346 -2.0353 -1.5373  0.2016
  458MPD2     N 6879   1.761   1.696  12.789 -0.1734  0.1062 -0.5472
  458MPD2    H5 6880   1.797   1.695  12.884  0.0732  3.1036 -0.6063
  458MPD2    N1 6881   2.153   1.426  12.649 -0.5427  0.0080 -0.2060
  458MPD2    H7 6882   2.205   1.397  12.566 -0.5336 -1.0689  0.1838
  459TMC3    C1 6883   2.326   1.318  12.788 -0.0202 -0.0405 -0.3604
  459TMC3    C2 6884   2.428   1.357  12.710 -0.3927  0.0485  0.6385
  459TMC3    C3 6885   2.547   1.309  12.748  0.1465 -1.1131  0.1140
  459TMC3    C4 6886   2.332   1.230  12.891 -0.1898  0.3417  0.1160
  459TMC3    C5 6887   2.453   1.176  12.923  0.0189  0.4997 -0.4500
  459TMC3    C6 6888   2.561   1.213  12.848  0.2056  0.1475  0.4360
  459TMC3     C 6889   2.190   1.375  12.773  0.1311  0.5304 -0.9738
  459TMC3     O 6890   2.116   1.376  12.869  0.1515  0.0943  0.8307
  459TMC3     H 6891   2.414   1.431  12.633  1.2045 -1.2933 -0.9571
  459TMC3    H1 6892   2.244   1.194  12.942  0.3652 -1.5661 -0.2604
  459TMC3    H2 6893   2.657   1.175  12.882 -0.6205 -0.2226  2.3711
  459TMC3    C7 6894   2.472   1.069  13.021  0.4662  0.5035 -0.5309
  459TMC3    C8 6895   2.661   1.308  12.653  0.0449 -0.3252  0.0046
  459TMC3    O1 6896   2.566   0.999  12.988  0.4379  0.1574  0.5394
  459TMC3    O2 6897   2.774   1.352  12.674  0.2135  0.0574  0.1494
  460MPD2     C 6898   1.323   3.710  10.975  0.3642  0.5582  0.1740
  460MPD2    C1 6899   1.273   3.586  10.953  0.0793 -0.7545  0.0400
  460MPD2    C2 6900   1.187   3.559  10.849  0.2865 -0.1826  0.2210
  460MPD2    C3 6901   1.155   3.664  10.765  0.6220  0.1112 -0.4301
  460MPD2    C4 6902   1.201   3.796  10.788 -0.9584  0.4050 -0.3972
  460MPD2    C5 6903   1.280   3.815  10.894 -0.1026 -0.0649  0.3589
  460MPD2     H 6904   1.160   3.458  10.820  0.2706  0.0071 -0.4345
  460MPD2    H1 6905   1.175   3.884  10.731  0.0823  0.8013 -0.2589
  460MPD2    H2 6906   1.385   3.717  11.064 -2.4839  1.5203  2.0764
  460MPD2    H3 6907   1.314   3.917  10.906 -0.4998  0.0532  0.4880
  460MPD2     N 6908   1.068   3.631  10.657 -0.4726 -0.9651  0.3461
  460MPD2    H5 6909   1.048   3.535  10.629 -0.9998 -0.3684 -1.3712
  460MPD2    N1 6910   1.322   3.485  11.039 -0.9475  0.6511  0.5420
  460MPD2    H7 6911   1.400   3.505  11.101 -2.6912 -0.5180  3.1309
  461TMC3    C1 6912   0.918   3.685  10.478 -0.1913 -0.0806  0.0824
  461TMC3    C2 6913   0.941   3.559  10.434  0.5388  0.6391  0.5692
  461TMC3    C3 6914   0.911   3.539  10.303 -0.0498  0.4317 -0.4629
  461TMC3    C4 6915   0.870   3.781  10.396  0.0245  0.0444 -0.8890
  461TMC3    C5 6916   0.824   3.756  10.271  0.2310  0.5250  0.7601
  461TMC3    C6 6917   0.857   3.629  10.216 -0.1161 -0.7683 -0.4600
  461TMC3     C 6918   1.001   3.728  10.584  0.1169  0.1282  0.6855
  461TMC3     O 6919   1.013   3.852  10.587 -0.4085 -0.0416  0.2331
  461TMC3     H 6920   0.956   3.476  10.501  1.9110 -1.9675 -2.9349
  461TMC3    H1 6921   0.862   3.885  10.424 -1.3728 -0.8366  1.9820
  461TMC3    H2 6922   0.824   3.593  10.119  1.9897 -1.8963 -0.7617
  461TMC3    C7 6923   0.826   3.857  10.166 -1.1712 -0.1019  0.1384
  461TMC3    C8 6924   0.967   3.419  10.247  0.2683 -0.3023  0.1451
  461TMC3    O1 6925   0.758   3.845  10.068  0.3659  0.8016  0.6349
  461TMC3    O2 6926   1.067   3.379  10.307 -0.1030 -0.7727  0.3726
  462TMC3    C1 6927   1.381   0.083   0.429  0.4078 -0.5572 -0.0692
  462TMC3    C2 6928   1.461   0.036   0.530  0.0313 -0.3593  0.4510
  462TMC3    C3 6929   1.473   4.636   0.549 -0.3318  0.0402  0.2624
  462TMC3    C4 6930   1.302   4.733   0.363 -0.2300 -0.5037 -0.0032
  462TMC3    C5 6931   1.312   4.601   0.382  0.3464 -0.0573 -0.5939
  462TMC3    C6 6932   1.402   4.545   0.470 -0.1204 -0.1392  0.1567
  462TMC3     C 6933   1.371   0.223   0.403  0.6024 -0.7685  0.5131
  462TMC3     O 6934   1.355   0.249   0.287 -0.5786 -0.0871 -0.6516
  462TMC3     H 6935   1.521   0.105   0.587  0.2190  1.3556 -1.8597
  462TMC3    H1 6936   1.231   0.038   0.293 -1.3139 -0.3754  1.1542
  462TMC3    H2 6937   1.399   4.437   0.479  0.7129 -0.1512  0.2456
  462TMC3    C7 6938   1.231   4.505   0.303 -0.7100  0.2230  0.6481
  462TMC3    C8 6939   1.588   4.594   0.620 -0.2692  0.3596  0.4167
  462TMC3    O1 6940   1.239   4.391   0.339  0.3394  0.0139  0.0972
  462TMC3    O2 6941   1.650   4.688   0.671 -0.3579 -0.3315 -0.1309
  463MPD2     C 6942   3.301   3.131   1.016  0.2581 -0.1023  0.0221
  463MPD2    C1 6943   3.179   3.188   1.042 -0.2345  0.3740 -0.5923
  463MPD2    C2 6944   3.185   3.321   1.074  0.5888  0.2862  0.3985
  463MPD2    C3 6945   3.298   3.397   1.075  0.1981  0.0601 -0.2179
  463MPD2    C4 6946   3.418   3.330   1.055 -0.1062  0.2712  0.1258
  463MPD2    C5 6947   3.424   3.198   1.029  0.0151  0.6157 -0.2519
  463MPD2     H 6948   3.089   3.371   1.077 -0.4501 -1.5767 -1.3291
  463MPD2    H1 6949   3.518   3.368   1.041  0.4698 -1.3279 -0.1124
  463MPD2    H2 6950   3.306   3.025   0.994 -0.5626 -0.0578 -0.3681
  463MPD2    H3 6951   3.514   3.147   0.998 -1.0488 -2.2525  1.3463
  463MPD2     N 6952   3.300   3.539   1.091  0.1568  0.2468  1.0875
  463MPD2    H5 6953   3.393   3.578   1.098  0.4304 -0.2913  0.4211
  463MPD2    N1 6954   3.048   3.129   1.025 -0.5810 -0.3183  0.2233
  463MPD2    H7 6955   2.971   3.189   1.052  0.8146  1.8121 -0.4144
  464TMC3    C1 6956   2.889   2.959   0.992  0.3079  0.1753  0.0247
  464TMC3    C2 6957   2.790   3.057   1.007 -0.0060 -0.4362 -0.5250
  464TMC3    C3 6958   2.666   3.008   1.017  0.4458  0.0410  0.0412
  464TMC3    C4 6959   2.877   2.825   0.987 -0.3821  0.0684 -0.8703
  464TMC3    C5 6960   2.743   2.781   0.998 -0.6089 -0.3100  0.5650
  464TMC3    C6 6961   2.645   2.875   1.020  0.1369 -0.0133 -0.0897
  464TMC3     C 6962   3.030   2.996   0.991 -0.0153 -1.1226 -1.2837
  464TMC3     O 6963   3.113   2.914   0.951 -0.0177 -0.3536  0.1064
  464TMC3     H 6964   2.805   3.163   0.988  2.2233 -1.2769 -3.4366
  464TMC3    H1 6965   2.959   2.755   0.990 -2.4140 -2.3505 -1.4215
  464TMC3    H2 6966   2.546   2.837   1.041  0.1148  0.7337  1.1867
  464TMC3    C7 6967   2.728   2.644   0.968  0.1135 -0.4167 -0.0540
  464TMC3    C8 6968   2.552   3.089   1.053  0.2960  0.3907 -1.4624
  464TMC3    O1 6969   2.816   2.570   1.011  0.1514  0.1667  0.6298
  464TMC3    O2 6970   2.444   3.042   1.026 -0.2218 -0.0742  0.0194
  465MPD2     C 6971   3.665   1.696  16.901 -1.0334  0.0547 -0.0458
  465MPD2    C1 6972   3.573   1.610  16.956  0.5756  0.6710 -0.5714
  465MPD2    C2 6973   3.463   1.568  16.883  0.0040  0.0411 -0.3612
  465MPD2    C3 6974   3.445   1.623  16.758 -0.0931  0.8523  0.3260
  465MPD2    C4 6975   3.538   1.696  16.694 -0.8763  0.0154 -0.2061
  465MPD2    C5 6976   3.648   1.727  16.768  0.2149  0.0483 -0.3110
  465MPD2     H 6977   3.389   1.502  16.927  2.2282 -2.0007  0.2990
  465MPD2    H1 6978   3.527   1.742  16.597  1.6048  0.8176 -0.1019
  465MPD2    H2 6979   3.740   1.741  16.965  0.5490  0.4066 -2.1540
  465MPD2    H3 6980   3.706   1.808  16.724  2.9243 -1.7991 -0.1137
  465MPD2     N 6981   3.314   1.617  16.697 -0.2771 -0.4827 -0.0947
  465MPD2    H5 6982   3.290   1.673  16.615  0.1888  0.8433  0.6784
  465MPD2    N1 6983   3.581   1.574  17.094  0.1995 -0.0520  0.8441
  465MPD2    H7 6984   3.500   1.531  17.139 -0.1367  1.3888  1.6095
  466TMC3    C1 6985   2.893   1.775  16.800  0.5870 -0.2910 -0.0269
  466TMC3    C2 6986   2.903   1.867  16.699 -1.1319 -0.6525  0.2682
  466TMC3    C3 6987   2.997   1.846  16.605  0.3015  0.5283  0.9559
  466TMC3    C4 6988   2.982   1.669  16.806 -0.1239  0.3496 -0.0671
  466TMC3    C5 6989   3.084   1.650  16.710  0.3018 -0.0905  0.0899
  466TMC3    C6 6990   3.090   1.750  16.606 -0.0902 -0.3967  0.1485
  466TMC3     C 6991   2.886   1.835  16.938  0.4702 -0.3795  0.1967
  466TMC3     O 6992   2.943   1.767  17.019 -0.1062  0.8297 -0.5680
  466TMC3     H 6993   2.823   1.939  16.687 -0.3808  0.2390  0.6484
  466TMC3    H1 6994   2.969   1.592  16.881 -3.1019 -0.0898 -1.0374
  466TMC3    H2 6995   3.165   1.751  16.528  0.0317 -2.1904  0.2300
  466TMC3    C7 6996   3.200   1.575  16.755 -0.5042 -0.4748 -0.0074
  466TMC3    C8 6997   3.033   1.962  16.527  0.3697 -0.8366  0.0685
  466TMC3    O1 6998   3.186   1.493  16.845  0.0626  0.5741  0.2440
  466TMC3    O2 6999   3.111   1.942  16.434  0.1818 -1.1723 -0.0806
  467TMC3    C1 7000   4.126   0.498  13.557  0.3768  0.4093  0.2842
  467TMC3    C2 7001   4.192   0.517  13.436  0.5369  0.1363 -0.3573
  467TMC3    C3 7002   4.157   0.436  13.335 -0.4376 -0.6506 -0.3210
  467TMC3    C4 7003   4.020   0.416  13.569 -0.2928 -0.0348  0.6537
  467TMC3    C5 7004   3.964   0.362  13.452  0.1955  0.8902  0.5634
  467TMC3    C6 7005   4.037   0.365  13.338  0.0467  0.6550 -0.3927
  467TMC3     C 7006   4.200   0.549  13.673  0.3281 -0.0361  0.1554
  467TMC3     O 7007   4.197   0.487  13.780 -0.1319 -0.5004  0.2827
  467TMC3     H 7008   4.269   0.592  13.427 -0.2744  0.9245 -0.7937
  467TMC3    H1 7009   3.984   0.396  13.669 -1.1407 -0.7920  0.2025
  467TMC3    H2 7010   3.992   0.321  13.250 -0.7757 -1.7567  1.2345
  467TMC3    C7 7011   3.835   0.295  13.454 -0.3368 -0.5195 -0.5686
  467TMC3    C8 7012   4.226   0.462  13.207 -0.2300 -0.1218 -0.3115
  467TMC3    O1 7013   3.813   0.201  13.376 -0.1570  0.4075  0.2473
  467TMC3    O2 7014   4.278   0.571  13.198  0.0129 -0.3886 -0.4124
  468MPD2     C 7015   3.652   3.814  10.734 -0.1740  0.0094  0.8663
  468MPD2    C1 7016   3.641   3.760  10.857  0.1201  0.0564  0.1556
  468MPD2    C2 7017   3.632   3.626  10.878  0.1281  0.4848 -0.2538
  468MPD2    C3 7018   3.612   3.538  10.775 -0.4306 -0.8860  0.3509
  468MPD2    C4 7019   3.622   3.593  10.648  0.5074 -0.1561  0.6068
  468MPD2    C5 7020   3.637   3.730  10.630  0.5307 -0.0910  0.1136
  468MPD2     H 7021   3.631   3.594  10.982 -1.1851 -1.1543 -0.7781
  468MPD2    H1 7022   3.618   3.523  10.566 -1.0209  2.2201 -1.3469
  468MPD2    H2 7023   3.664   3.919  10.711 -2.4981 -0.0983 -0.7846
  468MPD2    H3 7024   3.649   3.779  10.534 -2.1462 -0.7153 -0.5419
  468MPD2     N 7025   3.565   3.402  10.781 -0.4963  0.0622 -0.2115
  468MPD2    H5 7026   3.555   3.342  10.700  0.3324 -2.2455  1.3791
  468MPD2    N1 7027   3.661   3.834  10.969  0.2336  0.0209 -0.3280
  468MPD2    H7 7028   3.672   3.775  11.051  0.6966  1.7076  0.8161
  469TMC3    C1 7029   3.660   4.014  11.115 -0.9129 -0.6355 -0.0248
  469TMC3    C2 7030   3.701   3.907  11.191  0.6564 -0.1456  0.2062
  469TMC3    C3 7031   3.638   3.884  11.312  0.4051 -0.3060  0.8816
  469TMC3    C4 7032   3.560   4.097  11.157 -0.5179 -1.2551  0.8697
  469TMC3    C5 7033   3.494   4.064  11.269  0.1065 -0.1093  0.2779
  469TMC3    C6 7034   3.529   3.957  11.352 -0.1168  0.1725  0.5856
  469TMC3     C 7035   3.659   3.980  10.975  0.1956  0.4579 -0.0788
  469TMC3     O 7036   3.644   4.065  10.890  0.9508 -0.1175 -0.1953
  469TMC3     H 7037   3.797   3.860  11.172  0.2401 -0.8077 -0.2588
  469TMC3    H1 7038   3.524   4.171  11.086 -0.7953 -2.8010 -0.6032
  469TMC3    H2 7039   3.477   3.915  11.437 -1.2059 -0.0607 -0.2004
  469TMC3    C7 7040   3.395   4.163  11.314  0.0283 -0.1345 -0.3430
  469TMC3    C8 7041   3.691   3.770  11.385  0.5102 -0.2063 -0.5143
  469TMC3    O1 7042   3.363   4.247  11.233 -0.4593  0.4377  0.3902
  469TMC3    O2 7043   3.775   3.698  11.327  0.0944  0.2109  0.1334
  470TMC3    C1 7044   0.961   4.448   0.481  0.4690  0.0824  0.3795
  470TMC3    C2 7045   0.964   4.579   0.505 -0.3158 -0.8316 -0.5562
  470TMC3    C3 7046   1.044   4.623   0.607  0.1720 -0.2969  0.8583
  470TMC3    C4 7047   1.036   4.363   0.556 -0.2792 -0.2427 -0.4109
  470TMC3    C5 7048   1.113   4.410   0.661 -0.6780  0.3648  0.0701
  470TMC3    C6 7049   1.115   4.542   0.697 -0.4998  0.2823  0.1785
  470TMC3     C 7050   0.866   4.411   0.371  0.2348 -1.0260  0.0210
  470TMC3     O 7051   0.830   4.502   0.293 -0.3905 -0.1036  0.2536
  470TMC3     H 7052   0.883   4.642   0.469 -1.6520 -1.7875  0.7683
  470TMC3    H1 7053   1.057   4.259   0.532  1.9925  0.2459 -0.4791
  470TMC3    H2 7054   1.171   4.575   0.783 -1.4321  0.4636  0.7126
  470TMC3    C7 7055   1.214   4.336   0.715  0.4999 -1.0222 -0.4408
  470TMC3    C8 7056   1.052   0.028   0.640 -0.1537  0.0067 -0.9246
  470TMC3    O1 7057   1.277   4.257   0.642  0.5624  0.2236  0.0848
  470TMC3    O2 7058   1.105   0.052   0.747  0.1113  0.5787 -0.5802
  471MPD2     C 7059   1.333   0.881  16.750 -0.6259  0.1418 -0.1756
  471MPD2    C1 7060   1.434   0.795  16.707 -0.4618  0.2893 -0.1125
  471MPD2    C2 7061   1.538   0.760  16.786  0.3046  0.4406  0.1704
  471MPD2    C3 7062   1.536   0.800  16.918  0.0901  0.1160  0.3000
  471MPD2    C4 7063   1.434   0.881  16.969 -0.2964  0.1717 -0.0071
  471MPD2    C5 7064   1.336   0.927  16.885 -0.2171  0.2629 -0.3326
  471MPD2     H 7065   1.607   0.684  16.752  0.0261  0.9182 -1.4431
  471MPD2    H1 7066   1.445   0.911  17.072  0.3100 -1.3928  0.3869
  471MPD2    H2 7067   1.259   0.926  16.685  0.3710 -0.0265 -1.4166
  471MPD2    H3 7068   1.265   1.002  16.918 -0.1399  0.3874 -0.4488
  471MPD2     N 7069   1.628   0.744  17.007 -0.5179 -0.0573  0.3315
  471MPD2    H5 7070   1.598   0.751  17.103  0.4848 -0.9637  0.7151
  471MPD2    N1 7071   1.423   0.737  16.575  0.5660  0.2211 -0.1617
  471MPD2    H7 7072   1.507   0.700  16.533 -0.3947 -0.8374 -1.1489
  472TMC3    C1 7073   1.331   0.686  16.370  0.4759 -0.1723  0.2146
  472TMC3    C2 7074   1.247   0.712  16.270 -0.0382 -0.1668  0.4920
  472TMC3    C3 7075   1.241   0.618  16.165 -1.1520 -0.0951 -0.2190
  472TMC3    C4 7076   1.413   0.569  16.385 -0.0498 -0.2410 -0.8885
  472TMC3    C5 7077   1.389   0.476  16.283 -0.2738  0.2608  0.6905
  472TMC3    C6 7078   1.313   0.499  16.170  0.2489 -0.5751 -0.6298
  472TMC3     C 7079   1.311   0.752  16.491  0.0904 -0.4675 -0.1324
  472TMC3     O 7080   1.203   0.808  16.505  0.2116 -0.1445 -0.5087
  472TMC3     H 7081   1.192   0.805  16.259  0.2206 -0.2459 -1.5042
  472TMC3    H1 7082   1.494   0.553  16.455 -0.7708  0.8165  0.2057
  472TMC3    H2 7083   1.303   0.420  16.096  2.1230 -1.2747 -0.1252
  472TMC3    C7 7084   1.364   0.342  16.337 -0.0142  0.0018 -0.4169
  472TMC3    C8 7085   1.109   0.582  16.132  0.0776  0.5484  0.0977
  472TMC3    O1 7086   1.418   0.327  16.446 -0.4116  0.1568  0.1429
  472TMC3    O2 7087   1.091   0.463  16.112  0.1148 -0.0608  0.0809
  473MPD2     C 7088   1.294   2.766  13.951 -0.2656  0.5985 -0.7518
  473MPD2    C1 7089   1.191   2.852  13.927 -0.9777 -0.8718  0.1253
  473MPD2    C2 7090   1.108   2.891  14.034  0.1278  0.1613 -0.8689
  473MPD2    C3 7091   1.143   2.860  14.164  0.3922  0.2466  0.1455
  473MPD2    C4 7092   1.252   2.784  14.185 -0.7028  0.5841  0.3207
  473MPD2    C5 7093   1.317   2.732  14.077  0.8394 -0.2542  0.2771
  473MPD2     H 7094   1.020   2.950  14.014  0.0722  0.5323  0.4462
  473MPD2    H1 7095   1.287   2.751  14.282  1.4914  0.9155 -0.3630
  473MPD2    H2 7096   1.342   2.727  13.862  0.0673 -3.3747  1.2133
  473MPD2    H3 7097   1.386   2.651  14.101 -0.1357 -1.1384  0.1040
  473MPD2     N 7098   1.069   2.906  14.278 -0.1167 -0.2582  0.0929
  473MPD2    H5 7099   1.113   2.885  14.367 -0.5594  1.7373  0.7762
  473MPD2    N1 7100   1.143   2.903  13.805  0.0812  0.1591  0.5361
  473MPD2    H7 7101   1.059   2.959  13.816  0.5917  1.1045 -0.2837
  474TMC3    C1 7102   0.906   2.985  14.416 -0.4470 -0.0921 -0.4963
  474TMC3    C2 7103   0.897   3.117  14.452 -0.6216  0.5301  0.2751
  474TMC3    C3 7104   0.922   3.154  14.579  0.2802  0.6439  0.1456
  474TMC3    C4 7105   0.956   2.895  14.505  0.3803  0.5200 -0.7653
  474TMC3    C5 7106   0.988   2.937  14.633  1.0122 -0.4628  0.8060
  474TMC3    C6 7107   0.949   3.064  14.676 -0.4942  0.2585 -0.3558
  474TMC3     C 7108   0.945   2.971  14.283  0.2588 -0.1417 -0.4088
  474TMC3     O 7109   0.868   3.015  14.200 -0.2186  0.2986  0.0972
  474TMC3     H 7110   0.866   3.194  14.382 -1.5068  1.0154  1.1998
  474TMC3    H1 7111   0.975   2.796  14.466  2.9132  0.7013 -0.0254
  474TMC3    H2 7112   0.961   3.101  14.777 -0.9849 -2.5534  0.7272
  474TMC3    C7 7113   1.129   2.927  14.640  0.4695  0.0983 -0.3510
  474TMC3    C8 7114   0.864   3.277  14.628 -0.2255  0.9174  0.2032
  474TMC3    O1 7115   1.179   2.866  14.548  0.5375  0.0862 -0.6968
  474TMC3    O2 7116   0.817   3.284  14.740  0.2325 -0.4305  0.1844
  475MPD2     C 7117   3.913   0.820  10.928  0.1509  0.1728 -0.2397
  475MPD2    C1 7118   3.975   0.941  10.965 -0.5235 -0.7354 -0.2230
  475MPD2    C2 7119   3.904   1.046  11.021  0.1201  0.5101 -0.3787
  475MPD2    C3 7120   3.768   1.031  11.062  0.2943  0.3889 -0.4184
  475MPD2    C4 7121   3.707   0.907  11.034  0.0335 -0.3624  0.3122
  475MPD2    C5 7122   3.776   0.803  10.966  0.0050  0.3147  0.2067
  475MPD2     H 7123   3.950   1.138  11.056  0.8076  0.7242 -1.8669
  475MPD2    H1 7124   3.604   0.881  11.055 -0.3208  0.5488 -0.2904
  475MPD2    H2 7125   3.958   0.738  10.874  0.2460  1.1659 -1.6649
  475MPD2    H3 7126   3.712   0.720  10.939 -0.9798  1.0330  0.3278
  475MPD2     N 7127   3.702   1.146  11.111  0.0610 -0.3187  0.1875
  475MPD2    H5 7128   3.757   1.227  11.137  1.3619 -0.6140 -1.6681
  475MPD2    N1 7129   4.108   0.951  10.920  0.3204 -0.3056  0.0113
  475MPD2    H7 7130   4.156   1.037  10.945  0.6102 -1.1157  2.2633
  476TMC3    C1 7131   4.281   0.953  10.764 -0.1820 -0.5564 -0.2160
  476TMC3    C2 7132   4.259   0.996  10.636  0.4105 -0.4853 -0.6637
  476TMC3    C3 7133   4.315   1.121  10.594 -0.3065 -0.4616  0.3308
  476TMC3    C4 7134   4.360   1.034  10.849  0.1885  0.3744  0.5894
  476TMC3    C5 7135   4.415   1.146  10.802 -0.4898  0.2117  0.3603
  476TMC3    C6 7136   4.377   1.204  10.685  0.4130 -0.3009  0.5306
  476TMC3     C 7137   4.174   0.878  10.826  0.4673 -0.2111  1.1205
  476TMC3     O 7138   4.158   0.769  10.772 -0.5149  0.6298  0.1893
  476TMC3     H 7139   4.185   0.942  10.579 -1.0325  0.9442 -0.1391
  476TMC3    H1 7140   4.378   1.004  10.952 -0.8145 -0.6563  0.4646
  476TMC3    H2 7141   4.425   1.298  10.659  0.4252 -0.5099 -0.2083
  476TMC3    C7 7142   4.488   1.222  10.895  0.4196 -0.4882 -0.3097
  476TMC3    C8 7143   4.239   1.196  10.497 -1.1805 -0.8543  0.2579
  476TMC3    O1 7144   4.539   1.155  10.986 -0.0103  0.1098 -0.5608
  476TMC3    O2 7145   4.195   1.312  10.519  0.2127 -0.4892 -0.4143
  477MPD2     C 7146   1.681   2.048  11.636  0.7673 -0.5049  0.7027
  477MPD2    C1 7147   1.681   2.147  11.723  0.0392 -0.2748  0.1252
  477MPD2    C2 7148   1.751   2.140  11.842 -0.6724 -0.2980  0.2775
  477MPD2    C3 7149   1.802   2.025  11.891  0.0800  0.1859 -0.1178
  477MPD2    C4 7150   1.807   1.922  11.800 -0.5419  0.3378  0.3324
  477MPD2    C5 7151   1.752   1.933  11.670  0.0477 -0.1366 -0.1027
  477MPD2     H 7152   1.759   2.230  11.902 -0.5707  1.4539 -2.3762
  477MPD2    H1 7153   1.861   1.829  11.817 -0.4225 -0.1008 -2.4744
  477MPD2    H2 7154   1.643   2.060  11.536  1.6634 -1.6053  0.2432
  477MPD2    H3 7155   1.775   1.861  11.592 -0.6347 -1.7551  1.1920
  477MPD2     N 7156   1.873   2.027  12.011 -0.3913 -0.1230 -0.2127
  477MPD2    H5 7157   1.894   2.119  12.048  1.3388 -0.8795  0.7383
  477MPD2    N1 7158   1.603   2.260  11.682 -0.1852  0.6337  0.3622
  477MPD2    H7 7159   1.553   2.250  11.595 -1.8355  1.8475  1.1728
  478TMC3    C1 7160   1.526   2.484  11.689 -0.0033  0.6120  0.1171
  478TMC3    C2 7161   1.496   2.587  11.770  0.5348 -0.2390  0.9918
  478TMC3    C3 7162   1.427   2.694  11.717  0.5761 -0.2130  0.3631
  478TMC3    C4 7163   1.518   2.488  11.555 -0.1552  0.5066 -0.0774
  478TMC3    C5 7164   1.453   2.599  11.500 -0.2451  0.2544  0.1633
  478TMC3    C6 7165   1.418   2.713  11.583 -0.2783 -0.6372 -0.3594
  478TMC3     C 7166   1.591   2.375  11.755 -0.8384  0.3187  0.3334
  478TMC3     O 7167   1.610   2.399  11.875 -0.1990  0.0916 -0.8528
  478TMC3     H 7168   1.507   2.580  11.878 -0.3062  1.3871  1.1863
  478TMC3    H1 7169   1.557   2.409  11.492  2.0521  1.0132  0.6554
  478TMC3    H2 7170   1.363   2.798  11.543  1.6383  0.2938 -0.9996
  478TMC3    C7 7171   1.454   2.629  11.357  0.0965  0.2614  0.4911
  478TMC3    C8 7172   1.401   2.804  11.803 -0.5520  1.1023  0.0386
  478TMC3    O1 7173   1.537   2.568  11.293 -0.0225 -0.0223  0.3753
  478TMC3    O2 7174   1.376   2.766  11.916 -0.1690 -0.2048 -0.4428
  479MPD2     C 7175   1.012   0.058  15.302 -0.4424  0.1955  0.1164
  479MPD2    C1 7176   0.993   0.044  15.442 -0.0481 -0.2515 -0.2170
  479MPD2    C2 7177   1.104   0.065  15.525 -0.4499  0.4849 -0.1240
  479MPD2    C3 7178   1.229   0.096  15.466  0.0865  0.0462  0.9519
  479MPD2    C4 7179   1.244   0.094  15.332  0.3897 -0.0139 -0.5324
  479MPD2    C5 7180   1.140   0.078  15.250  0.2284  0.3263 -0.6168
  479MPD2     H 7181   1.086   0.065  15.632  0.6142 -0.9470  0.0565
  479MPD2    H1 7182   1.340   0.102  15.282  0.1806  0.2579 -0.8923
  479MPD2    H2 7183   0.929   0.052  15.233 -0.0391  0.0070 -0.3510
  479MPD2    H3 7184   1.165   0.082  15.145  1.4701 -0.3426 -0.3534
  479MPD2     N 7185   1.342   0.123  15.539 -0.1972 -0.0053  0.3823
  479MPD2    H5 7186   1.433   0.094  15.506 -0.7114  0.0238 -1.0512
  479MPD2    N1 7187   0.860   0.020  15.490 -0.4502 -0.2947  0.9067
  479MPD2    H7 7188   0.780   0.020  15.428  0.8157 -0.9653 -0.7408
  480TMC3    C1 7189   1.045   0.318  15.831  0.0258 -0.4099  0.6224
  480TMC3    C2 7190   0.984   0.369  15.716 -0.5525 -0.2534 -0.3404
  480TMC3    C3 7191   1.048   0.395  15.597  0.6065 -0.2791 -0.3816
  480TMC3    C4 7192   1.176   0.277  15.810  0.0861  0.2757  0.0245
  480TMC3    C5 7193   1.236   0.293  15.685 -0.4721  0.1699  0.1497
  480TMC3    C6 7194   1.177   0.363  15.584  0.2705 -0.0084  0.2435
  480TMC3     C 7195   0.965   0.231  15.908 -0.2323 -0.0291 -0.3037
  480TMC3     O 7196   1.026   0.127  15.937  0.0036  0.3969  0.4830
  480TMC3     H 7197   0.877   0.387  15.723 -0.1129  2.1550  0.2385
  480TMC3    H1 7198   1.214   0.201  15.878  1.3797 -0.2437 -1.2846
  480TMC3    H2 7199   1.228   0.379  15.490 -0.1669 -0.5079 -0.0795
  480TMC3    C7 7200   1.341   0.198  15.656 -0.4024  0.2575  0.3576
  480TMC3    C8 7201   0.975   0.418  15.471 -0.5236 -0.4083  0.1874
  480TMC3    O1 7202   1.429   0.205  15.735  0.1104  0.2883 -0.0592
  480TMC3    O2 7203   1.048   0.451  15.377  0.2509  0.1690  0.1469
  481MPD2     C 7204   2.339   4.124  14.187 -0.3831 -0.3234  0.3112
  481MPD2    C1 7205   2.219   4.073  14.232 -0.1101 -0.3501 -0.0274
  481MPD2    C2 7206   2.190   4.062  14.368 -0.6464  0.8303 -0.4549
  481MPD2    C3 7207   2.280   4.108  14.458  0.2586 -0.0003  0.1535
  481MPD2    C4 7208   2.401   4.153  14.414  0.2547 -0.3241 -0.2565
  481MPD2    C5 7209   2.431   4.164  14.282 -0.3401 -0.3131  0.9907
  481MPD2     H 7210   2.093   4.023  14.396  0.6307 -0.8211  1.6724
  481MPD2    H1 7211   2.463   4.208  14.483  0.3335 -2.4478  1.3607
  481MPD2    H2 7212   2.356   4.148  14.082  0.4452  1.1085  0.7723
  481MPD2    H3 7213   2.517   4.223  14.251  1.9329 -2.4787  3.1935
  481MPD2     N 7214   2.263   4.101  14.601  0.7116  0.2918 -0.3920
  481MPD2    H5 7215   2.350   4.121  14.648  1.3897 -3.5001 -0.0053
  481MPD2    N1 7216   2.133   4.043  14.132  0.3988  0.0757 -0.0811
  481MPD2    H7 7217   2.165   4.060  14.037 -0.9958  0.6863 -0.4538
  482TMC3    C1 7218   1.938   3.980  14.016  0.3640 -0.3943 -0.6291
  482TMC3    C2 7219   1.829   3.902  14.001  0.7608  0.2286  0.4029
  482TMC3    C3 7220   1.749   3.921  13.887 -0.3304 -0.5577  0.0069
  482TMC3    C4 7221   1.971   4.080  13.929 -0.0204  0.2249 -0.7578
  482TMC3    C5 7222   1.902   4.080  13.808  0.1165  0.0250  0.4017
  482TMC3    C6 7223   1.783   4.010  13.791  0.2641  0.0491 -1.0444
  482TMC3     C 7224   2.007   3.981  14.145 -0.8014  0.0024 -0.0528
  482TMC3     O 7225   1.960   3.921  14.244  0.0853 -0.6294  0.2149
  482TMC3     H 7226   1.797   3.825  14.071 -0.1931 -0.8670 -1.2583
  482TMC3    H1 7227   2.045   4.157  13.949 -0.8570  0.9660 -0.4822
  482TMC3    H2 7228   1.729   4.006  13.697  1.2575  0.1855 -1.6167
  482TMC3    C7 7229   1.943   4.170  13.702  0.5495 -0.1838  0.3427
  482TMC3    C8 7230   1.630   3.832  13.874 -0.4073  1.2346  0.3460
  482TMC3    O1 7231   1.880   4.148  13.596 -0.2028 -0.3596 -0.1320
  482TMC3    O2 7232   1.647   3.717  13.914  0.6248  0.3763 -0.6667
  483TMC3    C1 7233   0.478   3.015   1.001  0.2112  0.6030  0.3341
  483TMC3    C2 7234   0.549   3.124   0.940 -0.4298  0.5815  0.4775
  483TMC3    C3 7235   0.547   3.139   0.804  0.3461  0.2249 -0.6657
  483TMC3    C4 7236   0.437   2.917   0.916  0.0139 -0.4442  0.3592
  483TMC3    C5 7237   0.436   2.935   0.783 -0.0644  0.2150 -0.5924
  483TMC3    C6 7238   0.486   3.044   0.727  0.4294  0.4149  0.5576
  483TMC3     C 7239   0.546   2.976   1.128  0.2587  0.0656 -0.4805
  483TMC3     O 7240   0.619   3.059   1.182 -0.1876 -0.6294  0.5293
  483TMC3     H 7241   0.587   3.201   1.005 -2.7982  0.8779  1.5221
  483TMC3    H1 7242   0.382   2.832   0.956  0.4466 -1.4180 -1.1205
  483TMC3    H2 7243   0.488   3.047   0.619 -1.6284  0.9400  0.5225
  483TMC3    C7 7244   0.425   2.807   0.716 -1.1843 -0.1897 -0.3045
  483TMC3    C8 7245   0.596   3.255   0.735 -0.3312 -0.4194  0.0533
  483TMC3    O1 7246   0.456   2.709   0.781  0.1530  0.1685  0.0065
  483TMC3    O2 7247   0.626   3.228   0.621  0.3011 -0.5254  0.3912
  484MPD2     C 7248   2.639   1.158  12.318  0.4012  0.6965 -0.2734
  484MPD2    C1 7249   2.709   1.218  12.421  0.3390 -0.1839 -0.1348
  484MPD2    C2 7250   2.838   1.248  12.392  0.7935  1.0354  0.2945
  484MPD2    C3 7251   2.897   1.222  12.266  0.2624  0.0657  0.5703
  484MPD2    C4 7252   2.828   1.153  12.174  0.6382  0.6565  0.2474
  484MPD2    C5 7253   2.703   1.115  12.204 -0.4443  0.4632 -0.2330
  484MPD2     H 7254   2.896   1.287  12.475  3.9566 -2.3387 -0.3503
  484MPD2    H1 7255   2.863   1.118  12.078  1.6242 -0.0881  0.8763
  484MPD2    H2 7256   2.532   1.142  12.319  0.5215 -0.1174 -0.2615
  484MPD2    H3 7257   2.650   1.054  12.131 -0.2791 -2.0663  1.7661
  484MPD2     N 7258   3.034   1.245  12.247 -0.4876 -0.7068 -0.4332
  484MPD2    H5 7259   3.075   1.206  12.162  0.0516  1.2598 -1.0718
  484MPD2    N1 7260   2.622   1.246  12.536 -0.1246  0.3516  0.0368
  484MPD2    H7 7261   2.527   1.210  12.525  0.2335 -0.2239 -1.1781
  485TMC3    C1 7262   3.253   1.320  12.258  0.3934 -0.3814 -0.1645
  485TMC3    C2 7263   3.282   1.204  12.189  0.1280  0.5156 -0.3729
  485TMC3    C3 7264   3.368   1.221  12.084  0.4831  0.4258 -0.2407
  485TMC3    C4 7265   3.307   1.440  12.231  0.1800  0.3563 -0.0728
  485TMC3    C5 7266   3.392   1.454  12.125  0.2403 -0.0187 -0.0203
  485TMC3    C6 7267   3.412   1.343  12.043  0.0076  0.2624 -0.7674
  485TMC3     C 7268   3.114   1.327  12.319  0.1367 -0.0148 -0.0591
  485TMC3     O 7269   3.077   1.429  12.375  0.2212  0.0447  0.2275
  485TMC3     H 7270   3.248   1.113  12.237 -0.4066  0.2885 -1.1868
  485TMC3    H1 7271   3.289   1.517  12.305  1.2614  0.6686 -0.1428
  485TMC3    H2 7272   3.447   1.363  11.943 -0.3403  0.8556 -0.7713
  485TMC3    C7 7273   3.518   1.520  12.148  0.1505  0.3130 -0.5270
  485TMC3    C8 7274   3.476   1.128  12.068  0.2799 -0.0547 -1.0912
  485TMC3    O1 7275   3.513   1.593  12.243 -0.6005  0.3505 -0.1016
  485TMC3    O2 7276   3.543   1.145  11.972 -0.2085  0.3560  0.3433
  486MPD2     C 7277   0.066   0.460  13.757 -0.4281  0.2138  0.7978
  486MPD2    C1 7278   0.098   0.404  13.634  0.6269  0.4037 -0.0720
  486MPD2    C2 7279   0.135   0.487  13.528 -0.0421 -0.2457  0.1140
  486MPD2    C3 7280   0.153   0.618  13.544  0.1200  0.3697  0.4504
  486MPD2    C4 7281   0.125   0.672  13.669 -0.5344  0.4080  0.3106
  486MPD2    C5 7282   0.083   0.593  13.773 -0.0336  0.8965 -0.4984
  486MPD2     H 7283   0.162   0.446  13.431  0.4097  0.7641 -0.1815
  486MPD2    H1 7284   0.139   0.777  13.692  1.4897 -0.1336  1.5864
  486MPD2    H2 7285   0.051   0.394  13.842 -4.4052 -1.4109 -1.1710
  486MPD2    H3 7286   0.064   0.639  13.869  0.4491  0.1502 -0.0383
  486MPD2     N 7287   0.205   0.682  13.427  0.0914  0.0910  0.5164
  486MPD2    H5 7288   0.242   0.629  13.349 -0.4652  1.0571 -0.4023
  486MPD2    N1 7289   0.079   0.263  13.619 -0.3821 -0.0771 -0.9144
  486MPD2    H7 7290   0.022   0.220  13.692  0.8900  1.6165  1.0771
  487TMC3    C1 7291   0.025   0.068  13.490 -0.3347 -0.2035 -0.4156
  487TMC3    C2 7292   0.073   4.721  13.392  0.3674  0.0875  0.4591
  487TMC3    C3 7293   0.072   4.585  13.410  0.5502 -0.1381  0.2213
  487TMC3    C4 7294   4.690   0.016  13.590 -0.0455 -0.3012  0.7217
  487TMC3    C5 7295   4.689   4.618  13.607 -0.1080  0.3518 -0.1484
  487TMC3    C6 7296   0.005   4.531  13.516 -0.9876  0.1378 -0.5454
  487TMC3     C 7297   0.081   0.202  13.499 -0.3363 -0.0485 -0.1619
  487TMC3     O 7298   0.151   0.236  13.402  0.0478  0.8153  0.0321
  487TMC3     H 7299   0.130   0.025  13.310 -0.6943 -1.0830 -0.8600
  487TMC3    H1 7300   4.650   0.078  13.669 -1.2138 -2.4756  1.8486
  487TMC3    H2 7301   0.041   4.435  13.552  0.9723  1.4546  0.9952
  487TMC3    C7 7302   4.592   4.566  13.701 -0.2955 -0.8487 -0.4609
  487TMC3    C8 7303   0.174   4.515  13.336  0.2889 -0.8900 -0.0302
  487TMC3    O1 7304   4.556   4.640  13.791 -0.1952  0.3234  0.4740
  487TMC3    O2 7305   0.276   4.580  13.317  0.4892 -0.0464  0.0595
  488MPD2     C 7306   0.554   1.785  16.608 -0.1409  0.0622  0.3642
  488MPD2    C1 7307   0.583   1.908  16.667 -0.2464 -0.1090 -0.4316
  488MPD2    C2 7308   0.541   1.930  16.799  0.1697  0.0408 -0.4580
  488MPD2    C3 7309   0.460   1.840  16.857  1.0021  0.3483  0.5469
  488MPD2    C4 7310   0.427   1.720  16.794  1.1363 -0.0348  0.7135
  488MPD2    C5 7311   0.478   1.696  16.671 -0.3762 -0.2365  0.0429
  488MPD2     H 7312   0.561   2.026  16.845  0.5370  0.7698 -2.1721
  488MPD2    H1 7313   0.361   1.644  16.835  0.6424 -0.1403 -0.2789
  488MPD2    H2 7314   0.591   1.759  16.510  0.6095 -0.0803  0.6889
  488MPD2    H3 7315   0.455   1.601  16.624  1.1847 -0.5303 -0.1322
  488MPD2     N 7316   0.417   1.872  16.983  0.3091  0.1351 -0.3706
  488MPD2    H5 7317   0.456   1.958  17.019 -2.4661  1.0027  0.5852
  488MPD2    N1 7318   0.671   1.999  16.610  0.6517  0.8726  0.0065
  488MPD2    H7 7319   0.712   2.069  16.670  2.0027  0.6871 -0.7092
  489TMC3    C1 7320   0.342   1.827  17.208  0.3815 -0.9372 -0.0876
  489TMC3    C2 7321   0.315   1.958  17.203 -0.7107  0.1352 -0.0429
  489TMC3    C3 7322   0.365   2.042  17.294 -0.2830  0.1550 -0.4118
  489TMC3    C4 7323   0.423   1.772  17.302  0.0219  1.0247 -0.3038
  489TMC3    C5 7324   0.472   1.861  17.397  1.0057  0.0140 -0.1808
  489TMC3    C6 7325   0.437   1.999  17.395  0.0060 -0.9626 -0.5041
  489TMC3     C 7326   0.371   1.778  17.072 -0.2929  0.1027 -0.6277
  489TMC3     O 7327   0.369   1.656  17.066  0.3557 -0.4774  0.2295
  489TMC3     H 7328   0.274   2.001  17.112 -1.4395 -0.5637 -0.0466
  489TMC3    H1 7329   0.453   1.668  17.293 -0.0726  1.1043 -1.5304
  489TMC3    H2 7330   0.498   2.067  17.453 -4.1635  2.9391 -0.7061
  489TMC3    C7 7331   0.590   1.819  17.468 -0.1572  0.0737  0.0154
  489TMC3    C8 7332   0.420   2.157  17.227  0.2929 -0.2795  0.1791
  489TMC3    O1 7333   0.588   1.832  17.590  0.2070  0.2885  0.6038
  489TMC3    O2 7334   0.424   2.148  17.106 -0.3154  0.3520 -0.1354
  490MPD2     C 7335   1.287   1.109  17.458  0.0034  0.4839  0.1686
  490MPD2    C1 7336   1.359   1.052  17.556  0.7756  0.2983  0.0133
  490MPD2    C2 7337   1.456   1.132  17.618 -0.0765  0.1759  0.1415
  490MPD2    C3 7338   1.460   1.265  17.582 -0.4649 -0.0085  0.3655
  490MPD2    C4 7339   1.378   1.317  17.491 -0.1149 -0.2291 -0.5457
  490MPD2    C5 7340   1.303   1.238  17.419  0.1134 -0.0162 -0.0492
  490MPD2     H 7341   1.528   1.089  17.687 -0.5831  1.1511  1.2929
  490MPD2    H1 7342   1.386   1.423  17.471  1.4538  0.0244  1.3528
  490MPD2    H2 7343   1.211   1.050  17.408  1.8609 -1.3352 -0.5183
  490MPD2    H3 7344   1.235   1.274  17.343  1.1928  2.1874  0.0029
  490MPD2     N 7345   1.559   1.349  17.638  0.8798 -0.0264  0.4999
  490MPD2    H5 7346   1.578   1.436  17.589  0.4407  1.2509  2.6180
  490MPD2    N1 7347   1.350   0.913  17.582 -0.2282 -1.3572  0.0096
  490MPD2    H7 7348   1.295   0.856  17.518  0.8414 -1.1382 -1.1148
  491TMC3    C1 7349   1.383   0.698  17.675 -0.1625 -0.0286 -0.8623
  491TMC3    C2 7350   1.331   0.644   0.035  0.4544  0.1368 -0.2607
  491TMC3    C3 7351   1.308   0.511   0.033 -0.2152 -0.3486 -0.1841
  491TMC3    C4 7352   1.404   0.630  17.562 -0.1599 -0.2480 -0.3857
  491TMC3    C5 7353   1.398   0.498  17.570  0.2873  0.2431 -0.2847
  491TMC3    C6 7354   1.350   0.433  17.677 -0.1418  0.0820 -0.3715
  491TMC3     C 7355   1.405   0.841  17.684  0.1348  0.4504 -0.2236
  491TMC3     O 7356   1.452   0.889   0.040  0.1851  0.3478  0.2445
  491TMC3     H 7357   1.295   0.707   0.116  1.9720  1.3166 -0.5039
  491TMC3    H1 7358   1.460   0.685  17.488  0.1753 -1.3322 -0.9335
  491TMC3    H2 7359   1.329   0.327  17.666 -0.3445 -0.1027  1.7342
  491TMC3    C7 7360   1.403   0.429  17.441  0.6003  0.6406 -0.5919
  491TMC3    C8 7361   1.173   0.486   0.065  0.2293 -0.2230 -0.6155
  491TMC3    O1 7362   1.431   0.310  17.441 -0.0230  0.1790 -0.2884
  491TMC3    O2 7363   1.101   0.578   0.050 -0.5632 -0.2444 -0.5600
  492MPD2     C 7364   1.684   1.568  11.335 -0.2787  0.2284 -0.8493
  492MPD2    C1 7365   1.594   1.461  11.314  0.2738  0.4651 -0.8988
  492MPD2    C2 7366   1.559   1.374  11.419  0.2859 -0.4542 -0.3729
  492MPD2    C3 7367   1.608   1.396  11.553  0.1888 -0.2545  0.4416
  492MPD2    C4 7368   1.693   1.506  11.571 -0.1008  0.1911  0.4497
  492MPD2    C5 7369   1.732   1.585  11.462 -0.4457  0.0154  0.0825
  492MPD2     H 7370   1.492   1.290  11.403 -0.8255  0.4137 -0.2819
  492MPD2    H1 7371   1.744   1.524  11.665  1.5023 -0.6704 -0.2639
  492MPD2    H2 7372   1.718   1.628  11.251  1.2466 -0.4220 -0.6864
  492MPD2    H3 7373   1.812   1.657  11.479 -1.0287  0.8182 -0.5654
  492MPD2     N 7374   1.565   1.325  11.668 -0.2659 -0.0337 -0.2041
  492MPD2    H5 7375   1.610   1.351  11.755  1.9796  0.0332 -1.3845
  492MPD2    N1 7376   1.536   1.461  11.188  0.3908  0.3933 -0.0140
  492MPD2    H7 7377   1.574   1.532  11.127 -1.2251  1.8939  0.7281
  493TMC3    C1 7378   1.431   1.380  11.000 -0.1384  0.2365  0.6157
  493TMC3    C2 7379   1.514   1.468  10.934  0.1528  0.4751  0.0917
  493TMC3    C3 7380   1.530   1.454  10.795 -0.1657 -0.8200  0.4103
  493TMC3    C4 7381   1.379   1.267  10.936  0.4132  0.6280 -0.5364
  493TMC3    C5 7382   1.394   1.263  10.803  0.1459  0.0738  0.0746
  493TMC3    C6 7383   1.471   1.351  10.737  0.0557  0.2167 -0.3814
  493TMC3     C 7384   1.448   1.369  11.144  0.5626 -0.3635  0.0437
  493TMC3     O 7385   1.397   1.276  11.200 -0.0685  0.1678 -0.4730
  493TMC3     H 7386   1.543   1.565  10.972 -0.8807 -0.5913  3.5613
  493TMC3    H1 7387   1.315   1.199  10.991 -0.2923 -1.2164 -3.6565
  493TMC3    H2 7388   1.488   1.334  10.631 -0.8024  0.5011 -0.5637
  493TMC3    C7 7389   1.328   1.151  10.735  0.4055 -0.6104  0.3503
  493TMC3    C8 7390   1.537   1.567  10.707  0.0503 -1.2752  0.5515
  493TMC3    O1 7391   1.367   1.135  10.621 -0.3694  0.0096  0.1429
  493TMC3    O2 7392   1.508   1.564  10.593 -0.4426 -0.0178 -0.4705
  494TMC3    C1 7393   1.787   2.975   0.346 -0.0436 -0.0407  0.2131
  494TMC3    C2 7394   1.904   2.901   0.353 -0.9574  0.5120  0.7112
  494TMC3    C3 7395   1.941   2.828   0.241 -0.2294  0.2250 -0.4518
  494TMC3    C4 7396   1.716   2.987   0.227 -0.5113  0.6414  0.2701
  494TMC3    C5 7397   1.762   2.919   0.118 -0.1509  0.0116 -0.3950
  494TMC3    C6 7398   1.880   2.847   0.125 -0.7930 -0.0302 -0.0738
  494TMC3     C 7399   1.728   3.015   0.474 -0.2247 -0.4279  0.5775
  494TMC3     O 7400   1.792   2.973   0.569  0.4227  0.1935  0.4629
  494TMC3     H 7401   1.956   2.885   0.446  1.3700  0.1259 -0.6612
  494TMC3    H1 7402   1.617   3.032   0.227 -0.6640  0.3065  1.4621
  494TMC3    H2 7403   1.913   2.785   0.042 -0.0203  1.5484 -0.9404
  494TMC3    C7 7404   1.747   2.982  17.734  0.1702  0.0785  0.0022
  494TMC3    C8 7405   2.058   2.747   0.254  0.1253 -0.0024 -0.4869
  494TMC3    O1 7406   1.788   2.925  17.633 -0.0211  0.1855  0.1375
  494TMC3    O2 7407   2.151   2.792   0.319  0.0750 -0.0123 -0.2231
  495TMC3    C1 7408   0.965   4.687  14.730  0.5913  0.0467 -0.0581
  495TMC3    C2 7409   0.871   4.717  14.632 -0.7862  0.6624  0.1404
  495TMC3    C3 7410   0.832   0.106  14.624 -0.2737 -0.5322 -0.0784
  495TMC3    C4 7411   1.001   0.035  14.829 -0.4164 -1.0208  0.4358
  495TMC3    C5 7412   0.942   0.160  14.829 -0.0430  0.3787  0.2068
  495TMC3    C6 7413   0.855   0.197  14.728  0.4993 -0.2942  0.1945
  495TMC3     C 7414   0.959   4.549  14.771  0.2354  1.5597  0.6747
  495TMC3     O 7415   1.051   4.517  14.843  0.3860  0.0580 -0.2027
  495TMC3     H 7416   0.855   4.652  14.546 -0.6425  0.5935  0.1656
  495TMC3    H1 7417   1.063   4.736  14.911 -1.0282  1.0101  1.8105
  495TMC3    H2 7418   0.801   0.291  14.728  1.6471  0.3595  3.1471
  495TMC3    C7 7419   0.942   0.241  14.958  0.3698 -0.4631 -0.8535
  495TMC3    C8 7420   0.714   0.141  14.542 -0.2099 -0.0442 -0.0254
  495TMC3    O1 7421   1.048   0.237  15.016  0.3183 -0.4801  0.7204
  495TMC3    O2 7422   0.627   0.222  14.580  0.0922 -0.1013  0.4010
  496MPD2     C 7423   2.853   0.022  15.168  0.2283 -0.4065 -0.2341
  496MPD2    C1 7424   2.882   4.647  15.244  0.1831 -0.0542  0.3827
  496MPD2    C2 7425   2.779   4.595  15.317 -0.3226 -0.5266  0.3320
  496MPD2    C3 7426   2.661   4.667  15.327 -0.2817  0.2395 -0.5336
  496MPD2    C4 7427   2.643   0.052  15.274 -0.2826  0.4472  0.0301
  496MPD2    C5 7428   2.739   0.099  15.186 -0.1496 -0.5715  0.5942
  496MPD2     H 7429   2.791   4.498  15.364  2.0871 -0.2476  0.2774
  496MPD2    H1 7430   2.558   0.115  15.298 -0.6331  1.0235 -2.7989
  496MPD2    H2 7431   2.927   0.060  15.097  0.0655 -0.6621 -0.5407
  496MPD2    H3 7432   2.726   0.189  15.128  1.7128 -1.2442 -0.8769
  496MPD2     N 7433   2.549   4.618  15.406  0.0212  0.0930  0.5562
  496MPD2    H5 7434   2.456   4.657  15.400  0.2265  0.4202 -0.4383
  496MPD2    N1 7435   3.002   4.578  15.229 -0.3000  0.0470 -0.5647
  496MPD2    H7 7436   3.066   4.622  15.163 -2.2685  2.2664 -1.0103
  497TMC3    C1 7437   2.433   4.479  15.565 -0.3536  0.3652  0.1175
  497TMC3    C2 7438   2.314   4.504  15.510  0.4247 -0.2063 -0.3425
  497TMC3    C3 7439   2.203   4.461  15.569  0.4851  0.7058  0.9464
  497TMC3    C4 7440   2.445   4.421  15.689 -0.6116  0.8971  0.3012
  497TMC3    C5 7441   2.328   4.392  15.752 -0.2103 -0.3390  0.0678
  497TMC3    C6 7442   2.203   4.410  15.694  0.0266  0.4246 -0.0363
  497TMC3     C 7443   2.559   4.518  15.501 -0.0522  0.5370 -0.2434
  497TMC3     O 7444   2.663   4.472  15.544  0.6927  0.0213 -0.1720
  497TMC3     H 7445   2.300   4.558  15.417  0.5427 -0.0772 -0.2847
  497TMC3    H1 7446   2.544   4.390  15.719 -1.6611  0.2125  3.0215
  497TMC3    H2 7447   2.115   4.397  15.756 -0.0762 -2.0811 -0.7112
  497TMC3    C7 7448   2.338   4.332  15.885 -0.1082  0.1008  0.4225
  497TMC3    C8 7449   2.084   4.522  15.518  0.1675 -0.1141  0.1581
  497TMC3    O1 7450   2.228   4.281  15.913  0.1404 -0.0065 -0.3999
  497TMC3    O2 7451   2.070   4.522  15.397 -0.2008  0.4225 -0.6031
  498MPD2     C 7452   3.187   1.630   9.975 -0.7182 -0.5060  0.4608
  498MPD2    C1 7453   3.322   1.605   9.985  0.2959 -0.0198 -0.4942
  498MPD2    C2 7454   3.370   1.476   9.989  0.2184  0.0012 -0.2932
  498MPD2    C3 7455   3.281   1.368   9.972  0.5520 -0.7491  0.2272
  498MPD2    C4 7456   3.147   1.394   9.973  0.8764 -0.9089  0.1423
  498MPD2    C5 7457   3.102   1.517   9.970 -0.2269 -0.3502 -0.0447
  498MPD2     H 7458   3.475   1.448   9.998  0.1265 -1.2147 -3.0701
  498MPD2    H1 7459   3.076   1.312   9.962  0.8890 -0.5752 -2.4097
  498MPD2    H2 7460   3.129   1.721   9.984 -1.0010 -0.6125 -0.2493
  498MPD2    H3 7461   2.996   1.535   9.965 -0.1486 -0.2050 -1.2574
  498MPD2     N 7462   3.330   1.238   9.962 -0.7227  1.1722 -0.5321
  498MPD2    H5 7463   3.428   1.231   9.936 -0.6442 -0.0270  0.0761
  498MPD2    N1 7464   3.416   1.713   9.995  0.3344  0.3838 -0.3195
  498MPD2    H7 7465   3.515   1.691  10.007  0.2543 -0.3835 -1.0957
  499TMC3    C1 7466   3.487   1.942   9.992 -1.1643 -0.2457 -0.3128
  499TMC3    C2 7467   3.608   1.916  10.054 -0.2146  0.2772  0.2489
  499TMC3    C3 7468   3.709   2.009  10.059  0.1782 -0.5425 -0.2567
  499TMC3    C4 7469   3.466   2.069   9.943  0.0950  0.1714  0.2686
  499TMC3    C5 7470   3.564   2.165   9.942 -0.6591 -0.0997  0.2955
  499TMC3    C6 7471   3.681   2.130   9.998 -0.0217  1.0894  0.3310
  499TMC3     C 7472   3.379   1.846   9.972  0.2763  0.3980 -0.1652
  499TMC3     O 7473   3.272   1.894   9.944  0.8847  0.5764 -0.0913
  499TMC3     H 7474   3.614   1.826  10.114  0.1471 -1.0591 -1.8163
  499TMC3    H1 7475   3.374   2.076   9.885  1.2777  0.4848 -1.5647
  499TMC3    H2 7476   3.764   2.198   9.991 -1.6448  2.9515 -0.9273
  499TMC3    C7 7477   3.553   2.290   9.868 -0.2883 -0.0230  1.0342
  499TMC3    C8 7478   3.824   1.999  10.139 -0.0117  0.6637  0.0178
  499TMC3    O1 7479   3.654   2.357   9.855 -0.1198  0.0898  0.5150
  499TMC3    O2 7480   3.885   2.103  10.158  0.3870 -0.6540 -0.2651
  500MPD2     C 7481   0.371   2.532  10.421 -0.4817 -0.9248 -0.1871
  500MPD2    C1 7482   0.373   2.546  10.284  0.3162  0.1103 -0.2458
  500MPD2    C2 7483   0.245   2.564  10.222  0.0672  0.7556 -0.3788
  500MPD2    C3 7484   0.124   2.571  10.293  0.6170 -0.3564 -0.0885
  500MPD2    C4 7485   0.132   2.557  10.429 -0.4802 -0.4462  0.0097
  500MPD2    C5 7486   0.256   2.540  10.490  0.4155 -0.3192  0.1428
  500MPD2     H 7487   0.247   2.571  10.114 -0.9400 -2.0796 -0.5861
  500MPD2    H1 7488   0.041   2.559  10.487  0.9631 -0.8075  2.2756
  500MPD2    H2 7489   0.466   2.521  10.472 -0.2164 -0.1966 -0.5222
  500MPD2    H3 7490   0.256   2.522  10.597  0.1201  0.7013  0.3212
  500MPD2     N 7491   0.001   2.556  10.229  0.2724 -0.1832 -0.5552
  500MPD2    H5 7492   4.653   2.555  10.285 -0.3365 -2.3917 -1.4948
  500MPD2    N1 7493   0.491   2.554  10.199  0.0841 -0.0795  0.2814
  500MPD2    H7 7494   0.474   2.599  10.109  0.0609 -0.4456  0.1043
  501TMC3    C1 7495   0.728   2.542  10.147  0.3510  0.1149 -0.0201
  501TMC3    C2 7496   0.751   2.677  10.147 -0.1812 -0.1411 -0.4368
  501TMC3    C3 7497   0.882   2.716  10.150  0.7191 -0.0994 -1.2200
  501TMC3    C4 7498   0.822   2.444  10.133 -0.5513  0.3793 -0.0102
  501TMC3    C5 7499   0.954   2.491  10.136 -0.0954 -0.1488  0.0992
  501TMC3    C6 7500   0.986   2.625  10.149  0.3222  0.0404  0.1405
  501TMC3     C 7501   0.617   2.511  10.241  1.5408  0.6267  0.1291
  501TMC3     O 7502   0.647   2.437  10.330  0.1259 -0.4973 -0.3000
  501TMC3     H 7503   0.673   2.744  10.183 -0.2883  0.6512 -2.1379
  501TMC3    H1 7504   0.788   2.341  10.127  2.5695 -0.6231 -0.0758
  501TMC3    H2 7505   1.088   2.660  10.159 -0.2855  1.1908  2.3118
  501TMC3    C7 7506   1.034   2.408  10.225  0.6062 -0.7711 -0.3202
  501TMC3    C8 7507   0.911   2.843  10.216 -0.1961  0.8474 -0.0134
  501TMC3    O1 7508   1.139   2.460  10.270  0.1781  0.1383  0.3486
  501TMC3    O2 7509   0.994   2.826  10.307 -0.2858  0.2518  0.2306
  502TMC3    C1 7510   0.398   1.016  15.013  0.0133 -0.3227  0.2931
  502TMC3    C2 7511   0.363   1.128  14.952  0.8937 -0.1614  0.1003
  502TMC3    C3 7512   0.235   1.177  14.974 -0.7486 -1.0230 -0.4532
  502TMC3    C4 7513   0.309   0.933  15.076 -0.2437  0.9803 -0.2113
  502TMC3    C5 7514   0.180   0.979  15.085 -0.0717 -0.0630  0.1539
  502TMC3    C6 7515   0.141   1.106  15.046  0.2126  0.0818 -0.7833
  502TMC3     C 7516   0.516   1.039  15.094  0.5180 -0.7436 -0.2167
  502TMC3     O 7517   0.603   1.107  15.050  0.3281 -0.6368 -0.1624
  502TMC3     H 7518   0.435   1.177  14.888  0.9165 -1.0581 -0.5577
  502TMC3    H1 7519   0.340   0.839  15.120 -1.1072  0.4431 -0.7522
  502TMC3    H2 7520   0.044   1.148  15.071  0.9952  1.4257 -0.0457
  502TMC3    C7 7521   0.119   0.938  15.207  1.0196 -0.4130  0.0987
  502TMC3    C8 7522   0.243   1.329  14.992  0.2275 -0.7756 -0.0395
  502TMC3    O1 7523   0.196   0.906  15.293 -0.1020 -0.6991 -0.3435
  502TMC3    O2 7524   0.356   1.374  14.999 -0.0368 -0.1911  0.5564
  503MPD2     C 7525   2.503   1.748  16.739  0.0531 -0.4260 -0.2388
  503MPD2    C1 7526   2.516   1.797  16.870  1.0783  0.1491  0.5839
  503MPD2    C2 7527   2.581   1.719  16.966  0.1037  0.5129  0.5028
  503MPD2    C3 7528   2.641   1.598  16.935 -0.0042  0.2693 -0.3107
  503MPD2    C4 7529   2.618   1.551  16.808 -0.7547 -0.7126 -0.1066
  503MPD2    C5 7530   2.552   1.622  16.708  0.1961  0.4255 -0.2810
  503MPD2     H 7531   2.595   1.756  17.067  1.6238  1.7588 -0.1762
  503MPD2    H1 7532   2.645   1.449  16.785  0.2212  0.2899 -3.5023
  503MPD2    H2 7533   2.455   1.795  16.654 -2.0928 -0.5715  0.8913
  503MPD2    H3 7534   2.526   1.575  16.613  1.0014 -0.9056  0.1572
  503MPD2     N 7535   2.713   1.520  17.033 -0.2821 -0.1120 -0.5828
  503MPD2    H5 7536   2.724   1.549  17.129 -0.1696  0.3167 -0.7281
  503MPD2    N1 7537   2.463   1.918  16.914 -0.3789 -0.2176 -0.1091
  503MPD2    H7 7538   2.471   1.942  17.013 -0.3806  1.1199 -0.4358
  504TMC3    C1 7539   2.886   1.366  17.099 -0.1867  0.0383 -0.3175
  504TMC3    C2 7540   2.855   1.369  17.233 -0.0845 -0.0439 -0.6196
  504TMC3    C3 7541   2.940   1.317  17.323 -0.6100  0.7591 -0.4185
  504TMC3    C4 7542   3.002   1.299  17.056 -0.3325 -0.9667  0.4148
  504TMC3    C5 7543   3.083   1.242  17.158 -0.1520  0.4046 -0.0463
  504TMC3    C6 7544   3.056   1.257  17.292  0.6352  0.2676  0.2515
  504TMC3     C 7545   2.803   1.424  16.995 -0.3515 -0.7097 -0.3310
  504TMC3     O 7546   2.827   1.378  16.884  0.1058  0.0067 -0.2119
  504TMC3     H 7547   2.766   1.420  17.268  1.3466  1.6726  0.4698
  504TMC3    H1 7548   3.030   1.305  16.952 -1.5623  0.5453  0.1645
  504TMC3    H2 7549   3.097   1.186  17.364 -0.1781  2.0462  2.4672
  504TMC3    C7 7550   3.208   1.186  17.111  0.0883 -0.3013 -0.3943
  504TMC3    C8 7551   2.892   1.298  17.462 -0.3778  1.1038 -0.4525
  504TMC3    O1 7552   3.217   1.149  16.994  0.0176  0.1658 -0.5875
  504TMC3    O2 7553   2.770   1.305  17.470  0.0402 -0.1392 -0.1560
  505MPD2     C 7554   3.476   0.089  10.543  0.3144 -0.0913 -0.2289
  505MPD2    C1 7555   3.594   0.036  10.496  0.3721  0.3207 -0.5951
  505MPD2    C2 7556   3.712   0.099  10.530 -0.1224 -0.0160 -0.8367
  505MPD2    C3 7557   3.722   0.214  10.598 -0.3050  0.0587  0.5666
  505MPD2    C4 7558   3.599   0.271  10.645 -0.3421  0.6562 -1.0175
  505MPD2    C5 7559   3.479   0.204  10.626 -0.7830  0.1293  0.1493
  505MPD2     H 7560   3.804   0.061  10.487 -0.6149 -0.8506 -1.1544
  505MPD2    H1 7561   3.595   0.372  10.684  0.5173  0.5962 -0.7724
  505MPD2    H2 7562   3.385   0.038  10.512 -0.5201  0.3621  1.4639
  505MPD2    H3 7563   3.384   0.244  10.659 -1.2612  1.3935 -2.7880
  505MPD2     N 7564   3.842   0.282  10.630 -0.0071 -0.0433  0.6315
  505MPD2    H5 7565   3.836   0.367  10.686 -1.8806  0.8044 -0.8228
  505MPD2    N1 7566   3.588   4.663  10.406  0.5507 -0.0419 -0.2957
  505MPD2    H7 7567   3.491   4.639  10.390  0.3324  0.8344 -0.2963
  506TMC3    C1 7568   3.638   4.545  10.211 -0.1402  0.1133  0.4489
  506TMC3    C2 7569   3.544   4.616  10.136  0.2757 -0.0032  0.4818
  506TMC3    C3 7570   3.554   4.610   9.995  0.1226  0.0141  0.4946
  506TMC3    C4 7571   3.747   4.496  10.151  0.0188 -0.2680  0.1375
  506TMC3    C5 7572   3.756   4.507  10.013 -0.4622  0.8962  0.1204
  506TMC3    C6 7573   3.659   4.553   9.931  0.4795 -0.5902  0.3240
  506TMC3     C 7574   3.687   4.602  10.335 -0.5830 -0.7467  0.0228
  506TMC3     O 7575   3.808   4.599  10.362 -0.4699  0.2138 -0.3912
  506TMC3     H 7576   3.448   4.646  10.177  0.8986  1.4234  0.9003
  506TMC3    H1 7577   3.825   4.438  10.199  0.5353 -0.2331 -0.6478
  506TMC3    H2 7578   3.685   4.584   9.830  3.2744 -1.1250  0.8681
  506TMC3    C7 7579   3.884   4.567   9.974 -0.2892  0.4981 -0.2401
  506TMC3    C8 7580   3.453   4.671   9.921  0.0573 -0.4571 -0.0492
  506TMC3    O1 7581   3.918   4.560   9.858  0.0318 -0.6779  0.1033
  506TMC3    O2 7582   3.402   4.604   9.833  0.3150  0.0002  0.0207
  507TMC3    C1 7583   3.775   1.196  14.588 -0.9153 -0.5584  0.5305
  507TMC3    C2 7584   3.829   1.129  14.483 -0.2052  0.8053  0.2339
  507TMC3    C3 7585   3.874   1.201  14.373  0.3642  0.1968 -0.0298
  507TMC3    C4 7586   3.762   1.334  14.593  0.2055  0.1661 -0.8495
  507TMC3    C5 7587   3.797   1.404  14.481  0.0901 -0.3542 -0.5328
  507TMC3    C6 7588   3.852   1.334  14.373 -0.3327  0.4588 -1.0636
  507TMC3     C 7589   3.646   1.144  14.626 -0.2824  0.1221  0.3191
  507TMC3     O 7590   3.588   1.210  14.713 -0.3396  0.4311 -0.0064
  507TMC3     H 7591   3.839   1.021  14.475  0.4089  0.9778 -1.4596
  507TMC3    H1 7592   3.726   1.387  14.680 -0.6183  3.6988 -3.3536
  507TMC3    H2 7593   3.875   1.378  14.277 -0.0133  0.2549 -1.0845
  507TMC3    C7 7594   3.686   1.479  14.435  0.9280  0.3003  0.1742
  507TMC3    C8 7595   3.825   1.126  14.266  0.7359  0.5120 -0.6531
  507TMC3    O1 7596   3.660   1.457  14.316 -0.3956 -1.3163 -0.3682
  507TMC3    O2 7597   3.829   1.000  14.272 -0.7118 -0.2913 -0.3516
  508MPD2     C 7598   4.149   3.641  16.075  0.4498 -0.0143 -0.3758
  508MPD2    C1 7599   4.264   3.715  16.061  0.5474 -0.7328  0.4422
  508MPD2    C2 7600   4.317   3.734  15.934 -0.4897 -0.0084 -0.1568
  508MPD2    C3 7601   4.260   3.680  15.822  0.4417 -0.2790  0.0730
  508MPD2    C4 7602   4.149   3.594  15.835  0.1274 -0.1813 -0.0968
  508MPD2    C5 7603   4.091   3.578  15.960 -0.2764 -0.2265 -0.2402
  508MPD2     H 7604   4.408   3.792  15.920 -2.5699  3.7401  1.8094
  508MPD2    H1 7605   4.114   3.542  15.747 -0.7997  0.6994 -0.2523
  508MPD2    H2 7606   4.095   3.621  16.167  0.8554 -0.9091 -0.3254
  508MPD2    H3 7607   4.004   3.514  15.972 -0.2089 -0.5136 -1.2600
  508MPD2     N 7608   4.335   3.706  15.701 -0.1677 -0.7229  0.5084
  508MPD2    H5 7609   4.408   3.776  15.704 -2.1289  1.3032  1.0877
  508MPD2    N1 7610   4.329   3.755  16.180 -0.5337 -0.0622  0.1440
  508MPD2    H7 7611   4.284   3.744  16.271  0.5016  0.2667  0.6980
  509TMC3    C1 7612   4.427   3.760  15.250  0.2930 -0.0720  0.3993
  509TMC3    C2 7613   4.541   3.828  15.288  0.3736  0.0688  0.2607
  509TMC3    C3 7614   4.585   3.826  15.415  0.0866 -0.3059 -0.2299
  509TMC3    C4 7615   4.349   3.693  15.344 -0.3887 -0.8196 -0.2861
  509TMC3    C5 7616   4.383   3.706  15.475 -0.2389  0.3154  0.7313
  509TMC3    C6 7617   4.505   3.765  15.509  0.5091  0.3955  0.2551
  509TMC3     C 7618   4.356   3.824  15.143  0.0251 -1.0133 -0.2063
  509TMC3     O 7619   4.288   3.754  15.071 -0.0822 -0.1834 -0.1378
  509TMC3     H 7620   4.602   3.869  15.209  1.6058 -4.3053 -1.0390
  509TMC3    H1 7621   4.251   3.654  15.319 -0.4415  0.1782 -1.6520
  509TMC3    H2 7622   4.539   3.767  15.611 -1.6859  1.0720  0.9619
  509TMC3    C7 7623   4.290   3.665  15.580 -0.2048 -0.5081 -0.1640
  509TMC3    C8 7624   4.632   3.954  15.452  0.1680 -0.1938  0.6775
  509TMC3    O1 7625   4.187   3.605  15.545  0.4269  0.2456  0.3610
  509TMC3    O2 7626   4.618   4.052  15.385  0.2681  0.1485  0.1666
  510MPD2     C 7627   2.291   0.647  14.535  0.1185 -0.2336 -0.4014
  510MPD2    C1 7628   2.335   0.527  14.577 -0.5130 -0.1680 -0.1026
  510MPD2    C2 7629   2.465   0.485  14.540 -0.0695 -0.3863  0.3914
  510MPD2    C3 7630   2.539   0.546  14.442  0.2953 -0.3303 -0.3299
  510MPD2    C4 7631   2.495   0.670  14.404  0.5803  0.3652 -0.4348
  510MPD2    C5 7632   2.369   0.710  14.442  0.2517 -0.1072 -0.0315
  510MPD2     H 7633   2.510   0.393  14.576 -2.2526 -1.2306  1.0078
  510MPD2    H1 7634   2.556   0.730  14.337  1.6089 -1.3670 -1.0545
  510MPD2    H2 7635   2.188   0.683  14.536 -0.4840 -1.9294 -0.7320
  510MPD2    H3 7636   2.337   0.807  14.408  0.4433  0.7354  2.2268
  510MPD2     N 7637   2.655   0.496  14.384 -0.3441  0.1479  0.2175
  510MPD2    H5 7638   2.703   0.419  14.428  0.7770 -0.9129 -2.8672
  510MPD2    N1 7639   2.247   0.453  14.657 -0.4004 -0.1189  0.6305
  510MPD2    H7 7640   2.160   0.496  14.684 -0.9939  0.0155 -1.5087
  511TMC3    C1 7641   2.156   0.269  14.789 -0.3405  0.3132  0.3440
  511TMC3    C2 7642   2.105   0.334  14.894 -0.2927  0.1175  0.3556
  511TMC3    C3 7643   2.003   0.272  14.967 -0.5073 -0.0557 -0.0605
  511TMC3    C4 7644   2.119   0.141  14.761  0.4390  1.0260 -0.9368
  511TMC3    C5 7645   2.009   0.083  14.821  0.0016 -0.4316  0.7504
  511TMC3    C6 7646   1.951   0.149  14.929 -0.7612  0.4897 -0.3570
  511TMC3     C 7647   2.265   0.322  14.706 -0.0083 -0.1421 -0.1838
  511TMC3     O 7648   2.361   0.247  14.684  0.3877 -0.1540 -0.3195
  511TMC3     H 7649   2.136   0.435  14.919 -1.6624  0.5110  0.4592
  511TMC3    H1 7650   2.153   0.098  14.667 -1.8279 -0.7042 -0.9872
  511TMC3    H2 7651   1.861   0.106  14.970  0.0587  0.0626  0.9793
  511TMC3    C7 7652   1.931   4.733  14.736 -0.1104 -1.2421 -0.1597
  511TMC3    C8 7653   1.939   0.354  15.073  0.1981 -0.0772 -0.5333
  511TMC3    O1 7654   1.952   0.009  14.616 -0.1894 -0.5241 -0.0309
  511TMC3    O2 7655   2.006   0.446  15.117 -0.5998  0.4288 -0.0024
  512TMC3    C1 7656   0.301   4.529  13.707 -0.1703 -0.4266  0.1248
  512TMC3    C2 7657   0.413   4.601  13.676 -0.5009 -0.0227  0.0988
  512TMC3    C3 7658   0.505   4.529  13.606 -0.4179 -0.1490 -0.5701
  512TMC3    C4 7659   0.274   4.401  13.660 -0.4096 -0.2762 -0.2386
  512TMC3    C5 7660   0.360   4.347  13.567  0.3732  0.9637 -0.0948
  512TMC3    C6 7661   0.480   4.407  13.545  0.3517 -0.4326 -0.7713
  512TMC3     C 7662   0.223   4.583  13.816 -0.1933  0.0728  0.1329
  512TMC3     O 7663   0.206   4.701  13.816 -0.5893  0.1362  0.0954
  512TMC3     H 7664   0.431   4.693  13.731  0.2218 -0.3807  0.4713
  512TMC3    H1 7665   0.179   4.358  13.686 -0.9767  0.8951 -0.3729
  512TMC3    H2 7666   0.550   4.363  13.475  0.3646 -2.1509  0.3156
  512TMC3    C7 7667   0.329   4.213  13.521  0.0193  0.3773  1.4311
  512TMC3    C8 7668   0.629   4.517  13.682 -0.4719 -0.1645 -0.4722
  512TMC3    O1 7669   0.226   4.163  13.569  0.0112 -0.4158  0.1312
  512TMC3    O2 7670   0.671   4.401  13.692 -0.0545  0.9583 -0.1833
  513MPD2     C 7671   2.240   0.368  13.242  0.0716  0.0856 -0.3460
  513MPD2    C1 7672   2.285   0.275  13.149  0.1008  0.4229  1.0489
  513MPD2    C2 7673   2.331   0.154  13.192  0.4744 -0.1283  0.7377
  513MPD2    C3 7674   2.343   0.126  13.325 -0.6095 -0.0291  0.1376
  513MPD2    C4 7675   2.302   0.216  13.417  0.4955  0.7398 -0.1827
  513MPD2    C5 7676   2.249   0.335  13.373 -0.1008 -0.0092 -0.3178
  513MPD2     H 7677   2.362   0.080  13.119  0.7320  0.5092  0.1913
  513MPD2    H1 7678   2.300   0.207  13.525  1.4419 -0.7581 -0.2953
  513MPD2    H2 7679   2.211   0.467  13.210 -2.5250 -0.0700  1.5057
  513MPD2    H3 7680   2.212   0.411  13.441  1.5722  0.3337  0.2011
  513MPD2     N 7681   2.398   0.007  13.361  0.4759  0.5065 -0.4782
  513MPD2    H5 7682   2.401   4.680  13.282 -0.0610  0.6122 -0.5900
  513MPD2    N1 7683   2.280   0.303  13.008 -0.2883 -0.6478 -0.5462
  513MPD2    H7 7684   2.291   0.224  12.945  1.1195 -1.2562  0.4695
  514TMC3    C1 7685   2.257   0.408  12.806 -0.2267  0.2505  0.4194
  514TMC3    C2 7686   2.366   0.460  12.738 -0.3823  0.7051  0.2017
  514TMC3    C3 7687   2.419   0.388  12.640  0.0392  0.1708  0.1149
  514TMC3    C4 7688   2.203   0.290  12.764  0.1018  0.3705  0.0357
  514TMC3    C5 7689   2.260   0.217  12.670  0.2364  0.4207 -0.4897
  514TMC3    C6 7690   2.373   0.263  12.603  0.5485  0.5431 -0.1541
  514TMC3     C 7691   2.266   0.429  12.948  0.2288 -0.6087  0.2264
  514TMC3     O 7692   2.275   0.542  12.990  0.3821  0.2555  0.2480
  514TMC3     H 7693   2.407   0.556  12.768 -0.9500  0.9668  0.1486
  514TMC3    H1 7694   2.115   0.243  12.807 -0.1671  1.2684  0.4723
  514TMC3    H2 7695   2.424   0.202  12.530  1.7167  2.7641 -1.1815
  514TMC3    C7 7696   2.283   0.086  12.722 -0.0438  0.4475  0.0316
  514TMC3    C8 7697   2.545   0.442  12.581 -0.3383  0.9981  0.3920
  514TMC3    O1 7698   2.260   0.073  12.842  0.3538 -0.2146  0.0297
  514TMC3    O2 7699   2.580   0.552  12.616  0.0668  0.5727 -0.1702
  515MPD2     C 7700   1.342   1.389  15.229  0.4603  0.0960 -0.2620
  515MPD2    C1 7701   1.315   1.456  15.113  0.1320  0.7084 -0.1593
  515MPD2    C2 7702   1.350   1.593  15.114 -0.7809 -0.9428 -0.6272
  515MPD2    C3 7703   1.418   1.647  15.219 -0.1398  0.9824 -0.5328
  515MPD2    C4 7704   1.445   1.572  15.330  0.4880  0.4657  0.4277
  515MPD2    C5 7705   1.401   1.446  15.334  1.7672 -0.6658  0.5088
  515MPD2     H 7706   1.329   1.648  15.023  1.0750  2.3362  0.9082
  515MPD2    H1 7707   1.507   1.610  15.411 -0.4088 -0.2762  1.4615
  515MPD2    H2 7708   1.304   1.288  15.243  0.5969  0.2942  1.6205
  515MPD2    H3 7709   1.420   1.389  15.424 -1.8317 -1.7243  0.5993
  515MPD2     N 7710   1.469   1.775  15.211  0.4501  0.3844 -0.3724
  515MPD2    H5 7711   1.530   1.808  15.285  0.1140  0.0802  0.0455
  515MPD2    N1 7712   1.243   1.396  15.007 -0.0936 -0.6467 -0.5228
  515MPD2    H7 7713   1.216   1.463  14.935  1.5348 -0.0903 -0.6286
  516TMC3    C1 7714   1.119   1.240  14.877 -0.5523  0.1949  0.1006
  516TMC3    C2 7715   1.053   1.340  14.814 -0.0616 -0.6350  0.2260
  516TMC3    C3 7716   0.952   1.314  14.729 -0.3288 -1.1393 -0.2400
  516TMC3    C4 7717   1.071   1.111  14.859  0.2210  0.0547 -0.6052
  516TMC3    C5 7718   0.956   1.088  14.787 -0.4131 -0.3608 -0.6929
  516TMC3    C6 7719   0.895   1.190  14.721  0.5079 -0.4278 -0.0948
  516TMC3     C 7720   1.211   1.263  14.987  0.4617  0.2935  0.2387
  516TMC3     O 7721   1.247   1.159  15.039 -0.0623 -0.2944  0.4629
  516TMC3     H 7722   1.099   1.437  14.801 -1.0344  0.0196  1.6981
  516TMC3    H1 7723   1.128   1.033  14.908 -2.7213 -1.1434  0.9188
  516TMC3    H2 7724   0.799   1.181  14.671  1.8134 -0.1214 -2.6522
  516TMC3    C7 7725   0.904   0.950  14.800 -0.4068 -0.5844  0.8754
  516TMC3    C8 7726   0.892   1.423  14.649 -0.1224  0.8046  0.2907
  516TMC3    O1 7727   0.965   0.876  14.880  0.2831 -1.3750 -0.1097
  516TMC3    O2 7728   0.794   1.387  14.585 -0.0347 -0.3072  0.3704
  517MPD2     C 7729   0.643   3.267  17.389  0.2284  0.0591  0.7054
  517MPD2    C1 7730   0.746   3.243  17.479 -0.1131 -0.3588  0.1988
  517MPD2    C2 7731   0.779   3.338  17.569 -0.1360  0.2720  1.0405
  517MPD2    C3 7732   0.703   3.454  17.578 -0.8051  0.2471  0.5778
  517MPD2    C4 7733   0.605   3.475  17.486  0.2715 -0.1394 -0.2255
  517MPD2    C5 7734   0.572   3.379  17.391  0.0860  0.3533  0.4386
  517MPD2     H 7735   0.862   3.326  17.638  0.3058  2.5677  0.9134
  517MPD2    H1 7736   0.549   3.567  17.491 -0.2947 -0.5111  0.2810
  517MPD2    H2 7737   0.620   3.199  17.308 -0.4330 -0.2323  1.1326
  517MPD2    H3 7738   0.490   3.395  17.322 -1.7083  0.0384  2.4543
  517MPD2     N 7739   0.732   3.560  17.666 -0.6298  0.2301 -0.1599
  517MPD2    H5 7740   0.679   3.646  17.661  0.6887  0.9302 -1.9155
  517MPD2    N1 7741   0.831   3.126  17.461  0.1186 -0.1938 -0.4065
  517MPD2    H7 7742   0.919   3.134  17.510  1.1460 -4.0164 -1.6374
  518TMC3    C1 7743   0.906   2.912  17.393 -0.5600  0.5567 -1.0876
  518TMC3    C2 7744   0.878   2.796  17.326  0.2765  0.0570 -0.1244
  518TMC3    C3 7745   0.976   2.729  17.256  0.0101  0.1675  0.0632
  518TMC3    C4 7746   1.039   2.960  17.394  0.4214  0.2978 -0.2393
  518TMC3    C5 7747   1.135   2.887  17.324 -0.3087 -0.0267 -0.1399
  518TMC3    C6 7748   1.109   2.776  17.254  0.0127  0.3542 -0.0397
  518TMC3     C 7749   0.795   3.011  17.393 -0.4021 -0.2234 -0.5479
  518TMC3     O 7750   0.686   2.988  17.344 -0.1863 -0.1634 -0.2824
  518TMC3     H 7751   0.775   2.764  17.328  0.7992 -1.5803  0.4813
  518TMC3    H1 7752   1.060   3.062  17.421 -0.7240  0.4098  0.2092
  518TMC3    H2 7753   1.177   2.734  17.181  2.2255 -0.6503  2.6040
  518TMC3    C7 7754   1.270   2.942  17.324  0.2383 -0.4860 -0.1054
  518TMC3    C8 7755   0.956   2.591  17.217 -0.1216 -0.1852  0.6039
  518TMC3    O1 7756   1.302   3.050  17.365  0.3504 -0.5324  0.6860
  518TMC3    O2 7757   1.021   2.543  17.119 -0.0698  0.0207 -0.3341
  519MPD2     C 7758   2.165   1.110  14.498 -0.1662 -0.3967  0.6466
  519MPD2    C1 7759   2.155   1.111  14.358 -0.1481 -1.2796 -0.2017
  519MPD2    C2 7760   2.261   1.085  14.281 -0.5373 -0.6256  0.9772
  519MPD2    C3 7761   2.387   1.057  14.327  0.1688 -0.6144 -0.3906
  519MPD2    C4 7762   2.396   1.064  14.466  0.2053 -0.7247 -0.1069
  519MPD2    C5 7763   2.285   1.090  14.552  0.2712 -0.1625  0.4172
  519MPD2     H 7764   2.254   1.085  14.173 -1.2352 -1.3967  1.0223
  519MPD2    H1 7765   2.495   1.054  14.508 -0.1562 -1.2732  0.6125
  519MPD2    H2 7766   2.083   1.131  14.564 -0.0950 -0.2733  0.6956
  519MPD2    H3 7767   2.292   1.100  14.659 -1.8779  2.3546  0.3235
  519MPD2     N 7768   2.502   1.030  14.249 -0.3727 -0.2788  0.5208
  519MPD2    H5 7769   2.590   1.030  14.298  0.0492 -0.4651 -0.2345
  519MPD2    N1 7770   2.025   1.142  14.317  0.3470  0.0994 -0.6867
  519MPD2    H7 7771   1.967   1.165  14.397  3.8075  2.0132  1.2595
  520TMC3    C1 7772   2.621   0.996  14.038 -1.3392 -0.6922 -0.3020
  520TMC3    C2 7773   2.634   1.053  13.913  0.1294  0.6687  0.3591
  520TMC3    C3 7774   2.758   1.046  13.852  0.1724  0.4236 -0.2468
  520TMC3    C4 7775   2.730   0.951  14.105 -0.0070  1.1210 -0.3741
  520TMC3    C5 7776   2.855   0.945  14.036  0.3482  0.0273  0.0743
  520TMC3    C6 7777   2.863   0.986  13.908 -0.4384 -0.3443  0.0102
  520TMC3     C 7778   2.497   1.021  14.105 -0.6493 -0.3673  0.6409
  520TMC3     O 7779   2.408   1.035  14.024  0.0872  0.5033  0.1917
  520TMC3     H 7780   2.555   1.108  13.861  0.4034  1.5814  0.8982
  520TMC3    H1 7781   2.730   0.909  14.205  1.3437 -1.3257 -1.3976
  520TMC3    H2 7782   2.959   0.988  13.858 -1.3636  0.3351 -1.7316
  520TMC3    C7 7783   2.964   0.871  14.097 -0.3793  1.3650 -0.3080
  520TMC3    C8 7784   2.794   1.129  13.736  0.3443  0.2352 -0.5027
  520TMC3    O1 7785   2.974   0.866  14.217 -0.7474  0.2452 -0.1936
  520TMC3    O2 7786   2.904   1.112  13.683  0.2065  0.7891 -0.2286
  521MPD2     C 7787   3.409   4.392  17.617  0.1070 -0.2230 -0.0910
  521MPD2    C1 7788   3.348   4.341  17.504 -0.2196  0.0465  0.3678
  521MPD2    C2 7789   3.407   4.367  17.385  0.0267 -0.3069  0.0078
  521MPD2    C3 7790   3.507   4.453  17.369  0.2252  0.1853  0.4213
  521MPD2    C4 7791   3.564   4.518  17.474  0.3051 -0.1165 -0.3024
  521MPD2    C5 7792   3.519   4.481  17.598  1.0978 -0.0578  0.5874
  521MPD2     H 7793   3.360   4.327  17.295 -0.9983  2.4389 -0.6888
  521MPD2    H1 7794   3.647   4.588  17.471  1.6993 -1.8598 -2.3004
  521MPD2    H2 7795   3.372   4.367  17.716  0.0827  1.4508  0.3232
  521MPD2    H3 7796   3.558   4.522  17.691 -0.3083  1.0929  0.6642
  521MPD2     N 7797   3.554   4.458  17.232 -0.4701  0.4181  0.6864
  521MPD2    H5 7798   3.501   4.418  17.156  1.3648  0.7161 -0.7592
  521MPD2    N1 7799   3.239   4.256  17.522  0.7161 -0.6781  0.2093
  521MPD2    H7 7800   3.191   4.257  17.611  0.4413  1.5083  0.0213
  522TMC3    C1 7801   3.719   4.466  17.072 -0.1100 -0.3447  0.2346
  522TMC3    C2 7802   3.834   4.514  17.027 -0.3473  0.3361  0.2555
  522TMC3    C3 7803   3.898   4.444  16.928 -0.6739  0.1672 -0.0191
  522TMC3    C4 7804   3.650   4.370  17.006  0.2694  0.0352  0.6606
  522TMC3    C5 7805   3.711   4.312  16.895  0.1932  0.2338 -0.4897
  522TMC3    C6 7806   3.842   4.337  16.870 -0.3102 -0.8384  0.6369
  522TMC3     C 7807   3.666   4.518  17.192 -0.3106 -0.6485  0.6314
  522TMC3     O 7808   3.751   4.570  17.267 -0.2899 -0.0162  0.0578
  522TMC3     H 7809   3.880   4.604  17.064  0.9392 -1.1050  2.1289
  522TMC3    H1 7810   3.555   4.328  17.038  0.6366 -1.5168 -0.2842
  522TMC3    H2 7811   3.890   4.294  16.783 -0.2957 -2.0002  1.2285
  522TMC3    C7 7812   3.668   4.170  16.883 -0.1019  0.3480  0.0563
  522TMC3    C8 7813   4.039   4.478  16.917 -0.5188  0.5771 -0.0073
  522TMC3    O1 7814   3.746   4.076  16.904 -0.4512  0.1218  0.1664
  522TMC3    O2 7815   4.083   4.585  16.968 -0.4023  0.0753  0.1643
  523MPD2     C 7816   0.998   4.185  10.200 -0.0180 -0.8406  0.3968
  523MPD2    C1 7817   0.914   4.091  10.141  0.1675 -0.6686  0.7408
  523MPD2    C2 7818   0.842   4.137  10.034 -0.2999 -0.8526  0.8674
  523MPD2    C3 7819   0.859   4.260   9.970  0.5356  0.7064 -0.0876
  523MPD2    C4 7820   0.940   4.355  10.036  0.5177  0.4269  0.4757
  523MPD2    C5 7821   1.009   4.308  10.147 -0.1131 -0.3142 -0.2284
  523MPD2     H 7822   0.775   4.065   9.988  0.6514 -0.8387 -0.5325
  523MPD2    H1 7823   0.945   4.462  10.020  0.9950  0.2189 -0.8102
  523MPD2    H2 7824   1.059   4.154  10.284  2.3374  1.9411 -0.2931
  523MPD2    H3 7825   1.062   4.390  10.195 -0.4419 -0.2626  0.0460
  523MPD2     N 7826   0.778   4.295   9.863  0.4070 -0.3189 -0.2510
  523MPD2    H5 7827   0.790   4.393   9.836  0.5218 -0.0272  0.8431
  523MPD2    N1 7828   0.901   3.968  10.200  0.0558 -0.0502 -0.1816
  523MPD2    H7 7829   0.958   3.962  10.283 -0.1873  1.7295  0.1193
  524TMC3    C1 7830   0.588   4.284   9.715 -0.5985 -0.1711 -0.1605
  524TMC3    C2 7831   0.538   4.226   9.603 -0.1593  0.2146  0.3873
  524TMC3    C3 7832   0.466   4.313   9.522 -0.5029 -0.0092  0.0256
  524TMC3    C4 7833   0.552   4.404   9.765  0.4096  0.6632 -0.5056
  524TMC3    C5 7834   0.483   4.488   9.684  0.0337  1.0939  0.1666
  524TMC3    C6 7835   0.441   4.448   9.558  0.0069  0.2299 -1.4078
  524TMC3     C 7836   0.684   4.209   9.796  0.4559 -0.1202 -0.6648
  524TMC3     O 7837   0.690   4.090   9.772  0.3125 -0.1289  0.4086
  524TMC3     H 7838   0.589   4.139   9.563 -0.9261  0.4454 -1.0894
  524TMC3    H1 7839   0.577   4.423   9.868 -0.4480  0.7983 -0.3196
  524TMC3    H2 7840   0.392   4.516   9.488 -0.2340  0.4032 -1.0740
  524TMC3    C7 7841   0.454   4.616   9.750 -0.1674 -0.1192 -0.2297
  524TMC3    C8 7842   0.438   4.277   9.383 -0.3094 -0.3235  0.2341
  524TMC3    O1 7843   0.507   4.640   9.859  0.3149  0.0024 -0.1660
  524TMC3    O2 7844   0.492   4.174   9.351 -0.2026  0.0736  0.1245
  525MPD2     C 7845   4.094   0.805  14.566  0.2127 -0.0712 -0.1730
  525MPD2    C1 7846   4.190   0.836  14.663 -0.7209  0.4278  0.1649
  525MPD2    C2 7847   4.265   0.953  14.639 -0.3626 -0.4337 -0.5433
  525MPD2    C3 7848   4.246   1.024  14.521  0.4055  0.3477  0.5276
  525MPD2    C4 7849   4.159   0.975  14.424 -0.1697 -0.4524 -0.4725
  525MPD2    C5 7850   4.086   0.865  14.451  0.2455 -0.9078 -0.0430
  525MPD2     H 7851   4.328   0.993  14.718  2.3810 -2.0068 -1.9205
  525MPD2    H1 7852   4.139   1.033  14.334  1.1717  2.1079  0.8723
  525MPD2    H2 7853   4.033   0.717  14.581  0.3604  0.0849  1.4276
  525MPD2    H3 7854   4.002   0.847  14.385  0.7007  1.3427 -1.2145
  525MPD2     N 7855   4.308   1.148  14.508  0.0530  0.2053 -0.1636
  525MPD2    H5 7856   4.279   1.210  14.433 -2.9254 -0.7973  0.1244
  525MPD2    N1 7857   4.175   0.792  14.794 -0.0877 -0.0889  0.8707
  525MPD2    H7 7858   4.249   0.811  14.861 -0.1627 -0.1159  0.9608
  526TMC3    C1 7859   4.112   0.658  14.969 -0.1772  0.5356 -0.2767
  526TMC3    C2 7860   4.008   0.603  15.036  1.3597  0.3187 -0.0070
  526TMC3    C3 7861   4.037   0.536  15.149  1.0981 -0.3001 -0.0295
  526TMC3    C4 7862   4.241   0.643  15.000 -0.1817  0.2075 -0.3096
  526TMC3    C5 7863   4.270   0.581  15.122 -0.7741 -0.1700 -0.1395
  526TMC3    C6 7864   4.171   0.523  15.190  0.1245 -0.4539  0.2377
  526TMC3     C 7865   4.076   0.710  14.841 -0.4359 -0.8249 -0.8435
  526TMC3     O 7866   3.962   0.706  14.798  0.8465 -0.0122 -0.0290
  526TMC3     H 7867   3.906   0.629  15.009  1.4231 -0.7480 -1.2962
  526TMC3    H1 7868   4.325   0.652  14.932  0.4212 -2.9418  0.0050
  526TMC3    H2 7869   4.193   0.459  15.275  2.7112  0.4160  0.2119
  526TMC3    C7 7870   4.396   0.518  15.134 -0.4950 -0.3679  0.2608
  526TMC3    C8 7871   3.934   0.519  15.247 -0.1858  0.2673 -0.0577
  526TMC3    O1 7872   4.397   0.413  15.195  0.0425  0.1816  0.2832
  526TMC3    O2 7873   3.966   0.529  15.367 -0.2629 -0.0240  0.4606
  527MPD2     C 7874   2.192   3.949   1.330 -0.2066  0.2390 -0.6955
  527MPD2    C1 7875   2.146   3.848   1.246 -0.3024 -0.1666  0.7120
  527MPD2    C2 7876   2.243   3.781   1.173 -0.6824 -0.0458  0.8940
  527MPD2    C3 7877   2.374   3.806   1.184  0.0485  0.1984  0.2419
  527MPD2    C4 7878   2.423   3.905   1.267  0.2181 -0.0212  0.1205
  527MPD2    C5 7879   2.326   3.980   1.329 -0.5774  0.9311 -0.1799
  527MPD2     H 7880   2.212   3.700   1.107 -2.0914 -0.2541  1.8212
  527MPD2    H1 7881   2.526   3.938   1.263  0.4711 -0.8325 -0.1156
  527MPD2    H2 7882   2.126   4.021   1.378  1.8890  1.7033 -0.0441
  527MPD2    H3 7883   2.356   4.068   1.385  0.2206  0.9824 -0.6835
  527MPD2     N 7884   2.462   3.733   1.099 -0.4609 -0.0904  0.2711
  527MPD2    H5 7885   2.421   3.664   1.037  0.6687 -0.4386 -0.0849
  527MPD2    N1 7886   2.013   3.806   1.225  0.2907 -0.5099 -0.0943
  527MPD2    H7 7887   2.005   3.726   1.163  1.9728  1.1264 -2.3952
  528TMC3    C1 7888   1.776   3.797   1.239  0.1969 -0.4758  0.0755
  528TMC3    C2 7889   1.782   3.719   1.121 -0.2567  0.2712 -0.6191
  528TMC3    C3 7890   1.663   3.701   1.050  0.0562  0.1541 -0.1654
  528TMC3    C4 7891   1.660   3.867   1.276  1.8921 -0.0302 -0.2228
  528TMC3    C5 7892   1.552   3.848   1.194 -0.5542  1.5461 -0.1491
  528TMC3    C6 7893   1.550   3.769   1.080 -0.0907 -0.0650 -0.2770
  528TMC3     C 7894   1.901   3.841   1.299  0.1517  0.1435  0.1094
  528TMC3     O 7895   1.889   3.925   1.390  0.1195 -0.7581 -0.1410
  528TMC3     H 7896   1.868   3.659   1.092  0.0271  1.1948 -1.7054
  528TMC3    H1 7897   1.659   3.917   1.372 -1.7360  1.3966 -1.0273
  528TMC3    H2 7898   1.464   3.751   1.016 -0.8889  1.0246  0.4921
  528TMC3    C7 7899   1.419   3.900   1.227  0.0483  0.2541 -0.7141
  528TMC3    C8 7900   1.680   3.631   0.929 -0.6501  0.8854 -0.4221
  528TMC3    O1 7901   1.328   3.881   1.146  0.1822 -0.5038  0.0145
  528TMC3    O2 7902   1.795   3.604   0.902 -1.2903  0.2426 -0.3173
  529MPD2     C 7903   4.096   1.821   1.323 -0.2549  0.0146  0.3913
  529MPD2    C1 7904   4.215   1.834   1.252 -0.2252  0.6051  0.1714
  529MPD2    C2 7905   4.231   1.940   1.167 -0.4597 -0.2346  0.1636
  529MPD2    C3 7906   4.134   2.028   1.140 -0.1799  0.3927  0.5157
  529MPD2    C4 7907   4.013   2.012   1.202  0.1569  0.5548  0.2346
  529MPD2    C5 7908   3.999   1.915   1.301 -0.3503  0.0582 -0.0801
  529MPD2     H 7909   4.320   1.969   1.114  0.2580 -1.2272  0.8191
  529MPD2    H1 7910   3.931   2.081   1.189 -0.5619 -0.3754 -0.2039
  529MPD2    H2 7911   4.089   1.751   1.406 -0.3849 -0.1817  0.2151
  529MPD2    H3 7912   3.906   1.906   1.356  0.6597 -1.7356  1.3532
  529MPD2     N 7913   4.166   2.136   1.049 -0.3062 -0.1716 -0.2041
  529MPD2    H5 7914   4.266   2.142   1.033 -0.5338  0.3699 -1.4815
  529MPD2    N1 7915   4.334   1.753   1.279 -0.1082 -0.3955  0.6383
  529MPD2    H7 7916   4.412   1.773   1.218  0.5994  0.7035  1.9239
  530TMC3    C1 7917   4.467   1.576   1.336  0.9090  0.0636  0.3838
  530TMC3    C2 7918   4.566   1.624   1.250  0.1553 -0.2614  0.1359
  530TMC3    C3 7919   4.698   1.597   1.280 -0.0587  0.2421  0.5343
  530TMC3    C4 7920   4.498   1.510   1.454 -0.5977 -0.3752 -0.1822
  530TMC3    C5 7921   4.626   1.490   1.479  0.5218 -0.1751  0.5061
  530TMC3    C6 7922   4.727   1.529   1.394 -1.0238 -0.3909  0.4252
  530TMC3     C 7923   4.342   1.638   1.346  0.0348 -0.2322  0.7356
  530TMC3     O 7924   4.271   1.591   1.428  0.1412 -0.1658 -0.0913
  530TMC3     H 7925   4.543   1.683   1.162 -0.0330  0.6781  0.8121
  530TMC3    H1 7926   4.419   1.460   1.510  0.6257 -0.3090  1.5975
  530TMC3    H2 7927   0.088   1.508   1.433  0.6511  1.8028 -2.5973
  530TMC3    C7 7928   4.661   1.478   1.615  0.3436  0.2504 -0.0221
  530TMC3    C8 7929   0.064   1.635   1.190  0.4908 -0.2393  0.4071
  530TMC3    O1 7930   0.042   1.458   1.647 -0.4276  1.0421  0.1460
  530TMC3    O2 7931   0.022   1.639   1.073 -0.3601 -0.3968 -0.5728
  531MPD2     C 7932   2.565   4.411  12.760  0.2990 -0.3973  0.1169
  531MPD2    C1 7933   2.505   4.483  12.863 -1.0876 -0.2766 -0.2370
  531MPD2    C2 7934   2.437   4.594  12.824  0.3933  0.0655  0.5418
  531MPD2    C3 7935   2.410   4.620  12.687 -0.2593 -0.2498 -0.2353
  531MPD2    C4 7936   2.482   4.554  12.592 -0.0119  0.1594  0.2949
  531MPD2    C5 7937   2.559   4.452  12.630 -0.2031  0.1694 -0.2404
  531MPD2     H 7938   2.387   4.657  12.897  1.5415  0.0379  1.3475
  531MPD2    H1 7939   2.479   4.574  12.485  0.2567 -1.2329  0.0277
  531MPD2    H2 7940   2.634   4.330  12.782 -2.3468 -2.3031  1.4369
  531MPD2    H3 7941   2.615   4.404  12.550  0.8741 -1.4805  1.5151
  531MPD2     N 7942   2.345   4.735  12.634 -0.6713 -0.6193  0.3876
  531MPD2    H5 7943   2.351   0.016  12.535  2.0071 -2.1965  0.2623
  531MPD2    N1 7944   2.539   4.451  12.995 -0.1950  0.1057  0.2435
  531MPD2    H7 7945   2.617   4.387  13.006  0.0848  0.1081 -1.9160
  532TMC3    C1 7946   2.534   4.472  13.239 -0.0861 -1.0356  0.8157
  532TMC3    C2 7947   2.448   4.511  13.334 -0.2565  0.0148  0.0552
  532TMC3    C3 7948   2.496   4.566  13.451  0.4846 -0.0801 -0.5301
  532TMC3    C4 7949   2.667   4.487  13.265  0.1148  0.0740 -0.3880
  532TMC3    C5 7950   2.709   4.536  13.383 -0.0005 -0.8457  0.5126
  532TMC3    C6 7951   2.628   4.577  13.484 -0.0531  0.1559 -0.1095
  532TMC3     C 7952   2.485   4.511  13.107 -0.3249 -0.4886  0.0833
  532TMC3     O 7953   2.392   4.595  13.116 -0.0193 -0.5585 -0.5419
  532TMC3     H 7954   2.345   4.501  13.303  0.4219  2.0562 -2.8323
  532TMC3    H1 7955   2.733   4.438  13.194 -0.5962 -0.5682 -0.6153
  532TMC3    H2 7956   2.656   4.623  13.578 -0.8336  0.9326 -0.2560
  532TMC3    C7 7957   2.851   4.542  13.410 -0.0734 -0.0879  0.0979
  532TMC3    C8 7958   2.427   4.690  13.485  0.4296  0.0587 -0.4941
  532TMC3    O1 7959   2.891   4.539  13.524 -0.2317  0.7857  0.8447
  532TMC3    O2 7960   2.424   0.004  13.599 -0.4651  0.2144 -0.1363
  533TMC3    C1 7961   4.407   1.339  14.585  0.3248 -0.9062  0.5767
  533TMC3    C2 7962   4.534   1.394  14.594  0.0720  0.0636  0.1358
  533TMC3    C3 7963   4.546   1.501  14.664 -0.3567 -0.2802  0.0776
  533TMC3    C4 7964   4.299   1.399  14.642  0.4035  0.9383 -0.3304
  533TMC3    C5 7965   4.325   1.507  14.718 -0.0468 -0.4032  0.0591
  533TMC3    C6 7966   4.446   1.563  14.733  0.3493 -0.4607  0.2221
  533TMC3     C 7967   4.406   1.201  14.587  0.2980  0.3149 -0.5481
  533TMC3     O 7968   4.485   1.144  14.664 -0.0385  0.2786  0.4578
  533TMC3     H 7969   4.608   1.342  14.534 -1.2320  1.1547 -2.4532
  533TMC3    H1 7970   4.206   1.347  14.628 -0.3048  1.7046  1.5402
  533TMC3    H2 7971   4.462   1.641  14.807  0.1469  0.3475 -0.5865
  533TMC3    C7 7972   4.236   1.510  14.836 -0.0969 -0.2577 -0.9038
  533TMC3    C8 7973   4.677   1.569  14.659 -0.1883  0.5410 -0.1228
  533TMC3    O1 7974   4.189   1.396  14.857  0.4410 -0.6685 -0.0940
  533TMC3    O2 7975   4.662   1.682  14.703 -0.1568 -0.3634 -0.0705
  534MPD2     C 7976   2.626   2.370   0.877  0.1084 -0.3283 -0.5131
  534MPD2    C1 7977   2.559   2.488   0.865 -0.0694  0.5156 -0.3263
  534MPD2    C2 7978   2.431   2.488   0.814  0.5797  0.1483 -0.1321
  534MPD2    C3 7979   2.361   2.375   0.777 -0.6130  0.3132 -0.9605
  534MPD2    C4 7980   2.426   2.256   0.791  0.0450  0.6784 -0.0729
  534MPD2    C5 7981   2.549   2.257   0.843  0.7682  0.3443 -0.3625
  534MPD2     H 7982   2.387   2.587   0.811  0.0374 -0.2059 -3.1384
  534MPD2    H1 7983   2.371   2.165   0.771  0.4950  0.2800  0.5080
  534MPD2    H2 7984   2.725   2.361   0.920 -0.1233  1.7457  0.4693
  534MPD2    H3 7985   2.604   2.164   0.838 -1.1425 -0.7441 -1.0528
  534MPD2     N 7986   2.228   2.371   0.722  0.8389 -0.0853  0.9336
  534MPD2    H5 7987   2.192   2.279   0.702 -2.0655  0.8662  1.8533
  534MPD2    N1 7988   2.612   2.616   0.895  0.0009 -0.0902  0.3069
  534MPD2    H7 7989   2.562   2.700   0.868  1.0363 -0.2722 -2.1812
  535TMC3    C1 7990   2.016   2.446   0.655 -0.1119  0.0965  0.1876
  535TMC3    C2 7991   1.955   2.330   0.694  0.6779  0.1643  0.4416
  535TMC3    C3 7992   1.819   2.323   0.698 -0.4321  0.0649 -0.1954
  535TMC3    C4 7993   1.947   2.553   0.608 -0.2210  0.7022 -0.5650
  535TMC3    C5 7994   1.808   2.536   0.606  0.1836 -0.8566 -0.2271
  535TMC3    C6 7995   1.742   2.427   0.655  0.2928  0.0225 -0.2286
  535TMC3     C 7996   2.148   2.483   0.699 -0.2887 -0.2752 -0.1109
  535TMC3     O 7997   2.151   2.600   0.739 -0.0620 -0.1475 -0.0366
  535TMC3     H 7998   2.014   2.248   0.733 -1.9197 -1.3975  1.0536
  535TMC3    H1 7999   1.985   2.638   0.552  1.8099  1.1632  1.5308
  535TMC3    H2 8000   1.635   2.423   0.638  0.6303 -1.0544 -2.0612
  535TMC3    C7 8001   1.744   2.593   0.491  0.4481  0.2250 -0.1192
  535TMC3    C8 8002   1.754   2.196   0.676  0.2349 -0.4158  0.1990
  535TMC3    O1 8003   1.811   2.588   0.387 -0.0786 -0.2071  0.6210
  535TMC3    O2 8004   1.632   2.186   0.681 -0.1805  0.9066 -0.6291
  536MPD2     C 8005   1.014   1.032  16.358  0.6716  0.7385 -0.4038
  536MPD2    C1 8006   0.901   0.968  16.403 -0.0535  0.1745  1.1711
  536MPD2    C2 8007   0.775   1.001  16.359 -0.3729  0.3544 -0.4209
  536MPD2    C3 8008   0.761   1.092  16.249 -0.1343 -0.0558  0.2100
  536MPD2    C4 8009   0.883   1.136  16.199  0.3348  0.5990 -0.3420
  536MPD2    C5 8010   1.003   1.124  16.264  0.2796  0.0719 -0.0612
  536MPD2     H 8011   0.682   0.957  16.395 -0.3025  0.6892  0.1577
  536MPD2    H1 8012   0.887   1.205  16.115 -0.9802  1.4220  0.2721
  536MPD2    H2 8013   1.112   0.999  16.393  0.4243 -0.4027 -0.7794
  536MPD2    H3 8014   1.085   1.180  16.220 -1.3678  0.8748 -2.0962
  536MPD2     N 8015   0.645   1.114  16.178  0.1481  0.8734 -0.0532
  536MPD2    H5 8016   0.661   1.180  16.103 -0.3193  0.9309 -0.1036
  536MPD2    N1 8017   0.919   0.869  16.498  0.6020  0.1209  0.2154
  536MPD2    H7 8018   1.015   0.852  16.524  0.8980  0.4602 -0.6734
  537TMC3    C1 8019   0.871   0.681  16.638  0.9407  0.1670 -0.1620
  537TMC3    C2 8020   0.972   0.699  16.731 -0.3516  0.2951 -0.5058
  537TMC3    C3 8021   0.971   0.617  16.839  0.3136  1.0381  0.3167
  537TMC3    C4 8022   0.772   0.592  16.662 -0.6594 -0.2451  0.6194
  537TMC3    C5 8023   0.773   0.512  16.768  0.0747  0.1270 -0.4872
  537TMC3    C6 8024   0.871   0.522  16.865  0.0235 -0.4912  0.1644
  537TMC3     C 8025   0.820   0.790  16.555  0.2882 -0.1218  0.7395
  537TMC3     O 8026   0.701   0.782  16.532 -0.2323 -0.0048 -0.0523
  537TMC3     H 8027   1.041   0.782  16.719  0.7637 -0.6563 -0.6446
  537TMC3    H1 8028   0.695   0.570  16.589  0.4082  1.2550 -0.9575
  537TMC3    H2 8029   0.869   0.457  16.952 -1.4363 -2.2386 -1.1800
  537TMC3    C7 8030   0.649   0.439  16.791 -0.0037 -0.3022  0.1070
  537TMC3    C8 8031   1.085   0.621  16.931  1.5751 -0.1310 -0.3003
  537TMC3    O1 8032   0.546   0.491  16.744  0.4431 -0.4985  0.4469
  537TMC3    O2 8033   1.101   0.721  17.003  0.4981 -0.2469  0.1738
  538TMC3    C1 8034   1.630   3.765  11.296 -0.4064  0.2830  0.4344
  538TMC3    C2 8035   1.751   3.722  11.263 -0.2953 -0.4151 -0.2682
  538TMC3    C3 8036   1.821   3.788  11.164  0.6167 -0.1418  1.0685
  538TMC3    C4 8037   1.564   3.858  11.225  0.4050 -0.3789 -0.5755
  538TMC3    C5 8038   1.635   3.925  11.127 -0.2498 -0.1897  0.0681
  538TMC3    C6 8039   1.763   3.891  11.092  0.2895  0.6357  0.8075
  538TMC3     C 8040   1.598   3.754  11.437 -0.2531 -0.1429  0.0753
  538TMC3     O 8041   1.551   3.850  11.491 -0.2373  0.1480 -0.0522
  538TMC3     H 8042   1.806   3.657  11.331 -1.5686 -0.7740  0.4334
  538TMC3    H1 8043   1.463   3.878  11.259 -0.0777 -3.3523 -0.2848
  538TMC3    H2 8044   1.789   3.925  10.992  2.0818  1.5404  1.5844
  538TMC3    C7 8045   1.553   4.022  11.061 -0.5326  0.8687  0.2637
  538TMC3    C8 8046   1.961   3.754  11.147 -0.2025 -0.7205  0.2443
  538TMC3    O1 8047   1.433   4.017  11.094  0.5852  0.7075  0.1403
  538TMC3    O2 8048   1.996   3.649  11.203 -0.1739 -0.4146  0.0415
  539MPD2     C 8049   1.493   3.025  11.958 -0.1831  1.0800  0.0387
  539MPD2    C1 8050   1.424   3.047  11.840 -0.3895  0.4801  0.0018
  539MPD2    C2 8051   1.394   3.169  11.796 -0.5372 -1.0199  0.9323
  539MPD2    C3 8052   1.425   3.267  11.888 -0.1707  0.3767  0.3469
  539MPD2    C4 8053   1.483   3.246  12.014 -0.1526 -0.2542  0.9013
  539MPD2    C5 8054   1.523   3.126  12.049  0.2331 -0.2604 -0.2136
  539MPD2     H 8055   1.339   3.191  11.705 -0.0279  0.9114  1.1135
  539MPD2    H1 8056   1.502   3.321  12.089  0.9302 -0.1202  0.4941
  539MPD2    H2 8057   1.533   2.928  11.985 -0.8800  0.5095 -0.9925
  539MPD2    H3 8058   1.567   3.105  12.146 -0.6630  1.2502  0.5326
  539MPD2     N 8059   1.404   3.409  11.857  0.3765  0.1929 -0.3538
  539MPD2    H5 8060   1.420   3.478  11.930  1.5170  0.2139 -0.6126
  539MPD2    N1 8061   1.392   2.937  11.757  0.2168  0.1048  0.1699
  539MPD2    H7 8062   1.371   2.954  11.660  0.4293 -1.2734 -0.1279
  540TMC3    C1 8063   1.330   3.603  11.755  0.7531 -0.5468  0.1944
  540TMC3    C2 8064   1.301   3.670  11.636  0.2650  0.0589  0.6684
  540TMC3    C3 8065   1.245   3.791  11.646 -0.1403 -0.5010 -0.3625
  540TMC3    C4 8066   1.325   3.669  11.876 -0.9044 -0.4110 -0.2392
  540TMC3    C5 8067   1.289   3.800  11.878 -0.3911  0.1644 -0.5764
  540TMC3    C6 8068   1.242   3.856  11.761  0.6795 -0.2653 -0.0395
  540TMC3     C 8069   1.355   3.461  11.742 -0.2268 -0.5978  0.4458
  540TMC3     O 8070   1.329   3.404  11.635 -0.3432 -0.7991 -0.6617
  540TMC3     H 8071   1.312   3.618  11.541  1.4750 -0.6752  1.2056
  540TMC3    H1 8072   1.355   3.622  11.969 -2.1258  1.5533  1.1547
  540TMC3    H2 8073   1.213   3.960  11.768 -0.8220 -0.7310  0.5262
  540TMC3    C7 8074   1.239   3.835  12.004 -0.1431  0.2722 -0.1223
  540TMC3    C8 8075   1.166   3.853  11.539 -0.3761  0.0538 -0.6875
  540TMC3    O1 8076   1.211   3.749  12.082  0.3255  0.1522 -0.3535
  540TMC3    O2 8077   1.146   3.976  11.539  0.3993 -0.1895  0.2168
  541MPD2     C 8078   4.324   0.212  13.555  0.5361 -0.1048  0.0475
  541MPD2    C1 8079   4.326   0.145  13.437  0.0759  0.2590 -0.1698
  541MPD2    C2 8080   4.412   0.198  13.340 -0.5908  0.5590 -0.2143
  541MPD2    C3 8081   4.493   0.306  13.363 -0.1549  0.3016 -0.2105
  541MPD2    C4 8082   4.492   0.373  13.485  0.1451 -0.5556  0.0193
  541MPD2    C5 8083   4.411   0.318  13.582  0.1762  0.2091  0.2554
  541MPD2     H 8084   4.420   0.139  13.249 -1.4073  1.6945 -1.0177
  541MPD2    H1 8085   4.559   0.453  13.517  0.8896 -0.8506 -0.8147
  541MPD2    H2 8086   4.274   0.169  13.641  0.5390  3.3251  1.7440
  541MPD2    H3 8087   4.420   0.357  13.683 -1.4144 -2.1327  1.2884
  541MPD2     N 8088   4.588   0.349  13.263 -0.1278  0.4854  0.4067
  541MPD2    H5 8089   4.620   0.445  13.268  0.3323  0.3285  0.4720
  541MPD2    N1 8090   4.225   0.048  13.422 -0.1695 -0.2600  0.5082
  541MPD2    H7 8091   4.198   0.005  13.509 -1.9492  1.7459  0.9673
  542TMC3    C1 8092   4.722   0.340  13.080 -0.4178  0.3786  0.1919
  542TMC3    C2 8093   4.724   0.305  12.946 -0.3019  0.2384 -0.4847
  542TMC3    C3 8094   0.095   0.330  12.874  0.4334 -0.3953  0.0297
  542TMC3    C4 8095   0.085   0.414  13.142  0.3229 -0.2553  0.2218
  542TMC3    C5 8096   0.200   0.432  13.068  0.3695 -0.6119  0.3548
  542TMC3    C6 8097   0.202   0.387  12.931  0.0862  0.3790 -0.1044
  542TMC3     C 8098   4.626   0.275  13.158 -0.4473  0.8997 -0.4751
  542TMC3     O 8099   4.601   0.158  13.128  0.4508 -0.5183 -0.5900
  542TMC3     H 8100   4.654   0.232  12.908 -1.7655  0.5344  1.6196
  542TMC3    H1 8101   0.090   0.433  13.248  0.6460  2.1028 -0.2241
  542TMC3    H2 8102   0.292   0.401  12.872  0.8144 -0.6469  0.7591
  542TMC3    C7 8103   0.314   0.479  13.137 -0.0783  0.4465  0.0645
  542TMC3    C8 8104   0.079   0.322  12.732 -0.4927  0.0400 -0.2350
  542TMC3    O1 8105   0.302   0.514  13.253 -0.4586 -0.2424 -0.9635
  542TMC3    O2 8106   4.718   0.257  12.698 -0.6074  0.5833  0.4336
  543TMC3    C1 8107   3.949   1.975  17.410 -0.1089 -0.1396 -0.6007
  543TMC3    C2 8108   3.986   1.848  17.444  0.1056  0.1087  0.1847
  543TMC3    C3 8109   4.102   1.840  17.528 -0.1251 -0.7183  0.1940
  543TMC3    C4 8110   3.994   2.084  17.478  0.3823 -0.0622  0.4940
  543TMC3    C5 8111   4.099   2.071  17.558  0.7412  0.6193  0.4327
  543TMC3    C6 8112   4.157   1.951  17.582 -0.1516 -0.8419 -0.8705
  543TMC3     C 8113   3.922   1.994  17.266  0.2291 -0.3408 -0.5529
  543TMC3     O 8114   3.904   2.107  17.220  0.0371  0.5785  0.3620
  543TMC3     H 8115   3.930   1.763  17.409  2.4127 -2.0442  1.7505
  543TMC3    H1 8116   3.973   2.183  17.438 -3.6173 -1.1086  0.0302
  543TMC3    H2 8117   4.245   1.956  17.645 -1.8691 -0.1677  1.4720
  543TMC3    C7 8118   4.128   2.183  17.645 -0.2460 -0.0621  0.2941
  543TMC3    C8 8119   4.188   1.732  17.494 -0.1175 -0.2576 -0.0556
  543TMC3    O1 8120   4.243   2.201  17.683  0.7088 -0.0634 -0.2676
  543TMC3    O2 8121   4.134   1.643  17.428  0.1278  0.0526  0.2531
  544MPD2     C 8122   4.624   1.456  17.534 -0.4776 -0.0565 -0.4924
  544MPD2    C1 8123   4.507   1.424  17.470  0.1324 -0.5524  0.1092
  544MPD2    C2 8124   4.407   1.526  17.461 -0.0943  0.6251  0.3832
  544MPD2    C3 8125   4.421   1.642  17.533 -0.7875  0.0573 -0.3670
  544MPD2    C4 8126   4.537   1.662  17.591 -0.4139 -0.1185  0.5734
  544MPD2    C5 8127   4.641   1.577  17.598 -0.2408 -0.1617  0.9621
  544MPD2     H 8128   4.328   1.509  17.388 -0.9932  0.5359  1.3782
  544MPD2    H1 8129   4.547   1.759  17.638 -0.5934  0.0476  0.2656
  544MPD2    H2 8130   4.710   1.391  17.524 -0.9760 -0.6812 -0.7186
  544MPD2    H3 8131   4.735   1.603  17.645 -0.4786  3.2262 -0.4666
  544MPD2     N 8132   4.320   1.738  17.545 -0.3819 -0.4520 -0.3936
  544MPD2    H5 8133   4.331   1.816  17.609  1.2238 -2.7835  2.1647
  544MPD2    N1 8134   4.479   1.292  17.421 -0.3575 -0.2905 -0.1377
  544MPD2    H7 8135   4.553   1.224  17.437  1.6780  2.5093  2.3335
  545TMC3    C1 8136   4.368   1.102  17.346  0.4894 -1.1229 -0.2531
  545TMC3    C2 8137   4.314   1.034  17.233  0.0840  0.0281  0.6267
  545TMC3    C3 8138   4.287   0.899  17.257  0.5133 -0.3506 -0.1803
  545TMC3    C4 8139   4.434   1.035  17.453  0.4087 -0.3214 -0.3324
  545TMC3    C5 8140   4.421   0.905  17.455 -0.0140  0.0521 -0.3703
  545TMC3    C6 8141   4.345   0.834  17.363 -0.2662 -0.7590  0.0801
  545TMC3     C 8142   4.373   1.243  17.348 -0.1499 -0.3020  0.3127
  545TMC3     O 8143   4.277   1.300  17.303 -0.2279  0.6178  0.4018
  545TMC3     H 8144   4.276   1.089  17.147 -0.1526 -0.4220  0.4466
  545TMC3    H1 8145   4.478   1.085  17.539 -1.6486 -0.2395  0.6717
  545TMC3    H2 8146   4.301   0.737  17.387  0.5272 -1.1788 -0.1669
  545TMC3    C7 8147   4.495   0.842  17.566 -0.5107 -0.3767  0.3462
  545TMC3    C8 8148   4.220   0.815  17.158 -0.6831 -0.6460 -0.2379
  545TMC3    O1 8149   4.521   0.906  17.666 -0.1005 -0.1481  0.3267
  545TMC3    O2 8150   4.242   0.698  17.151  0.2072 -0.1513  0.1242
  546MPD2     C 8151   0.775   1.004  16.959 -0.3003  0.3259 -0.2174
  546MPD2    C1 8152   0.673   1.091  16.994  0.2674 -0.3954 -0.0491
  546MPD2    C2 8153   0.700   1.227  16.979 -0.0128  0.3821 -0.8541
  546MPD2    C3 8154   0.820   1.271  16.931  0.3025  0.5940  0.0787
  546MPD2    C4 8155   0.915   1.179  16.887  0.3031 -0.2991 -0.3437
  546MPD2    C5 8156   0.888   1.045  16.899 -0.2650  0.4617  0.5798
  546MPD2     H 8157   0.634   1.301  17.023 -1.2553 -0.4868 -1.2631
  546MPD2    H1 8158   1.005   1.217  16.840  0.5268  1.1556  1.2453
  546MPD2    H2 8159   0.787   0.904  16.998 -2.4795  1.1825  2.6555
  546MPD2    H3 8160   0.960   0.972  16.863  0.2048  1.2485 -0.0786
  546MPD2     N 8161   0.864   1.403  16.921 -0.3272 -0.4044  0.1122
  546MPD2    H5 8162   0.962   1.413  16.899 -0.7478 -0.6020 -1.9077
  546MPD2    N1 8163   0.553   1.037  17.052 -0.0457  0.3667 -0.7527
  546MPD2    H7 8164   0.552   0.935  17.050 -2.8223  0.4137 -1.4610
  547TMC3    C1 8165   0.326   1.027  17.134 -0.0096 -0.6785  0.8425
  547TMC3    C2 8166   0.198   1.068  17.108 -0.0087  0.6173 -0.0777
  547TMC3    C3 8167   0.100   0.991  17.161 -0.5738  0.0204 -0.4330
  547TMC3    C4 8168   0.362   0.921  17.215  0.1196  0.2265  0.3007
  547TMC3    C5 8169   0.262   0.859  17.275 -0.2345  0.9121  0.4830
  547TMC3    C6 8170   0.126   0.890  17.246 -0.5067 -0.3717  0.9638
  547TMC3     C 8171   0.436   1.098  17.074 -0.3036 -0.7639  0.4756
  547TMC3     O 8172   0.415   1.215  17.046  0.9726 -0.1375  0.5151
  547TMC3     H 8173   0.178   1.137  17.027 -0.9155  0.9665  0.4471
  547TMC3    H1 8174   0.461   0.896  17.248  0.3933  1.9346  0.8028
  547TMC3    H2 8175   0.054   0.827  17.297 -3.4515  0.4931 -2.1392
  547TMC3    C7 8176   0.290   0.786  17.398  0.0198 -0.2381  0.4624
  547TMC3    C8 8177   4.722   1.003  17.083  0.6689  0.2068  0.0241
  547TMC3    O1 8178   0.398   0.813  17.450 -0.7984  0.1035  0.9264
  547TMC3    O2 8179   4.700   1.115  17.038 -0.0011  0.0105 -0.3056
  548MPD2     C 8180   0.603   2.008  12.193  0.4310  0.3915 -0.0384
  548MPD2    C1 8181   0.648   1.958  12.316 -0.5492 -1.1104  0.4585
  548MPD2    C2 8182   0.783   1.966  12.345  0.5456 -0.0485  0.8494
  548MPD2    C3 8183   0.863   2.050  12.268 -0.1941 -0.3282  0.9955
  548MPD2    C4 8184   0.823   2.094  12.146 -0.3003 -0.1396 -0.2858
  548MPD2    C5 8185   0.697   2.064  12.106  0.5457 -0.3266  0.0595
  548MPD2     H 8186   0.820   1.932  12.441  0.3612 -0.2132  0.8622
  548MPD2    H1 8187   0.891   2.138  12.074 -0.2155  1.1659  0.5893
  548MPD2    H2 8188   0.501   1.994  12.157  0.9747 -1.6202 -0.8213
  548MPD2    H3 8189   0.652   2.099  12.013 -2.2813  1.1564  1.9976
  548MPD2     N 8190   1.001   2.050  12.305  0.2244  0.5255  0.6196
  548MPD2    H5 8191   1.034   1.997  12.385 -0.2729  0.0411  0.4998
  548MPD2    N1 8192   0.548   1.931  12.416  0.4118  0.1296 -0.2482
  548MPD2    H7 8193   0.450   1.947  12.398  0.3731 -2.2304 -2.1151
  549TMC3    C1 8194   0.482   1.915  12.645 -0.1264  0.1144  0.4244
  549TMC3    C2 8195   0.402   2.020  12.627 -0.6476 -0.7429 -0.5885
  549TMC3    C3 8196   0.315   2.049  12.731  0.5839  0.8344  0.0260
  549TMC3    C4 8197   0.495   1.841  12.758 -0.1589 -0.0761  0.0905
  549TMC3    C5 8198   0.426   1.885  12.865 -0.2504  0.4370  0.4416
  549TMC3    C6 8199   0.330   1.981  12.850  0.0725  0.1221  0.4023
  549TMC3     C 8200   0.582   1.891  12.541  0.3300 -0.0495  0.5601
  549TMC3     O 8201   0.682   1.827  12.568  0.1367 -0.1880  0.4418
  549TMC3     H 8202   0.391   2.069  12.531 -2.0446 -1.0794 -0.5875
  549TMC3    H1 8203   0.562   1.757  12.774  0.2855  0.3494  0.4568
  549TMC3    H2 8204   0.284   2.014  12.943 -2.1023  0.3534 -0.7515
  549TMC3    C7 8205   0.451   1.840  13.003  0.3096 -0.0066 -0.6549
  549TMC3    C8 8206   0.202   2.133  12.701  0.4419 -0.2807  0.0597
  549TMC3    O1 8207   0.438   1.916  13.096 -0.7502  0.0555 -0.7843
  549TMC3    O2 8208   0.090   2.111  12.753  0.4728  0.2803 -0.4984
  550TMC3    C1 8209   3.559   4.167  12.443 -0.4813  0.4685 -0.7617
  550TMC3    C2 8210   3.548   4.232  12.565  0.0007  0.4493  0.5081
  550TMC3    C3 8211   3.467   4.344  12.563 -0.0326  0.3802 -0.8335
  550TMC3    C4 8212   3.479   4.209  12.337 -0.0720 -0.1886 -0.2049
  550TMC3    C5 8213   3.390   4.311  12.352 -0.1535 -0.2196  0.5896
  550TMC3    C6 8214   3.375   4.381  12.470  0.0860  0.2712  0.0765
  550TMC3     C 8215   3.618   4.039  12.424 -0.7344 -0.2433  0.0291
  550TMC3     O 8216   3.639   3.971  12.526  0.3475 -0.4448  0.1753
  550TMC3     H 8217   3.617   4.197  12.641 -0.7079 -1.5247  0.2517
  550TMC3    H1 8218   3.480   4.160  12.241  0.1997 -0.4368 -0.0766
  550TMC3    H2 8219   3.291   4.450  12.476 -0.4762 -0.4063  0.0888
  550TMC3    C7 8220   3.347   4.389  12.235 -0.8577 -0.4370  0.1391
  550TMC3    C8 8221   3.484   4.439  12.673 -0.8504  0.3381 -0.2855
  550TMC3    O1 8222   3.235   4.447  12.248  0.0047  0.3442  0.7132
  550TMC3    O2 8223   3.506   4.392  12.783  0.5314 -0.5966  0.2569
  551TMC3    C1 8224   1.530   2.598  13.552 -0.2803  0.4533  0.5382
  551TMC3    C2 8225   1.646   2.673  13.547 -0.1545  0.1695 -0.0881
  551TMC3    C3 8226   1.725   2.679  13.656 -0.2921  0.4740 -0.1356
  551TMC3    C4 8227   1.493   2.542  13.665  0.6052  0.3978  0.4221
  551TMC3    C5 8228   1.573   2.541  13.773  0.1479  0.3752 -0.7504
  551TMC3    C6 8229   1.686   2.620  13.778 -0.2653 -0.3429  0.5432
  551TMC3     C 8230   1.428   2.607  13.442  0.5423 -0.0708 -0.3015
  551TMC3     O 8231   1.342   2.520  13.438  0.2282 -0.4786 -0.0994
  551TMC3     H 8232   1.666   2.735  13.461  0.0513 -0.6960 -0.6608
  551TMC3    H1 8233   1.393   2.500  13.669  0.9988 -0.6699 -1.0455
  551TMC3    H2 8234   1.752   2.623  13.865  2.9163  3.2667 -2.0152
  551TMC3    C7 8235   1.538   2.467  13.891 -0.2338 -0.5498 -0.0255
  551TMC3    C8 8236   1.856   2.741  13.652 -0.1616 -0.0403 -0.4039
  551TMC3    O1 8237   1.576   2.522  13.998 -0.3490  0.1511  0.2824
  551TMC3    O2 8238   1.918   2.761  13.754 -0.2315  0.5610  0.1625
  552MPD2     C 8239   3.312   4.549  13.992  0.9533  0.4847  0.8757
  552MPD2    C1 8240   3.244   4.475  14.094  0.1896 -0.2800  0.1273
  552MPD2    C2 8241   3.299   4.464  14.219  0.2526 -0.6731 -0.1868
  552MPD2    C3 8242   3.427   4.522  14.244 -0.4013  0.2588 -0.3869
  552MPD2    C4 8243   3.477   4.613  14.159 -0.0358 -0.9913 -0.1922
  552MPD2    C5 8244   3.424   4.625  14.030 -0.5737 -0.1328 -0.0282
  552MPD2     H 8245   3.250   4.405  14.296 -1.3373  1.1491  0.1986
  552MPD2    H1 8246   3.563   4.670  14.193 -1.3884 -0.3246  2.1667
  552MPD2    H2 8247   3.276   4.560  13.890  1.5615 -2.4514  0.3544
  552MPD2    H3 8248   3.475   4.700  13.970  0.6144  2.0316  3.7052
  552MPD2     N 8249   3.487   4.497  14.367  0.2843 -0.3227  0.2511
  552MPD2    H5 8250   3.573   4.549  14.379 -1.0615  2.0121 -0.1177
  552MPD2    N1 8251   3.121   4.407  14.081  0.3444  0.1498 -0.3691
  552MPD2    H7 8252   3.085   4.357  14.161 -1.0834 -1.7829 -2.2151
  553TMC3    C1 8253   2.958   4.275  13.978  0.0464  0.3554  0.6377
  553TMC3    C2 8254   2.898   4.256  13.858 -1.1726 -0.6665 -0.4297
  553TMC3    C3 8255   2.890   4.129  13.815  0.9998 -0.4210  0.3765
  553TMC3    C4 8256   3.007   4.175  14.058  0.4124  0.1439  0.0598
  553TMC3    C5 8257   3.012   4.048  14.003 -0.5322 -0.0533  0.1125
  553TMC3    C6 8258   2.959   4.022  13.877  0.6372 -0.5523 -0.4682
  553TMC3     C 8259   3.041   4.398  13.973 -0.6940  0.1942  0.3833
  553TMC3     O 8260   3.049   4.455  13.865  0.2075 -0.2545 -0.0228
  553TMC3     H 8261   2.859   4.337  13.797  0.6500 -1.4872 -2.7133
  553TMC3    H1 8262   3.052   4.194  14.155 -1.7250 -0.4410  1.1727
  553TMC3    H2 8263   2.944   3.924  13.833 -1.4343 -0.3745 -0.1749
  553TMC3    C7 8264   3.119   3.959  14.048 -0.2343 -1.1610 -0.2378
  553TMC3    C8 8265   2.875   4.124  13.677  0.3081 -0.3895 -0.5807
  553TMC3    O1 8266   3.155   3.992  14.162  0.1441 -0.2089  0.5141
  553TMC3    O2 8267   2.964   4.059  13.620  0.3053  0.2152 -0.9387
  554TMC3    C1 8268   0.757   3.761  11.603  0.4609  0.4816 -0.2581
  554TMC3    C2 8269   0.697   3.686  11.509  0.0956 -0.9908  0.2540
  554TMC3    C3 8270   0.644   3.750  11.402 -0.9077 -0.1572 -0.2858
  554TMC3    C4 8271   0.778   3.894  11.583 -0.3840  0.7190 -0.1425
  554TMC3    C5 8272   0.707   3.959  11.482  0.5471  0.5148 -0.0121
  554TMC3    C6 8273   0.633   3.888  11.391 -0.4754  0.0489 -0.3322
  554TMC3     C 8274   0.827   3.698  11.713  0.7375  0.0383 -0.2939
  554TMC3     O 8275   0.911   3.767  11.770 -0.3107 -0.4148  0.2635
  554TMC3     H 8276   0.711   3.578  11.506 -1.4967 -1.1831 -0.6295
  554TMC3    H1 8277   0.832   3.947  11.660  2.6489  0.9087 -2.3716
  554TMC3    H2 8278   0.579   3.936  11.311  0.7522  0.1987 -1.0532
  554TMC3    C7 8279   0.726   4.092  11.442 -0.2174 -0.2721 -1.2096
  554TMC3    C8 8280   0.599   3.683  11.281  0.5885 -0.7904  0.9098
  554TMC3    O1 8281   0.631   4.147  11.389 -0.4504  0.6340  0.5326
  554TMC3    O2 8282   0.543   3.747  11.194 -0.0863 -0.0758 -0.1513
  555TMC3    C1 8283   4.226   2.918  15.498  0.8209  0.2559 -0.0438
  555TMC3    C2 8284   4.216   2.995  15.605 -0.1829 -0.6089 -0.5974
  555TMC3    C3 8285   4.228   2.946  15.732 -0.0868  0.7330  0.4813
  555TMC3    C4 8286   4.263   2.787  15.511 -0.0865  0.4208  0.0695
  555TMC3    C5 8287   4.253   2.735  15.641 -0.2680  0.1993 -0.4708
  555TMC3    C6 8288   4.247   2.815  15.757 -0.2612 -0.1272 -0.6330
  555TMC3     C 8289   4.302   2.975  15.396 -0.0247 -0.7407  0.3444
  555TMC3     O 8290   4.409   3.029  15.432 -0.2049  0.3540  0.8321
  555TMC3     H 8291   4.190   3.097  15.579 -0.5679 -1.1204 -2.1942
  555TMC3    H1 8292   4.280   2.722  15.426  3.3243  0.4017  0.7873
  555TMC3    H2 8293   4.242   2.775  15.858 -0.0547  0.3265 -0.4409
  555TMC3    C7 8294   4.287   2.586  15.652 -0.1809 -0.5508  0.7098
  555TMC3    C8 8295   4.226   3.054  15.828 -0.5448 -0.4989  0.2539
  555TMC3    O1 8296   4.254   2.523  15.553  0.2058 -0.0418 -0.5100
  555TMC3    O2 8297   4.140   3.141  15.813 -0.4516  0.0492  0.2932
  556MPD2     C 8298   2.715   0.098  10.567 -0.2484  0.0916  0.1709
  556MPD2    C1 8299   2.608   0.054  10.648 -0.4056  0.4178 -0.0719
  556MPD2    C2 8300   2.546   4.672  10.617  0.3875  0.2738  0.5953
  556MPD2    C3 8301   2.588   4.598  10.510 -0.6663  0.6833  0.2302
  556MPD2    C4 8302   2.692   4.644  10.428  0.3042 -0.5688  0.1227
  556MPD2    C5 8303   2.760   0.023  10.459 -0.0760 -0.0115  0.5104
  556MPD2     H 8304   2.464   4.626  10.670  1.5458 -1.2997  1.0233
  556MPD2    H1 8305   2.736   4.584  10.349 -0.3391  1.2540 -1.5978
  556MPD2    H2 8306   2.765   0.192  10.587  2.1969 -1.2034  0.0687
  556MPD2    H3 8307   2.839   0.062  10.396 -0.6785  1.5824  0.7460
  556MPD2     N 8308   2.527   4.476  10.482  0.3312 -0.0674 -0.6461
  556MPD2    H5 8309   2.450   4.452  10.544 -0.0088 -0.6982 -1.3081
  556MPD2    N1 8310   2.557   0.125  10.761  0.6021  0.2033  0.0344
  556MPD2    H7 8311   2.481   0.088  10.818  1.0154  0.2498  0.6121
  557TMC3    C1 8312   2.489   4.261  10.412 -0.3559  1.2016 -0.5170
  557TMC3    C2 8313   2.471   4.180  10.299  0.4129 -0.1811 -0.3951
  557TMC3    C3 8314   2.422   4.052  10.331 -0.6918 -0.5297  0.3424
  557TMC3    C4 8315   2.441   4.231  10.540  0.4874  0.0583 -0.0087
  557TMC3    C5 8316   2.377   4.107  10.557  0.0178 -0.2867 -0.4704
  557TMC3    C6 8317   2.367   4.018  10.453 -0.6994 -1.0925 -0.6447
  557TMC3     C 8318   2.567   4.386  10.389 -0.2401  0.4524  0.5201
  557TMC3     O 8319   2.643   4.398  10.296  0.2960  0.7352  0.0927
  557TMC3     H 8320   2.501   4.212  10.200  1.1592 -0.2979 -0.2004
  557TMC3    H1 8321   2.456   4.289  10.630  2.1897  0.6126 -0.6442
  557TMC3    H2 8322   2.323   3.919  10.467 -0.8833 -0.7887  0.9695
  557TMC3    C7 8323   2.317   4.073  10.685 -0.0053  0.3054 -0.6499
  557TMC3    C8 8324   2.395   3.969  10.211  0.5687  1.1140  0.2122
  557TMC3    O1 8325   2.224   4.146  10.721  0.3104  0.7347 -0.0454
  557TMC3    O2 8326   2.410   4.016  10.097  0.3956  0.2073  0.0875
  558TMC3    C1 8327   4.590   2.518  10.047 -0.7907  0.0118  0.2005
  558TMC3    C2 8328   4.492   2.475  10.143  0.1946  0.9278 -0.6069
  558TMC3    C3 8329   4.366   2.461  10.096 -0.5513  0.0293  0.0958
  558TMC3    C4 8330   4.552   2.540   9.906 -0.0431 -0.0033 -0.4052
  558TMC3    C5 8331   4.422   2.528   9.871 -0.2158  0.9097  0.1354
  558TMC3    C6 8332   4.332   2.487   9.962 -0.5883  0.0753  0.1255
  558TMC3     C 8333   4.718   2.562  10.093  0.0429  0.8447 -0.4473
  558TMC3     O 8334   0.059   2.597  10.002  0.1223 -0.0810 -0.2786
  558TMC3     H 8335   4.520   2.429  10.238 -0.7513 -1.1290 -1.3180
  558TMC3    H1 8336   4.628   2.577   9.838  1.4044  1.5080  2.0257
  558TMC3    H2 8337   4.233   2.463   9.924 -0.6693 -0.2116  0.5182
  558TMC3    C7 8338   4.384   2.505   9.729 -0.6451  0.5652 -0.2893
  558TMC3    C8 8339   4.272   2.382  10.170 -0.0522 -0.4291  1.0873
  558TMC3    O1 8340   4.482   2.471   9.663 -0.2227 -0.0655 -0.0138
  558TMC3    O2 8341   4.183   2.315  10.114  0.2680 -0.4713 -0.0228
  559MPD2     C 8342   4.487   3.490  11.568  0.0785  0.3402 -0.5467
  559MPD2    C1 8343   4.454   3.361  11.519 -1.3190 -0.1125  0.0996
  559MPD2    C2 8344   4.548   3.266  11.484 -0.3307  0.1689 -0.1956
  559MPD2    C3 8345   4.681   3.297  11.501 -0.3990  0.0961  0.1353
  559MPD2    C4 8346   4.716   3.413  11.558 -0.6016  0.8538  0.0380
  559MPD2    C5 8347   4.622   3.508  11.593 -0.0183 -0.1304 -0.0896
  559MPD2     H 8348   4.507   3.177  11.439  1.2542 -0.0712 -1.1418
  559MPD2    H1 8349   0.078   3.435  11.594 -0.1441 -1.7547  0.3975
  559MPD2    H2 8350   4.413   3.565  11.596  1.0086  1.2048 -0.4211
  559MPD2    H3 8351   4.647   3.594  11.653 -2.7500 -1.6556  3.2845
  559MPD2     N 8352   0.045   3.205  11.449 -0.5119  0.0477  0.1421
  559MPD2    H5 8353   0.012   3.118  11.407 -0.9033  0.2966 -0.0646
  559MPD2    N1 8354   4.320   3.338  11.502 -0.4604  0.4452 -0.0088
  559MPD2    H7 8355   4.255   3.415  11.492 -0.3608  0.6512  0.8820
  560TMC3    C1 8356   0.264   3.105  11.428 -0.3633 -0.2889  0.7257
  560TMC3    C2 8357   0.227   3.019  11.329 -0.1810  0.1834  0.0158
  560TMC3    C3 8358   0.310   2.912  11.306  0.1982  0.5353 -0.0561
  560TMC3    C4 8359   0.387   3.103  11.476 -0.4626 -0.2127 -0.6655
  560TMC3    C5 8360   0.472   2.997  11.445  0.1315  0.0560  0.0826
  560TMC3    C6 8361   0.435   2.900  11.364 -0.5233 -0.6616  0.0610
  560TMC3     C 8362   0.180   3.226  11.457  0.0176  0.0674  0.0012
  560TMC3     O 8363   0.239   3.323  11.493  0.0225 -0.2186 -0.7512
  560TMC3     H 8364   0.130   3.024  11.280 -0.4642  0.6046  0.6259
  560TMC3    H1 8365   0.414   3.193  11.530  0.7617 -1.5002  0.9073
  560TMC3    H2 8366   0.501   2.817  11.338  1.3694  0.6831  0.5597
  560TMC3    C7 8367   0.614   3.009  11.480  0.2845 -0.2607  0.7249
  560TMC3    C8 8368   0.247   2.809  11.235  0.0391  0.5283  0.1172
  560TMC3    O1 8369   0.667   3.114  11.513  0.0947  0.2905  0.1686
  560TMC3    O2 8370   0.123   2.794  11.238  0.1585 -0.1478 -0.2041
  561TMC3    C1 8371   3.125   2.363  11.548  0.3667  0.2985  0.2300
  561TMC3    C2 8372   3.027   2.271  11.589 -0.7877 -0.0817  0.2466
  561TMC3    C3 8373   2.909   2.328  11.644 -0.2350 -0.0462 -0.3474
  561TMC3    C4 8374   3.111   2.503  11.556  0.5686 -1.0532  0.6635
  561TMC3    C5 8375   2.984   2.544  11.604 -0.8826  0.0501  0.3367
  561TMC3    C6 8376   2.883   2.457  11.646 -0.1628 -0.3646 -0.1650
  561TMC3     C 8377   3.251   2.306  11.521 -0.1987  0.0551  0.2953
  561TMC3     O 8378   3.259   2.201  11.460  0.0585  0.0700  0.2106
  561TMC3     H 8379   3.060   2.167  11.592 -0.2006  0.0896 -0.5886
  561TMC3    H1 8380   3.176   2.570  11.501  2.0650 -3.8942 -1.0641
  561TMC3    H2 8381   2.790   2.500  11.680  0.1827  1.6452 -1.7417
  561TMC3    C7 8382   2.924   2.664  11.527 -0.0419  0.5371  0.4541
  561TMC3    C8 8383   2.812   2.249  11.715  0.1231  0.0107  0.6957
  561TMC3    O1 8384   2.803   2.668  11.525  0.0004  0.2859 -0.8142
  561TMC3    O2 8385   2.716   2.314  11.764 -0.0288 -0.4841 -0.2584
  562TMC3    C1 8386   4.053   3.084  16.357 -0.0667 -0.3384  0.0993
  562TMC3    C2 8387   3.953   3.180  16.336  0.6640 -0.1199 -0.2546
  562TMC3    C3 8388   3.878   3.179  16.219 -1.1185  0.6562  0.4991
  562TMC3    C4 8389   4.069   2.980  16.263  0.6693  0.1293 -0.7046
  562TMC3    C5 8390   3.978   2.972  16.156 -0.3540 -0.2945 -0.2813
  562TMC3    C6 8391   3.891   3.072  16.134  0.0661 -0.2484  0.4671
  562TMC3     C 8392   4.106   3.062  16.486 -0.6745  0.0630  0.4820
  562TMC3     O 8393   4.211   2.998  16.509 -0.3628 -0.0197 -0.1075
  562TMC3     H 8394   3.935   3.262  16.404 -0.9805 -0.2401 -0.5508
  562TMC3    H1 8395   4.129   2.892  16.285 -2.5491 -2.6190 -2.9367
  562TMC3    H2 8396   3.830   3.073  16.044  0.8978 -0.1091 -0.1006
  562TMC3    C7 8397   3.975   2.853  16.074 -0.1499 -0.0488  0.3399
  562TMC3    C8 8398   3.762   3.271  16.210 -0.3596 -0.2275 -0.1274
  562TMC3    O1 8399   3.942   2.871  15.957 -0.0643 -0.1847 -0.0961
  562TMC3    O2 8400   3.717   3.321  16.315  0.3561 -0.6711  0.2139
  563MPD2     C 8401   1.416   4.490  15.589 -0.9663  0.2924  0.2699
  563MPD2    C1 8402   1.491   4.533  15.698  0.8014  0.8618 -0.1907
  563MPD2    C2 8403   1.617   4.490  15.722 -0.3034 -0.1089 -0.3982
  563MPD2    C3 8404   1.674   4.393  15.636 -0.1939  0.9118  0.0103
  563MPD2    C4 8405   1.607   4.362  15.520  0.0124  0.3357 -0.1551
  563MPD2    C5 8406   1.476   4.402  15.501  0.9949 -0.4886  0.4345
  563MPD2     H 8407   1.672   4.508  15.814  0.8073 -1.8392 -0.7024
  563MPD2    H1 8408   1.629   4.269  15.468  1.5076  0.4534  0.2923
  563MPD2    H2 8409   1.316   4.531  15.580 -1.7008 -2.2309 -2.7831
  563MPD2    H3 8410   1.415   4.355  15.425  1.8743 -1.2731  0.2019
  563MPD2     N 8411   1.784   4.317  15.682 -0.3428  0.3629 -0.4764
  563MPD2    H5 8412   1.817   4.349  15.773  0.1404  0.4339 -0.6735
  563MPD2    N1 8413   1.424   4.615  15.793  0.0019  0.5392  0.3507
  563MPD2    H7 8414   1.324   4.618  15.776 -0.0920 -2.1260  0.3257
  564TMC3    C1 8415   1.383   4.699  16.012  0.0182  0.6155  0.2768
  564TMC3    C2 8416   1.253   4.685  15.983 -0.7484  0.0580  0.4305
  564TMC3    C3 8417   1.170   4.630  16.082 -1.3740  0.4399 -0.3342
  564TMC3    C4 8418   1.426   4.652  16.135  0.2716 -0.7159  0.1920
  564TMC3    C5 8419   1.342   4.578  16.214 -0.3321 -0.4527  0.3589
  564TMC3    C6 8420   1.213   4.578  16.195  0.3526  0.0533 -0.0720
  564TMC3     C 8421   1.482   4.668  15.907  0.5250  0.0142 -0.1023
  564TMC3     O 8422   1.602   4.687  15.937  0.6259 -0.1108 -0.1196
  564TMC3     H 8423   1.212   4.734  15.896 -0.6355 -2.2065 -0.8962
  564TMC3    H1 8424   1.531   4.637  16.157  0.7302  2.7580  0.3601
  564TMC3    H2 8425   1.157   4.509  16.256  2.0260 -0.7987  0.4821
  564TMC3    C7 8426   1.389   4.442  16.235 -0.8823  0.2772 -0.2980
  564TMC3    C8 8427   1.062   4.552  16.026 -0.3647 -0.1713 -0.5144
  564TMC3    O1 8428   1.400   4.397  16.345 -0.4572 -0.1760 -0.0829
  564TMC3    O2 8429   0.986   4.484  16.099 -0.5224  0.0183  0.4916
  565TMC3    C1 8430   2.146   0.935  10.582 -0.4906  0.4435 -0.1126
  565TMC3    C2 8431   2.052   0.894  10.679  0.2017 -0.0387 -0.0446
  565TMC3    C3 8432   1.982   0.777  10.658  0.7810 -0.0688 -0.5863
  565TMC3    C4 8433   2.170   0.865  10.471 -0.6266 -0.0128 -0.3490
  565TMC3    C5 8434   2.098   0.749  10.463  0.3276  0.5261 -0.0039
  565TMC3    C6 8435   1.999   0.708  10.541 -0.0595 -0.0616 -0.1001
  565TMC3     C 8436   2.219   1.060  10.590 -0.3081 -0.3741 -0.4775
  565TMC3     O 8437   2.291   1.089  10.494 -0.0779  0.0897 -0.1406
  565TMC3     H 8438   2.024   0.956  10.763  0.0742  1.8888 -1.5310
  565TMC3    H1 8439   2.248   0.890  10.401 -1.2378  1.1653 -0.6136
  565TMC3    H2 8440   1.966   0.605  10.535 -1.0996  0.2650  0.0062
  565TMC3    C7 8441   2.131   0.658  10.354 -0.0685  0.7750  0.3129
  565TMC3    C8 8442   1.892   0.721  10.757 -0.7625 -0.4821 -0.1641
  565TMC3    O1 8443   2.056   0.561  10.347 -0.3286 -0.5432  0.1356
  565TMC3    O2 8444   1.891   0.778  10.868 -0.4204  0.4133  0.3389
  566MPD2     C 8445   4.266   2.189  14.323  0.2331 -0.2869 -0.1848
  566MPD2    C1 8446   4.287   2.280  14.223 -0.3045  0.1019 -0.2766
  566MPD2    C2 8447   4.239   2.246  14.097 -0.1160  0.0226 -0.2300
  566MPD2    C3 8448   4.156   2.130  14.088  0.5469 -0.2539 -0.4892
  566MPD2    C4 8449   4.131   2.049  14.191 -0.2980  0.5754 -0.7587
  566MPD2    C5 8450   4.188   2.077  14.312  0.2317  0.1640 -0.4018
  566MPD2     H 8451   4.251   2.310  14.011  1.8745 -0.0829 -0.0178
  566MPD2    H1 8452   4.069   1.960  14.188  1.2961 -0.5830  0.2998
  566MPD2    H2 8453   4.302   2.204  14.424 -2.5197  0.3843  0.7031
  566MPD2    H3 8454   4.152   2.025  14.401 -1.0073 -0.4724 -1.2701
  566MPD2     N 8455   4.095   2.099  13.964  0.2365  0.1399  0.3187
  566MPD2    H5 8456   4.103   2.170  13.892  5.8043 -1.3912 -0.5812
  566MPD2    N1 8457   4.354   2.403  14.246  0.1997  0.3249  0.1365
  566MPD2    H7 8458   4.373   2.415  14.345  1.6896 -0.9143 -0.0082
  567TMC3    C1 8459   4.445   2.621  14.196 -0.4371  0.0422  0.1752
  567TMC3    C2 8460   4.426   2.727  14.107  0.4263 -0.1081  0.2014
  567TMC3    C3 8461   4.462   2.851  14.149  0.5231  0.2942 -0.2207
  567TMC3    C4 8462   4.500   2.635  14.318  0.3610 -0.3488 -0.5148
  567TMC3    C5 8463   4.547   2.761  14.350 -0.2902  0.0622 -1.1975
  567TMC3    C6 8464   4.526   2.873  14.270 -0.1591 -0.5684 -0.4396
  567TMC3     C 8465   4.395   2.495  14.148 -0.2248  0.1344 -0.3239
  567TMC3     O 8466   4.384   2.484  14.028  0.3183 -0.0722 -0.5047
  567TMC3     H 8467   4.385   2.708  14.008 -0.2546 -0.3501  0.5282
  567TMC3    H1 8468   4.524   2.555  14.386 -1.0566 -0.1332  0.2380
  567TMC3    H2 8469   4.552   2.976  14.293  0.7539 -0.6752 -0.9866
  567TMC3    C7 8470   4.598   2.790  14.484  0.1539  0.6588  0.1479
  567TMC3    C8 8471   4.397   2.972  14.092 -0.0901 -0.1375  0.0417
  567TMC3    O1 8472   4.670   2.888  14.502  0.3676 -0.3478 -0.6442
  567TMC3    O2 8473   4.435   3.081  14.125  0.4998 -0.3336  0.1575
  568MPD2     C 8474   1.845   3.299  16.425 -0.0104 -0.3468 -0.0891
  568MPD2    C1 8475   1.761   3.336  16.519 -0.2366 -1.0668 -0.3067
  568MPD2    C2 8476   1.657   3.423  16.489 -0.3582 -0.2154 -0.0919
  568MPD2    C3 8477   1.655   3.473  16.364  0.2765  0.7604 -0.1670
  568MPD2    C4 8478   1.755   3.457  16.273  0.5260  0.2967  0.6252
  568MPD2    C5 8479   1.842   3.353  16.302  0.1046 -0.1812  0.0561
  568MPD2     H 8480   1.589   3.465  16.561 -0.0874 -1.2451  0.7567
  568MPD2    H1 8481   1.769   3.505  16.176  0.3221 -1.6719 -0.3828
  568MPD2    H2 8482   1.912   3.221  16.461  0.1071 -1.0623 -1.8355
  568MPD2    H3 8483   1.913   3.330  16.223  0.7936 -1.1586  0.9701
  568MPD2     N 8484   1.556   3.570  16.332 -0.2663 -0.2475  0.1648
  568MPD2    H5 8485   1.487   3.595  16.402 -0.2364  0.4314 -0.0511
  568MPD2    N1 8486   1.770   3.270  16.644  0.3563  0.0343 -0.1140
  568MPD2    H7 8487   1.846   3.203  16.655 -0.0283 -0.3940 -0.0900
  569TMC3    C1 8488   1.453   3.748  16.229  1.3688  0.2464 -0.2941
  569TMC3    C2 8489   1.431   3.805  16.352 -0.0701 -0.1690 -0.2788
  569TMC3    C3 8490   1.354   3.911  16.360 -0.0536  0.9136 -0.1132
  569TMC3    C4 8491   1.389   3.794  16.121  0.0914  0.6690 -0.2268
  569TMC3    C5 8492   1.299   3.894  16.132 -0.4344  0.3525  0.1794
  569TMC3    C6 8493   1.286   3.959  16.259 -0.3890 -0.0744 -0.8413
  569TMC3     C 8494   1.539   3.637  16.210 -0.2573 -0.1873  0.4436
  569TMC3     O 8495   1.587   3.624  16.097  0.1028  0.2249  0.1056
  569TMC3     H 8496   1.472   3.771  16.446  0.5291  1.1716 -0.0579
  569TMC3    H1 8497   1.395   3.724  16.039  1.2613 -0.9715  1.2630
  569TMC3    H2 8498   1.236   4.052  16.282 -0.2958 -0.4741  0.9988
  569TMC3    C7 8499   1.266   3.954  16.007  0.2900  0.2303 -0.5685
  569TMC3    C8 8500   1.328   3.948  16.492  0.4743  1.0607  0.0175
  569TMC3    O1 8501   1.278   3.882  15.908 -0.6055 -0.4451  0.4801
  569TMC3    O2 8502   1.217   3.933  16.542 -0.2763 -0.1687 -0.3655
  570TMC3    C1 8503   0.806   2.095  16.442 -0.0193  0.2588  0.9009
  570TMC3    C2 8504   0.892   2.066  16.344 -1.0221  0.7208  0.5256
  570TMC3    C3 8505   0.948   2.173  16.272 -0.5577  0.0821  0.4144
  570TMC3    C4 8506   0.774   2.233  16.462  0.0075 -0.4759 -0.6475
  570TMC3    C5 8507   0.843   2.332  16.402 -0.9222 -0.5665 -0.3019
  570TMC3    C6 8508   0.927   2.307  16.302 -0.7469 -0.9257  0.7458
  570TMC3     C 8509   0.715   1.989  16.478  0.1971 -0.0524  0.0847
  570TMC3     O 8510   0.696   1.912  16.382  0.2247  0.1657  0.0827
  570TMC3     H 8511   0.939   1.968  16.339 -0.2828  0.9307  3.5941
  570TMC3    H1 8512   0.697   2.259  16.533 -1.2475 -2.2261 -1.3915
  570TMC3    H2 8513   0.991   2.387  16.268 -2.8118  0.1212 -0.7163
  570TMC3    C7 8514   0.803   2.465  16.437 -0.7536 -0.7927 -0.1764
  570TMC3    C8 8515   1.084   2.147  16.223  0.1379 -1.2400  0.0846
  570TMC3    O1 8516   0.774   2.467  16.557 -0.2596 -0.7035  0.2438
  570TMC3    O2 8517   1.166   2.239  16.226 -0.0654  0.0317 -0.2030
  571MPD2     C 8518   3.723   4.242   0.137 -0.1007  0.3615 -0.0432
  571MPD2    C1 8519   3.762   4.299   0.017  0.4594  0.2879 -0.6703
  571MPD2    C2 8520   3.844   4.408   0.023  0.4436 -0.1839 -0.2733
  571MPD2    C3 8521   3.870   4.476   0.147 -0.5624  0.8175 -0.3381
  571MPD2    C4 8522   3.822   4.410   0.259  0.3448  0.4582  0.3833
  571MPD2    C5 8523   3.760   4.291   0.256 -0.3134 -0.9669  0.1786
  571MPD2     H 8524   3.875   4.457  17.679  1.7838  3.1471  1.9797
  571MPD2    H1 8525   3.842   4.455   0.356  0.3977 -0.1132  0.6330
  571MPD2    H2 8526   3.665   4.151   0.139  2.0030 -1.0325 -2.1129
  571MPD2    H3 8527   3.728   4.244   0.348  0.4078  0.7192  1.2819
  571MPD2     N 8528   3.939   4.596   0.150 -0.1508  0.5543 -0.3038
  571MPD2    H5 8529   3.965   4.619   0.246  0.0494 -1.1229  0.0357
  571MPD2    N1 8530   3.730   4.225  17.647 -0.0689  0.4110 -0.0453
  571MPD2    H7 8531   3.673   4.142  17.659 -0.6485  0.8265  0.0938
  572TMC3    C1 8532   4.075   0.048   0.086 -0.2976 -0.1528  0.2551
  572TMC3    C2 8533   4.079   0.081   0.220 -0.2936  0.3935  0.0738
  572TMC3    C3 8534   4.114   0.206   0.252 -0.2085 -0.3806  0.6689
  572TMC3    C4 8535   4.097   0.140  17.736 -0.4299  0.5707  0.5628
  572TMC3    C5 8536   4.131   0.267   0.026 -0.3528  0.2588  0.0084
  572TMC3    C6 8537   4.148   0.296   0.158  0.1234 -0.6348  0.3431
  572TMC3     C 8538   3.986   4.676   0.043 -0.0641 -0.1795  0.2916
  572TMC3     O 8539   3.958   4.674  17.670 -0.6347 -0.1201 -0.0964
  572TMC3     H 8540   4.055   0.016   0.303  0.8195 -0.8824 -0.6177
  572TMC3    H1 8541   4.083   0.120  17.630  2.4273  1.1483  0.0715
  572TMC3    H2 8542   4.166   0.397   0.194 -2.0919 -0.7537  1.7806
  572TMC3    C7 8543   4.106   0.377  17.674 -0.9338  0.5379  0.2370
  572TMC3    C8 8544   4.082   0.261   0.385  0.3088 -0.5549  1.0620
  572TMC3    O1 8545   4.071   0.352  17.561  0.2183 -0.3951 -0.2261
  572TMC3    O2 8546   4.158   0.344   0.437 -0.2191  0.1890  0.3035
  573MPD2     C 8547   0.043   4.502   0.627  0.2369 -0.1816  0.2317
  573MPD2    C1 8548   0.090   4.612   0.562  0.6366  0.2617  0.4742
  573MPD2    C2 8549   0.075   4.624   0.418  0.5312 -0.3231  0.5184
  573MPD2    C3 8550   0.010   4.529   0.349  0.0606  0.3179 -0.2029
  573MPD2    C4 8551   4.696   4.422   0.414  0.4592  0.4891  0.1065
  573MPD2    C5 8552   4.710   4.409   0.551 -0.6172 -0.7363  0.0969
  573MPD2     H 8553   0.108   4.712   0.363  2.7212 -1.3751  0.1375
  573MPD2    H1 8554   4.647   4.343   0.358 -0.5858  0.2012  1.4180
  573MPD2    H2 8555   0.044   4.487   0.734  1.8311 -1.9323 -0.0146
  573MPD2    H3 8556   4.660   4.333   0.610  0.9129 -1.9531 -0.1668
  573MPD2     N 8557   4.717   4.543   0.208  0.2676  0.3756 -0.5034
  573MPD2    H5 8558   4.646   4.480   0.175  0.2668  1.2991 -2.2597
  573MPD2    N1 8559   0.145   4.711   0.640 -0.0466  0.6761  0.7912
  573MPD2    H7 8560   0.158   4.686   0.737  0.4892 -0.9755  0.3066
  574TMC3    C1 8561   4.733   4.631   0.002  0.3098 -0.2324  0.2267
  574TMC3    C2 8562   4.607   4.671  17.744  0.2136 -0.4867 -0.5985
  574TMC3    C3 8563   4.570   0.023  17.645  0.1577 -0.5349  0.5282
  574TMC3    C4 8564   0.086   4.665  17.656  0.0749 -1.1495 -0.0355
  574TMC3    C5 8565   0.048   0.006  17.548  1.1125  0.1844  0.3839
  574TMC3    C6 8566   4.662   0.056  17.546 -0.1314 -0.1011 -0.4918
  574TMC3     C 8567   0.058   4.611   0.122  0.3503  0.4832  0.2275
  574TMC3     O 8568   0.178   4.646   0.136  0.0085  0.3375 -0.2288
  574TMC3     H 8569   4.538   4.659   0.079  0.7766  2.2305  0.2688
  574TMC3    H1 8570   0.193   4.647  17.665 -0.1253 -2.0183  0.6391
  574TMC3    H2 8571   4.635   0.117  17.461  1.1214  1.1443  0.0175
  574TMC3    C7 8572   0.153   0.088  17.484 -0.2839 -0.0661  0.0121
  574TMC3    C8 8573   4.500   0.128  17.713  0.9090  0.0737 -0.9437
  574TMC3    O1 8574   0.260   0.089  17.538 -0.2447 -0.2657 -0.3089
  574TMC3    O2 8575   4.460   0.121   0.084 -0.3034  0.0621 -0.2512
  575TMC3    C1 8576   1.779   0.532  11.507  0.2452  0.2182 -0.0177
  575TMC3    C2 8577   1.708   0.434  11.566  0.1798 -0.3192 -0.2512
  575TMC3    C3 8578   1.598   0.385  11.504 -0.1893 -0.4868  0.3508
  575TMC3    C4 8579   1.736   0.587  11.390  0.0935 -0.7929  0.5078
  575TMC3    C5 8580   1.622   0.536  11.328 -0.6617  0.0193 -0.1593
  575TMC3    C6 8581   1.557   0.428  11.383  0.0305  0.5581 -0.8240
  575TMC3     C 8582   1.890   0.604  11.573  0.0051  0.4278  0.2638
  575TMC3     O 8583   1.881   0.635  11.692  0.6226 -0.0269  0.0473
  575TMC3     H 8584   1.741   0.397  11.662  0.0968  0.1818 -0.0310
  575TMC3    H1 8585   1.793   0.671  11.351  0.1922  0.7107  3.9502
  575TMC3    H2 8586   1.473   0.386  11.330 -1.3192  1.5732  0.5336
  575TMC3    C7 8587   1.615   0.571  11.185 -0.0946  0.1432  0.2333
  575TMC3    C8 8588   1.526   0.276  11.561 -0.8775 -0.4613  0.9703
  575TMC3    O1 8589   1.642   0.687  11.161  0.8615  0.6620  0.0898
  575TMC3    O2 8590   1.589   0.197  11.626 -0.1578 -0.1495 -0.3845
  576MPD2     C 8591   2.182   2.299  12.645 -0.2203 -0.6411 -0.0098
  576MPD2    C1 8592   2.291   2.283  12.561  0.0075 -0.2221 -0.1398
  576MPD2    C2 8593   2.417   2.315  12.606  0.1360  0.6253 -0.3609
  576MPD2    C3 8594   2.442   2.352  12.740  0.3974 -0.5300  0.1256
  576MPD2    C4 8595   2.332   2.359  12.826  0.3171  0.4713 -0.0998
  576MPD2    C5 8596   2.200   2.340  12.779 -0.0234  0.1204  0.2595
  576MPD2     H 8597   2.501   2.311  12.538  0.3379  2.4097 -0.2133
  576MPD2    H1 8598   2.329   2.380  12.932 -0.5340 -2.3271  0.4464
  576MPD2    H2 8599   2.082   2.274  12.611 -0.2179 -0.6387 -0.0184
  576MPD2    H3 8600   2.114   2.341  12.845  0.0153  0.4312  0.3048
  576MPD2     N 8601   2.571   2.378  12.781  0.0301 -0.3940  0.5036
  576MPD2    H5 8602   2.639   2.388  12.706 -0.5710  0.3945  0.0603
  576MPD2    N1 8603   2.280   2.237  12.430  0.2292  0.8472  0.3458
  576MPD2    H7 8604   2.371   2.215  12.390  0.2209 -1.1585  1.3977
  577TMC3    C1 8605   2.190   2.126  12.244 -0.1542  0.4826  0.1941
  577TMC3    C2 8606   2.305   2.052  12.223  0.8491 -0.4633 -0.3409
  577TMC3    C3 8607   2.298   1.934  12.149 -0.2084  0.1345  0.1244
  577TMC3    C4 8608   2.073   2.082  12.187  0.3840  0.4358 -1.0613
  577TMC3    C5 8609   2.069   1.957  12.130  0.5797  0.8739 -0.6168
  577TMC3    C6 8610   2.177   1.881  12.112 -0.3499  0.4704 -0.2158
  577TMC3     C 8611   2.167   2.206  12.361  0.0169  0.0075 -0.1970
  577TMC3     O 8612   2.057   2.247  12.380 -0.6383 -0.3849 -0.4764
  577TMC3     H 8613   2.404   2.071  12.264  0.1706  0.1098  1.0176
  577TMC3    H1 8614   1.980   2.128  12.219  0.4416  0.3795 -0.8141
  577TMC3    H2 8615   2.174   1.785  12.063  0.9697 -1.0226  2.6045
  577TMC3    C7 8616   1.943   1.919  12.061 -0.2382  0.4670 -0.0660
  577TMC3    C8 8617   2.417   1.870  12.100 -0.0488  0.6085 -0.0670
  577TMC3    O1 8618   1.930   1.799  12.040 -0.5487  0.1274 -0.0107
  577TMC3    O2 8619   2.414   1.754  12.069 -0.2762  0.2569 -0.4372
  578MPD2     C 8620   1.018   1.807   1.503  0.3169 -0.2266  0.0134
  578MPD2    C1 8621   0.927   1.832   1.404  0.6624 -0.3276  0.4094
  578MPD2    C2 8622   0.961   1.797   1.275  0.9505  0.2841 -0.3318
  578MPD2    C3 8623   1.084   1.736   1.252  1.0026  0.3064  0.2992
  578MPD2    C4 8624   1.175   1.718   1.358  0.0054  0.5265 -0.5750
  578MPD2    C5 8625   1.139   1.754   1.486 -0.0587 -0.0270  0.2107
  578MPD2     H 8626   0.901   1.815   1.187 -0.0596 -0.6883  0.1605
  578MPD2    H1 8627   1.271   1.668   1.350  1.9259  4.1819 -0.3125
  578MPD2    H2 8628   0.993   1.850   1.599 -2.0664 -0.8953 -0.3027
  578MPD2    H3 8629   1.200   1.727   1.571 -3.1853 -1.1848  2.0731
  578MPD2     N 8630   1.111   1.701   1.113  0.3283  0.0102  0.7630
  578MPD2    H5 8631   1.036   1.702   1.045  2.1261  1.1492 -1.2107
  578MPD2    N1 8632   0.800   1.895   1.437 -0.3249  0.2788 -0.0539
  578MPD2    H7 8633   0.792   1.931   1.532 -1.1522  1.5768 -0.6127
  579TMC3    C1 8634   1.241   1.632   0.936  0.0529 -0.4480 -0.4042
  579TMC3    C2 8635   1.364   1.652   0.877 -0.0641  0.2783  0.1265
  579TMC3    C3 8636   1.388   1.568   0.772  0.2826  0.3131  0.0130
  579TMC3    C4 8637   1.144   1.546   0.884  0.9058  0.9589  0.1060
  579TMC3    C5 8638   1.178   1.465   0.782  0.6330  0.0751 -0.2786
  579TMC3    C6 8639   1.298   1.479   0.718  0.3510 -0.8355 -0.0855
  579TMC3     C 8640   1.237   1.667   1.077 -0.1015  0.0039  1.1335
  579TMC3     O 8641   1.340   1.697   1.140 -0.4038  0.0152  0.0586
  579TMC3     H 8642   1.436   1.724   0.914 -2.8045  2.1762  1.7198
  579TMC3    H1 8643   1.056   1.515   0.940  1.3960  2.0074  1.4564
  579TMC3    H2 8644   1.333   1.418   0.635  2.7020 -0.0614  0.3226
  579TMC3    C7 8645   1.096   1.348   0.755 -0.8323 -0.2458  0.1730
  579TMC3    C8 8646   1.499   1.597   0.680 -0.5459 -0.3582  0.7104
  579TMC3    O1 8647   1.147   1.237   0.733 -0.0277 -0.3943  0.8697
  579TMC3    O2 8648   1.533   1.508   0.605  0.2107  0.5923 -0.3882
  580TMC3    C1 8649   0.321   1.548  12.211  0.1821 -0.0550 -0.2393
  580TMC3    C2 8650   0.433   1.630  12.226  0.1665  0.6596  0.5764
  580TMC3    C3 8651   0.545   1.597  12.292 -0.1466 -0.0470  0.6652
  580TMC3    C4 8652   0.324   1.428  12.284 -1.0722  0.3645  0.7357
  580TMC3    C5 8653   0.439   1.399  12.350 -0.2184 -0.0238  0.0054
  580TMC3    C6 8654   0.545   1.478  12.361 -0.1668  1.2189  0.3314
  580TMC3     C 8655   0.290   1.542  12.071 -0.4853 -0.1524 -0.2242
  580TMC3     O 8656   0.342   1.630  12.006  0.3101 -0.3140 -0.2795
  580TMC3     H 8657   0.429   1.731  12.187 -0.5118 -0.0096 -1.0798
  580TMC3    H1 8658   0.240   1.360  12.294 -0.0654 -1.0965 -0.6657
  580TMC3    H2 8659   0.637   1.437  12.401 -0.1203  0.4779 -0.5587
  580TMC3    C7 8660   0.436   1.298  12.458  0.3406 -0.4559 -0.2681
  580TMC3    C8 8661   0.667   1.630  12.225  0.0899  0.0366  0.7662
  580TMC3    O1 8662   0.519   1.311  12.547 -0.0337 -0.3849 -0.6564
  580TMC3    O2 8663   0.768   1.582  12.276 -0.0502 -0.4242 -0.3644
  581MPD2     C 8664   2.174   0.772  15.048  0.7054 -0.8008 -0.4666
  581MPD2    C1 8665   2.254   0.873  14.981 -0.1632  0.2799  0.2093
  581MPD2    C2 8666   2.187   0.980  14.932  0.4635 -0.4523 -0.1864
  581MPD2    C3 8667   2.052   0.989  14.949 -0.4038 -0.4125  0.4366
  581MPD2    C4 8668   1.984   0.888  15.001  0.0008 -0.6177  0.6453
  581MPD2    C5 8669   2.041   0.774  15.050 -0.6411  0.1765 -0.1195
  581MPD2     H 8670   2.252   1.062  14.902  0.4453 -0.0456  0.8584
  581MPD2    H1 8671   1.879   0.902  15.027 -0.2380 -0.8784 -0.1783
  581MPD2    H2 8672   2.218   0.692  15.106 -1.7360  0.1252  2.6569
  581MPD2    H3 8673   1.994   0.701  15.115 -0.2580  0.7615  0.8157
  581MPD2     N 8674   1.976   1.103  14.910 -0.4534 -0.0171  0.1326
  581MPD2    H5 8675   1.876   1.096  14.925 -0.5841  2.1854  0.3046
  581MPD2    N1 8676   2.393   0.849  14.980 -0.3799 -0.4031  0.1853
  581MPD2    H7 8677   2.419   0.765  15.029 -1.0670 -0.2094  0.8843
  582TMC3    C1 8678   2.618   0.876  14.945 -0.5349  0.5396 -0.1667
  582TMC3    C2 8679   2.703   0.935  15.038  0.5759  0.1421  0.7230
  582TMC3    C3 8680   2.782   0.855  15.118  0.4635  0.3535 -0.4919
  582TMC3    C4 8681   2.614   0.742  14.926 -0.1596 -0.2497  0.0016
  582TMC3    C5 8682   2.687   0.658  15.004 -0.5097  0.1775 -0.9705
  582TMC3    C6 8683   2.772   0.717  15.099  0.1143 -0.2780 -0.1917
  582TMC3     C 8684   2.487   0.938  14.927  0.3892 -0.0517 -0.6025
  582TMC3     O 8685   2.483   1.054  14.883 -0.0626 -0.4749  0.4964
  582TMC3     H 8686   2.686   1.040  15.060  1.4715  0.0899  1.6362
  582TMC3    H1 8687   2.546   0.701  14.852 -0.3375  0.8365 -0.4444
  582TMC3    H2 8688   2.812   0.646  15.171  2.5097  0.1005 -1.1578
  582TMC3    C7 8689   2.608   0.558  15.064  0.0013  0.0638 -0.5801
  582TMC3    C8 8690   2.805   0.896  15.254 -0.1656 -0.1339  0.4416
  582TMC3    O1 8691   2.560   0.470  14.992  0.5456 -0.0357 -0.4967
  582TMC3    O2 8692   2.720   0.973  15.302  0.1641  0.0233  0.1837
  583MPD2     C 8693   2.655   2.597  16.962  0.0237 -0.4260 -0.5071
  583MPD2    C1 8694   2.609   2.671  16.857  0.4263  0.4791 -0.0979
  583MPD2    C2 8695   2.543   2.788  16.899 -0.1103 -0.2189 -0.5597
  583MPD2    C3 8696   2.537   2.831  17.031 -0.8630 -0.3555  0.0371
  583MPD2    C4 8697   2.591   2.751  17.131 -0.3373  0.3821 -0.1010
  583MPD2    C5 8698   2.652   2.636  17.095 -0.2253  0.0017  0.9010
  583MPD2     H 8699   2.493   2.852  16.827 -0.6651 -1.2996 -1.1555
  583MPD2    H1 8700   2.607   2.783  17.234  0.1696 -0.8770  0.2139
  583MPD2    H2 8701   2.707   2.504  16.944  0.3160 -0.9428  3.0472
  583MPD2    H3 8702   2.695   2.575  17.174 -0.0303  0.7636  1.3819
  583MPD2     N 8703   2.468   2.948  17.055  0.2469 -0.0131 -0.4420
  583MPD2    H5 8704   2.432   3.002  16.977 -0.4478  2.6002  1.7045
  583MPD2    N1 8705   2.634   2.644  16.721  0.1421 -0.3366  0.0162
  583MPD2    H7 8706   2.621   2.723  16.659  2.5434 -0.5882 -0.8004
  584TMC3    C1 8707   2.333   3.098  17.170 -0.3583 -0.3338 -0.3381
  584TMC3    C2 8708   2.376   3.217  17.111 -0.7819 -0.1120 -0.4856
  584TMC3    C3 8709   2.323   3.333  17.162 -0.3257  0.0066  1.0359
  584TMC3    C4 8710   2.248   3.102  17.275 -0.7869  0.0328  0.1741
  584TMC3    C5 8711   2.197   3.223  17.322  0.3240 -0.8026  0.1136
  584TMC3    C6 8712   2.233   3.338  17.266  0.1244  0.1477 -0.0951
  584TMC3     C 8713   2.421   2.980  17.178 -0.3597  0.2767 -0.2996
  584TMC3     O 8714   2.433   2.922  17.283  0.7777 -0.5731 -0.4975
  584TMC3     H 8715   2.458   3.217  17.041  0.1824 -0.7040  0.6498
  584TMC3    H1 8716   2.209   3.007  17.310 -1.8837 -0.1575 -1.5433
  584TMC3    H2 8717   2.187   3.427  17.307  0.0534 -0.0915  0.3521
  584TMC3    C7 8718   2.064   3.211  17.390  0.0847  0.1116  0.4430
  584TMC3    C8 8719   2.353   3.455  17.096 -0.3259 -0.5539  0.2695
  584TMC3    O1 8720   2.005   3.108  17.375  0.1321  0.5715  0.3336
  584TMC3    O2 8721   2.347   3.457  16.972 -0.0544 -0.1880  0.1107
  585MPD2     C 8722   1.336   2.128   0.086  0.0851  0.3706  0.3840
  585MPD2    C1 8723   1.433   2.133  17.735 -0.3226  0.1696  0.5094
  585MPD2    C2 8724   1.527   2.031  17.727  0.2872 -0.0952 -0.9341
  585MPD2    C3 8725   1.519   1.919   0.062  1.0519 -0.9370  0.0340
  585MPD2    C4 8726   1.417   1.909   0.160 -0.1648  0.7498  0.3178
  585MPD2    C5 8727   1.324   2.012   0.167 -0.3354 -0.1980 -0.0399
  585MPD2     H 8728   1.608   2.036  17.655  0.9286  1.7882 -0.0714
  585MPD2    H1 8729   1.411   1.837   0.240  0.4656  1.2618  0.8318
  585MPD2    H2 8730   1.261   2.206   0.095 -1.2881 -0.9212  0.2074
  585MPD2    H3 8731   1.245   2.007   0.240  1.2263  1.0154  1.7404
  585MPD2     N 8732   1.620   1.820   0.069  0.1805 -0.8852 -0.1299
  585MPD2    H5 8733   1.603   1.744   0.135  0.7987 -0.7868  0.1436
  585MPD2    N1 8734   1.429   2.246  17.648  0.1345  0.1855  0.0972
  585MPD2    H7 8735   1.362   2.316  17.678  1.5219  1.2515  0.6954
  586TMC3    C1 8736   1.784   1.666  17.743  0.2241 -0.0196 -0.1041
  586TMC3    C2 8737   1.905   1.627  17.693 -0.2559  0.4585 -0.9529
  586TMC3    C3 8738   1.926   1.492  17.671  0.3309  0.0311  0.2878
  586TMC3    C4 8739   1.695   1.562   0.027  0.1006 -0.1979 -0.4215
  586TMC3    C5 8740   1.728   1.431   0.020 -0.1503 -0.0206  0.3208
  586TMC3    C6 8741   1.838   1.396  17.705  0.6717  0.0101 -0.6618
  586TMC3     C 8742   1.732   1.803  17.739  0.0620 -0.1596  0.4299
  586TMC3     O 8743   1.791   1.900  17.691  0.2852  0.2912 -0.1865
  586TMC3     H 8744   1.967   1.706  17.652  0.1607  0.2451 -0.7339
  586TMC3    H1 8745   1.604   1.589   0.080  0.4789 -2.9504  1.5985
  586TMC3    H2 8746   1.857   1.291  17.688  0.2119 -0.6702  3.1839
  586TMC3    C7 8747   1.616   1.339   0.016  0.4022  0.1091  0.4591
  586TMC3    C8 8748   2.000   1.447  17.554  0.0734  0.2443  0.0549
  586TMC3    O1 8749   1.585   1.268   0.109 -0.1089  0.7498 -0.2847
  586TMC3    O2 8750   1.958   1.351  17.495  0.4535  0.3806  0.0278
  587TMC3    C1 8751   3.855   0.396  16.214 -0.6731 -0.4600  0.0113
  587TMC3    C2 8752   3.927   0.509  16.194  0.1132 -0.6743  0.3260
  587TMC3    C3 8753   4.065   0.502  16.174 -0.1408 -0.0632 -0.0183
  587TMC3    C4 8754   3.927   0.278  16.208  1.2250  0.1852 -0.0420
  587TMC3    C5 8755   4.063   0.276  16.195  0.5883  0.0328 -0.0857
  587TMC3    C6 8756   4.134   0.387  16.157  0.3838 -0.0033 -0.9965
  587TMC3     C 8757   3.715   0.394  16.178 -0.3140 -0.9205  0.1522
  587TMC3     O 8758   3.670   0.491  16.122  0.0332  0.2630 -0.6276
  587TMC3     H 8759   3.875   0.604  16.184 -1.1639 -1.4325 -0.2395
  587TMC3    H1 8760   3.873   0.184  16.212 -2.5053  2.4192  1.7947
  587TMC3    H2 8761   4.242   0.394  16.153  0.3179  2.0412  0.6976
  587TMC3    C7 8762   4.116   0.142  16.160 -1.2262 -0.0791 -0.3786
  587TMC3    C8 8763   4.138   0.626  16.156  0.3986 -0.4945  0.3466
  587TMC3    O1 8764   4.039   0.045  16.165  1.0308  0.0739 -0.2208
  587TMC3    O2 8765   4.239   0.624  16.084 -0.1520  0.4513 -0.3692
  588TMC3    C1 8766   1.534   3.244  10.308 -0.0947 -0.1803  0.6544
  588TMC3    C2 8767   1.592   3.149  10.223 -0.1603  0.7240  0.2768
  588TMC3    C3 8768   1.716   3.101  10.257  0.2630 -0.0489  0.7250
  588TMC3    C4 8769   1.594   3.282  10.426 -0.3533  0.1958 -0.7084
  588TMC3    C5 8770   1.716   3.225  10.455 -0.3905  0.4826 -0.7566
  588TMC3    C6 8771   1.774   3.127  10.377  0.0311  0.2271  0.3054
  588TMC3     C 8772   1.446   3.333  10.235  0.1211 -0.1354  0.0302
  588TMC3     O 8773   1.405   3.308  10.125  0.2527  0.2695  0.1050
  588TMC3     H 8774   1.547   3.111  10.132 -2.2320  0.9689  1.2039
  588TMC3    H1 8775   1.538   3.336  10.502  1.8937  0.9811  0.4009
  588TMC3    H2 8776   1.870   3.087  10.408  0.3122  0.2408 -0.5715
  588TMC3    C7 8777   1.795   3.284  10.567  0.0048  0.3367  0.7286
  588TMC3    C8 8778   1.776   3.006  10.175  0.2442  0.3665 -0.3396
  588TMC3    O1 8779   1.912   3.249  10.577 -0.5975  0.4628  0.0239
  588TMC3    O2 8780   1.761   3.008  10.055  0.1402  0.5037  0.6422
  589TMC3    C1 8781   1.066   0.743   1.124 -0.0881  0.2954  0.9304
  589TMC3    C2 8782   1.151   0.713   1.231  0.2141 -0.1501 -0.2753
  589TMC3    C3 8783   1.262   0.636   1.191 -0.2898  0.2122  1.0463
  589TMC3    C4 8784   1.079   0.694   0.995  0.1323  0.4157 -0.0358
  589TMC3    C5 8785   1.170   0.593   0.977  0.8308 -0.1171 -0.0281
  589TMC3    C6 8786   1.270   0.568   1.066  0.9302 -0.0843 -0.4400
  589TMC3     C 8787   0.945   0.820   1.147 -0.3733  0.3444  1.1162
  589TMC3     O 8788   0.869   0.845   1.057 -0.1158 -0.7030 -0.1658
  589TMC3     H 8789   1.157   0.750   1.332 -2.9490  0.1910 -0.2121
  589TMC3    H1 8790   1.008   0.723   0.919 -0.9902  1.0606  1.2632
  589TMC3    H2 8791   1.338   0.484   1.063  3.2589  1.8194 -0.2398
  589TMC3    C7 8792   1.158   0.497   0.873  0.3607  0.4027  0.7116
  589TMC3    C8 8793   1.377   0.639   1.280 -0.1437 -0.4816 -0.4433
  589TMC3    O1 8794   1.204   0.391   0.899  0.5167  0.2877 -0.0913
  589TMC3    O2 8795   1.360   0.678   1.396  0.1731 -0.0391 -0.0995
  590MPD2     C 8796   0.319   3.826  16.715 -1.2151  0.7507  0.3925
  590MPD2    C1 8797   0.261   3.896  16.607  0.8875 -0.0206 -0.2227
  590MPD2    C2 8798   0.333   3.992  16.535  0.0422 -0.7598 -0.6116
  590MPD2    C3 8799   0.465   4.007  16.565  0.3157 -0.2977  0.3455
  590MPD2    C4 8800   0.523   3.951  16.674  0.3448  0.1864  0.1993
  590MPD2    C5 8801   0.450   3.862  16.746  0.3803  0.0394 -0.0792
  590MPD2     H 8802   0.284   4.062  16.469  0.0749  0.6126  0.8260
  590MPD2    H1 8803   0.628   3.968  16.698  0.8665 -2.8919  0.0563
  590MPD2    H2 8804   0.261   3.758  16.776  0.0819  2.6876  3.7973
  590MPD2    H3 8805   0.504   3.824  16.832 -0.4016 -0.7070  0.0756
  590MPD2     N 8806   0.541   4.092  16.485 -0.4707  0.5813  0.2149
  590MPD2    H5 8807   0.489   4.153  16.423 -1.8354 -0.8560 -0.0635
  590MPD2    N1 8808   0.127   3.884  16.587 -0.9948 -0.0826  0.3747
  590MPD2    H7 8809   0.066   3.851  16.661  1.8517 -2.8414  1.4690
  591TMC3    C1 8810   0.721   4.179  16.354  0.5453  0.0281  0.8618
  591TMC3    C2 8811   0.791   4.121  16.247 -0.4365  0.0480 -0.4663
  591TMC3    C3 8812   0.783   4.190  16.130 -0.2664 -0.6152 -0.4082
  591TMC3    C4 8813   0.653   4.301  16.347 -0.0653 -0.2244 -0.2713
  591TMC3    C5 8814   0.669   4.374  16.227  0.4680 -0.4280  0.3791
  591TMC3    C6 8815   0.731   4.319  16.120  0.1102 -0.3541  0.1216
  591TMC3     C 8816   0.676   4.082  16.455 -0.1456  0.3338  0.7200
  591TMC3     O 8817   0.753   3.998  16.507  0.0584  0.4612  0.6571
  591TMC3     H 8818   0.827   4.020  16.262 -0.8329  0.2386  1.8384
  591TMC3    H1 8819   0.591   4.339  16.427  0.6433 -0.0253  0.1786
  591TMC3    H2 8820   0.745   4.375  16.028 -4.3238 -1.8232 -1.4420
  591TMC3    C7 8821   0.620   4.517  16.224 -0.0142 -0.1870 -0.5155
  591TMC3    C8 8822   0.821   4.122  16.004 -0.4917 -0.8312  0.4851
  591TMC3    O1 8823   0.541   4.552  16.308 -0.0810 -0.0438  0.3578
  591TMC3    O2 8824   0.867   4.010  16.020  0.1341  0.6672  0.2775
  592MPD2     C 8825   0.963   1.375  11.795  0.2512 -0.2303  1.1103
  592MPD2    C1 8826   1.048   1.404  11.900  0.6424 -0.7824 -0.0166
  592MPD2    C2 8827   1.004   1.389  12.027  0.1128 -0.4364  0.1358
  592MPD2    C3 8828   0.888   1.318  12.065  0.1626 -0.1272  0.3249
  592MPD2    C4 8829   0.809   1.287  11.955  0.5098 -0.2070  0.7611
  592MPD2    C5 8830   0.846   1.312  11.824  0.1109  0.0832 -0.6630
  592MPD2     H 8831   1.064   1.419  12.112  0.6403  1.0450 -0.7410
  592MPD2    H1 8832   0.711   1.245  11.972  0.3032  0.4181  1.1115
  592MPD2    H2 8833   0.993   1.403  11.695 -1.0571  1.4085  1.1845
  592MPD2    H3 8834   0.775   1.281  11.748  0.1926  0.5137 -0.9148
  592MPD2     N 8835   0.865   1.289  12.202 -0.5379 -0.2161  0.3081
  592MPD2    H5 8836   0.927   1.314  12.278  0.4471  1.2318 -0.9748
  592MPD2    N1 8837   1.166   1.475  11.856  0.0012 -0.7904 -0.7964
  592MPD2    H7 8838   1.185   1.494  11.758  2.2981  0.4364 -0.0911
  593TMC3    C1 8839   1.344   1.621  11.874  0.4635 -0.2180 -0.4532
  593TMC3    C2 8840   1.407   1.711  11.958 -0.3411 -0.5326  0.4814
  593TMC3    C3 8841   1.429   1.839  11.914  0.1534 -0.0163 -0.0328
  593TMC3    C4 8842   1.318   1.663  11.745  0.1246 -0.5757 -0.4264
  593TMC3    C5 8843   1.359   1.790  11.702 -0.0724 -0.3232  0.7951
  593TMC3    C6 8844   1.406   1.883  11.787 -0.3143 -0.5473 -0.4347
  593TMC3     C 8845   1.269   1.512  11.936  0.2386 -0.2554  0.5490
  593TMC3     O 8846   1.281   1.491  12.055  0.2426 -0.2322 -0.0974
  593TMC3     H 8847   1.418   1.690  12.063 -0.6997 -2.5250  0.1331
  593TMC3    H1 8848   1.280   1.593  11.671 -1.0975 -1.0112  0.6260
  593TMC3    H2 8849   1.416   1.985  11.752 -2.2647  0.3712  1.6720
  593TMC3    C7 8850   1.336   1.831  11.565  0.6906 -0.0708 -0.7884
  593TMC3    C8 8851   1.477   1.946  12.005 -0.8117  0.3457  0.0748
  593TMC3    O1 8852   1.367   1.947  11.532 -0.2724 -0.1878  0.0521
  593TMC3    O2 8853   1.430   2.055  11.985  0.1956  0.5713 -0.5551
  594MPD2     C 8854   4.052   4.522  14.292  0.3026  0.0599  0.6206
  594MPD2    C1 8855   4.042   4.522  14.430 -0.0941 -0.4137  0.3082
  594MPD2    C2 8856   4.145   4.580  14.504  0.0051 -0.3322 -0.3055
  594MPD2    C3 8857   4.258   4.637  14.442 -0.6027 -1.0547  0.2944
  594MPD2    C4 8858   4.259   4.640  14.303 -0.6050  0.1512  0.1546
  594MPD2    C5 8859   4.157   4.584  14.232 -0.0017  1.1151 -0.2177
  594MPD2     H 8860   4.146   4.579  14.613 -0.8711 -0.7566 -0.3053
  594MPD2    H1 8861   4.332   4.696  14.246 -0.6146 -0.8810 -0.8663
  594MPD2    H2 8862   3.968   4.493  14.230 -0.3694 -3.7589  3.3725
  594MPD2    H3 8863   4.157   4.588  14.124  0.2096 -0.7027 -0.2884
  594MPD2     N 8864   4.364   4.688  14.519  0.2099  0.0575 -0.1637
  594MPD2    H5 8865   4.362   4.650  14.614 -0.1831 -0.9953 -0.5965
  594MPD2    N1 8866   3.929   4.459  14.481 -0.0528  0.6516 -0.2207
  594MPD2    H7 8867   3.871   4.411  14.413  1.3989  1.2038 -1.8546
  595TMC3    C1 8868   0.074   0.006  14.617 -0.4076 -0.6870  0.0344
  595TMC3    C2 8869   4.711   0.017  14.524 -0.6391  0.3523  0.3802
  595TMC3    C3 8870   4.588   0.004  14.575  0.3522 -0.1378  0.2304
  595TMC3    C4 8871   0.063   0.003  14.752  0.5423 -0.5216  0.0053
  595TMC3    C5 8872   4.669   0.012  14.802  0.3615 -0.5744 -0.3954
  595TMC3    C6 8873   4.564   0.006  14.707  0.5557 -0.2513  0.8761
  595TMC3     C 8874   0.211   0.020  14.567 -0.0696  0.4744  0.1856
  595TMC3     O 8875   0.295   0.023  14.655 -0.0438 -0.6609 -1.0488
  595TMC3     H 8876   4.732   0.026  14.418 -1.8713  2.3622  0.3103
  595TMC3    H1 8877   0.147   0.010  14.820  2.9800 -2.5100 -2.8221
  595TMC3    H2 8878   4.468   0.038  14.746 -0.6219 -3.1592  0.3158
  595TMC3    C7 8879   4.644   0.110  14.911 -0.4052 -0.2280  0.1086
  595TMC3    C8 8880   4.483   0.017  14.479  0.7614 -0.5723 -0.2067
  595TMC3    O1 8881   4.525   0.126  14.939 -0.0811 -0.2361  0.1867
  595TMC3    O2 8882   4.509   0.072  14.369  0.1763  0.0327 -0.3189
  596MPD2     C 8883   3.389   2.498  16.837  0.7319 -0.3202  0.3110
  596MPD2    C1 8884   3.445   2.607  16.774 -0.7870 -0.3087  0.4508
  596MPD2    C2 8885   3.485   2.591  16.638 -0.7341  0.1170 -0.0786
  596MPD2    C3 8886   3.484   2.460  16.579  0.6544  0.4106  0.0436
  596MPD2    C4 8887   3.449   2.352  16.653  0.2487 -0.6817 -0.0423
  596MPD2    C5 8888   3.395   2.373  16.778  0.5466  0.7069  0.1943
  596MPD2     H 8889   3.531   2.674  16.587  0.6662  0.7154  2.1269
  596MPD2    H1 8890   3.445   2.254  16.606 -2.0716 -0.6618  0.1096
  596MPD2    H2 8891   3.348   2.501  16.938 -0.9391  0.2895 -0.3840
  596MPD2    H3 8892   3.366   2.291  16.842 -1.4559  0.6978 -0.7397
  596MPD2     N 8893   3.509   2.444  16.441  0.3209 -0.6944 -0.2387
  596MPD2    H5 8894   3.505   2.348  16.406 -1.5963 -0.8413  0.4033
  596MPD2    N1 8895   3.453   2.737  16.826  0.2520 -0.6304  0.1072
  596MPD2    H7 8896   3.493   2.803  16.760  0.1834 -0.0099  0.6833
  597TMC3    C1 8897   3.373   2.936  16.930 -0.0005  0.1901  0.2952
  597TMC3    C2 8898   3.457   3.009  16.857 -0.0184  0.4196 -0.0359
  597TMC3    C3 8899   3.448   3.143  16.873  0.6653  0.5817 -1.2407
  597TMC3    C4 8900   3.272   2.982  17.001 -0.1215 -0.2457 -0.0859
  597TMC3    C5 8901   3.263   3.117  17.018  0.2114 -0.1441  0.5633
  597TMC3    C6 8902   3.350   3.199  16.946 -0.3357 -0.0062  0.1198
  597TMC3     C 8903   3.384   2.787  16.936  0.7891  0.1222  0.4053
  597TMC3     O 8904   3.321   2.731  17.023 -0.1596  0.2388  0.6475
  597TMC3     H 8905   3.530   2.956  16.797  1.1255  1.4322  0.4540
  597TMC3    H1 8906   3.196   2.913  17.033 -0.3849  0.3549  0.6035
  597TMC3    H2 8907   3.348   3.306  16.960  1.1502 -0.0722  0.8349
  597TMC3    C7 8908   3.148   3.164  17.086  0.4309 -0.0484  0.8283
  597TMC3    C8 8909   3.527   3.227  16.780 -0.3177  0.3718  0.7504
  597TMC3    O1 8910   3.099   3.078  17.155 -0.0898  0.4047 -0.1895
  597TMC3    O2 8911   3.565   3.183  16.677 -0.8862 -0.4254  0.0874
  598TMC3    C1 8912   1.348   4.126  15.190  0.8276  0.2379  0.5851
  598TMC3    C2 8913   1.242   4.039  15.176  0.8381 -0.2032  0.0113
  598TMC3    C3 8914   1.198   4.018  15.046 -0.2607 -1.0231  0.3259
  598TMC3    C4 8915   1.393   4.205  15.086 -0.0460 -0.2080 -0.2256
  598TMC3    C5 8916   1.336   4.187  14.963 -0.7012 -0.5144 -0.9547
  598TMC3    C6 8917   1.241   4.093  14.935 -0.5585 -0.5116  0.3196
  598TMC3     C 8918   1.455   4.088  15.276  0.1474  0.1491 -0.3876
  598TMC3     O 8919   1.570   4.118  15.238 -0.0063  0.0900  0.4151
  598TMC3     H 8920   1.219   3.966  15.252 -0.4828 -1.4989 -1.6248
  598TMC3    H1 8921   1.470   4.280  15.099  0.6425 -1.4833  3.1610
  598TMC3    H2 8922   1.220   4.069  14.831  2.2564 -1.4739 -0.0196
  598TMC3    C7 8923   1.379   4.264  14.852  0.1837 -0.1867 -0.1543
  598TMC3    C8 8924   1.187   3.875  15.017  0.7027 -0.4907  0.0445
  598TMC3    O1 8925   1.299   4.263  14.760 -0.2894  0.2215  0.3471
  598TMC3    O2 8926   1.265   3.833  14.932  0.1810 -0.0713  0.4558
  599MPD2     C 8927   2.002   1.825  16.287 -0.2257  0.1330  0.4390
  599MPD2    C1 8928   1.928   1.716  16.255  0.0481  0.2602 -0.4971
  599MPD2    C2 8929   1.796   1.714  16.283 -0.4692  0.2452  0.0805
  599MPD2    C3 8930   1.736   1.823  16.334 -0.2163  0.1880  0.2878
  599MPD2    C4 8931   1.812   1.929  16.375  0.1234 -0.4553  0.1160
  599MPD2    C5 8932   1.945   1.935  16.343  0.1539 -0.0711  0.0900
  599MPD2     H 8933   1.742   1.620  16.271  0.0754 -0.0209 -0.3206
  599MPD2    H1 8934   1.768   2.011  16.431 -2.4334 -0.7721 -1.4177
  599MPD2    H2 8935   2.110   1.825  16.276 -0.2469  0.8557  0.2044
  599MPD2    H3 8936   2.011   2.016  16.374 -2.1580  2.0570 -0.4769
  599MPD2     N 8937   1.602   1.838  16.366 -0.2477  0.3485 -0.3116
  599MPD2    H5 8938   1.583   1.927  16.412 -0.6754 -0.4540  1.0631
  599MPD2    N1 8939   2.005   1.618  16.201  0.0659  0.0218  0.1079
  599MPD2    H7 8940   2.105   1.636  16.201 -0.2891  2.0261  2.5450
  600TMC3    C1 8941   1.382   1.775  16.415 -0.3890 -0.1564 -0.6517
  600TMC3    C2 8942   1.298   1.671  16.444  0.3977  0.0144 -0.0462
  600TMC3    C3 8943   1.177   1.701  16.492  0.5300 -0.7214 -0.5812
  600TMC3    C4 8944   1.349   1.907  16.435  0.3249 -0.2958 -0.1223
  600TMC3    C5 8945   1.225   1.928  16.494 -0.1471  0.1306  0.5169
  600TMC3    C6 8946   1.133   1.826  16.524  0.2862  0.1336 -0.3402
  600TMC3     C 8947   1.502   1.753  16.335  0.4173  0.2419 -0.0692
  600TMC3     O 8948   1.508   1.638  16.292 -0.1893  0.8684  1.0103
  600TMC3     H 8949   1.335   1.569  16.439 -1.4376 -0.5620 -1.9371
  600TMC3    H1 8950   1.410   1.985  16.391 -0.8211  0.0152 -1.1385
  600TMC3    H2 8951   1.038   1.855  16.567 -0.8791  0.2349 -2.9747
  600TMC3    C7 8952   1.191   2.065  16.530 -1.1380  0.5170  0.0317
  600TMC3    C8 8953   1.099   1.588  16.529  0.6435 -0.1652 -0.2628
  600TMC3    O1 8954   1.081   2.081  16.587  0.1903 -0.4401  0.4126
  600TMC3    O2 8955   1.165   1.497  16.576 -0.0612 -0.0108  0.2897
  601MPD2     C 8956   4.069   0.872  17.570  0.6776 -0.1621 -0.3711
  601MPD2    C1 8957   4.004   0.769  17.511  0.4664  0.0301  0.3233
  601MPD2    C2 8958   4.039   0.640  17.548 -0.2295  0.3845 -0.2168
  601MPD2    C3 8959   4.125   0.617  17.650 -0.2601  0.1572  0.1367
  601MPD2    C4 8960   4.190   0.723  17.700  0.1043  0.4101  0.1369
  601MPD2    C5 8961   4.162   0.850  17.666 -0.2739 -0.1532 -0.9310
  601MPD2     H 8962   3.982   0.559  17.503 -0.1876 -1.6408  3.3865
  601MPD2    H1 8963   4.248   0.708   0.043 -1.1854  0.0001  0.9103
  601MPD2    H2 8964   4.061   0.973  17.532  2.3099 -0.6225 -1.9599
  601MPD2    H3 8965   4.222   0.925  17.717  1.6135 -0.4973 -2.6263
  601MPD2     N 8966   4.146   0.495  17.718  0.1568  0.4467 -0.3753
  601MPD2    H5 8967   4.203   0.493   0.055  0.0308  1.1028 -0.2743
  601MPD2    N1 8968   3.909   0.787  17.409  0.7801  0.7009 -0.2718
  601MPD2    H7 8969   3.874   0.711  17.351 -2.8403  1.4572  0.9386
  602TMC3    C1 8970   3.731   0.895  17.301 -0.2665 -0.3808  0.4746
  602TMC3    C2 8971   3.613   0.953  17.350  0.1707  0.2423 -0.2071
  602TMC3    C3 8972   3.493   0.898  17.311  0.0646 -0.5757 -0.3281
  602TMC3    C4 8973   3.725   0.779  17.217  1.2953  0.5215 -0.0197
  602TMC3    C5 8974   3.597   0.722  17.190  0.2642 -0.3180 -0.0856
  602TMC3    C6 8975   3.484   0.779  17.239  0.6116 -0.3787 -0.5516
  602TMC3     C 8976   3.857   0.909  17.382 -0.1546  0.2934 -0.6116
  602TMC3     O 8977   3.864   1.017  17.443  0.2567  0.2333  0.5170
  602TMC3     H 8978   3.615   1.037  17.419 -1.8716 -0.3761  0.6006
  602TMC3    H1 8979   3.806   0.728  17.166 -0.1147 -0.1644 -1.5548
  602TMC3    H2 8980   3.386   0.750  17.204  0.4374 -0.5038  0.0405
  602TMC3    C7 8981   3.584   0.597  17.109 -0.2570 -0.3105 -0.4144
  602TMC3    C8 8982   3.375   0.942  17.386  0.8812  0.0228  0.6998
  602TMC3    O1 8983   3.636   0.600  16.997 -0.4150 -0.4091  0.3936
  602TMC3    O2 8984   3.366   1.053  17.436  0.2824  0.1417 -0.0232
  603TMC3    C1 8985   1.501   0.998  11.247 -0.8164 -0.3375  0.8510
  603TMC3    C2 8986   1.555   0.994  11.371  0.3531 -0.1757  0.2380
  603TMC3    C3 8987   1.684   1.036  11.393  0.1736  0.6492  0.4179
  603TMC3    C4 8988   1.579   1.025  11.137  0.0876  0.2425 -0.3303
  603TMC3    C5 8989   1.703   1.073  11.162  0.0976  0.2638 -0.0968
  603TMC3    C6 8990   1.770   1.076  11.288 -0.0123  0.5103 -0.5504
  603TMC3     C 8991   1.359   0.969  11.222  0.4506  0.2679 -1.3274
  603TMC3     O 8992   1.321   0.962  11.107  0.3877  0.5728  0.1595
  603TMC3     H 8993   1.499   0.956  11.455 -1.7564  0.0486 -1.0609
  603TMC3    H1 8994   1.520   1.030  11.046 -1.7172 -1.2583  0.7659
  603TMC3    H2 8995   1.863   1.129  11.306 -0.6928  1.0150  1.4064
  603TMC3    C7 8996   1.771   1.145  11.064 -0.2775  0.5636 -0.4744
  603TMC3    C8 8997   1.736   1.019  11.525 -0.9991  0.1062 -0.7410
  603TMC3    O1 8998   1.863   1.218  11.092 -0.4179 -0.5542  0.1116
  603TMC3    O2 8999   1.670   0.942  11.596  0.0825  0.0995  0.2269
  604MPD2     C 9000   2.274   3.379  16.351  0.3368  0.3370  1.0082
  604MPD2    C1 9001   2.207   3.470  16.271 -0.0810  0.2048  0.1393
  604MPD2    C2 9002   2.237   3.484  16.141 -0.7102 -0.1787 -0.0218
  604MPD2    C3 9003   2.331   3.398  16.081  0.6028 -0.3038 -0.2531
  604MPD2    C4 9004   2.376   3.288  16.151  0.1298 -0.1327 -0.2053
  604MPD2    C5 9005   2.344   3.284  16.285  0.2503  0.3332  0.3286
  604MPD2     H 9006   2.190   3.561  16.082 -0.9278 -0.1169  0.2340
  604MPD2    H1 9007   2.434   3.209  16.106 -2.2332 -2.1980  0.3899
  604MPD2    H2 9008   2.249   3.363  16.455 -0.9808  0.7236  0.7416
  604MPD2    H3 9009   2.389   3.208  16.347 -0.5126 -1.2941 -1.1226
  604MPD2     N 9010   2.374   3.431  15.949 -0.4755 -0.2397 -0.7145
  604MPD2    H5 9011   2.353   3.518  15.899 -1.8463 -0.5457 -0.6687
  604MPD2    N1 9012   2.117   3.552  16.341 -0.3585  0.2523 -0.3078
  604MPD2    H7 9013   2.105   3.538  16.440 -0.5751  1.5108 -0.1596
  605TMC3    C1 9014   1.962   3.742  16.370  0.5441  0.0284 -0.8275
  605TMC3    C2 9015   2.009   3.770  16.498 -0.2574  0.2894  0.3913
  605TMC3    C3 9016   1.956   3.879  16.565  1.0523 -0.4110  0.7123
  605TMC3    C4 9017   1.859   3.813  16.322 -0.0398  0.1823  0.0642
  605TMC3    C5 9018   1.792   3.909  16.402 -0.2622 -0.0103 -0.1647
  605TMC3    C6 9019   1.843   3.941  16.516 -0.0608 -0.1541  0.9883
  605TMC3     C 9020   2.037   3.649  16.283 -0.1509  0.2586  0.0849
  605TMC3     O 9021   2.010   3.666  16.168 -0.2696 -0.4948  0.5281
  605TMC3     H 9022   2.091   3.715  16.542 -0.3665  0.2959  0.5997
  605TMC3    H1 9023   1.811   3.783  16.230 -0.2673 -0.1767  0.2988
  605TMC3    H2 9024   1.809   4.034  16.560  1.1447  0.4382  0.6807
  605TMC3    C7 9025   1.698   4.002  16.338 -0.4803  1.2413  0.3985
  605TMC3    C8 9026   2.044   3.956  16.653  0.0527 -0.6046 -0.0284
  605TMC3    O1 9027   1.659   4.093  16.415  0.3923 -0.4995 -0.2587
  605TMC3    O2 9028   2.003   4.060  16.704  0.2255 -1.0061 -0.3800
  606TMC3    C1 9029   4.000   3.100   0.045  0.1481  0.4002  0.8103
  606TMC3    C2 9030   3.973   3.083   0.180  0.3949 -0.5673 -0.9706
  606TMC3    C3 9031   3.923   2.957   0.219  0.6163  0.6422  0.3132
  606TMC3    C4 9032   3.978   3.002  17.702 -0.1349 -0.7401 -0.4550
  606TMC3    C5 9033   3.924   2.885   0.000 -0.5574  0.0942  0.2282
  606TMC3    C6 9034   3.900   2.859   0.133 -0.6530  0.2737  0.1751
  606TMC3     C 9035   3.989   3.233  17.734 -0.3194  0.2752 -0.3241
  606TMC3     O 9036   3.915   3.308   0.052 -0.8032  0.3062 -0.7309
  606TMC3     H 9037   3.984   3.159   0.256  0.6599 -1.4398 -0.1431
  606TMC3    H1 9038   3.997   3.019  17.596 -0.9943  0.6932 -0.3767
  606TMC3    H2 9039   3.873   2.759   0.166  0.3068 -0.4218 -1.1415
  606TMC3    C7 9040   3.917   2.772  17.656 -0.0803  1.1639 -0.0683
  606TMC3    C8 9041   3.920   2.917   0.359  0.1327 -0.0934  0.3743
  606TMC3    O1 9042   3.979   2.797  17.554 -0.5830 -0.0797  0.6212
  606TMC3    O2 9043   4.026   2.925   0.421  0.0634  0.5931  0.9338
  607MPD2     C 9044   0.937   0.886  12.105  0.4497 -0.2155 -0.3206
  607MPD2    C1 9045   1.023   0.965  12.174  0.0063  0.2312  0.0335
  607MPD2    C2 9046   1.043   0.943  12.307  0.8365 -0.0500  0.1721
  607MPD2    C3 9047   0.984   0.837  12.365 -0.1869  0.2011  1.3956
  607MPD2    C4 9048   0.894   0.761  12.301  0.8102  0.1144  0.2287
  607MPD2    C5 9049   0.872   0.786  12.167  0.3398 -0.2015  0.0032
  607MPD2     H 9050   1.115   1.006  12.358 -1.2493  2.5139 -0.0728
  607MPD2    H1 9051   0.840   0.685  12.356 -0.7760  0.4929 -0.8227
  607MPD2    H2 9052   0.934   0.907  11.998  1.0737  1.0162 -0.1004
  607MPD2    H3 9053   0.801   0.724  12.114 -0.9085  1.5716 -0.4244
  607MPD2     N 9054   1.022   0.818  12.501 -0.1772  0.3459  0.2193
  607MPD2    H5 9055   1.077   0.889  12.550  1.0221 -1.0421  0.9002
  607MPD2    N1 9056   1.104   1.065  12.107  0.3535  0.0345  0.1150
  607MPD2    H7 9057   1.156   1.129  12.166  0.8825 -0.9741  0.7519
  608TMC3    C1 9058   1.250   1.159  11.946 -0.0403  0.0056  0.7541
  608TMC3    C2 9059   1.335   1.190  12.049 -0.5672 -0.3194  0.3568
  608TMC3    C3 9060   1.466   1.221  12.029  0.4426 -0.3804  0.2814
  608TMC3    C4 9061   1.306   1.155  11.818  0.2730 -0.1200 -0.4872
  608TMC3    C5 9062   1.439   1.183  11.803  0.2256  0.2913 -0.4164
  608TMC3    C6 9063   1.527   1.213  11.909  0.2400 -0.2002  0.1380
  608TMC3     C 9064   1.134   1.079  11.970 -0.1279  0.0596 -0.5315
  608TMC3     O 9065   1.075   1.032  11.874 -0.1232  0.2296 -0.2865
  608TMC3     H 9066   1.293   1.211  12.147  0.6030  0.0729  0.7824
  608TMC3    H1 9067   1.253   1.107  11.737  0.9329 -3.5314  1.0923
  608TMC3    H2 9068   1.634   1.221  11.894 -0.1023 -0.5178 -2.3609
  608TMC3    C7 9069   1.477   1.223  11.672 -0.0164 -0.4173  0.5946
  608TMC3    C8 9070   1.556   1.250  12.142 -0.1016 -0.0018  0.0199
  608TMC3    O1 9071   1.416   1.181  11.577  0.2968 -0.4677  0.6462
  608TMC3    O2 9072   1.646   1.330  12.131 -0.1592 -0.1664  0.0261
  609TMC3    C1 9073   4.234   3.625   9.079  0.4481  0.0383 -0.0069
  609TMC3    C2 9074   4.214   3.538   8.977 -0.0301 -0.7637 -0.2470
  609TMC3    C3 9075   4.318   3.521   8.892 -0.2582  0.0439 -0.2939
  609TMC3    C4 9076   4.349   3.696   9.095  0.1932  0.3049 -0.3284
  609TMC3    C5 9077   4.458   3.662   9.022  0.1672 -0.0139  0.0942
  609TMC3    C6 9078   4.444   3.576   8.913  0.1323  0.1200  0.3839
  609TMC3     C 9079   4.116   3.661   9.150 -0.8262 -0.2162  0.4122
  609TMC3     O 9080   4.063   3.573   9.218 -1.0984  0.6261  0.6920
  609TMC3     H 9081   4.130   3.470   8.977 -2.8883  2.7680  0.8227
  609TMC3    H1 9082   4.358   3.769   9.175  1.7572 -1.3788  1.0259
  609TMC3    H2 9083   4.527   3.548   8.848 -0.0905  0.0049  0.1502
  609TMC3    C7 9084   4.583   3.705   9.074  0.0973 -0.1312 -0.1140
  609TMC3    C8 9085   4.300   3.451   8.763 -0.3323 -0.7591  0.0771
  609TMC3    O1 9086   4.579   3.735   9.193 -0.6364 -0.2615 -0.0857
  609TMC3    O2 9087   4.394   3.392   8.711 -0.3185  0.0746  0.0757
  610TMC3    C1 9088   1.869   0.898  13.246 -0.4079  0.6166  0.6560
  610TMC3    C2 9089   1.952   0.979  13.173  0.4435 -0.3145  0.3707
  610TMC3    C3 9090   2.020   0.926  13.066  0.7631 -0.1963  0.3148
  610TMC3    C4 9091   1.879   0.762  13.242 -0.2916  0.3691  0.1170
  610TMC3    C5 9092   1.950   0.715  13.139 -0.3208  0.3655  0.1188
  610TMC3    C6 9093   2.018   0.797  13.042 -0.6307 -0.4564 -0.6233
  610TMC3     C 9094   1.746   0.950  13.305 -0.2143  0.1128  0.1536
  610TMC3     O 9095   1.677   0.871  13.366  0.3412 -0.0613  0.4898
  610TMC3     H 9096   1.954   1.087  13.186  3.9981 -0.0394 -2.2839
  610TMC3    H1 9097   1.828   0.707  13.320 -0.1356 -1.1310 -0.8396
  610TMC3    H2 9098   2.080   0.744  12.971  0.1943  0.8848 -0.9022
  610TMC3    C7 9099   1.955   0.575  13.120  0.4270 -0.8337 -0.1181
  610TMC3    C8 9100   2.011   1.013  12.949 -0.0267  0.1315 -0.6605
  610TMC3    O1 9101   1.957   0.510  13.225  0.2768  0.2171  0.3270
  610TMC3    O2 9102   1.930   1.109  12.952 -1.0251 -0.6292  0.1584
  611MPD2     C 9103   1.389   0.197  10.278  0.0920 -0.1079 -0.2295
  611MPD2    C1 9104   1.386   0.295  10.370  0.1672  0.5013 -0.4705
  611MPD2    C2 9105   1.484   0.397  10.365  0.2178 -0.2142 -0.1447
  611MPD2    C3 9106   1.576   0.408  10.261 -0.0735  0.4705 -0.7440
  611MPD2    C4 9107   1.576   0.295  10.178 -0.2054 -0.3905 -0.4395
  611MPD2    C5 9108   1.489   0.193  10.188  0.1901 -0.2190  0.0590
  611MPD2     H 9109   1.472   0.478  10.436  2.4116 -0.5065  0.5311
  611MPD2    H1 9110   1.651   0.289  10.101  0.3601  0.8244  0.0078
  611MPD2    H2 9111   1.311   0.122  10.270 -1.6224  1.7521 -0.7652
  611MPD2    H3 9112   1.496   0.109  10.119 -0.0751 -0.7901  0.7303
  611MPD2     N 9113   1.664   0.515  10.236  0.0086  0.3299 -0.2091
  611MPD2    H5 9114   1.703   0.514  10.142  1.0868  2.9694  0.1996
  611MPD2    N1 9115   1.278   0.294  10.462 -0.5073 -0.1368  0.3176
  611MPD2    H7 9116   1.226   0.207  10.456 -1.6989  0.5051  1.2200
  612TMC3    C1 9117   1.754   0.736  10.240  0.4841  0.4734  0.5410
  612TMC3    C2 9118   1.756   0.856  10.304 -0.1193 -0.5836 -0.4667
  612TMC3    C3 9119   1.837   0.958  10.263  0.0925  0.3186 -0.1249
  612TMC3    C4 9120   1.831   0.720  10.130  0.9186 -0.8409  0.1162
  612TMC3    C5 9121   1.909   0.829  10.092  0.0657  0.4153 -0.1882
  612TMC3    C6 9122   1.915   0.944  10.155 -0.9424  0.7404 -0.9342
  612TMC3     C 9123   1.694   0.624  10.317  0.1979 -0.3155 -0.1445
  612TMC3     O 9124   1.681   0.630  10.436  0.4629 -0.2467 -0.2112
  612TMC3     H 9125   1.699   0.861  10.396  1.4109  1.2458  0.3813
  612TMC3    H1 9126   1.839   0.621  10.087 -1.5437 -0.7503 -0.5448
  612TMC3    H2 9127   1.997   1.010  10.131 -0.0504  0.4188  1.2882
  612TMC3    C7 9128   2.010   0.812   9.987 -0.3428 -0.4941  0.9329
  612TMC3    C8 9129   1.869   1.068  10.349  0.3601  0.0146  0.1056
  612TMC3    O1 9130   2.085   0.903   9.963  0.6100  0.0758  0.3670
  612TMC3    O2 9131   1.950   1.155  10.320 -0.1963  0.1909  0.7477
  613MPD2     C 9132   4.299   2.683  16.839  0.9074 -0.2752  0.6850
  613MPD2    C1 9133   4.420   2.647  16.789 -0.0923  0.6652  0.3056
  613MPD2    C2 9134   4.449   2.520  16.730 -0.2772  0.2976  0.4009
  613MPD2    C3 9135   4.344   2.434  16.719 -0.3617  0.5599  0.6047
  613MPD2    C4 9136   4.225   2.467  16.777  0.3479  0.1125  0.8730
  613MPD2    C5 9137   4.196   2.593  16.831  0.7046 -0.3622  0.0081
  613MPD2     H 9138   4.546   2.490  16.690  0.1012  0.5336  1.1333
  613MPD2    H1 9139   4.140   2.400  16.778  1.1969 -0.9788 -0.3990
  613MPD2    H2 9140   4.282   2.779  16.887  0.8578  0.8621 -1.5977
  613MPD2    H3 9141   4.098   2.610  16.876  0.0583  0.0773 -1.5756
  613MPD2     N 9142   4.349   2.304  16.652 -0.3903 -0.1795 -0.1134
  613MPD2    H5 9143   4.260   2.257  16.651 -1.0051  0.9467  1.3820
  613MPD2    N1 9144   4.530   2.731  16.794 -0.3596 -0.1704  0.4792
  613MPD2    H7 9145   4.615   2.688  16.758  0.6381  0.7075  1.7913
  614TMC3    C1 9146   4.643   2.941  16.769 -0.3355  0.2283 -0.1989
  614TMC3    C2 9147   0.002   2.849  16.726  0.0477 -0.2526 -0.1861
  614TMC3    C3 9148   0.049   2.851  16.598  0.2161 -0.4128  0.2205
  614TMC3    C4 9149   4.607   3.042  16.686 -0.0440  0.1853  0.3054
  614TMC3    C5 9150   4.647   3.034  16.554 -0.2585  0.1265  0.4462
  614TMC3    C6 9151   4.735   2.942  16.513  0.0099 -0.1193  0.6098
  614TMC3     C 9152   4.529   2.865  16.823  0.7015  1.1428  0.0397
  614TMC3     O 9153   4.437   2.942  16.860  0.3584 -0.1003  0.9471
  614TMC3     H 9154   0.038   2.779  16.800  0.2240 -0.4884 -0.4917
  614TMC3    H1 9155   4.529   3.106  16.726  0.5635  2.1046 -1.6031
  614TMC3    H2 9156   0.040   2.941  16.413 -1.0265 -1.2652  0.1764
  614TMC3    C7 9157   4.575   3.130  16.470  0.7910  0.1843 -0.0192
  614TMC3    C8 9158   0.060   2.716  16.545  0.0232 -0.0806 -0.2696
  614TMC3    O1 9159   4.533   3.236  16.516  0.4147 -0.2946 -0.0617
  614TMC3    O2 9160   0.024   2.631  16.632  0.0731 -0.3057  0.6295
  615MPD2     C 9161   4.528   4.266  16.243  0.3074 -0.0105 -0.2489
  615MPD2    C1 9162   4.390   4.291  16.244  0.0256  0.2675 -0.4712
  615MPD2    C2 9163   4.316   4.221  16.148 -0.2957 -0.0694  0.1918
  615MPD2    C3 9164   4.375   4.130  16.059  0.0219  0.2496 -0.6324
  615MPD2    C4 9165   4.509   4.114  16.061 -0.3567 -0.0484  0.1877
  615MPD2    C5 9166   4.580   4.184  16.148  0.8560 -0.1430 -0.3695
  615MPD2     H 9167   4.210   4.242  16.153  0.1384  2.0239  0.4271
  615MPD2    H1 9168   4.557   4.044  15.994  0.2442 -0.2763  0.8660
  615MPD2    H2 9169   4.591   4.317  16.316 -0.3959  0.5780 -0.0549
  615MPD2    H3 9170   4.688   4.177  16.149  0.7936 -1.0109  1.0200
  615MPD2     N 9171   4.291   4.061  15.962 -0.6998 -0.9698  0.5188
  615MPD2    H5 9172   4.330   4.010  15.884  2.5236  0.1907  1.4081
  615MPD2    N1 9173   4.321   4.387  16.315  0.1620  0.5638  0.5125
  615MPD2    H7 9174   4.220   4.398  16.306  0.4277  2.5940  0.0103
  616TMC3    C1 9175   4.284   4.595  16.423  0.1976  0.8123  0.4838
  616TMC3    C2 9176   4.345   4.718  16.443 -0.0937 -0.0301 -0.1293
  616TMC3    C3 9177   4.272   0.074  16.507 -0.1070 -0.3989  0.6143
  616TMC3    C4 9178   4.163   4.558  16.476  0.1182 -0.0786 -0.4706
  616TMC3    C5 9179   4.105   4.659  16.558  0.5575  0.5400  0.3048
  616TMC3    C6 9180   4.152   0.049  16.566  0.3444 -0.1822 -0.7802
  616TMC3     C 9181   4.382   4.490  16.385 -0.2417 -0.8822 -1.5174
  616TMC3     O 9182   4.499   4.525  16.371  0.2789  0.0817  0.3050
  616TMC3     H 9183   4.439   4.735  16.390  1.6483 -0.4264  2.8663
  616TMC3    H1 9184   4.119   4.459  16.477 -0.0220  0.0327  2.8817
  616TMC3    H2 9185   4.118   0.136  16.621 -1.9088 -1.1878 -0.5802
  616TMC3    C7 9186   3.973   4.630  16.601 -0.6314  0.2796 -0.6649
  616TMC3    C8 9187   4.332   0.197  16.536  0.5662  0.5610 -0.9632
  616TMC3    O1 9188   3.927   4.519  16.582 -0.2519  0.1201 -0.1575
  616TMC3    O2 9189   4.271   0.288  16.597  0.1027  0.1255  0.3729
  617MPD2     C 9190   2.505   2.885  14.612  0.2406  0.4830  0.2024
  617MPD2    C1 9191   2.510   2.815  14.497  0.1494  1.0343  0.6100
  617MPD2    C2 9192   2.409   2.721  14.469 -0.1148  0.5791 -0.4092
  617MPD2    C3 9193   2.303   2.705  14.554 -0.5605  0.2015  0.5207
  617MPD2    C4 9194   2.309   2.756  14.680 -0.1261  0.2022 -0.5336
  617MPD2    C5 9195   2.410   2.854  14.707  0.3618  0.1555 -0.0671
  617MPD2     H 9196   2.418   2.676  14.370 -1.9581  0.1267 -0.3637
  617MPD2    H1 9197   2.226   2.738  14.747 -0.3065  0.8822 -0.5746
  617MPD2    H2 9198   2.577   2.961  14.642  0.7203 -1.4326  4.0358
  617MPD2    H3 9199   2.413   2.910  14.800  1.5987  0.2967 -0.1900
  617MPD2     N 9200   2.183   2.642  14.511  0.5559 -1.0205  0.2656
  617MPD2    H5 9201   2.115   2.632  14.586 -1.8885 -0.1548 -1.8454
  617MPD2    N1 9202   2.605   2.834  14.400 -0.1508 -0.5836  0.1311
  617MPD2    H7 9203   2.593   2.791  14.309  0.9415  3.3249 -1.8319
  618TMC3    C1 9204   2.796   2.883  14.276 -0.3054 -0.5919  0.5879
  618TMC3    C2 9205   2.932   2.853  14.289  0.1013 -0.0166  0.9230
  618TMC3    C3 9206   2.991   2.772  14.195  0.5389  0.0693  0.3797
  618TMC3    C4 9207   2.721   2.834  14.170 -0.2327  0.4629 -0.0274
  618TMC3    C5 9208   2.793   2.763  14.071  0.3002 -0.5292 -0.2354
  618TMC3    C6 9209   2.924   2.734  14.084  0.4571 -0.1330  0.5856
  618TMC3     C 9210   2.726   2.894  14.407 -0.0577  0.1008 -0.0441
  618TMC3     O 9211   2.780   2.945  14.507 -0.2627  0.3541 -0.3553
  618TMC3     H 9212   2.987   2.888  14.375  0.1128  0.8754  0.5569
  618TMC3    H1 9213   2.616   2.850  14.149  0.0644  0.1684 -1.8121
  618TMC3    H2 9214   2.964   2.672  14.005 -1.1659 -1.7307  1.0259
  618TMC3    C7 9215   2.714   2.668  13.985  0.8327  0.6286  0.3379
  618TMC3    C8 9216   3.104   2.688  14.236 -0.0362 -0.1726  1.0586
  618TMC3    O1 9217   2.614   2.617  14.035  0.0787 -0.3945  0.4332
  618TMC3    O2 9218   3.134   2.703  14.350 -0.2708 -0.0955  0.0055
  619MPD2     C 9219   3.423   3.720  13.043 -0.5107 -0.2794  0.0506
  619MPD2    C1 9220   3.328   3.781  13.112 -0.5955 -0.2196  0.6826
  619MPD2    C2 9221   3.266   3.717  13.224  0.2704 -1.2971  0.7519
  619MPD2    C3 9222   3.315   3.595  13.269  0.1494 -0.0625 -0.1217
  619MPD2    C4 9223   3.414   3.542  13.204 -0.6589  0.5414  0.4013
  619MPD2    C5 9224   3.466   3.599  13.092 -0.2087  1.0141 -0.3492
  619MPD2     H 9225   3.202   3.781  13.284 -0.4014  0.4081 -1.7669
  619MPD2    H1 9226   3.477   3.464  13.247 -0.1563  0.1571 -1.0220
  619MPD2    H2 9227   3.491   3.762  12.969  0.9780 -0.2766  1.4212
  619MPD2    H3 9228   3.552   3.552  13.047 -1.6510 -0.8301 -1.2012
  619MPD2     N 9229   3.283   3.541  13.395 -0.9784 -0.0497  0.2322
  619MPD2    H5 9230   3.329   3.455  13.423 -0.9909  0.1003  0.7120
  619MPD2    N1 9231   3.280   3.909  13.074 -0.0930  0.2996  0.1578
  619MPD2    H7 9232   3.211   3.951  13.135  0.4952  1.2354  0.1901
  620TMC3    C1 9233   3.230   4.099  12.951 -1.0293  0.7853 -0.1945
  620TMC3    C2 9234   3.100   4.082  12.987 -0.3199 -0.5390  1.0469
  620TMC3    C3 9235   3.015   4.181  12.962 -0.0653 -0.1925  0.0741
  620TMC3    C4 9236   3.268   4.203  12.877 -0.1594 -0.6921 -0.3482
  620TMC3    C5 9237   3.177   4.304  12.843  0.1085  0.0383  0.4172
  620TMC3    C6 9238   3.046   4.284  12.870 -0.0320  0.0565  0.7478
  620TMC3     C 9239   3.314   3.978  12.961  0.7184 -0.5231 -1.3208
  620TMC3     O 9240   3.412   3.967  12.887 -0.4621 -0.5621 -0.0655
  620TMC3     H 9241   3.069   3.996  13.045 -0.6629 -1.4019 -0.4187
  620TMC3    H1 9242   3.372   4.210  12.846 -1.6440 -0.4958 -5.1640
  620TMC3    H2 9243   2.973   4.361  12.889  0.4914  0.7445 -0.0542
  620TMC3    C7 9244   3.214   4.430  12.896  0.4755  0.4837  0.5042
  620TMC3    C8 9245   2.885   4.188  13.029 -0.4772  0.0790 -0.2140
  620TMC3    O1 9246   3.141   4.525  12.871 -0.4971 -1.0576  0.1365
  620TMC3    O2 9247   2.793   4.249  12.984 -0.0524  0.5895 -0.1329
  621MPD2     C 9248   3.856   3.737   9.975  0.0347 -0.0753  0.2069
  621MPD2    C1 9249   3.906   3.620   9.916  0.2637 -0.3079 -0.8311
  621MPD2    C2 9250   3.974   3.625   9.797 -0.4119 -0.0369  0.2856
  621MPD2    C3 9251   4.009   3.747   9.740 -0.2384  0.1299 -1.0730
  621MPD2    C4 9252   3.974   3.860   9.810  0.0899 -0.3737  0.1069
  621MPD2    C5 9253   3.888   3.855   9.916  0.4783  0.6541  0.4328
  621MPD2     H 9254   4.006   3.527   9.762 -1.2625 -0.6516  1.2124
  621MPD2    H1 9255   3.999   3.960   9.776 -0.8902  0.0358  0.5837
  621MPD2    H2 9256   3.784   3.736  10.056 -2.1831  2.6070 -1.7549
  621MPD2    H3 9257   3.848   3.946   9.958 -1.7116 -0.4619  0.7694
  621MPD2     N 9258   4.086   3.745   9.623  0.4931 -0.6798  0.0200
  621MPD2    H5 9259   4.097   3.654   9.581 -0.0140  1.1135 -3.9469
  621MPD2    N1 9260   3.877   3.486   9.956 -0.7357 -0.4252 -1.0809
  621MPD2    H7 9261   3.922   3.411   9.906  0.9988  0.1898 -0.4758
  622TMC3    C1 9262   3.759   3.307  10.065  1.5627  0.2699  0.1258
  622TMC3    C2 9263   3.667   3.265  10.156 -0.1149  0.0646  0.7481
  622TMC3    C3 9264   3.638   3.131  10.153  0.6408  0.7480 -0.5280
  622TMC3    C4 9265   3.826   3.223   9.977 -0.7731  0.4707  0.7476
  622TMC3    C5 9266   3.786   3.092   9.969 -0.5008  0.2640  0.5485
  622TMC3    C6 9267   3.697   3.042  10.062  0.5950 -0.3475  0.2341
  622TMC3     C 9268   3.789   3.450  10.060  0.3458 -0.3704 -0.2939
  622TMC3     O 9269   3.713   3.529  10.117 -0.1526 -0.2721  0.3034
  622TMC3     H 9270   3.627   3.340  10.223 -1.0688 -0.0087  0.2651
  622TMC3    H1 9271   3.892   3.249   9.895 -0.4617  0.0590  0.8678
  622TMC3    H2 9272   3.671   2.937  10.059 -0.5404 -0.0121 -1.7614
  622TMC3    C7 9273   3.802   3.025   9.838  0.2137 -0.0377 -0.4932
  622TMC3    C8 9274   3.539   3.070  10.240  0.0280  0.0304  0.4299
  622TMC3    O1 9275   3.793   2.903   9.833  0.2351  0.2707 -0.4024
  622TMC3    O2 9276   3.527   2.948  10.242 -0.4970  0.3848  0.8583
  623MPD2     C 9277   2.593   4.117  15.718 -0.1109 -0.5645  0.1766
  623MPD2    C1 9278   2.520   4.034  15.795 -0.2927 -0.0547  0.2547
  623MPD2    C2 9279   2.581   3.984  15.909  0.1208  0.2248  0.1749
  623MPD2    C3 9280   2.709   4.030  15.943 -0.1044  0.4499 -0.1876
  623MPD2    C4 9281   2.783   4.106  15.857  0.2580 -0.3544  0.0700
  623MPD2    C5 9282   2.723   4.153  15.746  0.3985 -0.5087 -0.5315
  623MPD2     H 9283   2.533   3.908  15.969 -1.3595  0.2950 -0.9291
  623MPD2    H1 9284   2.884   4.142  15.872 -0.0027  0.9219 -1.3055
  623MPD2    H2 9285   2.548   4.162  15.631  3.5579  0.5937 -1.1129
  623MPD2    H3 9286   2.786   4.205  15.674 -1.3511 -0.0303 -1.7436
  623MPD2     N 9287   2.767   3.980  16.064  0.2240  0.0626 -0.0581
  623MPD2    H5 9288   2.705   3.924  16.123 -1.9474  1.3041 -1.1653
  623MPD2    N1 9289   2.383   3.994  15.771 -0.7827 -0.0399  0.2032
  623MPD2    H7 9290   2.327   3.956  15.847  0.5949  0.6279  1.5405
  624TMC3    C1 9291   3.016   4.008  16.460  1.0704  0.9411  0.4492
  624TMC3    C2 9292   2.915   3.961  16.537  0.1342 -0.1770 -0.6394
  624TMC3    C3 9293   2.805   3.902  16.470 -0.6613  0.2218 -0.0968
  624TMC3    C4 9294   3.011   4.012  16.326  0.3959  0.3044  0.4215
  624TMC3    C5 9295   2.898   3.971  16.267  0.0151  0.3237 -0.3841
  624TMC3    C6 9296   2.797   3.911  16.330 -0.0175 -0.5894  0.7259
  624TMC3     C 9297   3.142   4.037  16.529  0.1370  0.1731 -0.1928
  624TMC3     O 9298   3.214   4.126  16.488  0.4907  0.4225 -0.9186
  624TMC3     H 9299   2.916   3.981  16.643  0.8892  1.7757 -1.0093
  624TMC3    H1 9300   3.091   4.060  16.270  0.0956  0.7656  0.3921
  624TMC3    H2 9301   2.703   3.887  16.282  0.7261 -2.1596  0.0581
  624TMC3    C7 9302   2.886   4.010  16.124 -0.2361 -0.4883 -0.0476
  624TMC3    C8 9303   2.682   3.882  16.537 -0.2066  0.2244  0.0140
  624TMC3    O1 9304   2.980   4.064  16.067 -0.1252  0.5088  0.4785
  624TMC3    O2 9305   2.626   3.778  16.518 -1.1356  0.3515 -0.0592
  625MPD2     C 9306   3.793   0.672   0.470 -0.3834  0.2339  0.1200
  625MPD2    C1 9307   3.799   0.796   0.535  0.6446  0.0594  0.0704
  625MPD2    C2 9308   3.908   0.850   0.603 -0.5043 -0.1177 -1.0907
  625MPD2    C3 9309   4.023   0.775   0.611 -0.5884  0.3760 -0.1187
  625MPD2    C4 9310   4.010   0.644   0.569  0.7530  0.3418  0.1321
  625MPD2    C5 9311   3.906   0.596   0.497  0.1018  0.2165  0.4142
  625MPD2     H 9312   3.906   0.955   0.628 -2.2426  0.0098 -1.7269
  625MPD2    H1 9313   4.092   0.573   0.573 -0.0897 -0.6344 -0.0318
  625MPD2    H2 9314   3.706   0.638   0.415  0.6772 -2.2253 -0.0754
  625MPD2    H3 9315   3.913   0.493   0.462  3.9307  0.9413 -0.9288
  625MPD2     N 9316   4.140   0.830   0.661  0.6065 -0.6016 -0.0114
  625MPD2    H5 9317   4.132   0.927   0.690 -0.8700 -1.0528  1.1039
  625MPD2    N1 9318   3.697   0.888   0.528 -0.4898 -0.3524 -0.1755
  625MPD2    H7 9319   3.711   0.968   0.590 -0.9794 -0.7540  0.4504
  626TMC3    C1 9320   3.508   1.009   0.461 -0.2852 -0.4868  0.4536
  626TMC3    C2 9321   3.408   1.020   0.374  0.1711  0.0238  0.8014
  626TMC3    C3 9322   3.344   1.144   0.367 -0.1946  0.2641  0.1285
  626TMC3    C4 9323   3.549   1.112   0.549  0.2685 -0.1351  0.6133
  626TMC3    C5 9324   3.474   1.228   0.543  0.5202 -0.3428 -0.0212
  626TMC3    C6 9325   3.366   1.250   0.457 -0.0400  0.7211 -0.2228
  626TMC3     C 9326   3.585   0.887   0.444  0.5309  0.1856  0.6995
  626TMC3     O 9327   3.569   0.815   0.347 -0.2352  0.1150  0.0143
  626TMC3     H 9328   3.363   0.940   0.317  0.4892  1.4043 -1.4085
  626TMC3    H1 9329   3.636   1.099   0.612 -0.4182 -1.6564  1.2653
  626TMC3    H2 9330   3.309   1.342   0.458  1.7986  1.8506  0.3784
  626TMC3    C7 9331   3.502   1.318   0.651 -0.6391 -0.1183  0.1251
  626TMC3    C8 9332   3.267   1.161   0.245  0.4221 -0.1506 -0.3132
  626TMC3    O1 9333   3.597   1.287   0.721 -0.0771  0.3701 -0.6565
  626TMC3    O2 9334   3.292   1.089   0.153  0.1004 -0.6532  0.2294
  627MPD2     C 9335   1.347   1.198  14.565  0.0051 -0.0766 -0.6585
  627MPD2    C1 9336   1.452   1.118  14.624 -0.3975  0.3887  0.2738
  627MPD2    C2 9337   1.433   0.983  14.658  0.3459  0.5808 -0.3600
  627MPD2    C3 9338   1.313   0.924  14.620 -0.2489 -0.1900  0.0799
  627MPD2    C4 9339   1.214   1.004  14.556  0.7528 -0.1398  0.8666
  627MPD2    C5 9340   1.229   1.136  14.538 -0.0943  0.3194  0.0948
  627MPD2     H 9341   1.500   0.916  14.709  1.4094  1.5274 -0.5076
  627MPD2    H1 9342   1.119   0.963  14.527  1.3420 -0.7119 -0.2310
  627MPD2    H2 9343   1.344   1.306  14.558 -0.7412 -0.0073  0.6085
  627MPD2    H3 9344   1.144   1.193  14.504 -0.2334 -0.0379 -0.1465
  627MPD2     N 9345   1.294   0.789  14.655  0.4770 -0.0436 -0.1642
  627MPD2    H5 9346   1.373   0.747  14.703  2.4436  0.3568 -3.0191
  627MPD2    N1 9347   1.576   1.183  14.654  0.1721  0.4901  0.1407
  627MPD2    H7 9348   1.642   1.124  14.703  0.0707 -0.3964 -0.7978
  628TMC3    C1 9349   1.739   1.344  14.676 -0.2796  0.2926  0.3607
  628TMC3    C2 9350   1.821   1.254  14.740  0.6677 -0.1781 -0.4720
  628TMC3    C3 9351   1.932   1.303  14.801  0.7109 -0.7320  0.2152
  628TMC3    C4 9352   1.776   1.477  14.657 -0.3548  0.4169 -0.3664
  628TMC3    C5 9353   1.892   1.517  14.704  0.4179 -0.4917  0.1746
  628TMC3    C6 9354   1.971   1.431  14.776  0.9326  0.4465 -0.5186
  628TMC3     C 9355   1.613   1.317  14.625 -0.5688  0.5974  1.0532
  628TMC3     O 9356   1.549   1.398  14.564  0.2201 -0.2705  0.3875
  628TMC3     H 9357   1.800   1.148  14.743  1.0977 -0.2907 -1.3480
  628TMC3    H1 9358   1.710   1.554  14.620  0.0109  1.4187  1.0832
  628TMC3    H2 9359   2.057   1.473  14.827  0.6975  0.5623 -0.2170
  628TMC3    C7 9360   1.977   1.583  14.605 -0.0555  0.6899  0.1369
  628TMC3    C8 9361   2.032   1.212  14.856  0.1025  0.1099  0.1274
  628TMC3    O1 9362   2.085   1.525  14.602 -0.4548  0.2348 -0.3061
  628TMC3    O2 9363   2.152   1.241  14.833  0.7518 -0.3423 -0.4495
  629MPD2     C 9364   0.017   0.490  16.589 -0.1605 -0.3162 -0.4371
  629MPD2    C1 9365   0.053   0.368  16.538 -0.1550  0.2641 -0.0519
  629MPD2    C2 9366   4.689   0.282  16.502 -0.2080 -0.2255 -0.1723
  629MPD2    C3 9367   4.560   0.304  16.548 -0.5088 -0.7460 -0.2815
  629MPD2    C4 9368   4.526   0.431  16.597  0.0020  0.5779 -0.1676
  629MPD2    C5 9369   4.626   0.523  16.611 -0.5257  0.6767  0.2239
  629MPD2     H 9370   4.715   0.186  16.459  1.0797  0.5319 -1.0915
  629MPD2    H1 9371   4.426   0.465  16.620  0.1539  2.0617 -1.6930
  629MPD2    H2 9372   0.095   0.564  16.605  0.0159 -0.3073 -1.3294
  629MPD2    H3 9373   4.601   0.623  16.644 -0.6042  0.7967 -0.1992
  629MPD2     N 9374   4.469   0.200  16.509  0.2537 -0.0113 -0.4383
  629MPD2    H5 9375   4.513   0.122  16.463  0.1532  1.8526 -3.7002
  629MPD2    N1 9376   0.184   0.339  16.512 -0.5354  0.7257  0.5617
  629MPD2    H7 9377   0.255   0.410  16.522  0.6691 -0.6354  1.6456
  630TMC3    C1 9378   0.381   0.205  16.490 -0.4756  0.3012 -0.0579
  630TMC3    C2 9379   0.459   0.312  16.441 -0.6058  0.4295 -0.1756
  630TMC3    C3 9380   0.594   0.287  16.435  0.5918 -0.1661 -0.5729
  630TMC3    C4 9381   0.438   0.095  16.548 -0.5262 -0.2199 -0.3468
  630TMC3    C5 9382   0.571   0.081  16.541 -0.0666  0.1433  0.1426
  630TMC3    C6 9383   0.657   0.181  16.490  0.4607  0.1145  0.1297
  630TMC3     C 9384   0.235   0.212  16.512  0.4169 -0.4132  0.1851
  630TMC3     O 9385   0.179   0.106  16.536  0.4915 -0.3878 -0.5403
  630TMC3     H 9386   0.410   0.392  16.386 -1.0647 -0.1070 -0.5524
  630TMC3    H1 9387   0.378   0.010  16.578 -2.3077  0.7356 -1.1970
  630TMC3    H2 9388   0.763   0.169  16.472  0.3199  2.2560 -2.0988
  630TMC3    C7 9389   0.623   4.709  16.613 -0.2539  0.3211 -0.3775
  630TMC3    C8 9390   0.682   0.393  16.387  0.0214 -0.2572 -0.2712
  630TMC3    O1 9391   0.560   4.610  16.637  0.3017  0.6851 -0.1025
  630TMC3    O2 9392   0.806   0.377  16.390  0.5658  0.2555 -0.9276
  631MPD2     C 9393   3.305   3.932  15.579 -0.2082  0.0426  0.3580
  631MPD2    C1 9394   3.397   3.994  15.490  0.1326  0.3003  1.1853
  631MPD2    C2 9395   3.535   3.979  15.507  0.2502 -0.6651 -0.0581
  631MPD2    C3 9396   3.585   3.913  15.616  0.6886 -1.2116 -0.2877
  631MPD2    C4 9397   3.496   3.848  15.693 -0.0815 -0.0089 -0.4688
  631MPD2    C5 9398   3.362   3.846  15.667  0.0357 -0.3412 -0.2157
  631MPD2     H 9399   3.605   4.031  15.443  0.8485  2.5750  3.2231
  631MPD2    H1 9400   3.542   3.781  15.764  0.0254  0.6784  0.1133
  631MPD2    H2 9401   3.198   3.945  15.568 -0.2337 -0.1860  0.3385
  631MPD2    H3 9402   3.304   3.764  15.707 -1.4556  0.8085 -0.0240
  631MPD2     N 9403   3.725   3.907  15.631 -0.3210 -0.4796 -0.4995
  631MPD2    H5 9404   3.778   3.960  15.561 -2.1284  1.4872 -0.3998
  631MPD2    N1 9405   3.334   4.072  15.390 -0.1064 -0.2570 -0.2426
  631MPD2    H7 9406   3.233   4.078  15.383 -0.2507  1.3065  3.3017
  632TMC3    C1 9407   3.324   4.240  15.232  0.8279  0.0298 -0.2961
  632TMC3    C2 9408   3.213   4.297  15.282 -0.0016 -0.8531 -0.1286
  632TMC3    C3 9409   3.143   4.392  15.210  0.6977  0.3059 -0.0751
  632TMC3    C4 9410   3.373   4.282  15.103  0.6458 -0.1960  0.1967
  632TMC3    C5 9411   3.294   4.371  15.036 -0.0883 -0.6510 -0.3630
  632TMC3    C6 9412   3.175   4.421  15.084 -0.5136 -0.2848  0.1069
  632TMC3     C 9413   3.397   4.131  15.293  0.5784  0.1168  0.2550
  632TMC3     O 9414   3.508   4.116  15.238  0.2050 -0.1812 -0.9015
  632TMC3     H 9415   3.195   4.277  15.387 -1.6917  0.0387 -0.2469
  632TMC3    H1 9416   3.466   4.244  15.062  1.0309  0.6592  0.2604
  632TMC3    H2 9417   3.115   4.484  15.019 -1.6154 -0.5256  0.8983
  632TMC3    C7 9418   3.333   4.437  14.912  0.4421 -0.7618 -0.4110
  632TMC3    C8 9419   3.024   4.454  15.271 -0.2031 -0.9122 -0.1840
  632TMC3    O1 9420   3.256   4.447  14.819  0.3780 -0.2389 -0.2756
  632TMC3    O2 9421   2.982   4.404  15.375  0.2612  0.1891  0.0185
  633MPD2     C 9422   3.070   2.761  17.543  0.2085  0.0701 -0.1245
  633MPD2    C1 9423   3.060   2.648  17.460 -0.3986 -0.2010 -0.3146
  633MPD2    C2 9424   3.076   2.521  17.518  0.0487  0.9795  1.1928
  633MPD2    C3 9425   3.110   2.505  17.653  0.1748  1.0770 -0.2409
  633MPD2    C4 9426   3.117   2.616  17.728  0.0165  0.1330  0.2070
  633MPD2    C5 9427   3.091   2.735  17.670 -0.2525  0.0915 -0.1199
  633MPD2     H 9428   3.065   2.436  17.452 -0.5744  3.6229 -2.1776
  633MPD2    H1 9429   3.137   2.615   0.087 -1.9654  2.3359  0.5844
  633MPD2    H2 9430   3.050   2.861  17.505  1.0966  0.4738  0.4570
  633MPD2    H3 9431   3.105   2.815  17.742  2.0228 -0.7044  0.3132
  633MPD2     N 9432   3.145   2.379  17.705  0.0843  0.2773 -0.3128
  633MPD2    H5 9433   3.211   2.375   0.035 -1.8171  0.1237  1.3092
  633MPD2    N1 9434   3.037   2.650  17.320  0.4084  0.3992  0.3222
  633MPD2    H7 9435   3.045   2.561  17.271 -1.9681  0.3157  0.0635
  634TMC3    C1 9436   2.978   2.749  17.114 -0.0825  0.1895 -0.0327
  634TMC3    C2 9437   3.034   2.638  17.049  0.3240  0.1409  0.3984
  634TMC3    C3 9438   3.025   2.636  16.913 -0.6795 -0.1765  0.4338
  634TMC3    C4 9439   2.929   2.856  17.044 -0.2936 -0.6411 -0.0711
  634TMC3    C5 9440   2.916   2.842  16.905 -0.3412 -0.1391  0.2210
  634TMC3    C6 9441   2.980   2.741  16.840 -0.2918 -0.1854  0.6711
  634TMC3     C 9442   2.994   2.766  17.254 -0.2120  0.3634  0.2191
  634TMC3     O 9443   2.959   2.871  17.301  0.1555  0.3050  0.0717
  634TMC3     H 9444   3.078   2.552  17.098  2.7882 -0.6038 -3.1564
  634TMC3    H1 9445   2.899   2.945  17.097  2.7702  0.2184  0.1827
  634TMC3    H2 9446   2.981   2.738  16.732 -0.1233  1.1673  0.6315
  634TMC3    C7 9447   2.868   2.951  16.826  0.3511  0.2377 -0.6324
  634TMC3    C8 9448   3.047   2.509  16.850  0.1584 -0.1378  1.0934
  634TMC3    O1 9449   2.881   2.935  16.705  0.5826  0.3311  0.2521
  634TMC3    O2 9450   3.005   2.411  16.911  0.3972  0.2246  0.0290
  635TMC3    C1 9451   3.749   4.151  17.438 -0.5131  0.3191  0.4163
  635TMC3    C2 9452   3.830   4.105  17.336 -0.3856 -0.3565  0.0659
  635TMC3    C3 9453   3.792   4.017  17.242 -0.1973 -0.4678  1.1953
  635TMC3    C4 9454   3.619   4.106  17.446  0.0950 -0.3071 -0.1011
  635TMC3    C5 9455   3.578   4.016  17.346  0.4105  0.2416  0.7403
  635TMC3    C6 9456   3.667   3.967  17.248 -0.3770  0.0176  0.1406
  635TMC3     C 9457   3.783   4.251  17.528 -0.4514  0.3682 -0.2333
  635TMC3     O 9458   3.877   4.318  17.490  0.2273  0.5502 -0.4797
  635TMC3     H 9459   3.929   4.150  17.335 -0.4476 -0.2492 -1.3166
  635TMC3    H1 9460   3.551   4.147  17.521 -0.5017 -0.9899 -0.2724
  635TMC3    H2 9461   3.627   3.897  17.175 -2.0768  0.2978  0.7863
  635TMC3    C7 9462   3.450   3.957  17.343 -0.1118  0.0122 -0.0396
  635TMC3    C8 9463   3.893   3.950  17.162 -0.1699 -0.3719 -0.2511
  635TMC3    O1 9464   3.416   3.911  17.239  0.2341 -0.2731  0.2479
  635TMC3    O2 9465   3.987   4.023  17.122  0.5423 -0.2457  0.1006
  636MPD2     C 9466   4.001   2.580  15.969 -1.1649 -0.4512  0.0417
  636MPD2    C1 9467   4.050   2.617  16.094  0.4365  0.1057 -0.5984
  636MPD2    C2 9468   4.114   2.523  16.175  0.1959 -0.4146  0.5420
  636MPD2    C3 9469   4.132   2.390  16.131  1.1457  0.3532 -0.4948
  636MPD2    C4 9470   4.094   2.360  15.999  0.5021  0.2460 -0.5340
  636MPD2    C5 9471   4.020   2.453  15.926 -0.4787  0.2676 -0.2099
  636MPD2     H 9472   4.143   2.552  16.276  0.0896 -3.0736  1.3633
  636MPD2    H1 9473   4.108   2.261  15.956  0.7479  0.2372 -0.4318
  636MPD2    H2 9474   3.947   2.647  15.903  0.5296 -0.4166 -1.3208
  636MPD2    H3 9475   3.995   2.432  15.822  0.3558  0.6546 -0.4903
  636MPD2     N 9476   4.203   2.306  16.215  0.3018 -0.2974 -0.0314
  636MPD2    H5 9477   4.241   2.336  16.305 -1.6377  0.1321  0.6568
  636MPD2    N1 9478   4.034   2.748  16.140 -0.5216  0.5458  0.4140
  636MPD2    H7 9479   4.070   2.765  16.233 -1.2686  0.3030  0.7510
  637TMC3    C1 9480   4.345   2.140  16.284 -0.7371  0.4963  1.1795
  637TMC3    C2 9481   4.322   2.162  16.419  0.0906  0.4340 -0.0528
  637TMC3    C3 9482   4.429   2.142  16.504 -0.1065  0.5475  0.5246
  637TMC3    C4 9483   4.456   2.093  16.233 -0.1896  0.1436  0.2890
  637TMC3    C5 9484   4.565   2.077  16.317 -0.4025  0.2127  0.4629
  637TMC3    C6 9485   4.547   2.098  16.449  0.1986  0.0420 -0.0902
  637TMC3     C 9486   4.249   2.183  16.183  0.9685  0.4865  0.4589
  637TMC3     O 9487   4.245   2.112  16.080  0.7197  0.0029 -0.0869
  637TMC3     H 9488   4.231   2.205  16.460 -0.7732  0.5709 -2.1371
  637TMC3    H1 9489   4.478   2.097  16.127 -0.9970  0.0887  0.1181
  637TMC3    H2 9490   4.635   2.086  16.511  0.3798  0.7707 -0.2062
  637TMC3    C7 9491   4.695   2.126  16.277  0.4061 -0.1284 -0.7348
  637TMC3    C8 9492   4.461   2.256  16.586  0.2723  0.1271  0.0846
  637TMC3    O1 9493   0.000   2.094  16.169 -0.0759  0.6759  0.4132
  637TMC3    O2 9494   4.581   2.292  16.594  0.1806  0.1772 -0.0010
  638MPD2     C 9495   4.165   1.765  15.079  0.0702  0.2241 -0.5350
  638MPD2    C1 9496   4.181   1.640  15.031  0.1761 -0.3088 -0.1723
  638MPD2    C2 9497   4.155   1.530  15.110 -0.1504 -0.0836 -0.4943
  638MPD2    C3 9498   4.099   1.543  15.240 -0.1789  0.4516 -0.2792
  638MPD2    C4 9499   4.071   1.669  15.283 -0.4052 -0.6604 -0.6225
  638MPD2    C5 9500   4.105   1.773  15.202  0.0625  0.3423  0.3393
  638MPD2     H 9501   4.164   1.430  15.068 -0.3290 -0.8535  1.3120
  638MPD2    H1 9502   4.020   1.683  15.378  1.0639 -2.5918  0.4595
  638MPD2    H2 9503   4.191   1.854  15.021 -3.5362  1.3628 -0.3816
  638MPD2    H3 9504   4.091   1.869  15.251 -2.3012 -0.0557  0.4226
  638MPD2     N 9505   4.056   1.430  15.310 -0.1533 -0.2289  0.2545
  638MPD2    H5 9506   3.983   1.445  15.379  2.0020  0.4805  2.3696
  638MPD2    N1 9507   4.227   1.629  14.900 -0.4525 -0.7016 -0.7351
  638MPD2    H7 9508   4.274   1.711  14.861  0.4172 -0.2946  1.1552
  639TMC3    C1 9509   4.015   1.213  15.368  0.4567 -0.1353 -0.9353
  639TMC3    C2 9510   3.896   1.175  15.313  0.5044 -0.6135 -0.5099
  639TMC3    C3 9511   3.849   1.051  15.334  0.3170  0.4509  0.3416
  639TMC3    C4 9512   4.089   1.111  15.419  0.5368 -0.0216 -0.3334
  639TMC3    C5 9513   4.052   0.980  15.444  1.0381 -0.4822 -0.3049
  639TMC3    C6 9514   3.927   0.947  15.392 -0.3339  0.2936 -0.1921
  639TMC3     C 9515   4.096   1.300  15.292  0.1367 -0.5613 -0.3985
  639TMC3     O 9516   4.201   1.265  15.240 -0.5088 -0.2485  0.0400
  639TMC3     H 9517   3.855   1.246  15.242  2.5730  1.3727  0.2682
  639TMC3    H1 9518   4.188   1.141  15.452  0.4379 -1.7433  1.4988
  639TMC3    H2 9519   3.916   0.842  15.368  0.1843  0.3583 -0.7021
  639TMC3    C7 9520   4.156   0.876  15.453 -0.1699 -0.3518  0.7757
  639TMC3    C8 9521   3.780   1.002  15.217 -0.4797 -0.4540  0.9998
  639TMC3    O1 9522   4.138   0.773  15.520  0.2375 -0.0764  0.2953
  639TMC3    O2 9523   3.814   1.042  15.108  0.1431  0.1370  0.1500
  640MPD2     C 9524   4.561   0.359   9.903 -0.7957 -0.1654 -0.5546
  640MPD2    C1 9525   4.473   0.313   9.804 -1.2394  0.2099  0.3699
  640MPD2    C2 9526   4.354   0.383   9.780  0.1768  0.0885  0.0112
  640MPD2    C3 9527   4.320   0.504   9.853  0.5013 -0.2273 -0.3638
  640MPD2    C4 9528   4.405   0.546   9.948 -0.6386  0.1437 -0.4865
  640MPD2    C5 9529   4.521   0.470   9.975 -0.1731  0.0447  0.4357
  640MPD2     H 9530   4.282   0.353   9.705  0.3264  0.6050 -0.3405
  640MPD2    H1 9531   4.392   0.641   9.999 -2.9453 -0.6064  0.2863
  640MPD2    H2 9532   4.651   0.312   9.942  0.3920  0.7966 -2.1206
  640MPD2    H3 9533   4.584   0.502  10.057 -1.0036 -0.7314  1.3795
  640MPD2     N 9534   4.199   0.572   9.846 -0.5222 -0.3031 -0.3400
  640MPD2    H5 9535   4.190   0.648   9.912 -3.1262 -0.0462 -0.9926
  640MPD2    N1 9536   4.507   0.194   9.737 -0.2109  0.1619 -0.0693
  640MPD2    H7 9537   4.580   0.136   9.776 -1.8997 -0.8714  1.5411
  641TMC3    C1 9538   4.541   0.060   9.549  0.3870 -0.1739  0.3411
  641TMC3    C2 9539   4.635   4.722   9.611 -0.8926  0.2117 -0.0537
  641TMC3    C3 9540   4.697   4.625   9.542  0.6326  0.0357 -0.5921
  641TMC3    C4 9541   4.502   0.037   9.420 -0.3365 -0.4173 -0.5543
  641TMC3    C5 9542   4.569   4.673   9.357 -0.1135 -0.3052 -0.5515
  641TMC3    C6 9543   4.670   4.607   9.412 -0.0311 -0.0400  1.1549
  641TMC3     C 9544   4.455   0.160   9.618  0.6753 -0.2598  0.1360
  641TMC3     O 9545   4.363   0.213   9.554 -0.3712 -0.4696  0.2527
  641TMC3     H 9546   4.668   0.012   9.711  2.3545  0.1290 -1.1098
  641TMC3    H1 9547   4.428   0.098   9.369 -1.3889  1.3104  3.0225
  641TMC3    H2 9548   4.727   4.539   9.349 -0.3835 -0.0300  0.8238
  641TMC3    C7 9549   4.531   4.648   9.220 -0.8893  0.0174 -0.4683
  641TMC3    C8 9550   0.052   4.527   9.606 -0.2884 -0.6525 -1.3395
  641TMC3    O1 9551   4.613   4.590   9.146  0.1197  0.2154  0.1074
  641TMC3    O2 9552   0.123   4.461   9.530  0.5746  0.0387 -0.0131
  642TMC3    C1 9553   1.223   2.087  12.307  0.6551 -0.0488  0.2193
  642TMC3    C2 9554   1.281   2.181  12.387  0.1159  0.2609 -0.2198
  642TMC3    C3 9555   1.361   2.131  12.492  0.0226 -0.0033 -1.1220
  642TMC3    C4 9556   1.223   1.953  12.340  0.3180 -0.4938  0.9980
  642TMC3    C5 9557   1.299   1.912  12.443 -1.0635  0.2827  0.1938
  642TMC3    C6 9558   1.373   1.996  12.520  0.2561 -0.0480  0.3201
  642TMC3     C 9559   1.097   2.121  12.244 -0.4364 -0.3090  0.6007
  642TMC3     O 9560   1.096   2.234  12.190  0.5840 -0.1219 -0.3062
  642TMC3     H 9561   1.267   2.285  12.362 -1.4753 -0.5927 -2.9235
  642TMC3    H1 9562   1.180   1.879  12.274  0.0821  0.2912  0.2637
  642TMC3    H2 9563   1.436   1.972  12.604  1.6093  0.3133 -0.6022
  642TMC3    C7 9564   1.238   1.793  12.502  0.3582 -0.0867 -0.5600
  642TMC3    C8 9565   1.421   2.216  12.592 -0.9866 -0.2328 -0.1675
  642TMC3    O1 9566   1.130   1.762  12.461 -0.4304  0.4777  0.1821
  642TMC3    O2 9567   1.467   2.166  12.692  0.1968 -0.0596 -0.1322
  643TMC3    C1 9568   0.665   0.693   0.351 -0.5396  0.9793  0.8330
  643TMC3    C2 9569   0.605   0.737   0.472 -0.5526 -0.2854 -0.4957
  643TMC3    C3 9570   0.483   0.681   0.513 -0.3119 -0.6421 -0.1776
  643TMC3    C4 9571   0.607   0.606   0.272 -0.3108 -0.2981 -0.0427
  643TMC3    C5 9572   0.488   0.552   0.314 -0.6038 -0.2422  0.2326
  643TMC3    C6 9573   0.427   0.586   0.431  0.2741 -0.2889  0.5018
  643TMC3     C 9574   0.789   0.760   0.313  0.1505 -0.0105 -0.2636
  643TMC3     O 9575   0.855   0.805   0.410 -0.2008  0.2681  0.1998
  643TMC3     H 9576   0.652   0.804   0.543 -2.5063 -0.6789  1.1722
  643TMC3    H1 9577   0.647   0.593   0.172  1.0963 -0.1611  0.5061
  643TMC3    H2 9578   0.332   0.544   0.463  0.8355  0.0795  2.6474
  643TMC3    C7 9579   0.390   0.494   0.221 -0.0826  0.0768 -0.1718
  643TMC3    C8 9580   0.391   0.779   0.558 -0.3019  0.5516 -0.1309
  643TMC3    O1 9581   0.293   0.438   0.272 -1.3258  0.1886  0.6613
  643TMC3    O2 9582   0.281   0.753   0.602 -0.6476  0.0218 -0.3367
  644MPD2     C 9583   4.021   0.752   9.465  0.0169 -0.0929 -0.5788
  644MPD2    C1 9584   4.143   0.781   9.513  0.8646 -0.2607 -0.1506
  644MPD2    C2 9585   4.171   0.905   9.558 -0.2274  0.5637 -0.3744
  644MPD2    C3 9586   4.068   0.990   9.581  0.3323  0.5341 -0.0117
  644MPD2    C4 9587   3.944   0.965   9.529 -0.5221  0.3313 -0.5590
  644MPD2    C5 9588   3.926   0.847   9.465 -0.4993 -0.3486  0.5075
  644MPD2     H 9589   4.271   0.927   9.593 -0.7779  1.2478  0.7736
  644MPD2    H1 9590   3.858   1.032   9.529  0.1515  1.1903 -0.0558
  644MPD2    H2 9591   4.003   0.659   9.412 -0.2051 -0.7713  0.6874
  644MPD2    H3 9592   3.828   0.824   9.424 -1.1199 -0.0603  1.8165
  644MPD2     N 9593   4.096   1.102   9.668 -0.7883  0.1654  0.0351
  644MPD2    H5 9594   4.187   1.101   9.714 -0.1027 -0.7914 -1.3290
  644MPD2    N1 9595   4.237   0.680   9.503 -0.2779  0.1609  0.8258
  644MPD2    H7 9596   4.200   0.591   9.470  0.8147 -0.1232  0.3705
  645TMC3    C1 9597   4.049   1.297   9.798  0.0354 -0.4068 -0.2855
  645TMC3    C2 9598   4.147   1.262   9.884  0.7433  0.1220 -0.0887
  645TMC3    C3 9599   4.205   1.362   9.962  0.8818 -0.8916  0.7155
  645TMC3    C4 9600   4.000   1.427   9.789  0.2941  0.0367  0.3325
  645TMC3    C5 9601   4.039   1.514   9.887 -0.2845  0.7329 -0.4209
  645TMC3    C6 9602   4.143   1.488   9.971 -0.3492  0.3908  0.3583
  645TMC3     C 9603   4.010   1.204   9.694 -0.2825 -0.1517 -0.2702
  645TMC3     O 9604   3.924   1.246   9.617  0.1817  0.2233 -0.2513
  645TMC3     H 9605   4.190   1.163   9.879 -1.1903 -0.7491  0.8553
  645TMC3    H1 9606   3.932   1.457   9.710  2.2229  1.1639 -0.8745
  645TMC3    H2 9607   4.175   1.570  10.034  2.0293  1.1196 -1.7862
  645TMC3    C7 9608   4.028   1.649   9.856  0.2402  0.0238 -0.3834
  645TMC3    C8 9609   4.301   1.324  10.061 -0.5233 -0.8339 -0.6003
  645TMC3    O1 9610   4.129   1.720   9.855 -0.0135  0.2828  0.1330
  645TMC3    O2 9611   4.342   1.210  10.048 -0.3961 -0.2024  0.4896
  646MPD2     C 9612   4.323   0.313  14.773 -0.0564  0.2659  0.6684
  646MPD2    C1 9613   4.217   0.274  14.839  0.3009 -0.5318 -0.4360
  646MPD2    C2 9614   4.091   0.305  14.797  0.1725  0.5826 -0.2895
  646MPD2    C3 9615   4.071   0.380  14.681  0.1150  0.0859 -0.0540
  646MPD2    C4 9616   4.182   0.444  14.623 -0.1075 -0.2502  0.5379
  646MPD2    C5 9617   4.306   0.396  14.659  0.0409 -0.6955 -0.4156
  646MPD2     H 9618   4.001   0.264  14.841 -1.5921  1.2536 -3.2200
  646MPD2    H1 9619   4.187   0.513  14.539 -1.4713  0.0449  0.6868
  646MPD2    H2 9620   4.425   0.284  14.797 -0.1246  0.1437  0.8028
  646MPD2    H3 9621   4.388   0.431  14.598  1.1224 -0.6561  1.0776
  646MPD2     N 9622   3.939   0.422  14.643 -0.2449  0.0508  0.1134
  646MPD2    H5 9623   3.868   0.407  14.714 -0.9794  0.1202 -0.5989
  646MPD2    N1 9624   4.247   0.196  14.959 -0.3134 -0.3692  0.2898
  646MPD2    H7 9625   4.341   0.188  14.996 -0.1689 -0.1604 -0.0285
  647TMC3    C1 9626   4.208   0.057  15.145 -0.7217 -0.3184  0.1906
  647TMC3    C2 9627   4.153   4.676  15.192 -0.8361 -0.2158 -0.3721
  647TMC3    C3 9628   4.230   4.595  15.267 -0.0591  0.1448 -0.4488
  647TMC3    C4 9629   4.331   0.089  15.191 -0.2033  0.0317 -0.5003
  647TMC3    C5 9630   4.403   0.006  15.271  0.5333 -0.3850 -0.0326
  647TMC3    C6 9631   4.349   4.629  15.316  0.5675  0.0536 -0.0038
  647TMC3     C 9632   4.155   0.118  15.026 -0.2330 -0.2294  0.2198
  647TMC3     O 9633   4.045   0.083  14.991 -0.0696  0.8621 -0.3350
  647TMC3     H 9634   4.051   4.648  15.168 -1.8390  2.4703  0.7521
  647TMC3    H1 9635   4.385   0.172  15.146 -1.5096  1.2620  0.1993
  647TMC3    H2 9636   4.407   4.564  15.380 -4.4974 -0.8159  3.7137
  647TMC3    C7 9637   4.539   0.023  15.302  0.2218 -0.2066 -0.4210
  647TMC3    C8 9638   4.219   4.453  15.253 -0.1109 -0.9592 -0.4138
  647TMC3    O1 9639   4.602   4.656  15.296  0.4614 -0.0035  0.3084
  647TMC3    O2 9640   4.256   4.380  15.341 -0.8048  0.3641 -0.0406
  648TMC3    C1 9641   3.454   2.514  16.217 -0.5901  0.0039 -0.3660
  648TMC3    C2 9642   3.490   2.391  16.165 -0.4060  0.8195  0.1689
  648TMC3    C3 9643   3.427   2.335  16.061 -0.3921 -0.2890 -0.1286
  648TMC3    C4 9644   3.347   2.577  16.161  0.8055  0.3769  0.6420
  648TMC3    C5 9645   3.285   2.519  16.051  0.7467  0.5683  0.0930
  648TMC3    C6 9646   3.323   2.395  15.999  0.0298  0.4032 -0.8340
  648TMC3     C 9647   3.488   2.553  16.355  0.4452 -0.1842  0.5372
  648TMC3     O 9648   3.478   2.673  16.371  0.0703 -0.3419 -0.0152
  648TMC3     H 9649   3.567   2.336  16.217 -1.1190 -0.0725  0.2829
  648TMC3    H1 9650   3.325   2.681  16.181 -2.3011 -0.2968  0.7520
  648TMC3    H2 9651   3.258   2.352  15.923 -1.3586 -0.1477  0.6688
  648TMC3    C7 9652   3.222   2.605  15.953 -0.0747 -0.0580 -0.5698
  648TMC3    C8 9653   3.496   2.224  15.999 -0.3235 -0.1124 -0.2594
  648TMC3    O1 9654   3.238   2.578  15.837 -0.0259 -0.2080 -0.8534
  648TMC3    O2 9655   3.617   2.208  16.016  0.0100 -0.1693  0.0262
  649TMC3    C1 9656   2.083   3.292  13.256  0.1502 -0.0927  0.3799
  649TMC3    C2 9657   2.182   3.381  13.288  0.1293  0.2592  0.1116
  649TMC3    C3 9658   2.201   3.421  13.420  0.0397  0.3349  0.2026
  649TMC3    C4 9659   2.002   3.234  13.352  0.2988  0.4605  0.1096
  649TMC3    C5 9660   2.034   3.263  13.486  0.1241  0.0109 -0.8580
  649TMC3    C6 9661   2.134   3.353  13.519  0.4320 -0.2686 -0.6479
  649TMC3     C 9662   2.053   3.295  13.113 -0.2016  0.1966  0.5661
  649TMC3     O 9663   2.149   3.335  13.044  0.2150  0.2915 -0.1876
  649TMC3     H 9664   2.252   3.414  13.212 -1.5679  1.6322 -0.8614
  649TMC3    H1 9665   1.918   3.168  13.331  1.4762 -0.2200 -2.4555
  649TMC3    H2 9666   2.141   3.384  13.623  0.5577 -0.5224 -0.5816
  649TMC3    C7 9667   1.956   3.211  13.587 -0.1159 -0.0120 -0.9293
  649TMC3    C8 9668   2.292   3.530  13.463  0.3784  0.1298  0.3526
  649TMC3    O1 9669   1.845   3.190  13.544 -0.0380 -0.4891 -0.0190
  649TMC3    O2 9670   2.290   3.553  13.583  0.1050  0.3089 -0.3960
  650TMC3    C1 9671   0.294   0.871  13.314 -0.2220  0.4591 -0.2535
  650TMC3    C2 9672   0.384   0.976  13.339  0.3255  0.1804 -0.1281
  650TMC3    C3 9673   0.432   1.057  13.239  0.4012 -0.1241 -0.8622
  650TMC3    C4 9674   0.265   0.837  13.180  0.0091 -0.4996 -0.0241
  650TMC3    C5 9675   0.334   0.910  13.084  0.0777  0.6289  0.6257
  650TMC3    C6 9676   0.404   1.022  13.106 -0.4947  0.0346 -0.5831
  650TMC3     C 9677   0.218   0.818  13.427 -0.7331 -0.0989 -0.4740
  650TMC3     O 9678   0.187   0.904  13.512 -0.0745 -0.0743 -0.6549
  650TMC3     H 9679   0.392   1.013  13.440 -0.5175 -1.1618  0.4263
  650TMC3    H1 9680   0.204   0.750  13.159  1.3294 -1.8609  1.8484
  650TMC3    H2 9681   0.458   1.075  13.028  0.3058  1.2228  0.7711
  650TMC3    C7 9682   0.299   0.879  12.945 -0.0327 -0.0826 -0.5231
  650TMC3    C8 9683   0.494   1.182  13.287 -0.7745 -0.0355 -0.0310
  650TMC3    O1 9684   0.235   0.772  12.937 -0.0207 -0.1857 -0.1248
  650TMC3    O2 9685   0.512   1.192  13.408 -0.1123  0.1152  0.8242
  651MPD2     C 9686   3.743   2.631  11.005  0.1024 -0.3778  0.9269
  651MPD2    C1 9687   3.720   2.756  10.952  0.4238  0.2524  0.0546
  651MPD2    C2 9688   3.750   2.860  11.035 -0.4175 -0.2172  0.0339
  651MPD2    C3 9689   3.788   2.847  11.170  0.3422 -0.8159 -0.9797
  651MPD2    C4 9690   3.801   2.712  11.218  0.0107  0.1527  0.1990
  651MPD2    C5 9691   3.783   2.609  11.133 -0.0356 -0.3342  0.1304
  651MPD2     H 9692   3.756   2.958  10.990 -2.7411 -0.4912 -0.8826
  651MPD2    H1 9693   3.828   2.684  11.319 -1.7831  0.4084  0.7467
  651MPD2    H2 9694   3.718   2.542  10.949  1.6700 -0.8394  0.9639
  651MPD2    H3 9695   3.777   2.513  11.182  0.3042 -0.6542 -0.4521
  651MPD2     N 9696   3.820   2.965  11.239  0.8412 -0.9425  0.4326
  651MPD2    H5 9697   3.803   3.052  11.189  0.3523 -0.5645  1.2559
  651MPD2    N1 9698   3.681   2.772  10.816  0.0698  0.2208 -0.4149
  651MPD2    H7 9699   3.678   2.693  10.752 -1.3348  1.2418 -1.6218
  652TMC3    C1 9700   4.121   3.213  11.442  0.7298 -0.3379  0.8450
  652TMC3    C2 9701   4.045   3.101  11.465 -0.2266  0.1767  0.3199
  652TMC3    C3 9702   3.924   3.098  11.404  0.0366  0.8615 -0.0775
  652TMC3    C4 9703   4.072   3.324  11.374  0.1018 -0.5028 -0.5916
  652TMC3    C5 9704   3.954   3.319  11.315  0.2551 -0.2263  0.1659
  652TMC3    C6 9705   3.874   3.208  11.331  0.0742  0.2013 -0.6282
  652TMC3     C 9706   4.259   3.209  11.493 -0.0107  0.1490 -0.5237
  652TMC3     O 9707   4.301   3.102  11.521  0.4612  0.6617  0.6784
  652TMC3     H 9708   4.081   3.018  11.525 -1.0153 -0.0180  0.5346
  652TMC3    H1 9709   4.146   3.398  11.344  0.0103  0.3527  1.2818
  652TMC3    H2 9710   3.769   3.214  11.307 -0.3050  3.1115  1.8204
  652TMC3    C7 9711   3.941   3.396  11.192  0.1539  0.3350 -0.3974
  652TMC3    C8 9712   3.883   2.965  11.364  0.3383 -0.1273 -0.7923
  652TMC3    O1 9713   3.827   3.426  11.157  0.0383  0.1889  0.4665
  652TMC3    O2 9714   3.913   2.876  11.447 -0.2365 -0.2913 -0.4297
  653MPD2     C 9715   2.701   2.605  17.546 -0.6506  0.6241 -0.3015
  653MPD2    C1 9716   2.587   2.672  17.489  0.5948  0.3941 -0.5072
  653MPD2    C2 9717   2.510   2.607  17.399 -0.5783 -0.4947 -0.2016
  653MPD2    C3 9718   2.535   2.473  17.376  0.5907 -0.1520 -0.3408
  653MPD2    C4 9719   2.627   2.404  17.451  0.1409  0.3950 -1.1453
  653MPD2    C5 9720   2.716   2.473  17.530  0.2644  0.0073 -0.1141
  653MPD2     H 9721   2.428   2.650  17.342  1.1063 -0.9916 -2.9609
  653MPD2    H1 9722   2.648   2.298  17.444  0.1081  0.4472 -2.0720
  653MPD2    H2 9723   2.773   2.659  17.607 -1.1386  3.1348 -1.9789
  653MPD2    H3 9724   2.786   2.426  17.597 -0.5323 -0.2008  0.5689
  653MPD2     N 9725   2.450   2.417  17.280  0.1403  0.2099 -0.0398
  653MPD2    H5 9726   2.390   2.483  17.232  1.5670  0.4181 -1.5114
  653MPD2    N1 9727   2.572   2.811  17.507 -0.2297 -0.0763 -0.5748
  653MPD2    H7 9728   2.507   2.854  17.441 -0.8495 -1.7556 -1.0592
  654TMC3    C1 9729   2.404   2.270  17.093  0.0612  0.1378  0.2066
  654TMC3    C2 9730   2.375   2.386  17.024 -0.1208 -0.2126 -0.3124
  654TMC3    C3 9731   2.355   2.373  16.887 -0.2390 -0.3163 -0.4047
  654TMC3    C4 9732   2.423   2.148  17.037 -0.0741 -0.1804  0.0900
  654TMC3    C5 9733   2.409   2.143  16.904  0.6890 -0.2738  0.5926
  654TMC3    C6 9734   2.371   2.253  16.824  0.0150 -0.0620 -0.4268
  654TMC3     C 9735   2.453   2.286  17.234  0.7155 -0.0763 -0.0537
  654TMC3     O 9736   2.508   2.188  17.278  0.2120  0.2786  0.3183
  654TMC3     H 9737   2.365   2.481  17.074 -0.9829 -0.6423  0.3258
  654TMC3    H1 9738   2.470   2.071  17.096  0.1089  0.4034  0.7077
  654TMC3    H2 9739   2.350   2.236  16.719 -0.0319  2.3564 -0.8101
  654TMC3    C7 9740   2.424   2.016  16.836 -0.3700 -0.3868 -0.6604
  654TMC3    C8 9741   2.253   2.470  16.834 -0.2104  0.3698  0.1490
  654TMC3    O1 9742   2.410   2.018  16.713  0.4286  0.2443 -0.3369
  654TMC3    O2 9743   2.230   2.566  16.901 -0.2217 -0.4149 -0.1414
  655MPD2     C 9744   3.717   2.471  15.796 -0.1264 -0.0283 -0.0401
  655MPD2    C1 9745   3.762   2.589  15.734  0.0172 -0.9043 -0.5109
  655MPD2    C2 9746   3.843   2.576  15.622  0.1720  0.2118 -0.0693
  655MPD2    C3 9747   3.870   2.451  15.565  0.0610  0.5678 -0.1324
  655MPD2    C4 9748   3.834   2.339  15.633  0.3703 -0.0329  0.0021
  655MPD2    C5 9749   3.755   2.350  15.744  0.2515 -0.9291  0.3581
  655MPD2     H 9750   3.868   2.667  15.570 -1.9324 -0.5756 -2.4542
  655MPD2    H1 9751   3.864   2.242  15.596  0.7855 -0.1773  0.7173
  655MPD2    H2 9752   3.651   2.467  15.882 -0.2737  0.5969 -0.1270
  655MPD2    H3 9753   3.720   2.264  15.800 -0.0653 -1.3371 -0.4617
  655MPD2     N 9754   3.925   2.437  15.438 -0.7169  0.2837 -0.0043
  655MPD2    H5 9755   3.936   2.342  15.402 -1.2014  0.6776 -1.1883
  655MPD2    N1 9756   3.731   2.718  15.778  0.1391 -0.0338 -0.5464
  655MPD2    H7 9757   3.768   2.796  15.725  3.0158 -0.2425  1.1605
  656TMC3    C1 9758   3.612   2.881  15.888  0.5253  0.9311  0.1647
  656TMC3    C2 9759   3.587   2.931  16.015  0.6911  0.4394  0.1357
  656TMC3    C3 9760   3.488   3.029  16.026 -0.1953  1.5575 -0.7309
  656TMC3    C4 9761   3.547   2.915  15.775 -0.4214 -0.1760  0.1105
  656TMC3    C5 9762   3.465   3.024  15.789  0.3554  0.3470  0.5164
  656TMC3    C6 9763   3.438   3.077  15.910  0.6018  0.6212 -0.1313
  656TMC3     C 9764   3.637   2.741  15.878 -0.2363  0.1154 -0.0753
  656TMC3     O 9765   3.571   2.670  15.952 -0.3096  0.3441  0.2709
  656TMC3     H 9766   3.613   2.868  16.100 -1.1747 -1.0843 -0.4062
  656TMC3    H1 9767   3.543   2.860  15.681  3.8426  1.4495 -1.0523
  656TMC3    H2 9768   3.378   3.168  15.915 -1.6218 -0.8170 -0.7451
  656TMC3    C7 9769   3.400   3.081  15.670 -0.7693 -0.4460 -0.3784
  656TMC3    C8 9770   3.408   3.011  16.147 -0.8638 -0.5716  0.0528
  656TMC3    O1 9771   3.463   3.054  15.567  0.1921 -0.0264  0.5896
  656TMC3    O2 9772   3.436   2.920  16.225  0.2545  0.8534  0.3573
  657TMC3    C1 9773   2.709   1.742  15.157  0.7482 -0.0769 -0.1061
  657TMC3    C2 9774   2.755   1.716  15.284 -0.0711  0.5637 -0.2422
  657TMC3    C3 9775   2.719   1.808  15.383  0.2877  0.1406 -0.4488
  657TMC3    C4 9776   2.623   1.846  15.123 -0.4590 -0.8980 -0.3420
  657TMC3    C5 9777   2.598   1.934  15.221 -0.6261 -0.4204 -0.3499
  657TMC3    C6 9778   2.647   1.926  15.346  0.3469  1.1102 -0.0854
  657TMC3     C 9779   2.732   1.643  15.058 -0.0265  0.4025  0.2536
  657TMC3     O 9780   2.718   1.682  14.944  0.3282  0.3562  0.5942
  657TMC3     H 9781   2.828   1.641  15.313 -0.7607 -0.1980 -0.4745
  657TMC3    H1 9782   2.599   1.854  15.017 -2.1171  0.9792  0.1767
  657TMC3    H2 9783   2.623   2.003  15.420  0.3557 -0.6227  1.7092
  657TMC3    C7 9784   2.558   2.070  15.179 -0.1593 -0.1562 -0.0078
  657TMC3    C8 9785   2.790   1.813  15.507  0.0248  0.1122 -0.4994
  657TMC3    O1 9786   2.517   2.142  15.266  0.1010  0.3342 -0.2753
  657TMC3    O2 9787   2.792   1.923  15.559  0.3634  0.4001 -0.3805
  658MPD2     C 9788   4.448   2.777  14.966 -0.9044  0.7953  0.3070
  658MPD2    C1 9789   4.376   2.694  14.893  0.8154 -0.4269  0.7301
  658MPD2    C2 9790   4.414   2.661  14.766 -0.0321 -1.0341  0.3413
  658MPD2    C3 9791   4.514   2.729  14.711  0.5808  0.0125 -0.6766
  658MPD2    C4 9792   4.598   2.820  14.785 -0.2685 -0.6293  0.1098
  658MPD2    C5 9793   4.564   2.831  14.915 -0.0536  0.0371  0.3053
  658MPD2     H 9794   4.351   2.598  14.705 -0.0590 -0.8495  0.1770
  658MPD2    H1 9795   4.694   2.862  14.759 -0.9061 -0.2861 -1.6746
  658MPD2    H2 9796   4.419   2.786  15.070 -4.7894 -0.3379 -0.6855
  658MPD2    H3 9797   4.622   2.898  14.978  1.0781 -1.3314  0.7221
  658MPD2     N 9798   4.528   2.715  14.573  0.0370 -0.2399  0.2970
  658MPD2    H5 9799   4.463   2.653  14.526 -1.4430  0.4971  1.3692
  658MPD2    N1 9800   4.251   2.648  14.950 -0.2388 -0.4651 -0.9859
  658MPD2    H7 9801   4.218   2.693  15.036 -0.9204 -0.5529 -1.2042
  659TMC3    C1 9802   4.065   2.500  14.991 -0.0878 -0.0969 -0.7240
  659TMC3    C2 9803   4.085   2.518  15.127  0.8800 -0.3407  0.6329
  659TMC3    C3 9804   3.987   2.476  15.219  0.1155  0.5171 -0.0955
  659TMC3    C4 9805   3.948   2.439  14.950 -1.4994 -0.1526 -0.1304
  659TMC3    C5 9806   3.859   2.405  15.044  0.0296  0.0952 -0.4235
  659TMC3    C6 9807   3.876   2.405  15.181  0.2714 -0.6000 -0.0817
  659TMC3     C 9808   4.162   2.556  14.898 -1.2726  0.5054 -0.6430
  659TMC3     O 9809   4.176   2.502  14.791 -0.4355 -0.5935  0.2664
  659TMC3     H 9810   4.181   2.552  15.162  0.7542  0.9369 -0.2732
  659TMC3    H1 9811   3.940   2.412  14.845  0.8665  0.5843 -0.5010
  659TMC3    H2 9812   3.789   2.409  15.246  1.2185 -1.4743  1.2333
  659TMC3    C7 9813   3.720   2.367  15.009  0.0375 -0.2805  0.0499
  659TMC3    C8 9814   3.973   2.534  15.350 -0.0981  0.5450  0.6410
  659TMC3    O1 9815   3.670   2.289  15.088 -0.4665  0.0222 -0.3200
  659TMC3    O2 9816   3.982   2.654  15.366 -0.3544  0.0596 -0.5627
  660MPD2     C 9817   2.289   1.558  13.189 -0.1358  0.4811 -0.8916
  660MPD2    C1 9818   2.180   1.616  13.130 -0.3873 -0.0902 -0.8079
  660MPD2    C2 9819   2.058   1.600  13.200 -0.1450 -0.1359 -0.0730
  660MPD2    C3 9820   2.048   1.528  13.320  1.1174  0.0253 -0.8017
  660MPD2    C4 9821   2.158   1.462  13.367  0.8670 -0.3075  0.0645
  660MPD2    C5 9822   2.275   1.480  13.299  0.4312 -0.1106  0.3172
  660MPD2     H 9823   1.968   1.641  13.155  0.0143 -1.2556 -1.4298
  660MPD2    H1 9824   2.158   1.408  13.461  0.8949 -1.6955 -0.7257
  660MPD2    H2 9825   2.390   1.579  13.154 -0.2293  0.5616 -1.1141
  660MPD2    H3 9826   2.367   1.433  13.330  0.8036  1.4153  1.5213
  660MPD2     N 9827   1.928   1.501  13.388  0.0761 -0.3329 -0.1022
  660MPD2    H5 9828   1.936   1.440  13.469  1.0942 -0.2462 -0.1361
  660MPD2    N1 9829   2.195   1.680  13.006 -0.1608  0.1882 -0.1845
  660MPD2    H7 9830   2.285   1.670  12.961  0.0581  0.3531  0.2229
  661TMC3    C1 9831   2.132   1.841  12.830 -0.2094  1.2428  0.4552
  661TMC3    C2 9832   2.226   1.786  12.743 -0.1067 -0.1864 -1.0025
  661TMC3    C3 9833   2.212   1.808  12.608 -0.0825  0.0504 -0.4715
  661TMC3    C4 9834   2.041   1.926  12.780  0.6451 -0.0966  0.2429
  661TMC3    C5 9835   2.027   1.940  12.648 -1.0568  0.0979 -1.1577
  661TMC3    C6 9836   2.102   1.871  12.562  0.6607  0.9339 -0.6093
  661TMC3     C 9837   2.093   1.766  12.950 -0.2609  0.7161 -0.3226
  661TMC3     O 9838   1.981   1.795  12.985  0.0285 -0.1410 -0.8444
  661TMC3     H 9839   2.299   1.712  12.775 -0.9552 -0.1045  1.1226
  661TMC3    H1 9840   1.973   1.982  12.844 -0.8115 -1.0667 -0.4683
  661TMC3    H2 9841   2.083   1.878  12.456 -0.9282 -2.2562 -0.5264
  661TMC3    C7 9842   1.912   2.015  12.594 -0.0075 -0.0615 -0.2075
  661TMC3    C8 9843   2.308   1.744  12.515  0.2777 -0.4033  0.6776
  661TMC3    O1 9844   1.858   2.104  12.658  0.4557 -0.2497  0.5575
  661TMC3    O2 9845   2.270   1.729  12.401  0.3645 -0.0016 -0.8835
  662MPD2     C 9846   2.421   1.423  17.258 -0.2082 -0.5907 -0.1779
  662MPD2    C1 9847   2.310   1.346  17.266 -0.1901  0.2900  0.6122
  662MPD2    C2 9848   2.211   1.381  17.347 -0.2903 -0.0476  0.7210
  662MPD2    C3 9849   2.210   1.496  17.426 -0.5636 -0.1634  0.2296
  662MPD2    C4 9850   2.328   1.571  17.419  0.1947 -0.0027 -0.1629
  662MPD2    C5 9851   2.427   1.537  17.340 -0.0730 -0.3032 -0.7119
  662MPD2     H 9852   2.117   1.327  17.355 -1.1139  1.4517  1.1312
  662MPD2    H1 9853   2.337   1.654  17.489 -2.6548  0.0082  0.1990
  662MPD2    H2 9854   2.499   1.411  17.184  0.1162  3.9832 -0.6075
  662MPD2    H3 9855   2.520   1.593  17.346 -0.2890 -0.0297  0.0420
  662MPD2     N 9856   2.117   1.520  17.532 -0.0874 -0.0821  0.3412
  662MPD2    H5 9857   2.134   1.600  17.592  0.5809 -0.2326  0.3606
  662MPD2    N1 9858   2.289   1.230  17.196  0.4136 -0.2192  0.4806
  662MPD2    H7 9859   2.198   1.191  17.217  0.6340 -0.1800  1.5189
  663TMC3    C1 9860   2.289   1.064  17.047  0.0690 -0.6131 -0.6781
  663TMC3    C2 9861   2.157   1.077  17.077  0.0340 -0.1359 -0.3360
  663TMC3    C3 9862   2.090   0.965  17.088  0.0232  0.4473  0.1096
  663TMC3    C4 9863   2.356   0.948  17.042 -0.4340 -0.3990 -0.0208
  663TMC3    C5 9864   2.287   0.838  17.073  0.2143  0.1532 -0.2458
  663TMC3    C6 9865   2.156   0.847  17.113  0.9719 -0.1951 -0.1637
  663TMC3     C 9866   2.371   1.171  17.102  0.3132 -0.1583  0.1935
  663TMC3     O 9867   2.484   1.198  17.072  0.2872  0.1699 -0.6854
  663TMC3     H 9868   2.093   1.161  17.053 -1.2119 -1.9580 -3.3851
  663TMC3    H1 9869   2.459   0.943  17.010 -0.0904  2.1984  0.6647
  663TMC3    H2 9870   2.093   0.764  17.142 -0.2520  0.4960 -0.8202
  663TMC3    C7 9871   2.332   0.708  17.015  0.6787 -0.3347  0.2446
  663TMC3    C8 9872   1.980   0.965  17.182  0.9666 -0.3091  0.4876
  663TMC3    O1 9873   2.411   0.714  16.925  0.1073 -0.0250  0.1241
  663TMC3    O2 9874   1.869   0.960  17.130 -0.7241 -0.3304  0.5358
  664MPD2     C 9875   0.110   4.194  17.571  0.2474 -0.3477 -0.4156
  664MPD2    C1 9876   0.185   4.310  17.598  0.5252  0.4562 -0.2516
  664MPD2    C2 9877   0.216   4.348  17.728 -0.4625 -0.0647 -0.2242
  664MPD2    C3 9878   0.188   4.268   0.089 -0.7355  0.0321 -0.0247
  664MPD2    C4 9879   0.127   4.141   0.063  0.5796 -0.5228 -0.0781
  664MPD2    C5 9880   0.083   4.112  17.679 -0.0253 -0.2069  0.7714
  664MPD2     H 9881   0.276   4.439  17.737  0.1634 -0.5960  0.9329
  664MPD2    H1 9882   0.095   4.074   0.141 -1.7766  0.8651  0.1614
  664MPD2    H2 9883   0.091   4.160  17.470 -2.4776  2.3127 -0.7906
  664MPD2    H3 9884   0.019   4.027  17.659 -1.0328  0.7263 -0.0389
  664MPD2     N 9885   0.244   4.298   0.216  0.5642  0.2243  0.0261
  664MPD2    H5 9886   0.292   4.387   0.225  2.2254 -0.7103  0.2799
  664MPD2    N1 9887   0.263   4.382  17.509  0.1515  0.7169  0.0254
  664MPD2    H7 9888   0.316   4.461  17.545  0.1855 -0.1650  1.8807
  665TMC3    C1 9889   0.337   4.292   0.425 -0.4720  0.3207  0.0304
  665TMC3    C2 9890   0.327   4.251   0.557 -0.0793  0.4042  0.7477
  665TMC3    C3 9891   0.376   4.338   0.651  0.4679 -0.6745  0.6944
  665TMC3    C4 9892   0.405   4.410   0.393 -0.5673  0.1317  0.1655
  665TMC3    C5 9893   0.477   4.469   0.487 -0.4211  0.0318  0.2062
  665TMC3    C6 9894   0.458   4.439   0.616  0.9337  1.1822 -0.6337
  665TMC3     C 9895   0.260   4.221   0.330 -0.3750  0.0458 -0.3443
  665TMC3     O 9896   0.199   4.119   0.368 -0.0758  0.2531  0.2497
  665TMC3     H 9897   0.263   4.169   0.586 -1.1558  0.1354 -2.4474
  665TMC3    H1 9898   0.419   4.444   0.291  1.6723 -0.0650  0.4056
  665TMC3    H2 9899   0.504   4.497   0.696 -1.3950  0.4223  1.2517
  665TMC3    C7 9900   0.533   4.595   0.453  0.5747 -0.6676  0.3628
  665TMC3    C8 9901   0.332   4.337   0.787 -0.3085  0.1889  1.2555
  665TMC3    O1 9902   0.504   4.644   0.347  0.9794  0.6247  0.2289
  665TMC3    O2 9903   0.341   4.446   0.843  0.3360  0.4436  0.3180
  666TMC3    C1 9904   4.265   3.799   9.475 -0.0326  0.0772  0.0428
  666TMC3    C2 9905   4.333   3.690   9.521 -0.4265 -0.0457 -0.0520
  666TMC3    C3 9906   4.470   3.695   9.525  0.1282 -0.0599  1.3430
  666TMC3    C4 9907   4.336   3.897   9.420 -0.0043 -0.2617  0.2387
  666TMC3    C5 9908   4.477   3.894   9.416 -0.4545  0.1370 -0.7666
  666TMC3    C6 9909   4.542   3.794   9.469  0.4044 -0.4252  0.2098
  666TMC3     C 9910   4.154   3.847   9.563 -0.2903  0.2021  0.5987
  666TMC3     O 9911   4.150   3.969   9.593 -0.2295 -0.0541 -0.0119
  666TMC3     H 9912   4.283   3.618   9.586  1.8930 -0.1911  1.5605
  666TMC3    H1 9913   4.284   3.988   9.393 -1.0196 -0.7019  0.7218
  666TMC3    H2 9914   4.650   3.802   9.467  0.3831 -0.3824 -0.6081
  666TMC3    C7 9915   4.531   4.008   9.479 -0.3396 -0.0025 -0.3599
  666TMC3    C8 9916   4.530   3.635   9.646  0.2781  0.6966 -0.3557
  666TMC3    O1 9917   4.602   3.996   9.576 -0.7905 -0.0392 -0.1571
  666TMC3    O2 9918   4.473   3.543   9.702  0.4109 -0.3360  0.2213
  667MPD2     C 9919   0.705   3.810  15.038 -0.0374 -0.3802 -0.1978
  667MPD2    C1 9920   0.616   3.897  15.095  0.3460 -0.1792 -0.4625
  667MPD2    C2 9921   0.481   3.845  15.124  0.8490 -0.3661  0.1231
  667MPD2    C3 9922   0.441   3.721  15.079 -0.5529  0.0843  0.2996
  667MPD2    C4 9923   0.533   3.642  15.015 -0.3370 -0.6978  0.0946
  667MPD2    C5 9924   0.664   3.681  15.001 -0.4187 -1.2264  0.3708
  667MPD2     H 9925   0.411   3.911  15.173  0.0738 -0.5310 -0.7690
  667MPD2    H1 9926   0.507   3.542  14.984 -0.5991 -0.0700 -1.7140
  667MPD2    H2 9927   0.807   3.834  15.010 -0.0140  0.7842  0.9100
  667MPD2    H3 9928   0.730   3.607  14.958  0.6711  0.9280 -1.6980
  667MPD2     N 9929   0.317   3.657  15.111 -0.1907  0.3693  0.2302
  667MPD2    H5 9930   0.301   3.563  15.075 -2.0735  0.9945 -0.5400
  667MPD2    N1 9931   0.667   4.026  15.135  0.4580 -0.4678 -0.4903
  667MPD2    H7 9932   0.597   4.097  15.156  0.0308 -0.6556 -1.2545
  668TMC3    C1 9933   0.812   4.207  15.176 -0.3428  0.5735 -0.0788
  668TMC3    C2 9934   0.937   4.245  15.211  0.6807  0.8401  0.2476
  668TMC3    C3 9935   0.981   4.374  15.186  0.3061 -0.4523 -0.4200
  668TMC3    C4 9936   0.730   4.294  15.110 -0.0726 -0.2231 -0.3532
  668TMC3    C5 9937   0.769   4.423  15.090  0.4776 -0.0733 -0.5352
  668TMC3    C6 9938   0.895   4.464  15.119  0.2681  0.7127 -0.5278
  668TMC3     C 9939   0.799   4.064  15.149  0.7805 -0.7506 -0.5380
  668TMC3     O 9940   0.890   3.988  15.156 -0.2435  0.6388 -0.4445
  668TMC3     H 9941   1.019   4.183  15.245  1.4517  2.3963  1.2567
  668TMC3    H1 9942   0.636   4.262  15.069 -0.2509 -0.5791  0.3357
  668TMC3    H2 9943   0.927   4.565  15.097  0.1132  1.3347  2.1239
  668TMC3    C7 9944   0.668   4.529  15.081  0.0743  0.7370 -0.0479
  668TMC3    C8 9945   1.123   4.407  15.214  0.1479 -0.1467  0.2706
  668TMC3    O1 9946   0.705   4.644  15.067 -0.7416  0.2043 -0.2254
  668TMC3    O2 9947   1.194   4.350  15.299 -0.4711 -0.0108  0.3522
  669TMC3    C1 9948   3.660   4.203  14.716  0.0604 -0.1593 -0.1920
  669TMC3    C2 9949   3.552   4.255  14.647 -0.0891  0.1968 -0.0819
  669TMC3    C3 9950   3.562   4.370  14.565  0.0892  0.6145  0.4164
  669TMC3    C4 9951   3.777   4.267  14.709  0.7325 -0.1729  0.3888
  669TMC3    C5 9952   3.778   4.381  14.628 -0.0037  0.0342 -0.0018
  669TMC3    C6 9953   3.678   4.439  14.561 -0.8593  0.8915  0.0616
  669TMC3     C 9954   3.635   4.114  14.826 -0.2443  0.8885 -0.0190
  669TMC3     O 9955   3.527   4.116  14.886 -0.1389 -0.1062 -0.5184
  669TMC3     H 9956   3.455   4.214  14.669 -0.3253  0.4500 -0.6274
  669TMC3    H1 9957   3.863   4.243  14.771  2.8840  2.8120 -1.3940
  669TMC3    H2 9958   3.697   4.527  14.501  1.4843 -0.2493 -0.8672
  669TMC3    C7 9959   3.908   4.440  14.616 -0.1527  0.1720 -0.3067
  669TMC3    C8 9960   3.464   4.388  14.450  0.4707 -0.0265 -0.1900
  669TMC3    O1 9961   3.988   4.449  14.711  0.0534  0.0725 -0.0439
  669TMC3    O2 9962   3.384   4.295  14.443 -0.4204  0.3850 -0.7487
  670MPD2     C 9963   1.871   1.905  14.168 -0.2627  0.3926 -0.0264
  670MPD2    C1 9964   1.965   1.804  14.160  0.2121 -0.1833 -0.2839
  670MPD2    C2 9965   1.934   1.671  14.208  0.4048  0.0990 -0.9006
  670MPD2    C3 9966   1.811   1.654  14.264  0.6108  0.0579 -0.5573
  670MPD2    C4 9967   1.720   1.764  14.277 -0.2859  0.0537  0.1875
  670MPD2    C5 9968   1.755   1.890  14.239 -0.5205 -0.9107  0.7535
  670MPD2     H 9969   1.999   1.584  14.201  2.3077  1.3155  1.5203
  670MPD2    H1 9970   1.624   1.747  14.325 -0.3443  1.2812  0.5211
  670MPD2    H2 9971   1.885   2.004  14.124 -1.8946  1.3641  1.6336
  670MPD2    H3 9972   1.689   1.975  14.243  0.8997  0.1525  1.4893
  670MPD2     N 9973   1.779   1.519  14.300  0.3598 -0.7755 -0.2065
  670MPD2    H5 9974   1.853   1.451  14.291 -0.2978 -1.2164 -2.1842
  670MPD2    N1 9975   2.092   1.828  14.105 -0.2445 -0.0031  0.3517
  670MPD2    H7 9976   2.157   1.750  14.111 -0.5533 -0.3876 -1.4338
  671TMC3    C1 9977   1.668   1.336  14.235  0.3422  0.2173  0.6627
  671TMC3    C2 9978   1.791   1.278  14.266 -0.1353  0.6797  0.5309
  671TMC3    C3 9979   1.852   1.207  14.173  0.1081  0.3654  0.1192
  671TMC3    C4 9980   1.623   1.343  14.106 -0.2235 -0.0816 -0.1990
  671TMC3    C5 9981   1.705   1.293  14.001 -0.1116 -0.7794  0.6297
  671TMC3    C6 9982   1.812   1.214  14.040 -0.4277 -0.1648 -0.5354
  671TMC3     C 9983   1.652   1.466  14.297  0.3860  0.7740  0.4111
  671TMC3     O 9984   1.544   1.520  14.286 -0.0902  0.1365 -0.7030
  671TMC3     H 9985   1.824   1.280  14.370 -0.2697 -2.3235  0.6234
  671TMC3    H1 9986   1.530   1.399  14.094 -0.0909  0.3168  0.6542
  671TMC3    H2 9987   1.875   1.174  13.962 -1.2794  2.3280 -2.5249
  671TMC3    C7 9988   1.750   1.389  13.904 -0.1466 -0.1628 -0.4624
  671TMC3    C8 9989   1.991   1.166  14.189  0.6867 -0.1643 -0.4828
  671TMC3    O1 9990   1.872   1.396  13.883  0.6240 -0.0348  0.2137
  671TMC3    O2 9991   2.058   1.153  14.086 -0.3846 -0.6155 -0.2463
  672MPD2     C 9992   2.846   2.984   0.656 -0.2337 -0.2333  0.1071
  672MPD2    C1 9993   2.941   2.886   0.638  0.0220 -0.5919  1.0585
  672MPD2    C2 9994   3.073   2.917   0.628  1.1570 -0.0023 -0.2738
  672MPD2    C3 9995   3.112   3.048   0.621 -0.0602 -0.5511  0.2750
  672MPD2    C4 9996   3.016   3.145   0.635  0.2655  0.0972 -0.4148
  672MPD2    C5 9997   2.881   3.114   0.649 -0.3785 -0.1559 -0.4262
  672MPD2     H 9998   3.141   2.839   0.596  0.4605 -0.9688  0.5921
  672MPD2    H1 9999   3.061   3.244   0.639 -0.0769  0.1393  2.5747
  672MPD2    H210000   2.744   2.959   0.682 -1.4083  3.1893 -1.1278
  672MPD2    H310001   2.812   3.197   0.662 -2.2416 -1.4170 -2.2058
  672MPD2     N10002   3.245   3.093   0.606  0.3555 -0.3182 -0.5888
  672MPD2    H510003   3.278   3.189   0.608 -0.2562 -0.1325  0.9646
  672MPD2    N110004   2.910   2.748   0.648  0.1808  0.2744 -0.6655
  672MPD2    H710005   2.992   2.689   0.637  1.7510  1.9809  2.0718
  673TMC3    C110006   2.771   2.553   0.594  0.8250 -0.0944  0.1071
  673TMC3    C210007   2.865   2.466   0.632  0.4816  0.6518 -0.1474
  673TMC3    C310008   2.848   2.335   0.600 -0.2969 -0.0679  0.5124
  673TMC3    C410009   2.654   2.512   0.526 -0.5620 -0.5476  0.1138
  673TMC3    C510010   2.637   2.382   0.507 -0.6724 -0.0970  0.2422
  673TMC3    C610011   2.739   2.291   0.527 -0.3863  0.0433 -0.0616
  673TMC3     C10012   2.785   2.696   0.616  0.0774  0.0326  0.6007
  673TMC3     O10013   2.686   2.760   0.587  0.4340  0.0289  0.0398
  673TMC3     H10014   2.956   2.499   0.681  2.9777 -2.1461 -2.8890
  673TMC3    H110015   2.581   2.588   0.501  0.0050  0.6651  2.0774
  673TMC3    H210016   2.719   2.188   0.497  0.4852 -0.2733  0.4567
  673TMC3    C710017   2.520   2.321   0.443  0.2679  0.2564  0.0139
  673TMC3    C810018   2.948   2.234   0.616  0.2470  0.1957  1.0846
  673TMC3    O110019   2.510   2.198   0.451 -0.1929 -0.1874 -0.2771
  673TMC3    O210020   2.929   2.130   0.553 -0.1207  0.4920  0.1855
  674MPD2     C10021   2.264   2.740  17.629 -0.3098  0.1671 -0.0955
  674MPD2    C110022   2.232   2.607  17.608  0.7739 -0.1643 -0.5717
  674MPD2    C210023   2.115   2.584  17.540 -0.9744  0.4788  0.3596
  674MPD2    C310024   2.031   2.686  17.523  0.2753  0.6101 -0.5528
  674MPD2    C410025   2.068   2.822  17.540 -0.2458  0.6238 -0.7776
  674MPD2    C510026   2.190   2.848  17.588 -0.6883  0.1115  0.2835
  674MPD2     H10027   2.103   2.481  17.508  1.4868  0.0730  0.7041
  674MPD2    H110028   1.999   2.903  17.519 -1.4401 -0.4411 -0.9982
  674MPD2    H210029   2.360   2.745  17.679 -0.9405  1.1853  1.0187
  674MPD2    H310030   2.228   2.949  17.591  1.2625 -0.6547  1.4883
  674MPD2     N10031   1.897   2.665  17.495 -0.1123 -0.5624 -0.2116
  674MPD2    H510032   1.840   2.748  17.509  0.7029  0.3829 -2.4016
  674MPD2    N110033   2.314   2.506  17.658  0.0448  1.2660  0.1866
  674MPD2    H710034   2.399   2.538  17.703 -0.1178 -0.4789  1.7099
  675TMC3    C110035   2.362   2.287  17.741 -0.3924  0.4396 -0.1906
  675TMC3    C210036   2.311   2.172   0.052 -0.6109  0.1432  0.2375
  675TMC3    C310037   2.395   2.101   0.136 -0.1789 -0.2129 -0.0251
  675TMC3    C410038   2.496   2.325   0.015  0.3451  0.5249 -0.1714
  675TMC3    C510039   2.571   2.238   0.087 -0.3839  0.0847  0.4515
  675TMC3    C610040   2.525   2.133   0.159  0.1375 -0.0965 -0.8355
  675TMC3     C10041   2.270   2.374  17.675 -0.4522  0.2048  0.1464
  675TMC3     O10042   2.166   2.316  17.640 -0.1616  0.2521 -0.3319
  675TMC3     H10043   2.214   2.131   0.029 -0.6660 -0.0794  0.8509
  675TMC3    H110044   2.542   2.405  17.705  2.6790 -1.6204 -1.2953
  675TMC3    H210045   2.591   2.089   0.233  1.5139 -0.5004 -2.3057
  675TMC3    C710046   2.702   2.285   0.128  0.7194  0.1553  0.1201
  675TMC3    C810047   2.343   1.981   0.207  0.4639  0.5389 -0.4296
  675TMC3    O110048   2.778   2.199   0.168  0.2428  0.5018 -0.2089
  675TMC3    O210049   2.252   1.919   0.155  0.3969  0.3263 -0.3242
  676MPD2     C10050   0.670   4.663  11.601 -0.9512 -0.8093  0.5201
  676MPD2    C110051   0.560   0.005  11.568 -0.0164  0.6741 -0.2434
  676MPD2    C210052   0.468   4.696  11.476 -0.8546 -0.1877  0.2085
  676MPD2    C310053   0.496   4.576  11.409 -0.0752  0.0765  0.2869
  676MPD2    C410054   0.613   4.512  11.436 -0.2163  0.3611  0.7830
  676MPD2    C510055   0.699   4.550  11.538 -0.3672 -0.3344  0.5442
  676MPD2     H10056   0.388   0.025  11.447 -0.1383  0.5424 -0.0850
  676MPD2    H110057   0.629   4.418  11.383  0.0987  0.9130 -0.0962
  676MPD2    H210058   0.738   4.699  11.677 -1.1743 -1.0698  0.8457
  676MPD2    H310059   0.792   4.498  11.558 -0.6639 -1.5248 -1.1025
  676MPD2     N10060   0.413   4.522  11.308  0.1678 -0.1063 -0.8049
  676MPD2    H510061   0.449   4.440  11.260 -0.9476 -1.2374  0.3155
  676MPD2    N110062   0.533   0.128  11.632  0.1124 -0.3581  0.3311
  676MPD2    H710063   0.446   0.167  11.596  1.2722  1.2160 -0.7572
  677TMC3    C110064   0.544   0.316  11.769  0.7236  0.0368  0.1128
  677TMC3    C210065   0.569   0.367  11.891 -0.2407  0.1005 -0.1655
  677TMC3    C310066   0.548   0.504  11.909  0.3757  0.2942 -0.2599
  677TMC3    C410067   0.497   0.402  11.664  0.3585  0.2991 -1.0266
  677TMC3    C510068   0.492   0.538  11.688  0.2537  0.6735 -1.1017
  677TMC3    C610069   0.523   0.593  11.809  0.0908 -0.3927 -0.1105
  677TMC3     C10070   0.598   0.187  11.737 -0.3665  0.0436  0.4994
  677TMC3     O10071   0.687   0.136  11.807  0.1301  0.7892 -0.0715
  677TMC3     H10072   0.591   0.305  11.977  0.4434  0.2369 -0.2469
  677TMC3    H110073   0.500   0.365  11.562 -0.6806  1.5961 -1.5398
  677TMC3    H210074   0.512   0.701  11.819  2.3430 -0.2941  1.3621
  677TMC3    C710075   0.426   0.610  11.577 -0.6450  0.0750 -0.2624
  677TMC3    C810076   0.559   0.558  12.041  0.0744  1.3017  0.6083
  677TMC3    O110077   0.362   0.542  11.499  0.5889  0.1531  0.0461
  677TMC3    O210078   0.589   0.674  12.034 -0.2536 -0.3690  0.5814
  678MPD2     C10079   1.880   0.584   1.352  1.1773 -0.0006 -0.3158
  678MPD2    C110080   1.860   0.549   1.223  0.7643  0.8540 -0.0824
  678MPD2    C210081   1.730   0.552   1.180  0.0498 -0.1462 -0.2155
  678MPD2    C310082   1.627   0.592   1.262 -0.4283  0.8489 -0.0083
  678MPD2    C410083   1.658   0.634   1.396  0.3004  0.4887 -0.1995
  678MPD2    C510084   1.782   0.630   1.439  0.2693  0.1850 -0.5152
  678MPD2     H10085   1.712   0.525   1.076  0.4671 -0.9536 -0.0767
  678MPD2    H110086   1.575   0.657   1.462  0.3105 -4.3671  1.5637
  678MPD2    H210087   1.978   0.587   1.398  0.3111  0.4399  1.5281
  678MPD2    H310088   1.808   0.663   1.539 -0.8021 -1.4538  0.2976
  678MPD2     N10089   1.492   0.587   1.219 -0.4854 -0.4158 -0.1103
  678MPD2    H510090   1.482   0.549   1.126 -1.7519  2.0783 -1.0025
  678MPD2    N110091   1.963   0.504   1.136  0.4155 -0.5815  0.1433
  678MPD2    H710092   1.935   0.459   1.049 -0.8837  0.5774 -0.0327
  679TMC3    C110093   2.221   0.276   0.909  0.2058 -0.3939 -0.6452
  679TMC3    C210094   2.145   0.305   1.017 -0.4821  0.3265 -0.0765
  679TMC3    C310095   2.170   0.430   1.062 -0.2614  0.9504  0.5676
  679TMC3    C410096   2.329   0.347   0.869 -0.0523  0.0829  0.0134
  679TMC3    C510097   2.354   0.468   0.930  0.0793 -0.1661  0.3586
  679TMC3    C610098   2.273   0.510   1.030 -0.5488 -0.1499 -0.0268
  679TMC3     C10099   2.203   0.151   0.839 -0.2307  0.2555  0.1733
  679TMC3     O10100   2.235   0.144   0.720  0.4774  0.1980  0.0351
  679TMC3     H10101   2.060   0.245   1.046 -1.0227  0.4873 -1.3300
  679TMC3    H110102   2.398   0.298   0.801 -1.8167 -2.2246 -0.0931
  679TMC3    H210103   2.289   0.604   1.082 -1.7749 -1.4901  2.8027
  679TMC3    C710104   2.398   0.577   0.845  0.3643 -0.5307  0.0292
  679TMC3    C810105   2.096   0.492   1.168  0.2879 -0.0487  0.5454
  679TMC3    O110106   2.375   0.686   0.887 -0.6328 -0.7319  0.1794
  679TMC3    O210107   2.151   0.542   1.264  0.4750 -0.0323 -0.0458
  680MPD2     C10108   1.151   3.694  13.739 -0.5456 -0.4781 -0.0443
  680MPD2    C110109   1.251   3.622  13.792  0.0355 -0.3280 -0.5990
  680MPD2    C210110   1.379   3.682  13.810  0.3325 -0.0619 -0.1529
  680MPD2    C310111   1.405   3.818  13.776 -0.6538  0.5403 -0.1954
  680MPD2    C410112   1.303   3.886  13.709 -0.6431 -0.5948 -0.6557
  680MPD2    C510113   1.178   3.821  13.694  0.4234  0.6100 -0.2205
  680MPD2     H10114   1.463   3.626  13.848 -0.9079 -2.9070 -1.6340
  680MPD2    H110115   1.316   3.989  13.677  0.3219 -1.5719 -3.4002
  680MPD2    H210116   1.046   3.673  13.719 -0.8849 -1.4628  2.8473
  680MPD2    H310117   1.100   3.877  13.645  0.3673  2.6374  2.2419
  680MPD2     N10118   1.527   3.888  13.809  0.1732 -0.0317 -0.4016
  680MPD2    H510119   1.544   3.987  13.796 -1.7642  0.4681  0.7720
  680MPD2    N110120   1.226   3.490  13.829 -0.0782  0.0628  0.1845
  680MPD2    H710121   1.135   3.450  13.808 -0.9281  2.1748 -0.0727
  681TMC3    C110122   1.264   3.274  13.927  0.1119  0.2761 -0.1372
  681TMC3    C210123   1.179   3.297  14.032  0.1131  0.4578  0.1104
  681TMC3    C310124   1.215   3.247  14.156  0.1512 -0.4203 -0.3838
  681TMC3    C410125   1.374   3.191  13.949 -0.6434  0.5168 -0.3159
  681TMC3    C510126   1.404   3.127  14.065 -0.3081 -0.2931  0.0166
  681TMC3    C610127   1.323   3.167  14.173  0.8799 -0.0464  0.2501
  681TMC3     C10128   1.316   3.406  13.884  0.2134 -0.4263  0.3030
  681TMC3     O10129   1.432   3.419  13.911 -0.1351 -0.0991  0.4000
  681TMC3     H10130   1.096   3.365  14.020 -0.7611 -0.7044 -0.4195
  681TMC3    H110131   1.442   3.175  13.866  0.3398 -2.1660  0.9869
  681TMC3    H210132   1.351   3.127  14.270  0.9276  0.1463  0.3170
  681TMC3    C710133   1.550   3.099  14.092  0.7737  0.7535  0.2188
  681TMC3    C810134   1.186   3.330  14.266  0.3791 -0.6133  0.4114
  681TMC3    O110135   1.581   3.071  14.208  0.5773 -0.3837  0.4232
  681TMC3    O210136   1.072   3.367  14.296 -0.4482 -0.3873  0.0990
  682MPD2     C10137   4.516   0.139  10.548 -0.4138  0.1237  0.2068
  682MPD2    C110138   4.417   0.042  10.558  1.0090  0.0066  0.7473
  682MPD2    C210139   4.335   0.042  10.672  0.9585 -0.6992  0.0453
  682MPD2    C310140   4.352   0.139  10.775  0.3042  0.2606 -0.2206
  682MPD2    C410141   4.461   0.224  10.770  0.3380 -0.1506  0.4556
  682MPD2    C510142   4.536   0.221  10.664 -0.4661  0.5389  0.7054
  682MPD2     H10143   4.257   4.706  10.680  0.1430  0.1496 -0.1588
  682MPD2    H110144   4.477   0.279  10.862 -0.8105  0.1510  0.4880
  682MPD2    H210145   4.597   0.132  10.477  0.4413 -1.1064  1.2945
  682MPD2    H310146   4.627   0.280  10.662 -0.0184 -0.1045  2.0977
  682MPD2     N10147   4.258   0.158  10.884  0.1900  0.2367  0.7195
  682MPD2    H510148   4.276   0.235  10.947  1.9845  0.2180  0.2350
  682MPD2    N110149   4.384   4.695  10.450  0.6262 -0.0362 -0.5177
  682MPD2    H710150   4.300   4.641  10.466  0.5506 -0.1100 -1.1628
  683TMC3    C110151   3.974   0.309  11.153 -0.2701  0.8334 -0.1849
  683TMC3    C210152   3.898   0.218  11.226 -0.5102 -0.5893  0.2148
  683TMC3    C310153   3.915   0.084  11.194  0.3537  0.2032 -0.1357
  683TMC3    C410154   4.061   0.267  11.054  0.6744 -0.0705  0.3954
  683TMC3    C510155   4.072   0.134  11.028 -0.8530  0.3433 -0.4402
  683TMC3    C610156   3.999   0.038  11.094  0.3552  0.4849  0.6415
  683TMC3     C10157   3.996   0.439  11.215  0.0218 -0.1607  0.3462
  683TMC3     O10158   3.929   0.465  11.313  0.0555 -0.4804  0.4438
  683TMC3     H10159   3.838   0.246  11.312 -1.5931  0.4668 -0.8841
  683TMC3    H110160   4.121   0.329  10.989 -0.4071 -2.0483 -2.4749
  683TMC3    H210161   3.986   4.677  11.049  0.3716  0.7772 -0.0036
  683TMC3    C710162   4.148   0.083  10.910  0.7992  0.2707 -0.4638
  683TMC3    C810163   3.813   4.728  11.250 -0.5619  0.2799  0.0030
  683TMC3    O110164   4.111   4.724  10.844  0.4579  0.0205 -0.0976
  683TMC3    O210165   3.713   0.054  11.294  0.1167  0.3690  0.2670
  684MPD2     C10166   2.059   4.176  16.336 -0.1663 -0.2985 -0.0035
  684MPD2    C110167   2.040   4.260  16.225  0.0442 -0.8306 -0.1553
  684MPD2    C210168   2.063   4.395  16.233 -0.1031 -0.3671  0.6713
  684MPD2    C310169   2.099   4.464  16.346  0.1591 -0.2174 -0.2743
  684MPD2    C410170   2.116   4.380  16.459 -0.4791  0.0188 -0.2816
  684MPD2    C510171   2.091   4.243  16.453 -0.5611 -0.0665  0.2419
  684MPD2     H10172   2.036   4.454  16.146  1.8480  1.4354  1.2823
  684MPD2    H110173   2.158   4.412  16.553 -1.5770 -1.8290  0.8316
  684MPD2    H210174   2.043   4.069  16.329 -1.7501  0.0488 -1.7219
  684MPD2    H310175   2.115   4.189  16.544 -1.0341  1.1615  1.0937
  684MPD2     N10176   2.135   4.603  16.360  0.0645 -0.0974 -0.1692
  684MPD2    H510177   2.150   4.645  16.451 -1.3936 -0.4967  0.2625
  684MPD2    N110178   2.004   4.206  16.101  0.1616 -0.0209  0.3147
  684MPD2    H710179   2.000   4.265  16.019  0.1989 -1.4684 -0.7329
  685TMC3    C110180   2.027   4.068  15.913  0.0912 -0.6892  0.8801
  685TMC3    C210181   1.943   4.150  15.837 -0.0575 -0.2545  0.4990
  685TMC3    C310182   1.966   4.159  15.700 -0.4772 -0.0313  0.1036
  685TMC3    C410183   2.129   3.996  15.865 -0.7925  0.2580  0.1754
  685TMC3    C510184   2.153   4.015  15.728  0.4648 -0.2873  0.3938
  685TMC3    C610185   2.068   4.083  15.643 -0.0123 -0.2962 -0.1666
  685TMC3     C10186   2.026   4.074  16.062  0.9207 -0.0322 -0.4498
  685TMC3     O10187   2.071   3.976  16.123 -0.1443  0.1495  0.0551
  685TMC3     H10188   1.864   4.207  15.884  0.1872 -0.3661  1.0378
  685TMC3    H110189   2.198   3.941  15.927  0.9333  2.0145 -0.1589
  685TMC3    H210190   2.100   4.092  15.539  0.2647  1.9338  0.1205
  685TMC3    C710191   2.290   4.040  15.680 -0.6004 -0.5792  0.3891
  685TMC3    C810192   1.857   4.221  15.614 -0.1356 -0.4139  0.5430
  685TMC3    O110193   2.310   4.098  15.574 -0.2781  0.3189 -0.5013
  685TMC3    O210194   1.857   4.182  15.497 -0.6722  0.0565 -0.4737
  686MPD2     C10195   3.757   4.257  15.335 -0.1476  0.1140 -0.2824
  686MPD2    C110196   3.799   4.237  15.465 -0.7744  0.1247 -0.0520
  686MPD2    C210197   3.921   4.170  15.478 -0.4391 -0.0655  0.0665
  686MPD2    C310198   3.992   4.117  15.368 -0.6062  0.4969  0.1261
  686MPD2    C410199   3.929   4.129  15.246 -0.0262  0.3688  0.4144
  686MPD2    C510200   3.818   4.202  15.227  0.3469  0.0434  0.1495
  686MPD2     H10201   3.950   4.155  15.582 -1.5454  1.0988  0.5495
  686MPD2    H110202   3.969   4.085  15.156 -1.5376 -1.3991  0.6079
  686MPD2    H210203   3.667   4.313  15.312  0.4851  1.6344  0.9305
  686MPD2    H310204   3.785   4.215  15.125 -1.7603 -1.0468  0.6890
  686MPD2     N10205   4.118   4.061  15.375  0.1618 -0.2559  0.7730
  686MPD2    H510206   4.166   4.060  15.286  0.6674 -1.6530  1.0659
  686MPD2    N110207   3.718   4.280  15.575  0.4616  0.4715  0.3008
  686MPD2    H710208   3.628   4.320  15.550  0.9059 -0.4637 -2.7282
  687TMC3    C110209   4.110   3.983  15.613 -0.8781  0.6051  0.2937
  687TMC3    C210210   4.003   3.899  15.609 -0.2698 -0.6840  0.6979
  687TMC3    C310211   3.939   3.867  15.728 -0.3775  0.0416  0.1401
  687TMC3    C410212   4.167   4.029  15.725  1.2014 -0.2916  0.0202
  687TMC3    C510213   4.104   4.004  15.843 -0.3190  0.6286  0.5665
  687TMC3    C610214   3.987   3.933  15.843  0.6243  0.7908 -0.0576
  687TMC3     C10215   4.186   4.019  15.489 -0.4619  0.1885  0.1596
  687TMC3     O10216   4.309   4.005  15.495 -0.0398  0.1381 -0.2077
  687TMC3     H10217   3.972   3.856  15.514  1.1073  0.9807 -0.5075
  687TMC3    H110218   4.245   4.105  15.724 -0.0248  0.9697  0.8294
  687TMC3    H210219   3.947   3.916  15.943 -0.3512  2.5441 -0.1380
  687TMC3    C710220   4.151   4.062  15.962  0.1023 -0.1597  0.3025
  687TMC3    C810221   3.796   3.847  15.724 -0.6922  0.4720 -0.2191
  687TMC3    O110222   4.073   4.088  16.051 -0.1114  0.2875 -0.3876
  687TMC3    O210223   3.760   3.775  15.815 -0.1252  0.3776  0.0808
  688MPD2     C10224   2.782   3.487  17.228 -0.4426 -0.1868  0.5045
  688MPD2    C110225   2.827   3.370  17.290  0.6896 -0.4951 -0.1236
  688MPD2    C210226   2.945   3.316  17.243 -0.1668 -0.1781 -0.5997
  688MPD2    C310227   3.017   3.362  17.137  0.0415  0.1546 -0.1734
  688MPD2    C410228   2.981   3.490  17.095 -0.2794 -0.3558  0.6989
  688MPD2    C510229   2.864   3.548  17.136  0.1553  0.4020  0.2862
  688MPD2     H10230   2.980   3.227  17.294 -0.6695 -0.4534 -0.7403
  688MPD2    H110231   3.031   3.539  17.013 -2.0109  1.4197  0.7138
  688MPD2    H210232   2.690   3.541  17.246  0.1593  0.6003  1.2259
  688MPD2    H310233   2.839   3.644  17.091  0.0534 -0.7124 -2.0264
  688MPD2     N10234   3.115   3.292  17.061 -0.1182  0.8368  0.4772
  688MPD2    H510235   3.168   3.344  16.992  0.7119 -2.9492 -1.6793
  688MPD2    N110236   2.750   3.300  17.389  0.3925 -0.5634 -0.3999
  688MPD2    H710237   2.785   3.212  17.425  1.9112  0.1073 -0.2567
  689TMC3    C110238   2.562   3.239  17.530 -1.1360  0.3126  0.3780
  689TMC3    C210239   2.531   3.295  17.652 -0.0226  0.4812 -0.6414
  689TMC3    C310240   2.510   3.204   0.006  0.3592  0.0475 -0.3132
  689TMC3    C410241   2.582   3.106  17.507  0.2652  0.0261  0.2996
  689TMC3    C510242   2.550   3.024  17.612 -0.1371  0.5661  0.6278
  689TMC3    C610243   2.512   3.070  17.735 -0.1630  0.0263 -0.6047
  689TMC3     C10244   2.624   3.335  17.435  0.1141  0.4618 -0.1885
  689TMC3     O10245   2.567   3.439  17.415 -0.3686 -0.7357  0.4144
  689TMC3     H10246   2.537   3.403  17.655  2.1354  0.4031 -2.0826
  689TMC3    H110247   2.635   3.056  17.426 -2.3957 -0.5018 -1.1005
  689TMC3    H210248   2.519   3.001   0.071  0.5600  0.7157 -0.0926
  689TMC3    C710249   2.609   2.887  17.609  0.2118 -0.8245 -0.2145
  689TMC3    C810250   2.493   3.254   0.137  0.6973 -0.6308 -0.1702
  689TMC3    O110251   2.656   2.841  17.718  0.0118 -0.0092 -0.6669
  689TMC3    O210252   2.530   3.369   0.152  0.2554 -0.4030 -1.0566
  690MPD2     C10253   4.619   0.597  15.847 -1.1297  0.5065  0.8087
  690MPD2    C110254   4.682   0.494  15.780  0.2094  0.4159  0.1121
  690MPD2    C210255   0.062   0.521  15.719 -0.7375 -0.0713  0.2500
  690MPD2    C310256   0.127   0.640  15.728  0.0821  0.0054 -0.4385
  690MPD2    C410257   0.056   0.749  15.790 -0.2691  0.3751 -0.5851
  690MPD2    C510258   4.667   0.720  15.839  0.5736 -0.2122  0.2372
  690MPD2     H10259   0.108   0.450  15.651 -0.1394 -0.0020  0.5834
  690MPD2    H110260   0.090   0.852  15.798  1.1938 -0.1902  0.5911
  690MPD2    H210261   4.519   0.594  15.888 -1.0469 -1.0522  0.9203
  690MPD2    H310262   4.613   0.800  15.889 -0.9066 -1.3006  0.3507
  690MPD2     N10263   0.249   0.647  15.654  0.3500  0.0433  0.2131
  690MPD2    H510264   0.275   0.558  15.611  3.2170  1.6548 -1.3773
  690MPD2    N110265   4.624   0.366  15.761  0.0667  0.3512 -0.3656
  690MPD2    H710266   4.532   0.361  15.803  0.9774  0.4606  1.6281
  691TMC3    C110267   4.627   0.137  15.720  0.1145  0.5805 -0.1866
  691TMC3    C210268   4.491   0.140  15.696 -0.2427 -1.1270  0.0765
  691TMC3    C310269   4.441   0.012  15.694 -0.1250 -0.3201 -0.0677
  691TMC3    C410270   4.701   0.024  15.725  0.8018  0.0621  0.6524
  691TMC3    C510271   4.642   4.642  15.694  0.3910  0.5144 -0.2268
  691TMC3    C610272   4.508   4.632  15.684 -0.2095 -0.1407  0.0402
  691TMC3     C10273   4.700   0.255  15.738 -0.0740  0.1212  0.3648
  691TMC3     O10274   0.077   0.247  15.775  0.1253 -0.0933  0.2246
  691TMC3     H10275   4.435   0.232  15.700  1.2176 -0.2603  0.5322
  691TMC3    H110276   0.063   0.031  15.769  1.4766  1.1491 -1.0690
  691TMC3    H210277   4.452   4.539  15.681  0.9122 -0.8153  0.1986
  691TMC3    C710278   4.718   4.531  15.746  0.2071 -0.2054  0.0688
  691TMC3    C810279   4.289   4.736  15.702 -0.1368  0.0635 -0.1011
  691TMC3    O110280   0.088   4.549  15.808  0.0163 -0.2645 -0.5112
  691TMC3    O210281   4.236   4.630  15.672  0.2873  0.2058  0.6131
  692TMC3    C110282   2.065   1.415  16.104  0.3944  0.1407 -0.8961
  692TMC3    C210283   2.191   1.429  16.160  0.0723  0.2853 -0.4131
  692TMC3    C310284   2.287   1.337  16.135  0.3754 -0.4474  0.1181
  692TMC3    C410285   2.044   1.311  16.012 -0.0596 -0.9124  0.2366
  692TMC3    C510286   2.153   1.236  15.972  0.4944 -0.1231 -0.6380
  692TMC3    C610287   2.274   1.254  16.027  0.4338 -0.4026  0.2419
  692TMC3     C10288   1.961   1.503  16.142 -0.2336 -0.1056  0.0907
  692TMC3     O10289   1.847   1.472  16.115 -0.8296 -0.2569  0.1320
  692TMC3     H10290   2.188   1.482  16.255  1.8854  0.7080 -0.5821
  692TMC3    H110291   1.950   1.289  15.963  1.3138 -0.8254 -2.4432
  692TMC3    H210292   2.354   1.184  16.002  1.0985 -0.3518  2.1610
  692TMC3    C710293   2.129   1.108  15.907  0.1349  0.5137 -0.9151
  692TMC3    C810294   2.342   1.259  16.245  0.1681  0.3573 -0.2075
  692TMC3    O110295   2.036   1.111  15.827  0.5095 -0.8735  0.1611
  692TMC3    O210296   2.348   1.140  16.218 -0.1362 -0.9674  0.1342
  693MPD2     C10297   1.464   4.404  10.745  0.0055 -0.6332 -0.5109
  693MPD2    C110298   1.374   4.314  10.792  0.5656 -0.3933  0.2599
  693MPD2    C210299   1.427   4.216  10.875  0.1105 -0.5892 -0.3359
  693MPD2    C310300   1.566   4.209  10.896 -0.3993 -0.3390  0.1868
  693MPD2    C410301   1.653   4.292  10.834  0.5352  0.4338 -0.1288
  693MPD2    C510302   1.603   4.402  10.767 -0.1607  0.2778 -0.2954
  693MPD2     H10303   1.364   4.146  10.927  0.8506  1.6675  3.5967
  693MPD2    H110304   1.760   4.291  10.853  0.3061 -0.7869  1.0428
  693MPD2    H210305   1.433   4.490  10.687 -1.5546  0.0798  1.3973
  693MPD2    H310306   1.672   4.473  10.724  1.7650 -0.5099  1.4950
  693MPD2     N10307   1.623   4.114  10.984 -0.0281 -0.3441  0.3629
  693MPD2    H510308   1.724   4.106  10.992 -0.4282 -3.3230  2.3653
  693MPD2    N110309   1.238   4.333  10.780  0.2711 -0.1012 -0.6288
  693MPD2    H710310   1.179   4.272  10.837 -0.0813  1.5841  0.7945
  694TMC3    C110311   1.033   4.432  10.734 -0.3675  0.8451 -0.9154
  694TMC3    C210312   0.935   4.417  10.636 -0.2780 -0.3932  0.0157
  694TMC3    C310313   0.805   4.413  10.671 -0.4253 -0.2761 -0.3787
  694TMC3    C410314   0.998   4.447  10.858 -0.0833 -0.2073  0.2173
  694TMC3    C510315   0.865   4.450  10.899  0.2757  0.7138  0.2129
  694TMC3    C610316   0.767   4.431  10.802  0.0275 -0.1899  0.3806
  694TMC3     C10317   1.174   4.422  10.697  0.0249  0.0719  0.4728
  694TMC3     O10318   1.210   4.478  10.596  0.3624 -0.4260  0.2352
  694TMC3     H10319   0.967   4.382  10.538 -0.6028 -1.4052  0.2715
  694TMC3    H110320   1.073   4.439  10.936  0.3099 -1.3147 -0.2716
  694TMC3    H210321   0.662   4.441  10.825 -0.4444  0.1038 -1.8898
  694TMC3    C710322   0.829   4.426  11.027  0.3353  0.0146 -0.5878
  694TMC3    C810323   0.726   4.310  10.604  0.6335  0.2626 -0.1801
  694TMC3    O110324   0.715   4.391  11.060 -0.7556  0.4319  0.9964
  694TMC3    O210325   0.655   4.247  10.682  0.4983  0.4842 -0.1912
  695MPD2     C10326   2.808   1.323  13.522  0.2582  0.3536 -0.2686
  695MPD2    C110327   2.714   1.319  13.617 -0.2085  0.3540 -0.0878
  695MPD2    C210328   2.619   1.418  13.630  0.5522 -0.4382 -0.5818
  695MPD2    C310329   2.615   1.522  13.535  0.0725  0.1213  0.7188
  695MPD2    C410330   2.718   1.531  13.434 -0.1930  0.1751  0.4007
  695MPD2    C510331   2.812   1.434  13.445  0.7124 -0.0028  0.5468
  695MPD2     H10332   2.549   1.419  13.713 -1.1985  1.2129 -2.0607
  695MPD2    H110333   2.724   1.614  13.365 -0.1778  0.7305  1.0738
  695MPD2    H210334   2.880   1.243  13.511 -2.0980 -1.5900 -1.7731
  695MPD2    H310335   2.899   1.439  13.380 -1.8850  0.4511 -2.8432
  695MPD2     N10336   2.507   1.609  13.540  0.4332 -0.3384 -0.1456
  695MPD2    H510337   2.433   1.578  13.602  1.2397  1.1257  1.5657
  695MPD2    N110338   2.710   1.233  13.725  0.0301 -0.2928  0.0407
  695MPD2    H710339   2.640   1.237  13.798 -1.5104  0.6148 -1.4929
  696TMC3    C110340   2.372   1.800  13.501 -0.1604  0.1419  0.3502
  696TMC3    C210341   2.262   1.734  13.540 -0.8156 -0.1151  0.8291
  696TMC3    C310342   2.147   1.807  13.556  0.0124 -0.0059  0.0293
  696TMC3    C410343   2.376   1.930  13.473  0.0119 -1.0374 -0.2627
  696TMC3    C510344   2.258   2.005  13.500  0.3904 -0.4672  0.5730
  696TMC3    C610345   2.147   1.944  13.544  1.0224  0.2951 -0.3725
  696TMC3     C10346   2.499   1.725  13.473  0.0948  0.2544  0.5286
  696TMC3     O10347   2.587   1.783  13.414  0.1023 -0.0067 -0.5571
  696TMC3     H10348   2.264   1.627  13.559 -1.6384 -0.0744  1.1501
  696TMC3    H110349   2.464   1.986  13.445  0.1448 -1.3676 -0.4964
  696TMC3    H210350   2.058   2.000  13.572  0.4638 -1.4764  1.3879
  696TMC3    C710351   2.297   2.137  13.567  0.3364 -0.2087  0.7929
  696TMC3    C810352   2.038   1.738  13.623  0.6917 -0.0248  0.0680
  696TMC3    O110353   2.383   2.202  13.509  0.2218 -0.1894 -0.0520
  696TMC3    O210354   2.066   1.628  13.675 -0.5552  0.0147 -0.0969
  697MPD2     C10355   1.425   2.815  16.058  0.2308 -0.5821 -0.3827
  697MPD2    C110356   1.539   2.784  15.991 -0.0072 -0.4004  0.4842
  697MPD2    C210357   1.583   2.869  15.891  0.6553  0.3485  0.3195
  697MPD2    C310358   1.508   2.973  15.843  0.6499 -0.1257 -0.2666
  697MPD2    C410359   1.383   2.989  15.895 -0.1369  0.0930  0.2295
  697MPD2    C510360   1.342   2.921  16.007  0.4007 -0.1514  0.1190
  697MPD2     H10361   1.681   2.848  15.848 -0.9063 -4.2669 -0.9524
  697MPD2    H110362   1.308   3.056  15.854  1.1203 -0.2620 -2.6773
  697MPD2    H210363   1.397   2.765  16.150 -0.8835  0.6120 -0.0817
  697MPD2    H310364   1.245   2.937  16.052 -0.0190 -3.8234  0.5219
  697MPD2     N10365   1.557   3.032  15.724 -0.2575 -0.8272 -0.5467
  697MPD2    H510366   1.655   3.023  15.701 -0.6384  0.5078 -2.6846
  697MPD2    N110367   1.625   2.680  16.023 -0.6841 -0.5530 -0.4834
  697MPD2    H710368   1.716   2.675  15.978 -0.5633 -0.1572 -0.2770
  698TMC3    C110369   1.542   3.149  15.523  0.4713  0.2643 -0.1644
  698TMC3    C210370   1.667   3.208  15.530  0.2237 -0.3540  0.5473
  698TMC3    C310371   1.720   3.256  15.411  0.7037 -0.0782 -0.4878
  698TMC3    C410372   1.477   3.127  15.403 -0.0851  0.0454 -0.4376
  698TMC3    C510373   1.537   3.169  15.284  0.4377  0.0063 -0.1678
  698TMC3    C610374   1.656   3.239  15.289 -0.7992  0.1887  0.3904
  698TMC3     C10375   1.475   3.101  15.637  0.4390 -0.1234 -0.1385
  698TMC3     O10376   1.354   3.115  15.628  0.4183 -0.3027  0.3083
  698TMC3     H10377   1.726   3.216  15.621  0.7891 -0.0168  0.1536
  698TMC3    H110378   1.380   3.080  15.408 -0.5957  1.0662 -0.6772
  698TMC3    H210379   1.701   3.267  15.194 -2.1525 -0.4311 -0.4238
  698TMC3    C710380   1.456   3.161  15.163  0.5602 -0.2495  0.4620
  698TMC3    C810381   1.867   3.275  15.410  0.3475  0.2617 -0.7328
  698TMC3    O110382   1.335   3.150  15.176 -0.1501  0.1875  0.5739
  698TMC3    O210383   1.925   3.247  15.514 -0.1416 -0.2134 -0.4096
  699TMC3    C110384   1.696   1.504  13.443 -0.3500 -0.2392  0.9158
  699TMC3    C210385   1.712   1.375  13.500  0.0475  0.4548  0.0455
  699TMC3    C310386   1.596   1.319  13.554 -0.2054  0.5295  0.1242
  699TMC3    C410387   1.579   1.583  13.447  0.0753 -0.9149  0.5783
  699TMC3    C510388   1.465   1.517  13.505  0.2701 -0.8668  0.3344
  699TMC3    C610389   1.480   1.389  13.552  0.7849 -0.2388  0.4971
  699TMC3     C10390   1.811   1.560  13.369 -0.1239  0.2167 -0.1729
  699TMC3     O10391   1.785   1.651  13.289 -0.5548 -0.3277 -0.0203
  699TMC3     H10392   1.809   1.327  13.505  0.3452  1.0343 -0.1098
  699TMC3    H110393   1.576   1.682  13.404 -0.3948 -0.3672  1.8729
  699TMC3    H210394   1.387   1.358  13.599  1.7867  0.5047  2.9613
  699TMC3    C710395   1.363   1.596  13.559  0.4790  0.4252  0.0574
  699TMC3    C810396   1.604   1.205  13.647  0.0296 -0.2084  0.3294
  699TMC3    O110397   1.314   1.556  13.661 -0.3651  0.1680  0.1930
  699TMC3    O210398   1.512   1.187  13.727 -0.1043  0.1637 -0.0997
  700TMC3    C110399   0.797   3.682  17.306  0.3062  0.1847 -0.0077
  700TMC3    C210400   0.845   3.555  17.284 -0.3931 -0.6242 -0.1011
  700TMC3    C310401   0.964   3.520  17.343  0.5715  0.3222  1.5457
  700TMC3    C410402   0.870   3.776  17.377 -0.0972 -0.4765  0.1271
  700TMC3    C510403   0.987   3.737  17.426  0.1462  0.3240  0.2301
  700TMC3    C610404   1.027   3.605  17.432 -0.4452  0.7313  0.2311
  700TMC3     C10405   0.709   3.744  17.201  0.4307  0.0511 -0.1175
  700TMC3     O10406   0.600   3.776  17.240  0.4808 -0.6110 -0.6922
  700TMC3     H10407   0.784   3.499  17.214  0.3220 -0.9850 -0.4364
  700TMC3    H110408   0.840   3.880  17.367  0.3616 -0.3027  0.5910
  700TMC3    H210409   1.122   3.573  17.472 -0.4814 -0.1768 -0.4108
  700TMC3    C710410   1.093   3.831  17.453 -0.3929  0.3087 -0.2587
  700TMC3    C810411   1.025   3.405  17.282  0.4499 -0.1465  0.2890
  700TMC3    O110412   1.184   3.799  17.527  0.4234  0.0059  0.8988
  700TMC3    O210413   1.140   3.388  17.321  0.2470 -0.4477 -0.0660
  701TMC3    C110414   1.086   2.415  15.863  0.0166  0.7514  0.1286
  701TMC3    C210415   1.088   2.357  15.738 -0.1091  0.5271 -0.0290
  701TMC3    C310416   1.157   2.427  15.647 -0.0316 -0.1224  0.6310
  701TMC3    C410417   1.126   2.542  15.882 -0.3148 -1.0698  0.8124
  701TMC3    C510418   1.197   2.607  15.781 -0.3784 -0.0999 -0.4238
  701TMC3    C610419   1.226   2.542  15.666 -0.6631  0.6398 -0.1337
  701TMC3     C10420   0.978   2.375  15.945  0.8617 -0.2340 -0.4388
  701TMC3     O10421   0.928   2.457  16.020 -0.3939  0.1217 -0.1299
  701TMC3     H10422   1.038   2.265  15.708 -1.2918  1.1175  0.1310
  701TMC3    H110423   1.105   2.588  15.978  0.2938  1.0522 -0.0618
  701TMC3    H210424   1.285   2.582  15.584 -2.0271  0.2576 -1.3102
  701TMC3    C710425   1.177   2.744  15.760 -0.0553  0.4431 -0.2160
  701TMC3    C810426   1.182   2.362  15.516 -1.0165 -0.1773 -0.8298
  701TMC3    O110427   1.247   2.804  15.673  0.1184 -0.3068 -0.3863
  701TMC3    O210428   1.287   2.382  15.452  0.4215 -0.1229 -0.1380
  702MPD2     C10429   0.428   4.550  10.553 -0.1531 -0.7129  0.3489
  702MPD2    C110430   0.454   4.595  10.678 -0.1658  0.5941 -0.1142
  702MPD2    C210431   0.540   4.702  10.693  0.0280  0.3350 -0.3604
  702MPD2    C310432   0.618   0.010  10.591  0.8551 -0.1342  0.8769
  702MPD2    C410433   0.594   4.690  10.469  0.2709  0.3177  0.2960
  702MPD2    C510434   0.503   4.591  10.447  0.1704  0.0031  0.3284
  702MPD2     H10435   0.547   0.003  10.794 -0.7281  0.5048 -0.3766
  702MPD2    H110436   0.649   4.722  10.381  1.4353  0.2946  1.0102
  702MPD2    H210437   0.354   4.475  10.527 -0.6502  0.3890 -1.4100
  702MPD2    H310438   0.482   4.549  10.350  0.2551 -2.5725  1.4422
  702MPD2     N10439   0.723   0.105  10.616 -0.5679 -0.6597  0.0495
  702MPD2    H510440   0.726   0.141  10.711  2.0900  0.3320 -0.4222
  702MPD2    N110441   0.396   4.542  10.795  0.5532  0.1825 -0.0907
  702MPD2    H710442   0.411   4.592  10.883 -0.1626  0.3305 -0.0513
  703TMC3    C110443   0.898   0.258  10.581 -0.2382  0.3269  0.4550
  703TMC3    C210444   0.835   0.350  10.666  0.2959 -1.2113  0.0631
  703TMC3    C310445   0.922   0.443  10.728  0.2548  0.2492 -0.1871
  703TMC3    C410446   1.029   0.256  10.550  0.3096  0.1477  0.3479
  703TMC3    C510447   1.109   0.350  10.614 -0.3266  0.1301 -0.4603
  703TMC3    C610448   1.057   0.439  10.699  0.2137  0.4277 -0.0139
  703TMC3     C10449   0.819   0.148  10.527  0.2192 -0.0585  0.3124
  703TMC3     O10450   0.838   0.109  10.416  0.0235  1.0785  0.0841
  703TMC3     H10451   0.736   0.336  10.709 -0.3649  1.9298 -0.4585
  703TMC3    H110452   1.063   0.193  10.469  2.1196 -0.2454  1.4144
  703TMC3    H210453   1.130   0.501  10.750 -0.6720  2.6724 -1.4565
  703TMC3    C710454   1.236   0.382  10.551  0.2243 -0.2073  0.8545
  703TMC3    C810455   0.859   0.505  10.843  0.2210  0.7339 -0.0783
  703TMC3    O110456   1.297   0.481  10.592  0.0026  0.0676  0.1431
  703TMC3    O210457   0.939   0.531  10.929 -1.0486  0.3428  0.5995
  704TMC3    C110458   3.564   2.747  12.508  0.3786 -0.2198 -0.2079
  704TMC3    C210459   3.578   2.656  12.404  0.2006  0.1100  0.0594
  704TMC3    C310460   3.586   2.524  12.436 -0.5124  0.1482  0.2340
  704TMC3    C410461   3.579   2.709  12.640 -0.2507  0.3140  0.9764
  704TMC3    C510462   3.593   2.572  12.663  0.4801 -1.2022  0.3798
  704TMC3    C610463   3.598   2.479  12.567 -0.1817  0.1019 -0.2105
  704TMC3     C10464   3.478   2.862  12.493  0.3553  0.6959 -0.2534
  704TMC3     O10465   3.419   2.905  12.595  0.4188 -0.1940 -0.5854
  704TMC3     H10466   3.545   2.678  12.304  1.1722  1.2137 -0.0226
  704TMC3    H110467   3.569   2.782  12.719 -1.1135 -0.1429  1.2887
  704TMC3    H210468   3.606   2.372  12.584  0.4906  0.3030  0.7499
  704TMC3    C710469   3.599   2.531  12.797  0.2438 -0.8512  0.6315
  704TMC3    C810470   3.522   2.431  12.344 -0.8773  0.1792 -0.6779
  704TMC3    O110471   3.661   2.603  12.873  0.4136 -0.4942  0.1600
  704TMC3    O210472   3.451   2.482  12.257  0.2963  0.1636  0.2272
  705MPD2     C10473   2.325   0.575  16.518  0.0752  0.4732 -0.5035
  705MPD2    C110474   2.352   0.716  16.516  0.2845 -0.6487  0.0395
  705MPD2    C210475   2.277   0.790  16.609 -0.6953  0.2110 -0.1712
  705MPD2    C310476   2.162   0.739  16.674  0.0415 -0.0507 -0.3650
  705MPD2    C410477   2.132   0.603  16.663 -0.2215  0.4950 -0.5082
  705MPD2    C510478   2.214   0.526  16.588 -0.2659  0.3405  0.5397
  705MPD2     H10479   2.291   0.897  16.619  2.0403 -0.1488 -0.3195
  705MPD2    H110480   2.043   0.561  16.709  0.6623  0.1446  0.8683
  705MPD2    H210481   2.379   0.510  16.450  1.1994  1.8871 -0.9809
  705MPD2    H310482   2.174   0.430  16.559  0.6618  0.1717 -0.1896
  705MPD2     N10483   2.056   0.811  16.734 -0.1177  0.0057 -0.4773
  705MPD2    H510484   1.976   0.757  16.765 -1.5336  1.6585 -1.2369
  705MPD2    N110485   2.444   0.779  16.420  0.6229  0.1841  0.4273
  705MPD2    H710486   2.471   0.876  16.438  0.9755 -0.2648  2.3077
  706TMC3    C110487   2.648   0.815  15.985 -0.0106 -0.5597  0.7283
  706TMC3    C210488   2.700   0.938  16.017 -0.3384 -0.1939  0.2768
  706TMC3    C310489   2.664   0.989  16.136 -0.4628  0.0505 -0.0575
  706TMC3    C410490   2.571   0.746  16.075  0.0700 -0.2458 -0.4699
  706TMC3    C510491   2.555   0.801  16.200  0.2312 -0.8975  0.4018
  706TMC3    C610492   2.593   0.929  16.227  1.2831 -0.2283 -0.7005
  706TMC3     C10493   2.728   0.739  15.896 -0.1010  0.1736  0.1400
  706TMC3     O10494   2.756   0.627  15.938  0.4300  0.1467 -0.0399
  706TMC3     H10495   2.769   0.990  15.952  0.6495 -3.6608 -1.4386
  706TMC3    H110496   2.542   0.644  16.054  1.2282 -0.6616 -0.0674
  706TMC3    H210497   2.552   0.985  16.310  1.4740  0.1290 -0.8500
  706TMC3    C710498   2.470   0.722  16.293  0.1877 -0.2559 -0.4541
  706TMC3    C810499   2.663   1.133  16.150  0.0537  0.1672  0.1173
  706TMC3    O110500   2.412   0.628  16.245 -0.1027 -0.3456  0.7329
  706TMC3    O210501   2.636   1.198  16.049  0.0855  0.5623 -0.0258
  707TMC3    C110502   4.699   0.885   1.231  0.0493 -0.0334  0.1099
  707TMC3    C210503   0.024   0.860   1.348 -0.1639 -0.1837 -0.2994
  707TMC3    C310504   4.675   0.844   1.452 -0.0160  0.0638 -1.1245
  707TMC3    C410505   4.562   0.885   1.220  0.4501  0.4411 -0.0912
  707TMC3    C510506   4.484   0.865   1.328  0.7718 -0.6347  0.2225
  707TMC3    C610507   4.538   0.839   1.451 -0.0554  0.0098 -0.2842
  707TMC3     C10508   0.040   0.868   1.114 -0.0911 -0.3940  0.0054
  707TMC3     O10509   4.727   0.817   1.017  0.1759 -0.5912  0.6690
  707TMC3     H10510   0.130   0.841   1.363 -0.3601 -1.0844 -0.0534
  707TMC3    H110511   4.521   0.905   1.121  0.5113  0.8974 -0.0213
  707TMC3    H210512   4.478   0.814   1.538  1.1991 -2.0606  0.0136
  707TMC3    C710513   4.343   0.835   1.311 -0.7852  0.5320  0.8600
  707TMC3    C810514   4.734   0.780   1.565 -0.2989  0.0289  0.5913
  707TMC3    O110515   4.269   0.869   1.401  0.4419  0.4353  0.2681
  707TMC3    O210516   4.674   0.815   1.666 -0.2845 -0.2868 -0.6232
  708MPD2     C10517   4.539   3.678  14.413  0.8102  0.0325  0.0799
  708MPD2    C110518   4.496   3.793  14.481 -0.5970  0.3482  0.7954
  708MPD2    C210519   4.584   3.847  14.569 -0.4191  0.1003 -0.0822
  708MPD2    C310520   4.706   3.783  14.602 -0.2364 -0.4135  0.0496
  708MPD2    C410521   4.734   3.658  14.555  0.0213 -0.0289 -0.2674
  708MPD2    C510522   4.653   3.611  14.454 -0.4295  0.0021 -0.2410
  708MPD2     H10523   4.565   3.944  14.613  0.5859 -0.2091  1.0461
  708MPD2    H110524   0.088   3.604  14.580 -1.4791 -0.8319  3.4733
  708MPD2    H210525   4.491   3.635  14.326  1.4194  0.2132 -0.3428
  708MPD2    H310526   4.675   3.511  14.421 -0.1124  0.2679 -0.8220
  708MPD2     N10527   0.058   3.845  14.695  0.0921  0.9463  0.4627
  708MPD2    H510528   0.025   3.932  14.737  1.1404  1.6886 -0.2612
  708MPD2    N110529   4.377   3.855  14.439 -0.7619  0.0980  0.0661
  708MPD2    H710530   4.323   3.812  14.365 -0.2837 -2.4274  1.1884
  709TMC3    C110531   4.234   4.039  14.444 -0.0016  0.2866 -0.1117
  709TMC3    C210532   4.244   4.035  14.306  0.5000  0.0014  0.4561
  709TMC3    C310533   4.269   4.153  14.244 -0.5002 -0.5552  0.5380
  709TMC3    C410534   4.233   4.150  14.520 -0.2371  0.5809  0.1839
  709TMC3    C510535   4.268   4.265  14.456  0.5153  0.4004 -0.9732
  709TMC3    C610536   4.283   4.272  14.318  0.4794  0.5580  0.7425
  709TMC3     C10537   4.312   3.941  14.516 -0.3947 -0.1507  0.3659
  709TMC3     O10538   4.329   3.952  14.638  0.0867 -0.0972  0.7231
  709TMC3     H10539   4.238   3.942  14.250 -0.4327  0.1141  0.3654
  709TMC3    H110540   4.229   4.149  14.628 -1.1808 -0.9006  0.1283
  709TMC3    H210541   4.301   4.362  14.259  1.1072  0.5205  0.8752
  709TMC3    C710542   4.387   4.298  14.536 -0.3862  0.1705  1.0328
  709TMC3    C810543   4.270   4.150  14.096  0.3378  0.0749  0.8420
  709TMC3    O110544   4.500   4.275  14.496 -0.2873 -0.1743  0.3351
  709TMC3    O210545   4.237   4.041  14.049 -0.5196 -0.0689  0.3173
  710TMC3    C110546   2.013   1.158   0.409 -0.2009  0.2380  0.1267
  710TMC3    C210547   2.017   1.158   0.274 -0.1498  0.5522 -0.0257
  710TMC3    C310548   2.124   1.102   0.211  0.1329  0.2415 -0.0365
  710TMC3    C410549   2.113   1.115   0.485 -0.5305  0.4409 -0.1176
  710TMC3    C510550   2.219   1.060   0.421  0.1709  0.0199  0.3397
  710TMC3    C610551   2.233   1.054   0.282  0.0498 -0.1699 -0.7914
  710TMC3     C10552   1.924   1.266   0.469 -0.2459 -0.2577  0.2294
  710TMC3     O10553   1.881   1.348   0.390 -0.3327 -0.1227  0.5116
  710TMC3     H10554   1.936   1.207   0.222 -0.9853 -1.6814 -0.8311
  710TMC3    H110555   2.113   1.133   0.592  0.6174 -2.4261  0.3756
  710TMC3    H210556   2.299   0.984   0.233 -0.0624 -2.1719  1.9694
  710TMC3    C710557   2.304   0.974   0.505  0.2696 -0.0044  0.2131
  710TMC3    C810558   2.105   1.067   0.069  0.3070  0.4927 -0.4259
  710TMC3    O110559   2.284   0.980   0.626  0.4216 -0.2239  0.0894
  710TMC3    O210560   2.204   1.044  17.746 -0.3040  0.8007 -0.6535
  711TMC3    C110561   1.586   1.944  15.114  0.2700 -0.0967 -0.3018
  711TMC3    C210562   1.598   1.978  15.247  0.0612 -0.2497  0.2697
  711TMC3    C310563   1.725   1.963  15.298 -0.2726  0.2304 -0.1376
  711TMC3    C410564   1.692   1.906  15.041 -1.3488  0.3273 -0.7023
  711TMC3    C510565   1.811   1.870  15.103  0.2111 -0.5200  0.0548
  711TMC3    C610566   1.828   1.909  15.226 -0.2040 -0.4991 -0.0028
  711TMC3     C10567   1.473   1.855  15.094  0.7065 -0.2062  0.3057
  711TMC3     O10568   1.436   1.840  14.979  0.6452 -0.2045 -0.2504
  711TMC3     H10569   1.517   2.020  15.305  0.9445 -0.8407  1.9374
  711TMC3    H110570   1.676   1.874  14.939  0.0157  2.1820 -1.5088
  711TMC3    H210571   1.915   1.871  15.278 -0.2201 -1.5243 -0.7246
  711TMC3    C710572   1.847   1.732  15.083 -0.5955  0.4469  0.7342
  711TMC3    C810573   1.719   1.938  15.440 -0.9381  1.4698  0.0791
  711TMC3    O110574   1.949   1.690  15.138 -0.2579 -0.0709  0.1284
  711TMC3    O210575   1.607   1.903  15.475 -0.4531  0.4823 -0.5385
  712MPD2     C10576   3.078   2.723  13.373 -0.0789 -0.2611 -0.6884
  712MPD2    C110577   2.960   2.782  13.411 -0.2621  0.7875 -0.2903
  712MPD2    C210578   2.963   2.914  13.447 -0.5994 -0.1617 -0.1651
  712MPD2    C310579   3.076   2.984  13.476  0.2539 -0.7268 -0.2496
  712MPD2    C410580   3.191   2.920  13.437 -0.0666 -0.0395 -0.1111
  712MPD2    C510581   3.193   2.796  13.383  0.9143  0.1120 -0.2085
  712MPD2     H10582   2.865   2.956  13.470 -1.8878 -1.9022 -2.5163
  712MPD2    H110583   3.290   2.965  13.438 -0.7807  1.5351 -0.5266
  712MPD2    H210584   3.091   2.621  13.339 -1.1913  0.6064 -3.7892
  712MPD2    H310585   3.283   2.746  13.351  0.6559  0.4376 -1.4539
  712MPD2     N10586   3.075   3.115  13.524  0.6884  0.5091  0.3162
  712MPD2    H510587   3.160   3.171  13.523  0.5306  0.7450  0.1440
  712MPD2    N110588   2.836   2.726  13.415 -0.3559  0.4088  0.3022
  712MPD2    H710589   2.763   2.784  13.455 -0.0999 -0.0444  1.4234
  713TMC3    C110590   2.991   3.327  13.586 -0.1879  0.0684  0.4399
  713TMC3    C210591   3.108   3.379  13.539  0.0717  0.8536 -0.1503
  713TMC3    C310592   3.162   3.496  13.590 -0.5521  0.7289  0.0562
  713TMC3    C410593   2.919   3.385  13.688 -0.6430 -0.1100 -0.5911
  713TMC3    C510594   2.970   3.498  13.726  0.7080 -0.0219 -0.4106
  713TMC3    C610595   3.093   3.558  13.693  0.0442 -1.0760 -0.3240
  713TMC3     C10596   2.963   3.191  13.557 -0.0781  0.4901  0.1591
  713TMC3     O10597   2.845   3.155  13.584  0.4670 -0.6070 -0.4114
  713TMC3     H10598   3.146   3.344  13.444 -1.9313 -1.1194 -0.2452
  713TMC3    H110599   2.831   3.333  13.723  0.2721 -1.3329 -0.1160
  713TMC3    H210600   3.119   3.658  13.726 -1.3846 -1.6461  2.5068
  713TMC3    C710601   2.884   3.584  13.810 -0.5730  0.4307  0.1051
  713TMC3    C810602   3.202   3.591  13.490 -0.7218  0.2034  0.2619
  713TMC3    O110603   2.935   3.678  13.876 -0.1871 -0.5618  0.5716
  713TMC3    O210604   3.143   3.699  13.488 -0.1693 -0.5116 -0.2434
  714MPD2     C10605   0.524   1.578   1.004 -0.3288 -0.0036  0.3456
  714MPD2    C110606   0.537   1.573   1.138 -0.5543  0.5943 -0.0409
  714MPD2    C210607   0.423   1.586   1.217  1.0254 -0.0873 -0.4330
  714MPD2    C310608   0.307   1.620   1.157 -0.1247  0.3263  0.8128
  714MPD2    C410609   0.302   1.643   1.022 -0.4968  0.6669  0.6138
  714MPD2    C510610   0.412   1.619   0.947  0.6693 -0.2546  0.3401
  714MPD2     H10611   0.416   1.560   1.322  1.9439 -0.8595 -0.5600
  714MPD2    H110612   0.210   1.673   0.974 -0.9780 -1.0390  0.4884
  714MPD2    H210613   0.610   1.567   0.939  2.6021  2.4598  3.7929
  714MPD2    H310614   0.403   1.626   0.839 -2.6041 -0.2304  0.6055
  714MPD2     N10615   0.192   1.636   1.238  0.6486 -0.7138 -0.8467
  714MPD2    H510616   0.201   1.622   1.338  0.4870 -0.4598 -0.7977
  714MPD2    N110617   0.665   1.553   1.199  0.4447  0.0656  0.1821
  714MPD2    H710618   0.743   1.541   1.135  0.2827 -1.6992  0.3379
  715TMC3    C110619   0.825   1.491   1.365 -0.4791 -0.5641 -0.1922
  715TMC3    C210620   0.909   1.439   1.260 -0.6790  0.5015 -0.6056
  715TMC3    C310621   1.017   1.361   1.297  0.0438 -0.5089 -0.6837
  715TMC3    C410622   0.850   1.454   1.493 -0.1493  0.1986  0.0802
  715TMC3    C510623   0.960   1.382   1.529  0.0455 -0.1685  0.6296
  715TMC3    C610624   1.043   1.332   1.427 -0.2209  0.4250 -0.2457
  715TMC3     C10625   0.697   1.543   1.335  0.3463  0.4839 -0.5258
  715TMC3     O10626   0.620   1.548   1.427  0.0089  0.3565 -0.2532
  715TMC3     H10627   0.899   1.474   1.158  0.2720 -0.1692 -0.9298
  715TMC3    H110628   0.786   1.484   1.575  0.3233  1.8793 -0.1664
  715TMC3    H210629   1.118   1.262   1.462 -0.3739  0.5632  0.3558
  715TMC3    C710630   0.986   1.315   1.660 -0.5852  0.4181  0.5556
  715TMC3    C810631   1.083   1.283   1.192 -0.1632 -0.0230 -0.1638
  715TMC3    O110632   1.066   1.221   1.664 -0.0061 -0.3462  0.4578
  715TMC3    O210633   1.070   1.324   1.076 -0.5383  0.0127  0.5896
  716MPD2     C10634   0.125   4.452   9.956 -0.8112 -0.3618  0.6178
  716MPD2    C110635   0.113   4.435   9.820 -0.1910  0.7759  0.2452
  716MPD2    C210636   0.152   4.311   9.772  0.5316  0.8117  0.2072
  716MPD2    C310637   0.205   4.208   9.851 -0.4825  0.0563 -0.0971
  716MPD2    C410638   0.209   4.225   9.988  0.0327 -0.5916  0.1500
  716MPD2    C510639   0.176   4.350  10.039 -0.1958 -0.0310 -0.1695
  716MPD2     H10640   0.127   4.289   9.669  2.0227 -0.5861  0.1488
  716MPD2    H110641   0.241   4.150  10.059  0.5951 -1.9864 -1.5860
  716MPD2    H210642   0.098   4.546  10.003  1.4774  0.6472 -0.0745
  716MPD2    H310643   0.191   4.371  10.145 -0.9393 -2.0993  0.3539
  716MPD2     N10644   0.252   4.092   9.789 -0.1069 -0.5255 -0.2363
  716MPD2    H510645   0.245   4.091   9.688 -4.1903  2.4129  0.0370
  716MPD2    N110646   0.047   4.527   9.740  0.4909  0.5525  0.1617
  716MPD2    H710647   0.006   4.609   9.784 -0.7435  0.2640 -0.4713
  717TMC3    C110648   0.370   3.894   9.740  0.5676  0.0311 -0.3170
  717TMC3    C210649   0.286   3.871   9.632  0.2120 -0.6087  0.1903
  717TMC3    C310650   0.341   3.799   9.531 -0.3538  0.1422  0.3335
  717TMC3    C410651   0.503   3.853   9.748  0.2135 -0.4016  0.2848
  717TMC3    C510652   0.556   3.804   9.629 -0.1762  0.4522  0.3835
  717TMC3    C610653   0.479   3.771   9.522 -0.0789  0.0322  0.5273
  717TMC3     C10654   0.330   3.990   9.843 -0.5830 -0.2122 -0.2465
  717TMC3     O10655   0.361   3.952   9.956  0.5885  0.3890 -0.6078
  717TMC3     H10656   0.178   3.883   9.629  0.2445 -0.0847  1.0205
  717TMC3    H110657   0.566   3.864   9.835 -0.4159 -0.6876  0.7814
  717TMC3    H210658   0.520   3.722   9.434 -0.7005 -0.3136  0.4325
  717TMC3    C710659   0.686   3.740   9.631 -0.0169  0.1992  0.1867
  717TMC3    C810660   0.261   3.762   9.416 -0.3100 -0.6281 -0.6823
  717TMC3    O110661   0.713   3.648   9.558 -0.0719 -0.2649 -0.7268
  717TMC3    O210662   0.143   3.739   9.430 -0.3925  0.0415  0.2243
  718MPD2     C10663   4.042   3.549  12.864 -0.6344  0.1829  0.1680
  718MPD2    C110664   4.148   3.566  12.948 -0.3348 -0.2555 -0.0797
  718MPD2    C210665   4.127   3.556  13.084 -0.0039 -0.2825 -0.0533
  718MPD2    C310666   4.004   3.529  13.135  0.0769  0.8567 -0.0277
  718MPD2    C410667   3.900   3.497  13.049 -0.9227  0.8260 -0.6716
  718MPD2    C510668   3.920   3.514  12.914  0.5849 -0.6861  0.1423
  718MPD2     H10669   4.213   3.554  13.150 -0.8361 -1.9150  0.9870
  718MPD2    H110670   3.804   3.456  13.076 -0.0447 -0.3376  0.6872
  718MPD2    H210671   4.069   3.554  12.759  0.2464  1.4015  0.4535
  718MPD2    H310672   3.841   3.470  12.855 -2.2153  2.1749  1.7924
  718MPD2     N10673   4.002   3.492  13.269  0.1110  0.2487 -0.7076
  718MPD2    H510674   4.095   3.474  13.306 -1.3998 -1.3052  2.2960
  718MPD2    N110675   4.274   3.566  12.897  0.0903 -0.3210  0.4990
  718MPD2    H710676   4.292   3.528  12.805 -0.2680  1.2422 -0.2254
  719TMC3    C110677   4.502   3.515  12.919 -0.1303  0.3720 -0.3044
  719TMC3    C210678   4.487   3.385  12.891  0.2982  0.1607 -0.1935
  719TMC3    C310679   4.588   3.296  12.921 -0.3906 -0.6735 -0.6570
  719TMC3    C410680   4.616   3.568  12.966  0.1379  0.2554  0.1339
  719TMC3    C510681   4.721   3.482  12.990  0.2720  0.0403  0.2405
  719TMC3    C610682   4.710   3.345  12.974 -0.2082 -0.3637 -0.6181
  719TMC3     C10683   4.386   3.590  12.969 -0.1847 -1.0248  1.2940
  719TMC3     O10684   4.401   3.657  13.069  0.0409 -0.1156  0.6452
  719TMC3     H10685   4.392   3.339  12.866 -0.9277  1.4947  2.0449
  719TMC3    H110686   4.631   3.674  12.986  0.3098  0.0627  1.0690
  719TMC3    H210687   0.055   3.278  12.998 -0.5607 -0.1713  1.1183
  719TMC3    C710688   0.121   3.546  12.985 -0.1551  1.0734  0.4947
  719TMC3    C810689   4.553   3.160  12.962  0.0091 -0.5760  0.3385
  719TMC3    O110690   0.131   3.656  12.931 -0.2071  0.2216  0.1261
  719TMC3    O210691   4.441   3.137  12.920  0.2255  0.2327 -0.7447
  720MPD2     C10692   2.627   0.227  14.012  0.4738 -0.2207  0.2148
  720MPD2    C110693   2.714   0.196  13.907  0.1624 -0.2849 -0.2414
  720MPD2    C210694   2.835   0.141  13.939 -0.2464  0.0048  0.1255
  720MPD2    C310695   2.870   0.109  14.066  0.2012 -0.1481 -0.3029
  720MPD2    C410696   2.786   0.134  14.166 -0.2969  0.2454 -0.1029
  720MPD2    C510697   2.665   0.190  14.138 -1.0278  0.4969  0.7228
  720MPD2     H10698   2.916   0.130  13.869  1.8508  0.0615  2.5258
  720MPD2    H110699   2.810   0.112  14.269  0.8089  0.7892 -0.2432
  720MPD2    H210700   2.528   0.263  13.985  2.6019  2.8493 -3.3320
  720MPD2    H310701   2.598   0.211  14.222 -2.6535 -0.0927 -0.4243
  720MPD2     N10702   3.005   0.071  14.082  0.3590 -0.5191  0.2770
  720MPD2    H510703   3.070   0.064  14.004  1.8899  0.5113  1.4560
  720MPD2    N110704   2.680   0.238  13.772  0.3034  0.1542  0.5601
  720MPD2    H710705   2.597   0.295  13.765 -0.6093 -1.3027 -0.5131
  721TMC3    C110706   3.213   0.092  14.202  0.5686  0.8866  0.4306
  721TMC3    C210707   3.273   0.092  14.326 -0.6696  0.1152  0.3046
  721TMC3    C310708   3.394   0.154  14.327  0.6845 -0.5729  0.1915
  721TMC3    C410709   3.259   0.151  14.086 -0.8123 -0.4093  0.4836
  721TMC3    C510710   3.376   0.226  14.099 -1.2674 -0.5048 -0.1059
  721TMC3    C610711   3.441   0.223  14.216  0.7225  0.1450 -0.3376
  721TMC3     C10712   3.071   0.063  14.204  0.1160 -0.4379 -0.0186
  721TMC3     O10713   3.022   0.057  14.318  0.7116  0.4021 -0.1061
  721TMC3     H10714   3.238   0.033  14.410 -0.6370  0.9639  0.9202
  721TMC3    H110715   3.228   0.130  13.985 -0.5296  1.2871  0.0507
  721TMC3    H210716   3.532   0.283  14.215  0.1688  1.0101  0.6953
  721TMC3    C710717   3.463   0.246  13.981 -0.7493 -0.1935 -0.1146
  721TMC3    C810718   3.485   0.142  14.443 -0.2906  0.1490  0.7101
  721TMC3    O110719   3.582   0.230  14.003  0.1282 -0.0542  0.6700
  721TMC3    O210720   3.595   0.196  14.428  0.2342  0.4105  0.6108
  722MPD2     C10721   1.530   3.368  13.602  0.3796  0.3842  0.0219
  722MPD2    C110722   1.562   3.492  13.551 -0.4751  0.4831 -0.3385
  722MPD2    C210723   1.476   3.567  13.473 -0.3465  0.9917 -0.7161
  722MPD2    C310724   1.347   3.523  13.446 -0.2436 -0.6501  0.2631
  722MPD2    C410725   1.309   3.397  13.497  0.2563 -0.0205  0.3920
  722MPD2    C510726   1.399   3.325  13.580 -1.6963 -0.3577  0.2701
  722MPD2     H10727   1.502   3.669  13.445 -0.2509  0.7309 -1.5732
  722MPD2    H110728   1.211   3.358  13.474  0.0100  1.4305 -1.0636
  722MPD2    H210729   1.599   3.308  13.659  0.2720 -0.0406 -0.2922
  722MPD2    H310730   1.370   3.230  13.622  0.2010 -2.0130 -2.2088
  722MPD2     N10731   1.274   3.599  13.354  0.1072 -0.2533 -0.5439
  722MPD2    H510732   1.306   3.692  13.329 -1.7458  1.4450  3.4978
  722MPD2    N110733   1.680   3.564  13.580  0.2408 -0.3848 -0.3575
  722MPD2    H710734   1.695   3.655  13.538  1.8963 -1.6253 -2.4588
  723TMC3    C110735   1.081   3.676  13.235 -0.1415  0.1695 -0.6262
  723TMC3    C210736   1.154   3.709  13.126  0.8190  0.3337 -0.4431
  723TMC3    C310737   1.116   3.824  13.063  0.1861 -0.5053  0.4890
  723TMC3    C410738   0.961   3.731  13.274 -0.4402  0.0551 -0.1204
  723TMC3    C510739   0.939   3.848  13.208  0.0959 -0.5145 -0.1069
  723TMC3    C610740   1.009   3.901  13.101  1.0485 -0.4252  0.0553
  723TMC3     C10741   1.138   3.578  13.322  0.2532  0.3029  0.0460
  723TMC3     O10742   1.053   3.498  13.359  0.4130 -0.1243  0.6283
  723TMC3     H10743   1.236   3.646  13.094  1.2174  0.2688  0.6847
  723TMC3    H110744   0.903   3.699  13.360 -0.7310 -0.5063 -0.5262
  723TMC3    H210745   0.993   4.001  13.065  1.0595  0.6673  3.1139
  723TMC3    C710746   0.804   3.905  13.221 -0.3022 -0.1339 -0.0027
  723TMC3    C810747   1.146   3.829  12.922 -1.1224  0.6924 -0.6135
  723TMC3    O110748   0.784   4.020  13.196 -0.2090 -0.3609 -0.0403
  723TMC3    O210749   1.168   3.931  12.860 -0.2861  0.5489 -0.0308
  724TMC3    C110750   2.305   2.121  11.062 -0.3689  0.5983  0.4377
  724TMC3    C210751   2.308   2.010  10.976  0.4791 -0.2763  0.4373
  724TMC3    C310752   2.401   2.003  10.876  0.3211  0.2196  0.5221
  724TMC3    C410753   2.409   2.212  11.051 -0.1465 -0.7685  0.1518
  724TMC3    C510754   2.500   2.200  10.945  0.1818 -0.6041 -0.5518
  724TMC3    C610755   2.499   2.095  10.860  0.0341 -0.7369 -0.0577
  724TMC3     C10756   2.177   2.145  11.130  0.3567 -0.5301  0.5394
  724TMC3     O10757   2.095   2.055  11.113 -0.4258  0.2193 -0.6511
  724TMC3     H10758   2.226   1.940  10.969  0.8716 -0.5954 -1.0130
  724TMC3    H110759   2.433   2.280  11.133  1.8012  0.7479 -1.6824
  724TMC3    H210760   2.581   2.087  10.789  0.1425 -2.1898  0.2306
  724TMC3    C710761   2.627   2.275  10.942  0.0543  0.3540 -0.0766
  724TMC3    C810762   2.349   1.939  10.757  0.5597  0.6146  0.2401
  724TMC3    O110763   2.719   2.223  10.877  0.1578 -0.1819  0.1063
  724TMC3    O210764   2.263   1.854  10.768  0.1469 -0.0314 -0.0524
  725TMC3    C110765   3.311   0.664  12.458  0.5540  0.0852  0.0008
  725TMC3    C210766   3.328   0.691  12.325 -0.2602 -0.4379  0.1690
  725TMC3    C310767   3.344   0.578  12.244  0.3813  0.6246 -0.0425
  725TMC3    C410768   3.345   0.546  12.518  0.1404 -0.0271  0.1791
  725TMC3    C510769   3.364   0.444  12.431 -0.3191  0.5034 -0.2906
  725TMC3    C610770   3.358   0.454  12.299 -0.0476 -0.5804  0.3932
  725TMC3     C10771   3.308   0.777  12.552 -0.2563  0.0154  0.5130
  725TMC3     O10772   3.342   0.888  12.510 -0.2013 -0.3748  0.3524
  725TMC3     H10773   3.332   0.792  12.285 -0.8605 -0.9188 -1.1064
  725TMC3    H110774   3.373   0.538  12.623  0.8285 -0.5309 -0.0470
  725TMC3    H210775   3.360   0.370  12.230 -0.5707 -0.5878  0.3911
  725TMC3    C710776   3.385   0.310  12.491 -0.3714  0.2972 -0.5219
  725TMC3    C810777   3.341   0.583  12.095  0.1666 -0.6944 -0.3044
  725TMC3    O110778   3.396   0.225  12.402 -0.0418  0.2510 -0.7931
  725TMC3    O210779   3.277   0.497  12.032  0.3481 -0.3417 -0.4815
  726MPD2     C10780   1.786   2.063  10.231  1.0184  0.4588  0.7369
  726MPD2    C110781   1.650   2.093  10.226 -0.4472 -0.4466  0.5039
  726MPD2    C210782   1.554   1.991  10.224 -0.1658 -0.0032  0.3717
  726MPD2    C310783   1.604   1.858  10.240  0.1490  0.7601 -0.3378
  726MPD2    C410784   1.738   1.828  10.243 -1.5109  0.2815  0.1433
  726MPD2    C510785   1.828   1.932  10.238 -0.6021 -0.4585 -0.0254
  726MPD2     H10786   1.450   2.020  10.221 -0.5812 -1.7887 -2.1353
  726MPD2    H110787   1.781   1.729  10.243 -0.4643  0.7319  0.3089
  726MPD2    H210788   1.864   2.138  10.230  0.1929  1.3131 -0.0934
  726MPD2    H310789   1.935   1.911  10.230 -0.8736 -1.3741 -1.2387
  726MPD2     N10790   1.520   1.750  10.269 -0.6643 -0.9396  0.1411
  726MPD2    H510791   1.567   1.661  10.284 -1.2044 -0.8586  2.2613
  726MPD2    N110792   1.606   2.227  10.238 -0.0972  0.2360  0.1882
  726MPD2    H710793   1.516   2.255  10.202  0.4685 -0.2417 -1.5930
  727TMC3    C110794   1.609   2.453  10.317 -0.1565 -0.1006 -0.2423
  727TMC3    C210795   1.648   2.537  10.424  0.5925  0.0135  0.3829
  727TMC3    C310796   1.600   2.665  10.417  0.2641  0.4927 -0.3998
  727TMC3    C410797   1.538   2.492  10.214  0.1166 -0.1888  0.6065
  727TMC3    C510798   1.500   2.621  10.213 -0.5450  0.1508  0.4325
  727TMC3    C610799   1.529   2.707  10.311  0.1616 -0.1734  0.2903
  727TMC3     C10800   1.672   2.321  10.319 -0.1645 -0.8645 -0.8297
  727TMC3     O10801   1.756   2.301  10.401  0.3754 -0.4462 -0.5276
  727TMC3     H10802   1.712   2.505  10.505 -0.0265 -1.6379  0.2225
  727TMC3    H110803   1.529   2.436  10.122 -0.2334 -1.9366  1.7147
  727TMC3    H210804   1.495   2.810  10.303  1.7811  0.5551  2.8227
  727TMC3    C710805   1.427   2.667  10.097  0.4124  0.1620 -0.3884
  727TMC3    C810806   1.633   2.761  10.526 -0.6449  0.5408 -0.4346
  727TMC3    O110807   1.426   2.788  10.075 -0.4954  0.6608  0.1579
  727TMC3    O210808   1.740   2.735  10.581 -0.3574  0.1413  0.0925
  728TMC3    C110809   0.462   0.723  15.588  0.1844 -0.6535 -0.3279
  728TMC3    C210810   0.580   0.765  15.635 -0.0487 -0.1979  0.2274
  728TMC3    C310811   0.687   0.765  15.548 -0.4360  0.1021 -0.4471
  728TMC3    C410812   0.442   0.681  15.457  0.5077 -0.1074 -0.5165
  728TMC3    C510813   0.554   0.661  15.386 -0.5286 -0.8085  0.2546
  728TMC3    C610814   0.677   0.705  15.425  0.2929  0.9771 -0.1785
  728TMC3     C10815   0.348   0.738  15.679  0.0488 -0.3719 -0.1499
  728TMC3     O10816   0.354   0.817  15.773  0.4501 -0.8342  0.0613
  728TMC3     H10817   0.583   0.794  15.739  1.1273 -0.9624  0.4117
  728TMC3    H110818   0.341   0.664  15.420 -0.1036  0.1177  1.0286
  728TMC3    H210819   0.761   0.693  15.358 -1.1094 -0.9345 -1.6011
  728TMC3    C710820   0.520   0.658  15.240  0.3815  0.0283  0.5644
  728TMC3    C810821   0.805   0.761  15.621 -0.1008  0.3486 -0.3336
  728TMC3    O110822   0.400   0.631  15.211 -0.2614 -0.0603  0.7715
  728TMC3    O210823   0.803   0.774  15.743  0.1181 -0.0281 -0.1900
  729MPD2     C10824   2.778   2.151  17.080  0.4235  0.0096 -0.0926
  729MPD2    C110825   2.851   2.040  17.068  0.0281  0.2450 -0.1289
  729MPD2    C210826   2.946   2.004  17.166  0.6596  0.5339  0.1815
  729MPD2    C310827   2.966   2.085  17.273 -0.1074  0.1468 -0.2659
  729MPD2    C410828   2.893   2.197  17.279 -0.1507 -0.0766  0.3130
  729MPD2    C510829   2.802   2.233  17.184 -0.6769 -0.3011 -0.6237
  729MPD2     H10830   3.008   1.915  17.166 -1.8325 -1.2071 -1.1954
  729MPD2    H110831   2.901   2.265  17.363 -4.5194  0.0719  0.5953
  729MPD2    H210832   2.713   2.197  17.006  0.1290 -0.0582  0.1240
  729MPD2    H310833   2.757   2.331  17.181 -0.9777 -0.4068  0.5992
  729MPD2     N10834   3.046   2.050  17.385  0.2290  0.1142  0.3127
  729MPD2    H510835   3.032   2.106  17.468  0.3017 -0.2068  0.5400
  729MPD2    N110836   2.830   1.962  16.956 -0.4015  0.0345  0.1178
  729MPD2    H710837   2.779   1.996  16.875 -0.3272 -1.5588 -0.5915
  730TMC3    C110838   3.218   1.981  17.520  0.2458 -0.0429  0.7209
  730TMC3    C210839   3.350   2.008  17.510 -0.8012  0.0817 -0.3872
  730TMC3    C310840   3.397   2.115  17.588  0.2113  0.1628 -0.0946
  730TMC3    C410841   3.134   2.042  17.605  0.2644 -0.4157 -0.3382
  730TMC3    C510842   3.175   2.145  17.684 -0.2582  0.0739 -0.3139
  730TMC3    C610843   3.313   2.180  17.674  0.3607  0.2621 -0.6868
  730TMC3     C10844   3.158   1.978  17.391  0.9105 -1.5952 -0.2312
  730TMC3     O10845   3.216   1.915  17.298  0.8688  0.3298 -0.2071
  730TMC3     H10846   3.408   1.946  17.443 -1.8642 -1.6972  0.3535
  730TMC3    H110847   3.035   1.999  17.620  0.0879 -0.0218 -0.3568
  730TMC3    H210848   3.345   2.255  17.745 -0.3139 -0.8659  0.8285
  730TMC3    C710849   3.090   2.260  17.659  0.2790 -0.2704 -0.6600
  730TMC3    C810850   3.524   2.169  17.542  0.0082 -0.2180 -0.4344
  730TMC3    O110851   2.991   2.238  17.589  0.2170 -0.2574 -0.2618
  730TMC3    O210852   3.570   2.121  17.436  0.1414 -0.5665 -0.4394
  731MPD2     C10853   2.924   0.436  12.240  0.4052  0.7692 -0.2170
  731MPD2    C110854   2.832   0.346  12.200 -0.4540 -0.3699  0.6311
  731MPD2    C210855   2.718   0.326  12.274 -0.4118  0.6114 -0.0866
  731MPD2    C310856   2.697   0.406  12.389  0.6174 -0.2044  0.7387
  731MPD2    C410857   2.791   0.501  12.422 -0.0083 -0.6690 -0.4542
  731MPD2    C510858   2.904   0.511  12.349  0.5683  0.3926  0.5295
  731MPD2     H10859   2.639   0.254  12.255  1.5629 -1.0444 -1.9636
  731MPD2    H110860   2.780   0.573  12.502  0.9409 -0.6570 -0.3408
  731MPD2    H210861   3.006   0.463  12.175 -0.2461 -0.3562 -1.5143
  731MPD2    H310862   2.970   0.593  12.373  0.2472  0.9163 -0.3672
  731MPD2     N10863   2.587   0.375  12.470 -0.1309  0.5233 -0.5122
  731MPD2    H510864   2.535   0.297  12.429  0.0663 -0.4138  1.0518
  731MPD2    N110865   2.854   0.281  12.075  0.0230  0.1736 -0.2411
  731MPD2    H710866   2.945   0.291  12.032 -0.4272  0.1935 -1.2107
  732TMC3    C110867   2.801   0.173  11.872  0.4132  0.1086 -0.3574
  732TMC3    C210868   2.724   0.198  11.763 -0.1889  0.4344 -0.7136
  732TMC3    C310869   2.769   0.155  11.643 -0.0346 -0.0831 -0.4234
  732TMC3    C410870   2.915   0.099  11.869  0.5078  0.4492  0.1330
  732TMC3    C510871   2.961   0.059  11.746 -0.1629  0.4441 -0.2313
  732TMC3    C610872   2.888   0.086  11.633 -1.0741 -0.1662 -0.5061
  732TMC3     C10873   2.757   0.219  12.002 -0.1649  0.0429 -0.5014
  732TMC3     O10874   2.634   0.205  12.026 -0.2667 -0.2691  0.8512
  732TMC3     H10875   2.630   0.251  11.773 -0.9809 -1.2271  0.5064
  732TMC3    H110876   2.979   0.078  11.954  0.6093 -2.4998 -0.6901
  732TMC3    H210877   2.911   0.032  11.542 -0.5037  1.8734 -1.5657
  732TMC3    C710878   3.077   4.711  11.730 -0.2126  0.1939 -0.2990
  732TMC3    C810879   2.675   0.115  11.545  0.3318  0.2339  0.1236
  732TMC3    O110880   3.124   4.721  11.618 -0.3927 -0.2498  0.5877
  732TMC3    O210881   2.718   0.088  11.436 -0.1968  0.2445  0.4802
  733TMC3    C110882   3.825   3.151  13.552  0.3551  0.3404 -0.2609
  733TMC3    C210883   3.822   3.281  13.499  0.0252 -0.5658 -0.1580
  733TMC3    C310884   3.930   3.329  13.426 -0.2604 -0.4162 -0.6828
  733TMC3    C410885   3.935   3.073  13.536 -0.6511  0.3917  0.3018
  733TMC3    C510886   4.039   3.117  13.455  0.5023 -0.1958 -0.7205
  733TMC3    C610887   4.037   3.245  13.398  0.7994  0.5485  0.5951
  733TMC3     C10888   3.700   3.085  13.524  0.6740  0.4215  0.3545
  733TMC3     O10889   3.600   3.152  13.526  0.2056 -0.8702  0.2481
  733TMC3     H10890   3.734   3.344  13.500  0.9971  0.8023 -1.1657
  733TMC3    H110891   3.929   2.977  13.587  0.3163  0.5864  0.7802
  733TMC3    H210892   4.108   3.271  13.320 -0.4000  0.8391 -0.4081
  733TMC3    C710893   4.167   3.048  13.457 -0.6644  0.1852  0.3904
  733TMC3    C810894   3.895   3.429  13.328  1.0962 -0.3859  0.2170
  733TMC3    O110895   4.194   2.990  13.563  0.1220 -0.0739 -0.1056
  733TMC3    O210896   3.772   3.447  13.307 -0.1498  0.0769 -0.7812
  734MPD2     C10897   1.605   1.191  12.657 -0.3015  0.5957  0.5356
  734MPD2    C110898   1.491   1.119  12.616 -0.5226 -0.1828  0.0317
  734MPD2    C210899   1.469   1.126  12.475  0.2540 -0.1765  0.2885
  734MPD2    C310900   1.542   1.198  12.385 -0.1473 -0.1920 -0.1481
  734MPD2    C410901   1.635   1.282  12.442 -0.1801 -0.6834 -0.3384
  734MPD2    C510902   1.677   1.274  12.573  0.1524  0.2307 -0.4367
  734MPD2     H10903   1.396   1.057  12.435  0.3856 -0.6219  0.8177
  734MPD2    H110904   1.694   1.351  12.383 -1.5124  1.7791  1.1995
  734MPD2    H210905   1.633   1.190  12.762  0.2105  0.2824  0.3981
  734MPD2    H310906   1.740   1.346  12.624  1.5998 -1.2392 -0.1458
  734MPD2     N10907   1.503   1.184  12.252  0.6676 -0.4582 -0.3824
  734MPD2    H510908   1.431   1.118  12.225  0.9694  0.1985 -2.8678
  734MPD2    N110909   1.419   1.036  12.701 -0.0506 -0.1745 -0.0168
  734MPD2    H710910   1.460   1.019  12.792 -0.1643  1.7768  0.3985
  735TMC3    C110911   1.251   0.879  12.756  0.1282  0.4451 -0.3060
  735TMC3    C210912   1.120   0.846  12.737  0.3149  0.0361 -0.4067
  735TMC3    C310913   1.095   0.721  12.701 -0.3162 -0.6858  0.2233
  735TMC3    C410914   1.347   0.779  12.777 -0.3917 -0.5848  0.9277
  735TMC3    C510915   1.312   0.648  12.743 -0.0125 -0.3271  0.8223
  735TMC3    C610916   1.189   0.620  12.689 -0.1856 -0.2752 -0.7739
  735TMC3     C10917   1.292   0.985  12.673  0.1433  0.4282 -0.1928
  735TMC3     O10918   1.213   1.013  12.584 -0.1465 -0.2142  0.2952
  735TMC3     H10919   1.037   0.915  12.729  0.9617  0.9813  0.8871
  735TMC3    H110920   1.448   0.812  12.795  0.6498 -1.9300 -2.4531
  735TMC3    H210921   1.165   0.523  12.647  2.3403 -0.4786 -1.7079
  735TMC3    C710922   1.427   0.578  12.677  0.6065 -0.1061  0.0783
  735TMC3    C810923   0.999   0.714  12.591 -0.7147 -0.2080 -0.1378
  735TMC3    O110924   1.520   0.646  12.638 -0.5893  0.5706 -0.1241
  735TMC3    O210925   0.946   0.601  12.571 -0.3664 -0.0332  0.0777
  736MPD2     C10926   1.437   0.225  12.550  0.4265 -0.1447  0.0101
  736MPD2    C110927   1.470   0.361  12.554  0.0606  1.2490 -0.0658
  736MPD2    C210928   1.549   0.413  12.455  0.4921 -0.1927  0.1653
  736MPD2    C310929   1.617   0.322  12.378 -0.3870 -0.0880  0.3239
  736MPD2    C410930   1.598   0.190  12.380 -0.4651 -0.6458  0.3437
  736MPD2    C510931   1.512   0.143  12.469 -0.0421 -0.0036 -0.1669
  736MPD2     H10932   1.566   0.519  12.443 -0.0542  0.0722  1.6831
  736MPD2    H110933   1.659   0.123  12.321 -0.0375 -1.0875  1.2964
  736MPD2    H210934   1.366   0.175  12.616  0.9856 -2.9276 -1.5062
  736MPD2    H310935   1.505   0.036  12.487  2.0747 -0.3529 -1.3997
  736MPD2     N10936   1.729   0.362  12.297 -0.5210 -0.1689  0.2235
  736MPD2    H510937   1.768   0.289  12.238 -0.2850  0.3748 -0.2958
  736MPD2    N110938   1.396   0.445  12.645  0.4887  0.1325 -0.3272
  736MPD2    H710939   1.323   0.393  12.692 -0.3330  0.8057 -0.8684
  737TMC3    C110940   1.881   0.496  12.169 -0.0084  0.7249 -0.7327
  737TMC3    C210941   1.958   0.608  12.165 -0.3427  0.1362  0.6848
  737TMC3    C310942   2.038   0.630  12.056  0.2159  0.2917  0.2355
  737TMC3    C410943   1.896   0.400  12.064 -0.4005  0.1340 -0.8394
  737TMC3    C510944   1.976   0.427  11.954 -0.0257 -0.1723 -0.3038
  737TMC3    C610945   2.043   0.542  11.950 -0.4472 -0.4806 -0.0019
  737TMC3     C10946   1.778   0.489  12.278 -0.2014  0.6587  0.1090
  737TMC3     O10947   1.730   0.593  12.320 -0.2520  0.2862  0.7835
  737TMC3     H10948   1.942   0.671  12.252 -0.2535  2.4208 -0.9362
  737TMC3    H110949   1.845   0.305  12.064  1.5966 -0.9230  2.0202
  737TMC3    H210950   2.100   0.577  11.864 -1.9077 -1.1763 -1.2660
  737TMC3    C710951   1.988   0.327  11.852 -0.1628  0.2738 -0.4638
  737TMC3    C810952   2.063   0.768  12.027  0.2934 -0.4083  0.0289
  737TMC3    O110953   1.899   0.245  11.858 -0.0503 -0.7233 -0.2270
  737TMC3    O210954   2.176   0.807  12.049 -0.0612 -0.1275 -0.1250
  738MPD2     C10955   2.155   3.325  15.347  0.0609 -0.5422 -0.7796
  738MPD2    C110956   2.047   3.383  15.278  1.2343  0.1045 -0.0068
  738MPD2    C210957   2.073   3.474  15.180  0.1840 -0.0770 -0.3351
  738MPD2    C310958   2.211   3.515  15.155 -0.0238 -0.5252 -0.2722
  738MPD2    C410959   2.308   3.463  15.232  0.0255 -0.3019  0.0883
  738MPD2    C510960   2.288   3.359  15.318 -0.1530 -0.0899 -0.0563
  738MPD2     H10961   1.994   3.531  15.132 -0.4664 -1.6800 -1.1657
  738MPD2    H110962   2.406   3.510  15.230 -0.2742  0.3809  1.4037
  738MPD2    H210963   2.137   3.243  15.415 -0.1909 -0.0263 -0.2261
  738MPD2    H310964   2.368   3.326  15.384  0.5601  1.7714  0.0110
  738MPD2     N10965   2.247   3.622  15.066  1.0883 -0.3345  0.2445
  738MPD2    H510966   2.343   3.652  15.078  0.5427  1.2796  0.4843
  738MPD2    N110967   1.912   3.350  15.303 -0.8774  0.1241  0.2662
  738MPD2    H710968   1.847   3.385  15.233  0.8893  0.6223 -1.1079
  739TMC3    C110969   2.208   3.813  14.936 -0.0622  0.6993 -0.5508
  739TMC3    C210970   2.128   3.871  14.844 -0.6513  0.3992  0.4694
  739TMC3    C310971   2.156   4.000  14.808 -0.2644  0.0524  0.0064
  739TMC3    C410972   2.316   3.875  14.999  0.5871  0.6383  0.4057
  739TMC3    C510973   2.343   4.006  14.960  0.7070  0.0116  0.2845
  739TMC3    C610974   2.260   4.067  14.864  0.8423  0.0409 -0.2704
  739TMC3     C10975   2.158   3.678  14.977  0.9987  0.1447  0.1041
  739TMC3     O10976   2.048   3.639  14.933 -0.4178  0.4826 -0.4655
  739TMC3     H10977   2.056   3.814  14.786  0.4273  0.2082 -0.6654
  739TMC3    H110978   2.382   3.836  15.077 -0.0226  0.5432  0.8756
  739TMC3    H210979   2.287   4.166  14.828  1.8258 -0.2845 -0.4265
  739TMC3    C710980   2.473   4.067  14.980 -0.3623  0.0341 -0.3115
  739TMC3    C810981   2.152   4.041  14.667  0.3556 -0.2062  0.0041
  739TMC3    O110982   2.482   4.171  14.917 -0.1334 -1.1056  0.5265
  739TMC3    O210983   2.054   3.997  14.608  0.1866  0.5543  0.5631
  740TMC3    C110984   2.820   0.467  14.217 -0.2414 -0.0248  0.3887
  740TMC3    C210985   2.912   0.441  14.319  0.3888 -0.1533  0.3524
  740TMC3    C310986   3.035   0.424  14.277 -0.6817 -0.5733  0.3549
  740TMC3    C410987   2.860   0.479  14.085 -0.1496  0.5075 -0.3100
  740TMC3    C510988   2.991   0.456  14.054 -0.2482  0.5078 -0.1004
  740TMC3    C610989   3.081   0.428  14.153 -0.2369  0.1179  0.0533
  740TMC3     C10990   2.696   0.526  14.254  0.4665  0.0983  0.3036
  740TMC3     O10991   2.628   0.580  14.171 -0.7477  0.4851  0.2569
  740TMC3     H10992   2.892   0.457  14.424  0.8078 -0.4816  0.4846
  740TMC3    H110993   2.786   0.494  14.007 -0.7848 -0.1038  0.1776
  740TMC3    H210994   3.185   0.411  14.126 -0.1784 -1.3250  1.2502
  740TMC3    C710995   3.030   0.439  13.917  1.0486  0.0377  1.0223
  740TMC3    C810996   3.129   0.403  14.385 -0.5112  0.3087  0.2052
  740TMC3    O110997   3.130   0.369  13.889 -0.1414  0.6448 -0.0560
  740TMC3    O210998   3.227   0.477  14.377 -0.2574 -0.4875  0.0587
  741TMC3    C110999   2.077   4.417  14.275  1.3740  0.2385  0.2202
  741TMC3    C211000   1.955   4.364  14.291  0.4981 -0.3457  0.5269
  741TMC3    C311001   1.919   4.308  14.410  0.2229  0.8593  0.3135
  741TMC3    C411002   2.156   4.446  14.389  0.0403  0.5387  0.5375
  741TMC3    C511003   2.114   4.391  14.511 -0.0867 -0.0016  0.4435
  741TMC3    C611004   2.000   4.315  14.516 -0.0299 -0.1173  0.4552
  741TMC3     C11005   2.133   4.420  14.137 -0.1970 -0.0115 -0.1826
  741TMC3     O11006   2.062   4.373  14.046  0.2972 -0.0417  0.2727
  741TMC3     H11007   1.897   4.344  14.201  1.1000  1.0839 -0.1825
  741TMC3    H111008   2.261   4.471  14.387  0.3506 -0.6704  1.3505
  741TMC3    H211009   1.988   4.252  14.604  2.2519  0.0643  0.8945
  741TMC3    C711010   2.180   4.438  14.631  0.3061  0.0530 -0.3882
  741TMC3    C811011   1.813   4.203  14.399 -0.5920  0.1844  0.0557
  741TMC3    O111012   2.283   4.507  14.615  0.3069  0.5845 -0.0439
  741TMC3    O211013   1.745   4.196  14.295  0.2672 -0.1518 -0.1676
  742TMC3    C111014   1.993   2.623  15.578  0.4525 -0.1012 -0.5010
  742TMC3    C211015   1.912   2.662  15.476 -0.5406  0.0326  0.1378
  742TMC3    C311016   1.959   2.635  15.345 -0.2377 -0.3781  0.3401
  742TMC3    C411017   2.125   2.590  15.561 -0.2853  0.6478 -0.5316
  742TMC3    C511018   2.165   2.573  15.433  0.1398  0.9072 -0.4843
  742TMC3    C611019   2.085   2.597  15.323  0.0249 -0.2406  0.1657
  742TMC3     C11020   1.944   2.650  15.704 -0.0945 -0.3950  0.0452
  742TMC3     O11021   1.833   2.707  15.711  0.1927  0.1185 -0.6020
  742TMC3     H11022   1.804   2.663  15.489 -0.5362 -0.0060  0.1781
  742TMC3    H111023   2.200   2.562  15.635 -0.0501  0.9102 -0.6696
  742TMC3    H211024   2.107   2.589  15.218 -1.6672  1.5451 -0.3466
  742TMC3    C711025   2.293   2.529  15.403  0.2708 -0.8765  0.0920
  742TMC3    C811026   1.876   2.621  15.229  0.1377 -0.1373  0.3810
  742TMC3    O111027   2.306   2.448  15.314 -0.2509  0.2224  0.6363
  742TMC3    O211028   1.911   2.549  15.133 -0.1007 -0.2752  0.0108
  743MPD2     C11029   0.778   0.042   1.887  0.1282  0.0644  0.3173
  743MPD2    C111030   0.755   4.679   1.793 -0.1415  0.1373 -1.0954
  743MPD2    C211031   0.868   4.619   1.745 -0.3253 -0.5819 -0.1569
  743MPD2    C311032   0.986   4.624   1.808  0.2687 -1.2973  0.3983
  743MPD2    C411033   1.003   4.714   1.912  0.2286  0.0739 -0.0553
  743MPD2    C511034   0.898   0.054   1.953 -0.5354  0.0414 -0.5481
  743MPD2     H11035   0.869   4.550   1.662  0.7581  0.6630 -1.1696
  743MPD2    H111036   1.099   0.012   1.949  1.0590 -0.4416 -1.7510
  743MPD2    H211037   0.695   0.107   1.914 -0.9437 -1.7818  1.4663
  743MPD2    H311038   0.923   0.135   2.021  1.6349 -0.7382 -0.4230
  743MPD2     N11039   1.097   4.549   1.757 -0.1957 -0.7154 -0.3442
  743MPD2    H511040   1.092   4.514   1.661  0.9025 -0.0143 -0.6635
  743MPD2    N111041   0.626   4.675   1.728  0.3442  0.5650  0.5688
  743MPD2    H711042   0.556   0.000   1.765  1.2618  1.1173  1.3737
  744TMC3    C111043   0.456   4.628   1.565  0.5736  0.0752 -0.9999
  744TMC3    C211044   0.399   0.010   1.585  0.6184 -0.0340  0.2322
  744TMC3    C311045   0.285   0.042   1.506 -0.1655  0.0503  0.2962
  744TMC3    C411046   0.419   4.551   1.463 -0.5919  0.1067  0.0291
  744TMC3    C511047   0.305   4.586   1.397 -1.0665  0.0487  0.6970
  744TMC3    C611048   0.237   4.702   1.409  0.0396 -0.5016  0.2784
  744TMC3     C11049   0.578   4.585   1.631  0.2542  1.0489  0.5428
  744TMC3     O11050   0.621   4.472   1.615  0.2015  0.2618 -0.1280
  744TMC3     H11051   0.436   0.084   1.655 -0.6443 -0.6757  1.5802
  744TMC3    H111052   0.471   4.465   1.422  1.1898  1.6673 -0.9554
  744TMC3    H211053   0.155   4.730   1.345 -0.3763 -0.8616  0.6530
  744TMC3    C711054   0.270   4.504   1.277  0.2427 -0.5309 -0.3683
  744TMC3    C811055   0.226   0.176   1.514 -0.3117  0.6672  0.3039
  744TMC3    O111056   0.228   4.559   1.175 -0.1240 -0.3039 -0.4776
  744TMC3    O211057   0.156   0.209   1.419  0.6352 -0.2027 -0.3254
  745TMC3    C111058   2.666   2.557  13.436  0.3214  0.0866 -0.0795
  745TMC3    C211059   2.613   2.646  13.527 -0.7618 -0.0690 -0.1963
  745TMC3    C311060   2.474   2.642  13.520  0.0817 -0.0257  0.2451
  745TMC3    C411061   2.595   2.492  13.336 -0.1006  0.0654 -0.6701
  745TMC3    C511062   2.460   2.511  13.328 -0.2098  0.8774  0.4322
  745TMC3    C611063   2.401   2.585  13.423 -0.2888 -0.1910  0.0086
  745TMC3     C11064   2.805   2.588  13.402 -0.0308  0.7632 -0.2720
  745TMC3     O11065   2.870   2.507  13.341 -0.1725  0.1782 -0.6114
  745TMC3     H11066   2.666   2.706  13.600  1.0419 -2.0882  0.1800
  745TMC3    H111067   2.656   2.429  13.272 -0.8026 -1.7934  0.4950
  745TMC3    H211068   2.292   2.579  13.424 -0.2837 -0.1490  0.7467
  745TMC3    C711069   2.432   2.553  13.201  0.3863 -1.3178 -0.0760
  745TMC3    C811070   2.395   2.700  13.625 -0.6433 -0.2925  0.6121
  745TMC3    O111071   2.331   2.527  13.145  0.1055  0.0735 -0.1649
  745TMC3    O211072   2.281   2.661  13.636 -0.1576 -0.2746  0.2080
  746TMC3    C111073   0.238   4.474  11.165 -0.4425  0.0033 -1.0082
  746TMC3    C211074   0.311   4.485  11.046 -0.0345  0.0824  0.3570
  746TMC3    C311075   0.242   4.462  10.929 -0.1942 -0.6805 -0.3309
  746TMC3    C411076   0.106   4.440  11.172  0.1463  0.5862  0.1323
  746TMC3    C511077   0.052   4.396  11.055 -0.1108  0.2530  0.1077
  746TMC3    C611078   0.116   4.409  10.936 -0.1672 -0.1559 -0.4154
  746TMC3     C11079   0.285   4.565  11.271  0.0729 -0.6675  0.3409
  746TMC3     O11080   0.203   4.638  11.326 -0.1250 -0.3021  0.0027
  746TMC3     H11081   0.414   4.519  11.041 -0.1684  0.3856 -0.4894
  746TMC3    H111082   0.052   4.445  11.266 -2.6312 -0.3622 -1.4085
  746TMC3    H211083   0.065   4.378  10.846 -0.5726  0.0029 -0.2442
  746TMC3    C711084   4.664   4.326  11.048  0.5050  0.0525 -0.3402
  746TMC3    C811085   0.305   4.446  10.805  0.7090 -0.0863  0.6098
  746TMC3    O111086   4.641   4.268  10.942 -0.2071 -0.4887 -0.2591
  746TMC3    O211087   0.252   4.378  10.718 -0.1968  0.3566  0.0377
  747TMC3    C111088   2.536   0.319  10.896  0.1821  0.7481  0.4722
  747TMC3    C211089   2.435   0.266  10.969  0.5516  0.0962  0.3289
  747TMC3    C311090   2.409   0.331  11.091 -0.4628 -0.0709  0.4413
  747TMC3    C411091   2.608   0.430  10.931 -0.4648  0.8960  0.4488
  747TMC3    C511092   2.568   0.496  11.046  0.0638 -0.5020 -0.7392
  747TMC3    C611093   2.467   0.446  11.133 -0.2965  0.3702 -0.0529
  747TMC3     C11094   2.585   0.260  10.771 -1.2708  0.2217 -0.7326
  747TMC3     O11095   2.639   0.339  10.694  0.0377 -0.7362 -0.4313
  747TMC3     H11096   2.387   0.175  10.934 -0.2810 -0.0382  1.8347
  747TMC3    H111097   2.705   0.451  10.890  0.8139 -0.9422  2.5161
  747TMC3    H211098   2.444   0.487  11.231 -2.8722 -2.9307  0.7270
  747TMC3    C711099   2.640   0.615  11.077 -0.3097 -0.2369 -0.2352
  747TMC3    C811100   2.293   0.274  11.167 -0.9432 -0.2930  0.0333
  747TMC3    O111101   2.644   0.636  11.196  0.4760 -0.5172 -0.2706
  747TMC3    O211102   2.213   0.213  11.098  0.2227  0.3415  0.0609
  748MPD2     C11103   4.371   1.364   2.158 -0.4835  0.9263  0.5476
  748MPD2    C111104   4.353   1.331   2.026  0.8718  0.6295 -0.5618
  748MPD2    C211105   4.457   1.272   1.968 -0.4073 -0.0127 -0.0440
  748MPD2    C311106   4.572   1.224   2.028 -0.4010 -0.3220 -1.1192
  748MPD2    C411107   4.578   1.244   2.166  0.1879 -0.0981 -0.7623
  748MPD2    C511108   4.485   1.317   2.227 -0.1493 -0.6310  0.2051
  748MPD2     H11109   4.453   1.267   1.859  2.5219 -0.3540 -0.1368
  748MPD2    H111110   4.661   1.213   2.228 -1.1524 -1.4908  0.3460
  748MPD2    H211111   4.288   1.412   2.208 -2.4609 -0.9554 -0.9114
  748MPD2    H311112   4.497   1.345   2.331 -2.5984  1.1174  0.0098
  748MPD2     N11113   4.669   1.159   1.950 -0.3501  0.1951 -0.7657
  748MPD2    H511114   4.646   1.138   1.854 -0.9146  2.0806 -1.0492
  748MPD2    N111115   4.233   1.367   1.958 -0.4548 -0.6002 -0.2111
  748MPD2    H711116   4.173   1.427   2.013  1.8706  0.4741  1.1420
  749TMC3    C111117   0.143   1.071   1.885  0.0205  1.1413  0.3459
  749TMC3    C211118   0.232   0.970   1.918 -0.0517 -0.5799 -0.5672
  749TMC3    C311119   0.310   0.924   1.816  0.4017 -0.4444  0.3685
  749TMC3    C411120   0.129   1.123   1.763 -0.7072  0.1365  0.0306
  749TMC3    C511121   0.203   1.061   1.665  0.9118 -0.6456  0.2411
  749TMC3    C611122   0.292   0.959   1.684  1.5364 -0.1681  0.1271
  749TMC3     C11123   0.061   1.132   1.988  0.0013 -0.0136 -0.5058
  749TMC3     O11124   0.117   1.133   2.096  0.2678 -0.2308  0.5112
  749TMC3     H11125   0.255   0.952   2.022  1.7708  2.4531 -0.4608
  749TMC3    H111126   0.066   1.206   1.734 -0.0295 -0.2829 -2.6817
  749TMC3    H211127   0.341   0.918   1.596  2.6403  2.0874 -0.3144
  749TMC3    C711128   0.173   1.106   1.533 -0.3375 -0.0524 -0.0525
  749TMC3    C811129   0.410   0.815   1.856  0.3808  0.1860 -0.6090
  749TMC3    O111130   0.255   1.078   1.446  0.1998 -0.1203 -0.2835
  749TMC3    O211131   0.396   0.774   1.970  0.5231  0.1512 -0.1087
  750MPD2     C11132   0.641   1.687  10.780 -0.4216 -0.0218  0.1105
  750MPD2    C111133   0.523   1.616  10.800 -0.7185 -0.0204 -0.4125
  750MPD2    C211134   0.471   1.544  10.699 -0.5507 -0.0327 -0.2103
  750MPD2    C311135   0.537   1.532  10.576 -0.0458  0.2802 -0.1314
  750MPD2    C411136   0.652   1.607  10.560 -0.5714 -0.9880 -0.0058
  750MPD2    C511137   0.701   1.697  10.655  0.2499  0.1242  0.1481
  750MPD2     H11138   0.382   1.485  10.720  0.1936 -1.9769 -2.4755
  750MPD2    H111139   0.702   1.604  10.464  0.0805 -0.4869  0.3196
  750MPD2    H211140   0.698   1.720  10.866  0.4318  0.7161 -0.7264
  750MPD2    H311141   0.793   1.752  10.639  0.7841 -0.9163 -0.3422
  750MPD2     N11142   0.489   1.459  10.468  0.2556 -0.3259  0.4945
  750MPD2    H511143   0.553   1.436  10.392  2.8962  2.4674  1.8394
  750MPD2    N111144   0.462   1.622  10.930  0.0170  0.3329 -0.4434
  750MPD2    H711145   0.505   1.689  10.992  1.4710  0.2247 -1.3258
  751TMC3    C111146   0.337   1.312  10.357 -0.0666 -0.0464 -0.2455
  751TMC3    C211147   0.217   1.253  10.358  0.7270 -0.1394 -0.5101
  751TMC3    C311148   0.199   1.138  10.292  0.6387  0.5223 -0.0689
  751TMC3    C411149   0.447   1.252  10.298 -0.0034  0.1023 -0.0743
  751TMC3    C511150   0.423   1.144  10.219 -0.5753  0.1028  0.8833
  751TMC3    C611151   0.300   1.089  10.208  0.2280 -0.6398 -0.1163
  751TMC3     C11152   0.361   1.417  10.460  0.1207  0.0302  0.2221
  751TMC3     O11153   0.266   1.445  10.534  0.1471  0.9825  1.0882
  751TMC3     H11154   0.132   1.306  10.401  0.5172 -0.8381 -0.0755
  751TMC3    H111155   0.546   1.296  10.290  0.1088 -0.1971 -0.3644
  751TMC3    H211156   0.283   1.000  10.148  2.0004 -0.3976 -0.9680
  751TMC3    C711157   0.543   1.077  10.154 -0.2157  0.7314  0.0651
  751TMC3    C811158   0.103   1.054  10.364 -0.3103  0.6761 -0.2658
  751TMC3    O111159   0.653   1.086  10.209 -0.0451 -0.3713  0.6539
  751TMC3    O211160   0.079   1.087  10.480  0.5222  0.0479  1.2405
  752TMC3    C111161   3.651   1.563  17.313  0.0603 -0.0021  0.2900
  752TMC3    C211162   3.745   1.535  17.409  0.2265  0.0809 -0.7289
  752TMC3    C311163   3.707   1.525  17.541 -0.4163  1.2732  0.1037
  752TMC3    C411164   3.516   1.567  17.342  0.2993  0.0246  0.1560
  752TMC3    C511165   3.481   1.547  17.475  0.3666 -0.0925 -0.0342
  752TMC3    C611166   3.574   1.543  17.573 -0.4525  0.8344  0.4226
  752TMC3     C11167   3.691   1.591  17.176  0.0222 -0.0562 -0.8512
  752TMC3     O11168   3.814   1.610  17.154  0.4397 -1.0162  0.2805
  752TMC3     H11169   3.850   1.549  17.385  0.5960  2.0290  2.0226
  752TMC3    H111170   3.441   1.595  17.269  1.4827  3.4978  0.2576
  752TMC3    H211171   3.548   1.549  17.678  0.0550 -2.3581  0.7346
  752TMC3    C711172   3.348   1.585  17.520  0.0293 -0.6686  0.9575
  752TMC3    C811173   3.800   1.594  17.636 -0.5693 -0.1982 -0.1842
  752TMC3    O111174   3.345   1.637  17.633 -0.9487 -0.4847 -0.2303
  752TMC3    O211175   3.755   1.676  17.715  0.8983  0.4536  0.1598
  753TMC3    C111176   0.973   3.129  13.518  0.2318  0.8871  0.1030
  753TMC3    C211177   1.074   3.089  13.609  0.5030 -0.3390  0.1149
  753TMC3    C311178   1.147   2.978  13.577 -0.0422 -0.0853  0.1702
  753TMC3    C411179   0.957   3.066  13.400  1.0251  0.3458  0.8995
  753TMC3    C511180   1.034   2.956  13.370  0.1861  0.5654  0.2616
  753TMC3    C611181   1.118   2.905  13.460 -0.3080  0.5315  1.0310
  753TMC3     C11182   0.889   3.241  13.556  0.2487 -0.2161  0.1410
  753TMC3     O11183   0.917   3.306  13.656 -0.0003 -0.4027 -0.1899
  753TMC3     H11184   1.107   3.155  13.687  0.9495  0.6191 -0.8886
  753TMC3    H111185   0.875   3.091  13.334  1.8169  1.5927  0.3768
  753TMC3    H211186   1.172   2.816  13.429 -3.5478 -1.4776  1.1580
  753TMC3    C711187   0.973   2.869  13.269  0.0133  0.3436 -0.2562
  753TMC3    C811188   1.211   2.905  13.688  0.3806  0.0262 -0.4454
  753TMC3    O111189   0.949   2.905  13.153 -0.0817  0.1958  0.0850
  753TMC3    O211190   1.320   2.856  13.655 -0.1207 -0.0335 -0.0963
  754MPD2     C11191   4.272   1.128  12.411 -0.2378 -0.5581  0.0246
  754MPD2    C111192   4.296   1.121  12.546  0.6343 -0.0679  0.0680
  754MPD2    C211193   4.194   1.165  12.634 -0.6310 -0.1873 -0.1164
  754MPD2    C311194   4.079   1.223  12.579 -0.6313  0.1848 -0.3759
  754MPD2    C411195   4.066   1.237  12.446  0.7219  0.5440  0.8482
  754MPD2    C511196   4.154   1.186  12.357  0.8817 -0.5454 -0.2489
  754MPD2     H11197   4.202   1.156  12.742  0.1415  0.9079 -0.0752
  754MPD2    H111198   3.980   1.293  12.411  0.2617 -1.5900 -1.4330
  754MPD2    H211199   4.347   1.088  12.343  3.0063  2.6843  1.7092
  754MPD2    H311200   4.152   1.191  12.249 -1.8963  0.5537 -0.1506
  754MPD2     N11201   3.972   1.270  12.661  0.3499 -0.2260 -0.5223
  754MPD2    H511202   3.885   1.287  12.612 -0.4009 -0.3169  0.7626
  754MPD2    N111203   4.404   1.048  12.596 -0.0234 -0.5939  0.0597
  754MPD2    H711204   4.416   1.034  12.696 -1.8025 -1.7869  0.1036
  755MPD2     C11205   3.803   1.657  13.624 -0.2433  0.2984 -0.2609
  755MPD2    C111206   3.716   1.704  13.529 -0.2331  0.4175  0.0972
  755MPD2    C211207   3.727   1.643  13.406 -0.0522  0.6297  0.3625
  755MPD2    C311208   3.818   1.543  13.373  0.6526 -1.1272  0.0254
  755MPD2    C411209   3.916   1.512  13.465 -0.0441 -0.5858 -0.2235
  755MPD2    C511210   3.912   1.577  13.588  0.5325 -0.3168 -0.3438
  755MPD2     H11211   3.655   1.680  13.334  2.0457  1.1420 -1.4932
  755MPD2    H111212   4.000   1.444  13.462  0.5558  0.1088  0.5503
  755MPD2    H211213   3.786   1.692  13.726  1.3529  1.0705 -0.2576
  755MPD2    H311214   3.991   1.553  13.658  0.5150  1.2823  0.2284
  755MPD2     N11215   3.819   1.475  13.249  0.0880 -0.1862  0.0765
  755MPD2    H511216   3.898   1.413  13.232  0.9432 -0.0522  3.4443
  755MPD2    N111217   3.613   1.795  13.548 -0.2303 -0.4379 -0.9783
  755MPD2    H711218   3.553   1.804  13.467  0.5750 -3.1039 -1.8948
  756MPD2     C11219   4.267   2.458   9.467 -0.4871 -0.1042 -0.1473
  756MPD2    C111220   4.200   2.529   9.564 -0.4924 -0.5338 -0.2220
  756MPD2    C211221   4.075   2.589   9.540  0.1694 -1.0104 -0.0381
  756MPD2    C311222   4.027   2.591   9.410  0.1508  0.3543 -0.6129
  756MPD2    C411223   4.097   2.528   9.312  0.1766 -0.0186  0.1313
  756MPD2    C511224   4.216   2.460   9.336 -0.1280 -0.1281  0.7411
  756MPD2     H11225   4.026   2.652   9.614 -0.0367 -0.8002 -0.3557
  756MPD2    H111226   4.043   2.529   9.218  0.4834  2.2946 -0.0321
  756MPD2    H211227   4.366   2.417   9.476 -0.8242 -0.8865 -0.0420
  756MPD2    H311228   4.266   2.414   9.251  1.5175 -1.0434  2.1876
  756MPD2     N11229   3.916   2.669   9.376 -0.6950  0.3712 -0.5300
  756MPD2    H511230   3.865   2.706   9.455 -2.3996 -0.5334 -1.1982
  756MPD2    N111231   4.253   2.542   9.693 -0.0155  0.5734 -0.3639
  756MPD2    H711232   4.195   2.590   9.761 -0.5556  0.1881 -0.5553
  757MPD2     C11233   3.246   2.425   9.715  0.0606 -0.1923  0.0547
  757MPD2    C111234   3.379   2.422   9.745  0.0723  0.0905  0.6540
  757MPD2    C211235   3.461   2.519   9.691  0.0750 -0.0081 -0.0434
  757MPD2    C311236   3.409   2.617   9.608  0.6650 -0.4785 -1.0429
  757MPD2    C411237   3.279   2.614   9.573 -0.5899  0.0299 -1.2204
  757MPD2    C511238   3.200   2.518   9.626  0.0878  0.3474 -1.0109
  757MPD2     H11239   3.566   2.518   9.715  0.2219 -0.5392 -0.7213
  757MPD2    H111240   3.226   2.697   9.528 -2.6485  1.2181  3.3577
  757MPD2    H211241   3.180   2.346   9.747 -2.0054  2.6412  2.7691
  757MPD2    H311242   3.093   2.526   9.605  0.4559  1.3384 -2.5074
  757MPD2     N11243   3.497   2.719   9.553 -0.3041 -0.2593 -0.1381
  757MPD2    H511244   3.594   2.721   9.585  0.4117  0.8679 -2.3741
  757MPD2    N111245   3.419   2.320   9.832 -0.3148  0.0316  0.2377
  757MPD2    H711246   3.349   2.256   9.869 -0.6637 -0.6089 -1.5335
  758MPD2     C11247   4.573   1.457  15.960  0.4737 -0.5168  0.3954
  758MPD2    C111248   4.621   1.369  16.050 -0.0104  0.1209  0.2127
  758MPD2    C211249   4.548   1.358  16.170  0.2254 -0.8961 -0.0739
  758MPD2    C311250   4.432   1.429  16.192 -0.7297  0.6564  0.0810
  758MPD2    C411251   4.388   1.511  16.093 -0.1261  0.2987  0.1094
  758MPD2    C511252   4.457   1.525  15.978  0.0273 -0.0040  0.4754
  758MPD2     H11253   4.581   1.289  16.247  0.0298 -1.0449 -0.1255
  758MPD2    H111254   4.298   1.572  16.102 -0.4385  0.0031 -1.0195
  758MPD2    H211255   4.636   1.472  15.872  0.2216  1.8485  0.6202
  758MPD2    H311256   4.424   1.589  15.897 -0.0100 -2.2078 -1.2643
  758MPD2     N11257   4.355   1.415  16.306 -0.2316  0.0751  0.7864
  758MPD2    H511258   4.260   1.451  16.304  0.3826  1.5638 -1.9101
  758MPD2    N111259   0.002   1.297  16.023  0.2020 -0.3572  0.3077
  758MPD2    H711260   0.024   1.306  15.925  1.9639 -0.3322  0.7023
  759MPD2     C11261   3.457   4.034  10.505  0.8521 -0.1925  0.4964
  759MPD2    C111262   3.412   3.904  10.484  0.5526  0.0791 -0.5895
  759MPD2    C211263   3.433   3.834  10.362  0.0981 -0.1092  0.0153
  759MPD2    C311264   3.480   3.905  10.253  0.1296 -0.1745 -0.1174
  759MPD2    C411265   3.535   4.035  10.278 -0.4015 -0.3634  0.1173
  759MPD2    C511266   3.522   4.099  10.400  0.4100  0.4064  0.8675
  759MPD2     H11267   3.408   3.729  10.355 -0.1738  0.0136 -0.8303
  759MPD2    H111268   3.588   4.090  10.200 -2.9101  0.7862 -0.7562
  759MPD2    H211269   3.450   4.077  10.604  2.0391  2.1079 -0.4123
  759MPD2    H311270   3.560   4.200  10.414 -1.1134  1.1707 -0.4470
  759MPD2     N11271   3.489   3.836  10.130 -0.1568 -0.2546 -0.6171
  759MPD2    H511272   3.444   3.745  10.135  1.8126 -1.1212  1.2467
  759MPD2    N111273   3.350   3.828  10.586  0.2069  0.7535  0.5309
  759MPD2    H711274   3.332   3.732  10.559 -1.5889  0.4026  2.9839
  760MPD2     C11275   3.225   1.814  11.838  0.4704  0.5368  0.2321
  760MPD2    C111276   3.358   1.853  11.809  0.3585  0.4576  0.7154
  760MPD2    C211277   3.453   1.753  11.780 -0.0214 -0.2084  0.3483
  760MPD2    C311278   3.416   1.620  11.779  0.2370 -0.0862  0.3394
  760MPD2    C411279   3.292   1.584  11.814  0.6313  0.1056 -0.0542
  760MPD2    C511280   3.196   1.679  11.848 -0.6383 -0.0175 -0.1255
  760MPD2     H11281   3.551   1.787  11.750 -0.8216 -0.2477 -2.2790
  760MPD2    H111282   3.264   1.479  11.815 -0.8900  0.4894 -1.8519
  760MPD2    H211283   3.158   1.892  11.874  0.8163  0.6874  0.5411
  760MPD2    H311284   3.099   1.641  11.877  0.1189 -1.5273  0.4587
  760MPD2     N11285   3.502   1.518  11.741 -0.0400  0.4410  0.2814
  760MPD2    H511286   3.461   1.426  11.727 -0.5915  0.8687 -0.9282
  760MPD2    N111287   3.398   1.989  11.812 -0.1658  0.7718 -0.3624
  760MPD2    H711288   3.499   2.000  11.811 -0.0624 -0.3485 -1.5325
  761MPD2     C11289   4.568   0.631  10.461  0.7876  0.1036 -0.9671
  761MPD2    C111290   4.626   0.724  10.545 -0.5187  0.7616 -0.1686
  761MPD2    C211291   4.699   0.824  10.490 -0.1217 -0.2234 -0.4908
  761MPD2    C311292   4.703   0.851  10.352  0.0300 -0.0917  0.2010
  761MPD2    C411293   4.641   0.755  10.271 -0.4327 -0.2733 -0.1758
  761MPD2    C511294   4.580   0.644  10.327  0.1635  0.1561  0.0682
  761MPD2     H11295   0.017   0.884  10.562 -3.6100  1.1465  1.0447
  761MPD2    H111296   4.632   0.775  10.164 -5.3300 -0.1338  0.2646
  761MPD2    H211297   4.518   0.543  10.498  0.9902 -0.1497 -1.2949
  761MPD2    H311298   4.541   0.570  10.258 -1.2414  0.1905  0.8259
  761MPD2     N11299   0.053   0.946  10.296 -0.5288  0.3042  0.0558
  761MPD2    H511300   0.065   0.946  10.195 -1.7306  0.3979 -0.0894
  761MPD2    N111301   4.629   0.709  10.686  0.5560  0.0752 -0.3866
  761MPD2    H711302   4.691   0.769  10.740 -1.1752 -0.2105  1.8957
  762MPD2     C11303   0.470   0.602  11.157 -0.6332 -0.7400 -1.0691
  762MPD2    C111304   0.419   0.574  11.029 -0.0361  0.4143  0.5340
  762MPD2    C211305   0.514   0.552  10.933 -0.5776 -0.4238  0.4521
  762MPD2    C311306   0.650   0.562  10.944  0.4591 -0.9629  0.0845
  762MPD2    C411307   0.698   0.601  11.069  0.1133 -0.1790  0.2508
  762MPD2    C511308   0.603   0.619  11.171  0.3717  0.6986  0.1121
  762MPD2     H11309   0.463   0.526  10.841 -1.2231  1.3204  0.3163
  762MPD2    H111310   0.801   0.631  11.089 -0.2009  2.5411 -2.1265
  762MPD2    H211311   0.407   0.614  11.244  1.9355  1.0841  0.5534
  762MPD2    H311312   0.632   0.651  11.270  3.4434 -1.0911 -0.2262
  762MPD2     N11313   0.725   0.525  10.835 -0.0369  0.5028  0.7938
  762MPD2    H511314   0.679   0.514  10.745  0.4596  1.2975  0.4411
  762MPD2    N111315   0.284   0.567  10.997 -0.0413  0.7945 -0.1401
  762MPD2    H711316   0.265   0.568  10.897 -1.1284  0.7976  0.0605
  763MPD2     C11317   1.962   0.845  16.240  0.1947  0.5672 -0.4956
  763MPD2    C111318   1.902   0.959  16.193 -0.7672 -0.0593  0.0628
  763MPD2    C211319   1.911   1.079  16.272 -0.1204 -0.4389  0.1134
  763MPD2    C311320   2.003   1.083  16.382 -0.4773  0.5738 -0.2830
  763MPD2    C411321   2.086   0.972  16.400 -0.3651  0.0988  0.3432
  763MPD2    C511322   2.053   0.859  16.343 -0.1282  0.5224  0.3803
  763MPD2     H11323   1.857   1.171  16.254  0.6928 -0.1519 -0.8443
  763MPD2    H111324   2.167   0.980  16.471 -0.3096 -0.9231  0.3957
  763MPD2    H211325   1.953   0.742  16.206 -1.0410  0.7681 -0.8053
  763MPD2    H311326   2.118   0.773  16.351 -1.0942 -0.4904 -2.7245
  763MPD2     N11327   2.040   1.189  16.472  0.9166 -0.3476 -0.3612
  763MPD2    H511328   2.101   1.148  16.542 -0.6855 -1.4947  0.3746
  763MPD2    N111329   1.831   0.966  16.073  0.2366 -0.3335 -0.1703
  763MPD2    H711330   1.788   1.056  16.050  0.5697 -0.1762 -0.1745
  764MPD2     C11331   4.686   2.521   0.354 -0.0706 -0.3475  0.3178
  764MPD2    C111332   4.568   2.590   0.360  0.2030 -0.2360  0.6900
  764MPD2    C211333   4.491   2.587   0.474  0.0436  0.3275 -0.5161
  764MPD2    C311334   4.521   2.518   0.591  0.6321  0.0042  0.0845
  764MPD2    C411335   4.641   2.454   0.586 -0.0101  0.3054  0.0589
  764MPD2    C511336   4.719   2.450   0.473 -0.3436 -0.0131  0.4054
  764MPD2     H11337   4.397   2.641   0.480  1.4219  2.8173 -1.5261
  764MPD2    H111338   4.683   2.395   0.666  1.6946  2.1785  0.5650
  764MPD2    H211339   0.020   2.525   0.272 -0.9588 -1.7635 -0.5266
  764MPD2    H311340   0.079   2.404   0.468 -0.6217 -0.6880  1.1143
  764MPD2     N11341   4.439   2.519   0.702  0.4580 -0.2063  0.4732
  764MPD2    H511342   4.355   2.575   0.692 -1.3556 -3.3306 -1.7365
  764MPD2    N111343   4.528   2.673   0.250 -0.0872 -0.4207  0.0760
  764MPD2    H711344   4.443   2.728   0.250 -0.9964 -1.8190 -4.3008
  765MPD2     C11345   3.840   0.177  15.857  0.6320 -0.1270  0.2407
  765MPD2    C111346   3.925   0.283  15.843 -0.1350 -0.2164 -0.0222
  765MPD2    C211347   4.062   0.251  15.820 -0.0691  0.1554  0.4796
  765MPD2    C311348   4.105   0.126  15.796 -0.1395  0.2465 -0.2053
  765MPD2    C411349   4.015   0.021  15.805 -0.2103 -0.2630 -0.4100
  765MPD2    C511350   3.883   0.048  15.834  0.0745  0.3351 -0.6945
  765MPD2     H11351   4.136   0.329  15.809 -0.1433 -0.0019 -1.0601
  765MPD2    H111352   4.048   4.658  15.782 -0.8680 -0.2180 -1.5765
  765MPD2    H211353   3.735   0.205  15.859  1.2985  2.3325  1.0821
  765MPD2    H311354   3.816   4.699  15.836  0.1662  0.3324  2.0752
  765MPD2     N11355   4.244   0.110  15.760  0.5296  1.1063 -0.3385
  765MPD2    H511356   4.301   0.192  15.778  0.1961  1.5124 -1.1301
  765MPD2    N111357   3.864   0.406  15.863 -0.1204  0.1764 -0.2511
  765MPD2    H711358   3.768   0.402  15.897  1.2907  0.0231  3.8181
  766MPD2     C11359   3.468   0.453  15.405 -0.2287 -1.0573  0.6395
  766MPD2    C111360   3.557   0.553  15.438 -0.0416 -0.1931  0.0074
  766MPD2    C211361   3.677   0.554  15.366  0.4930  0.3209  0.1700
  766MPD2    C311362   3.697   0.465  15.261  0.3011  0.2907  0.3276
  766MPD2    C411363   3.596   0.380  15.219 -0.6179 -0.5039 -0.0501
  766MPD2    C511364   3.489   0.372  15.300  0.7756  0.5996 -0.3025
  766MPD2     H11365   3.745   0.632  15.397  0.0154  1.0440 -0.5928
  766MPD2    H111366   3.604   0.302  15.145  3.0190 -1.0751  0.9412
  766MPD2    H211367   3.386   0.437  15.474 -1.7716 -1.9853 -1.4098
  766MPD2    H311368   3.422   0.291  15.275  0.2892  0.5955  0.9657
  766MPD2     N11369   3.817   0.473  15.189  0.1964  1.1054  0.3849
  766MPD2    H511370   3.810   0.433  15.096  1.6012 -2.8761  1.9955
  766MPD2    N111371   3.541   0.620  15.560 -0.0171  0.2563  0.3351
  766MPD2    H711372   3.518   0.556  15.636 -1.7590  0.5230  0.0237
  767MPD2     C11373   3.483   0.778  15.203 -0.5610  0.2004 -0.2139
  767MPD2    C111374   3.594   0.849  15.153 -0.1853  0.6918 -0.2086
  767MPD2    C211375   3.625   0.833  15.025 -0.4344 -1.3244  0.8808
  767MPD2    C311376   3.546   0.754  14.937  0.0155 -0.8703 -0.2668
  767MPD2    C411377   3.438   0.681  14.989  0.2245  0.0579 -0.0322
  767MPD2    C511378   3.409   0.696  15.122  1.1032  0.4678 -0.3953
  767MPD2     H11379   3.706   0.882  14.973 -2.6885  0.9815 -0.4702
  767MPD2    H111380   3.376   0.614  14.932  0.7155 -0.9124  0.5752
  767MPD2    H211381   3.459   0.765  15.308  0.7777  0.2709  0.0992
  767MPD2    H311382   3.343   0.628  15.175  1.2688  1.6284  1.3067
  767MPD2     N11383   3.587   0.746  14.800  0.2309 -0.4773 -0.1238
  767MPD2    H511384   3.674   0.791  14.774  0.0858  1.7099  3.2706
  767MPD2    N111385   3.681   0.910  15.251  0.3627  0.3270  0.2776
  767MPD2    H711386   3.655   0.907  15.349 -0.8322 -2.5399 -0.1079
  768MPD2     C11387   4.723   3.413  11.021 -0.2168  0.4694  0.4610
  768MPD2    C111388   4.664   3.530  11.067 -1.1154  0.3811 -0.2160
  768MPD2    C211389   4.714   3.594  11.175 -0.9268 -0.8870  0.3984
  768MPD2    C311390   0.094   3.537  11.231  0.8437  0.1786 -0.1956
  768MPD2    C411391   0.164   3.432  11.175  0.5685 -0.0967 -0.5837
  768MPD2    C511392   0.101   3.368  11.069 -0.0966 -0.0622 -1.1983
  768MPD2     H11393   4.670   3.687  11.208  2.1633  1.3712 -1.8181
  768MPD2    H111394   0.255   3.397  11.222  0.2981  0.6186  0.4878
  768MPD2    H211395   4.686   3.356  10.937  1.1727  0.3726 -0.0861
  768MPD2    H311396   0.142   3.280  11.020 -2.2996 -1.2592 -0.8800
  768MPD2     N11397   0.162   3.592  11.352  0.6928  0.0084 -0.2447
  768MPD2    H511398   0.241   3.538  11.385 -0.5450 -2.3205 -1.0729
  768MPD2    N111399   4.547   3.588  11.012 -0.9193 -0.3404  0.8434
  768MPD2    H711400   4.499   3.663  11.060 -3.4821 -0.2397 -1.8711
  769MPD2     C11401   1.051   2.002  15.196  0.0428  0.4582  0.1406
  769MPD2    C111402   0.934   2.061  15.245  0.3540 -0.3830  0.0100
  769MPD2    C211403   0.947   2.158  15.335  0.7613  1.7415  0.2776
  769MPD2    C311404   1.070   2.196  15.375  0.1866  0.4288 -0.0917
  769MPD2    C411405   1.183   2.128  15.337 -0.3487  0.2461 -0.4935
  769MPD2    C511406   1.173   2.037  15.240 -0.0622  0.3916 -0.9681
  769MPD2     H11407   0.859   2.212  15.369 -0.1137 -0.2719  1.2222
  769MPD2    H111408   1.277   2.154  15.386 -0.5896 -1.0263  0.6487
  769MPD2    H211409   1.032   1.912  15.139 -0.6306  1.0313 -0.5262
  769MPD2    H311410   1.259   1.978  15.212  0.6246  1.0510 -0.2316
  769MPD2     N11411   1.069   2.291  15.472  0.5562  0.4712  0.0455
  769MPD2    H511412   0.978   2.329  15.495  0.7244 -0.2627  1.9861
  769MPD2    N111413   0.809   2.016  15.188  0.8055 -0.3958  0.2675
  769MPD2    H711414   0.818   1.943  15.118 -1.1327 -0.2317 -0.1462
  770MPD2     C11415   4.691   1.548  15.046 -0.1424  1.0139  0.0833
  770MPD2    C111416   0.087   1.512  15.043 -0.4086  0.0244 -0.2127
  770MPD2    C211417   0.186   1.601  15.072  0.5760 -0.8796 -0.1181
  770MPD2    C311418   0.146   1.730  15.107  0.0686 -0.1413  0.8344
  770MPD2    C411419   0.015   1.768  15.102  0.3428 -0.6868 -1.0471
  770MPD2    C511420   4.655   1.677  15.078 -0.0728 -0.2106 -0.2827
  770MPD2     H11421   0.289   1.574  15.053  0.7155  0.5215 -1.3858
  770MPD2    H111422   4.712   1.862  15.137  0.5680 -0.1353 -2.2636
  770MPD2    H211423   4.614   1.473  15.028  0.9220 -0.2996  1.0232
  770MPD2    H311424   4.551   1.705  15.080  0.3996  1.3842  1.9132
  770MPD2     N11425   0.244   1.825  15.144  0.8238 -0.4786 -0.0724
  770MPD2    H511426   0.341   1.794  15.140  1.4554  1.3355  0.6998
  770MPD2    N111427   0.116   1.382  15.002 -0.0647  0.5086  0.5174
  770MPD2    H711428   0.033   1.329  14.978  0.0972  0.2081  0.6099
  771MPD2     C11429   1.036   4.724  13.896  0.1239  0.5202 -1.2174
  771MPD2    C111430   0.964   0.096  13.839  0.3280 -0.1324  0.0183
  771MPD2    C211431   0.853   0.054  13.770  0.6313  0.3836  0.5446
  771MPD2    C311432   0.799   4.664  13.775  0.0051 -0.0121 -1.0755
  771MPD2    C411433   0.862   4.566  13.841 -0.6662 -0.2366 -0.7417
  771MPD2    C511434   0.982   4.598  13.893 -0.2873 -0.4415 -0.8700
  771MPD2     H11435   0.810   0.134  13.711 -0.7121 -0.8086 -0.1024
  771MPD2    H111436   0.817   4.471  13.868  0.3894 -2.1591 -5.8539
  771MPD2    H211437   1.125   4.736  13.956  0.2575 -1.5495 -0.9874
  771MPD2    H311438   1.030   4.511  13.936 -0.7526 -0.2253  0.0965
  771MPD2     N11439   0.683   4.639  13.703  0.4806 -0.3905 -0.0821
  771MPD2    H511440   0.643   4.723  13.662 -1.0932 -0.7462  0.7117
  771MPD2    N111441   1.002   0.229  13.838 -0.4501 -0.1661  0.0816
  771MPD2    H711442   0.931   0.293  13.806 -1.5783 -1.2764  0.3683
  772MPD2     C11443   0.686   0.878  13.774  0.1183  0.2862 -0.3240
  772MPD2    C111444   0.714   0.778  13.864  0.1688  0.1566 -0.3370
  772MPD2    C211445   0.610   0.746  13.945 -0.4923  0.6627 -0.1930
  772MPD2    C311446   0.489   0.809  13.946  0.3230  0.0057 -0.6720
  772MPD2    C411447   0.466   0.907  13.858  0.5134 -0.1427  0.1924
  772MPD2    C511448   0.565   0.935  13.766 -0.0377 -0.5374  0.1587
  772MPD2     H11449   0.640   0.664  14.010  0.9372  2.1785  1.0454
  772MPD2    H111450   0.372   0.961  13.860  1.0903  0.9192 -1.5864
  772MPD2    H211451   0.767   0.916  13.713  1.1100  0.3040  0.9963
  772MPD2    H311452   0.554   1.025  13.706 -0.1422 -1.0474 -0.5798
  772MPD2     N11453   0.378   0.761  14.018 -0.1095 -0.0737  0.0481
  772MPD2    H511454   0.298   0.823  14.006 -0.0945 -0.2778 -1.1748
  772MPD2    N111455   0.842   0.709  13.867  0.4786  0.3360  0.1899
  772MPD2    H711456   0.845   0.634  13.935  1.5291  2.5833  2.5819
  773MPD2     C11457   0.715   1.238  17.417  0.1985  0.3254  0.2634
  773MPD2    C111458   0.605   1.179  17.484  0.7768 -0.4515 -0.2579
  773MPD2    C211459   0.579   1.051  17.470  0.2087 -0.3586 -0.2834
  773MPD2    C311460   0.665   0.971  17.392 -0.5750  0.0102  0.2040
  773MPD2    C411461   0.773   1.028  17.322  0.3623 -0.9265 -1.0409
  773MPD2    C511462   0.801   1.163  17.343  0.0133 -0.6679  0.1174
  773MPD2     H11463   0.494   1.013  17.524 -0.5997 -0.0573 -1.3328
  773MPD2    H111464   0.844   0.974  17.260  0.9764  0.8125 -1.8583
  773MPD2    H211465   0.744   1.341  17.439 -0.7233  0.5310  0.4866
  773MPD2    H311466   0.881   1.209  17.285  0.2983 -2.8548 -1.2280
  773MPD2     N11467   0.654   0.832  17.379 -0.5527 -0.0004  0.5570
  773MPD2    H511468   0.573   0.800  17.432 -0.3182 -1.2444  0.1808
  773MPD2    N111469   0.508   1.259  17.546  0.1376  0.0115  0.0497
  773MPD2    H711470   0.433   1.214  17.597  1.1065 -0.0403  1.4454
  774MPD2     C11471   4.250   0.233  12.919  0.3369 -0.6683 -0.8779
  774MPD2    C111472   4.270   0.344  12.996  0.4224  0.6021  0.3027
  774MPD2    C211473   4.365   0.441  12.957  0.0564  0.3434  0.1838
  774MPD2    C311474   4.427   0.428  12.836 -0.2265 -0.7994 -0.7015
  774MPD2    C411475   4.402   0.317  12.756 -0.0441 -0.6125 -0.3592
  774MPD2    C511476   4.309   0.221  12.800 -0.5704  0.3075 -0.5736
  774MPD2     H11477   4.393   0.528  13.015  2.3158 -0.1539 -0.1631
  774MPD2    H111478   4.462   0.293  12.668 -1.4629  1.8916 -2.0258
  774MPD2    H211479   4.186   0.156  12.959 -1.2305  0.6122 -0.9046
  774MPD2    H311480   4.289   0.136  12.736 -1.5766 -0.6353  0.9913
  774MPD2     N11481   4.507   0.533  12.798 -0.6643  0.0995 -0.0353
  774MPD2    H511482   4.533   0.593  12.875 -1.3266 -1.0099  1.0590
  774MPD2    N111483   4.212   0.356  13.122 -0.6503 -0.6644 -0.1306
  774MPD2    H711484   4.171   0.270  13.155 -1.0278 -1.1366 -1.7914
  775MPD2     C11485   1.224   1.871  16.033 -0.2305  0.5066 -0.0000
  775MPD2    C111486   1.230   1.978  16.112 -0.0371  0.4333  0.8730
  775MPD2    C211487   1.350   2.047  16.123  0.2061  0.1253  0.5308
  775MPD2    C311488   1.464   2.001  16.058  0.2223  0.0039  0.4342
  775MPD2    C411489   1.447   1.898  15.968  0.2292 -0.1309  0.6058
  775MPD2    C511490   1.335   1.825  15.961 -0.4524  0.2476 -0.4994
  775MPD2     H11491   1.360   2.137  16.181 -0.1941  1.8059 -2.0110
  775MPD2    H111492   1.527   1.857  15.907  0.9515 -0.0749  1.5150
  775MPD2    H211493   1.128   1.824  16.015  1.2981 -2.3392 -0.6409
  775MPD2    H311494   1.323   1.745  15.889 -1.5818  0.0124 -0.0626
  775MPD2     N11495   1.584   2.067  16.070 -0.2735 -0.1893 -0.6938
  775MPD2    H511496   1.652   2.056  15.995  1.7170  1.9431  0.7861
  775MPD2    N111497   1.107   2.022  16.175 -0.4698 -0.0982 -0.4766
  775MPD2    H711498   1.023   1.965  16.168 -0.4094 -0.2935  0.3665
  776MPD2     C11499   0.380   2.195  11.262  0.0352  0.8392 -0.7004
  776MPD2    C111500   0.291   2.096  11.296  0.2986 -0.0109 -0.4357
  776MPD2    C211501   0.169   2.131  11.353  0.2464  0.2911  0.0841
  776MPD2    C311502   0.136   2.257  11.388 -0.1154 -0.2841 -0.4932
  776MPD2    C411503   0.224   2.352  11.358 -0.2111  0.1679  0.3535
  776MPD2    C511504   0.345   2.324  11.302  0.5673 -0.0177  0.3420
  776MPD2     H11505   0.083   2.065  11.358  2.2854 -2.3878  0.0826
  776MPD2    H111506   0.193   2.455  11.368 -1.0288  0.1446 -1.8750
  776MPD2    H211507   0.475   2.189  11.211  0.2646  2.0959 -0.4339
  776MPD2    H311508   0.398   2.416  11.282 -1.2815  1.0621  0.3520
  776MPD2     N11509   0.011   2.308  11.430 -0.0284  0.2659 -0.0653
  776MPD2    H511510   0.011   2.406  11.455  0.6664  0.2390  0.0278
  776MPD2    N111511   0.325   1.960  11.270 -0.4346 -0.1633 -0.0888
  776MPD2    H711512   0.412   1.951  11.219 -0.7431 -0.0848 -0.6367
  777MPD2     C11513   0.687   0.298   0.635  0.2078  0.2766 -0.5068
  777MPD2    C111514   0.718   0.203   0.732 -0.3556 -0.1648  0.4416
  777MPD2    C211515   0.707   0.075   0.698  1.5186  0.3361  0.2486
  777MPD2    C311516   0.630   0.043   0.580  0.0114  0.5110  0.1954
  777MPD2    C411517   0.591   0.143   0.489  0.1160  0.0886 -0.1822
  777MPD2    C511518   0.634   0.266   0.512  0.1310  0.0450  0.2882
  777MPD2     H11519   0.743   0.005   0.773  0.6274 -0.0596  0.3071
  777MPD2    H111520   0.533   0.117   0.401 -1.4061 -0.0128  0.8507
  777MPD2    H211521   0.716   0.400   0.655 -0.1044  0.1999  0.2987
  777MPD2    H311522   0.613   0.344   0.439  2.7699 -1.5046 -2.1250
  777MPD2     N11523   0.599   4.644   0.562 -0.1634  0.4989  0.0057
  777MPD2    H511524   0.612   4.583   0.642  0.9200  0.9159  0.1414
  777MPD2    N111525   0.771   0.243   0.853 -0.5180  0.6998 -0.9910
  777MPD2    H711526   0.809   0.168   0.910  0.2334  2.5247  0.9099
  778MPD2     C11527   1.374   4.559  15.204 -0.3535  0.4078  0.6865
  778MPD2    C111528   1.289   4.558  15.101 -0.0016 -0.5351 -0.7708
  778MPD2    C211529   1.329   4.610  14.983 -0.1883 -0.5426  0.8179
  778MPD2    C311530   1.444   4.680  14.972 -0.3132 -0.4705  0.0539
  778MPD2    C411531   1.529   4.685  15.085 -0.2761 -0.0202 -0.1429
  778MPD2    C511532   1.489   4.621  15.198 -0.6773  0.3313 -0.4749
  778MPD2     H11533   1.265   4.605  14.896  0.9433 -0.4887 -0.0153
  778MPD2    H111534   1.626   4.734  15.084  0.2047 -1.0121 -1.4853
  778MPD2    H211535   1.336   4.520  15.297 -1.1406 -3.3453 -1.1865
  778MPD2    H311536   1.554   4.629  15.284  2.1664  0.0522 -2.6277
  778MPD2     N11537   1.466   0.023  14.855  0.4934  0.0433  0.4765
  778MPD2    H511538   1.411   0.009  14.771  0.4904  2.6917  0.0509
  778MPD2    N111539   1.163   4.497  15.115 -0.1068 -0.4406 -0.2058
  778MPD2    H711540   1.098   4.516  15.040 -0.5428  0.3739  0.3856
  779MPD2     C11541   0.715   3.521  14.624 -0.1513  0.2430  0.6404
  779MPD2    C111542   0.817   3.501  14.542  0.0239  0.5070  0.1100
  779MPD2    C211543   0.872   3.608  14.475 -0.0285  0.3983 -0.1325
  779MPD2    C311544   0.821   3.732  14.483 -0.6700  0.9187 -0.2493
  779MPD2    C411545   0.717   3.753  14.566 -0.6607  0.4057 -0.3465
  779MPD2    C511546   0.667   3.642  14.637 -0.8380  1.1482 -0.0482
  779MPD2     H11547   0.954   3.588  14.407 -1.7933  1.6778 -2.6251
  779MPD2    H111548   0.672   3.848  14.594  2.6947  1.4457  1.5315
  779MPD2    H211549   0.665   3.447  14.685 -1.5024  0.0114 -0.7522
  779MPD2    H311550   0.574   3.647  14.693 -1.3892  2.0016 -1.0486
  779MPD2     N11551   0.889   3.844  14.427  0.0146  0.8779  0.1905
  779MPD2    H511552   0.986   3.820  14.407 -0.5631 -1.9027  0.8765
  779MPD2    N111553   0.869   3.375  14.529  0.0903  0.1268 -0.1948
  779MPD2    H711554   0.933   3.356  14.452  1.7215  0.0846  1.1677
  780MPD2     C11555   0.731   3.575   0.885  0.8753 -0.0603 -0.2130
  780MPD2    C111556   0.686   3.487   0.779 -0.1289  0.1849  0.1452
  780MPD2    C211557   0.704   3.514   0.646  0.1435 -0.2790 -0.2151
  780MPD2    C311558   0.767   3.637   0.617 -0.5024 -0.2687  0.2175
  780MPD2    C411559   0.807   3.722   0.717  0.0164  0.1562 -0.2024
  780MPD2    C511560   0.788   3.698   0.850  0.1575  0.4927  0.2953
  780MPD2     H11561   0.684   3.443   0.567 -1.0722  0.2703 -0.3982
  780MPD2    H111562   0.845   3.819   0.685  1.6289 -1.0770 -2.0351
  780MPD2    H211563   0.704   3.554   0.988  1.1697 -0.1849 -0.1623
  780MPD2    H311564   0.836   3.764   0.921  3.0980 -0.8648 -0.4093
  780MPD2     N11565   0.783   3.670   0.480 -0.1662  0.1281  0.1943
  780MPD2    H511566   0.755   3.602   0.410  0.8237  0.9878 -1.0476
  780MPD2    N111567   0.639   3.362   0.818  0.0752  0.1202  0.8386
  780MPD2    H711568   0.617   3.349   0.916 -1.1982  1.5011  0.7463
  781MPD2     C11569   2.736   0.567  11.788 -0.2116 -0.4533  0.2993
  781MPD2    C111570   2.727   0.688  11.854  0.2759 -0.2037 -0.5305
  781MPD2    C211571   2.798   0.794  11.801  0.0820  0.7874 -1.1438
  781MPD2    C311572   2.876   0.784  11.685 -0.3772 -0.3581  0.6652
  781MPD2    C411573   2.880   0.662  11.625  1.1151  0.4234  0.0731
  781MPD2    C511574   2.810   0.554  11.677  0.2960  0.3029 -0.2403
  781MPD2     H11575   2.788   0.887  11.855  0.2061 -0.3605  0.8289
  781MPD2    H111576   2.935   0.635  11.536  1.7814  2.7722 -0.2148
  781MPD2    H211577   2.689   0.473  11.814 -1.0262 -0.0483  0.3055
  781MPD2    H311578   2.825   0.455  11.635  0.5888  0.4643 -0.5179
  781MPD2     N11579   2.941   0.893  11.614 -0.1877  0.0116 -0.1460
  781MPD2    H511580   2.976   0.872  11.521 -2.0422 -1.4815 -0.4923
  781MPD2    N111581   2.652   0.707  11.978 -0.4284 -0.2284 -0.4536
  781MPD2    H711582   2.626   0.797  12.020 -0.5952 -0.3810 -0.2259
  782MPD2     C11583   1.580   0.935   9.975  0.2585 -0.1560 -0.2359
  782MPD2    C111584   1.486   0.922  10.076 -0.7573  0.0275  0.8018
  782MPD2    C211585   1.455   1.025  10.163  0.6167 -0.0136 -0.0258
  782MPD2    C311586   1.501   1.146  10.140 -0.2013 -0.1047 -0.7562
  782MPD2    C411587   1.595   1.161  10.042  0.2259 -0.4720  0.5798
  782MPD2    C511588   1.635   1.060   9.962 -0.5238 -0.6757 -0.2073
  782MPD2     H11589   1.379   1.010  10.240 -1.0895 -4.1574 -2.5186
  782MPD2    H111590   1.624   1.263  10.019 -0.2914 -0.6178 -0.6765
  782MPD2    H211591   1.610   0.854   9.910 -1.0297 -1.1888  0.4606
  782MPD2    H311592   1.693   1.088   9.874 -2.9139 -1.0143 -1.8988
  782MPD2     N11593   1.467   1.262  10.213 -0.6706 -0.1192  0.4563
  782MPD2    H511594   1.526   1.344  10.207 -3.3792  1.8873  1.4027
  782MPD2    N111595   1.410   0.800  10.093 -0.4243  0.7603 -0.1207
  782MPD2    H711596   1.352   0.808  10.176 -1.5320  0.6748 -0.8891
  783MPD2     C11597   0.566   0.885   9.832  0.0750 -0.1147 -0.3975
  783MPD2    C111598   0.595   0.923   9.967  0.7515 -0.7131  0.7311
  783MPD2    C211599   0.704   0.865  10.029 -1.0516 -0.3144  0.0982
  783MPD2    C311600   0.782   0.778   9.962 -0.4552  0.0046 -0.0210
  783MPD2    C411601   0.758   0.739   9.831 -0.4721  0.6402  0.3350
  783MPD2    C511602   0.653   0.803   9.765 -0.0714  0.5429  0.9547
  783MPD2     H11603   0.733   0.886  10.131 -2.0115  0.7698  0.1493
  783MPD2    H111604   0.821   0.675   9.770 -1.4757  1.7489 -1.8853
  783MPD2    H211605   0.493   0.939   9.772 -1.0993 -0.2666  0.9085
  783MPD2    H311606   0.651   0.791   9.658  0.6047 -1.2885  1.1456
  783MPD2     N11607   0.895   0.727  10.040 -0.0430 -0.1355 -0.3867
  783MPD2    H511608   0.892   0.762  10.135  0.9472  0.1066 -0.4485
  783MPD2    N111609   0.508   1.010  10.038 -0.0456  0.7182  0.2398
  783MPD2    H711610   0.427   1.037   9.984  0.6618 -1.5725 -1.9557
  784MPD2     C11611   3.314   1.981   0.871 -0.5227 -0.4534 -0.7081
  784MPD2    C111612   3.312   2.107   0.919 -0.6651  0.2252  0.0548
  784MPD2    C211613   3.230   2.199   0.854  0.3035  0.4504  0.8368
  784MPD2    C311614   3.140   2.167   0.754 -0.1735 -0.7067  0.9910
  784MPD2    C411615   3.145   2.034   0.711 -0.6927  0.3051  0.2723
  784MPD2    C511616   3.222   1.943   0.780  0.0749  0.1102  0.7209
  784MPD2     H11617   3.230   2.303   0.885 -0.7198  0.4971  0.6804
  784MPD2    H111618   3.074   1.988   0.642  0.1980  0.4742 -0.7617
  784MPD2    H211619   3.377   1.907   0.918 -1.7201 -0.2539  1.1924
  784MPD2    H311620   3.219   1.839   0.750 -0.0887  0.0032  1.1115
  784MPD2     N11621   3.044   2.263   0.707  0.6459  0.3169 -0.0730
  784MPD2    H511622   3.063   2.359   0.733 -1.1785  0.9514 -1.0841
  784MPD2    N111623   3.406   2.159   1.011  0.8064  0.5378  0.3549
  784MPD2    H711624   3.398   2.255   1.042 -0.6359 -0.0048  1.6950
  785MPD2     C11625   4.266   0.173  10.054 -0.1190  0.2795  0.3639
  785MPD2    C111626   4.179   0.153  10.164  0.3057 -0.2395 -0.2668
  785MPD2    C211627   4.073   0.070  10.170  0.0026  0.4978 -0.1363
  785MPD2    C311628   4.050   4.723  10.062  0.1395 -0.6503 -0.0541
  785MPD2    C411629   4.133   4.730   9.957  0.8482  0.1697 -0.3076
  785MPD2    C511630   4.239   0.083   9.938 -0.6255  0.8403  0.1775
  785MPD2     H11631   4.006   0.067  10.255  0.4673 -1.0714  0.1685
  785MPD2    H111632   4.142   4.647   9.887  0.1317 -0.1762  0.0121
  785MPD2    H211633   4.348   0.243  10.062 -0.1088  0.1528  1.4282
  785MPD2    H311634   4.308   0.084   9.855 -1.4834 -0.9084 -0.5591
  785MPD2     N11635   3.934   4.641  10.078  0.6625 -0.5363 -0.3292
  785MPD2    H511636   3.871   4.655  10.157  1.0460  0.1847 -0.1456
  785MPD2    N111637   4.198   0.218  10.285  0.7320  0.5774 -0.2272
  785MPD2    H711638   4.130   0.198  10.358  0.6400  1.4018 -0.0853
  786MPD2     C11639   1.436   2.699  14.999  0.4445  0.3812 -0.1703
  786MPD2    C111640   1.528   2.600  14.971  0.4821 -0.1124  0.5000
  786MPD2    C211641   1.631   2.603  15.059  0.0823  0.3218  1.1731
  786MPD2    C311642   1.647   2.686  15.168 -0.0308 -0.0490  0.4102
  786MPD2    C411643   1.551   2.778  15.198 -0.0957 -0.0026 -0.5423
  786MPD2    C511644   1.443   2.782  15.111 -0.6188  0.2419  0.3592
  786MPD2     H11645   1.700   2.520  15.055 -0.9364 -0.4133 -0.7236
  786MPD2    H111646   1.547   2.843  15.284  0.0836 -1.6215  0.6904
  786MPD2    H211647   1.344   2.712  14.942 -0.2158  0.4497  0.8994
  786MPD2    H311648   1.377   2.867  15.109 -1.0420 -0.0517  2.0980
  786MPD2     N11649   1.762   2.699  15.249 -0.1573 -1.2059 -0.5704
  786MPD2    H511650   1.760   2.768  15.323  0.2797 -0.6747 -1.0538
  786MPD2    N111651   1.525   2.507  14.875 -0.8332 -0.6067 -0.2669
  786MPD2    H711652   1.608   2.449  14.882  0.7115  1.7272  0.5805
  787MPD2     C11653   2.015   2.203  14.964  0.3163 -0.5414  0.5167
  787MPD2    C111654   1.936   2.113  14.892  0.2494 -0.5434  0.2144
  787MPD2    C211655   1.979   1.980  14.879 -0.7727 -0.4976  0.0223
  787MPD2    C311656   2.101   1.942  14.929 -0.2724 -0.0312  1.1027
  787MPD2    C411657   2.179   2.039  14.991 -0.3456 -0.2198  0.3038
  787MPD2    C511658   2.140   2.169  15.008  0.5093 -0.1525 -0.1626
  787MPD2     H11659   1.929   1.908  14.815 -1.2853  1.3909 -1.7127
  787MPD2    H111660   2.280   2.025  15.027  0.1814  0.7170 -0.8575
  787MPD2    H211661   1.988   2.307  14.975  1.2648 -0.4174  1.6498
  787MPD2    H311662   2.198   2.249  15.054  1.4792  0.6536 -2.7900
  787MPD2     N11663   2.148   1.814  14.902  1.5666 -0.2881  0.4986
  787MPD2    H511664   2.100   1.763  14.828  1.9934  0.7956 -0.5275
  787MPD2    N111665   1.820   2.169  14.824  0.2473 -0.4312 -0.1455
  787MPD2    H711666   1.802   2.268  14.835 -2.1007 -0.9657  0.7145
  788MPD2     C11667   4.168   1.382   1.090 -0.2871  0.5306 -0.0708
  788MPD2    C111668   4.140   1.358   0.955 -0.0469  0.0770  0.0444
  788MPD2    C211669   4.040   1.433   0.894  0.0727  0.2461 -0.9033
  788MPD2    C311670   3.977   1.540   0.966  0.0480 -0.3000  0.4099
  788MPD2    C411671   4.012   1.558   1.104 -0.0537 -0.3939 -0.0952
  788MPD2    C511672   4.103   1.476   1.165 -0.5583  0.2245  0.4625
  788MPD2     H11673   4.027   1.423   0.787 -0.6173 -1.5704 -0.6458
  788MPD2    H111674   3.970   1.642   1.159  0.4198  0.7019 -1.4084
  788MPD2    H211675   4.239   1.319   1.142 -0.9027 -0.4526 -0.4158
  788MPD2    H311676   4.116   1.482   1.272  0.9016  0.6205  0.2621
  788MPD2     N11677   3.878   1.610   0.896  0.0906 -0.6362  0.0066
  788MPD2    H511678   3.867   1.586   0.798 -0.7130  1.0052 -0.2996
  788MPD2    N111679   4.216   1.263   0.884  0.4875 -0.2777 -0.4834
  788MPD2    H711680   4.224   1.267   0.783  1.1275 -0.7201 -0.4467
  789MPD2     C11681   4.181   0.918  16.103  0.3919  0.1602 -0.1495
  789MPD2    C111682   4.108   0.868  16.208  0.1913  0.1822 -0.3738
  789MPD2    C211683   4.047   0.960  16.289  0.3578 -0.0889  0.4510
  789MPD2    C311684   4.064   1.096  16.275 -0.2494  0.3158 -0.6254
  789MPD2    C411685   4.154   1.141  16.178 -0.3420  0.1477 -0.0041
  789MPD2    C511686   4.204   1.050  16.089 -0.3124  0.9049 -0.8258
  789MPD2     H11687   3.982   0.922  16.367  0.3879 -1.6963 -0.3062
  789MPD2    H111688   4.191   1.242  16.164 -3.2603  1.4496  1.5379
  789MPD2    H211689   4.210   0.848  16.025 -2.8525 -0.6534 -0.6105
  789MPD2    H311690   4.267   1.077  16.006  1.5809  2.6714  1.1909
  789MPD2     N11691   4.002   1.173  16.369 -0.2319 -0.1513  0.2173
  789MPD2    H511692   3.952   1.126  16.443  0.5507  0.4143  1.1014
  789MPD2    N111693   4.079   0.727  16.217 -0.1018  0.0668  0.2214
  789MPD2    H711694   4.009   0.703  16.288  0.6999 -1.4924  0.4920
  790MPD2     C11695   0.763   2.549  13.839 -0.6077 -0.3612  0.0114
  790MPD2    C111696   0.635   2.494  13.841 -0.4292  0.0532  0.1951
  790MPD2    C211697   0.561   2.486  13.720 -0.1816 -0.6079 -0.4162
  790MPD2    C311698   0.608   2.544  13.605 -0.5374  0.2101 -0.3651
  790MPD2    C411699   0.730   2.608  13.612  0.1253  0.0937  0.3857
  790MPD2    C511700   0.805   2.612  13.724  0.2136 -0.7328 -0.1346
  790MPD2     H11701   0.465   2.437  13.724 -0.1480 -0.7733 -1.7183
  790MPD2    H111702   0.761   2.665  13.525 -0.4126 -2.1965 -1.3072
  790MPD2    H211703   0.826   2.543  13.927  0.7790  0.1509 -0.9531
  790MPD2    H311704   0.895   2.672  13.716  0.1442 -0.5130  0.8501
  790MPD2     N11705   0.529   2.542  13.488  0.1173 -0.1086 -0.2978
  790MPD2    H511706   0.456   2.472  13.491 -1.4139  1.4745 -0.8211
  790MPD2    N111707   0.584   2.446  13.964 -0.0271 -0.0166 -0.0235
  790MPD2    H711708   0.647   2.432  14.042  0.7239 -1.6798 -0.9370
  791MPD2     C11709   4.630   2.440  13.495 -0.3677  0.2579  0.0426
  791MPD2    C111710   4.671   2.454  13.365  0.4286 -0.2660  0.5688
  791MPD2    C211711   4.590   2.394  13.265 -0.3700 -0.1453 -0.0975
  791MPD2    C311712   4.487   2.313  13.300  0.0512  0.5764  0.0787
  791MPD2    C411713   4.450   2.299  13.430  0.2971  0.1735  0.3295
  791MPD2    C511714   4.520   2.366  13.528  0.5830  0.2051 -0.0062
  791MPD2     H11715   4.607   2.410  13.159 -3.2593  0.8144 -0.4173
  791MPD2    H111716   4.361   2.244  13.459  0.2393 -0.7058 -1.4997
  791MPD2    H211717   4.681   2.482  13.580 -1.0959 -2.5855  1.8931
  791MPD2    H311718   4.500   2.351  13.634 -0.7568  2.2631  0.0291
  791MPD2     N11719   4.416   2.257  13.196  0.1600 -0.2569  0.1775
  791MPD2    H511720   4.452   2.258  13.101  2.7197 -0.4474  1.1346
  791MPD2    N111721   0.054   2.520  13.344  0.0577  0.3171 -0.5721
  791MPD2    H711722   0.112   2.517  13.427  0.0786  1.5650 -0.5396
  792MPD2     C11723   0.433   2.600  10.989 -0.3656 -0.0298  0.1686
  792MPD2    C111724   0.324   2.644  11.067  0.0155  0.4513  0.1207
  792MPD2    C211725   0.213   2.561  11.065 -0.2109  0.4599  0.4861
  792MPD2    C311726   0.206   2.456  10.971  0.3687 -0.4160  0.6561
  792MPD2    C411727   0.313   2.430  10.884 -0.0483  0.1997  0.5549
  792MPD2    C511728   0.427   2.504  10.892  0.4019  0.2183 -0.7771
  792MPD2     H11729   0.129   2.586  11.129  1.2767  2.6847  1.5667
  792MPD2    H111730   0.307   2.358  10.803  0.2235  1.1559 -0.3175
  792MPD2    H211731   0.527   2.655  10.984  0.7866 -1.8152  2.2610
  792MPD2    H311732   0.513   2.483  10.830  0.8194  1.0780 -0.4976
  792MPD2     N11733   0.094   2.374  10.960  0.2634  0.5040 -0.9564
  792MPD2    H511734   0.098   2.293  10.899 -1.5524 -0.4503  0.1939
  792MPD2    N111735   0.348   2.747  11.160  0.1117 -0.2954  0.0556
  792MPD2    H711736   0.440   2.791  11.159 -0.5003  0.9619 -1.0075
  793MPD2     C11737   4.108   2.265  10.403  0.5138 -0.7124  0.2283
  793MPD2    C111738   4.224   2.335  10.409  0.3812 -0.2176 -0.5725
  793MPD2    C211739   4.288   2.340  10.531 -0.0819  0.2522 -0.3063
  793MPD2    C311740   4.246   2.265  10.638 -0.5402 -0.0752  0.2482
  793MPD2    C411741   4.127   2.192  10.627  0.3643  0.1079 -0.1462
  793MPD2    C511742   4.061   2.203  10.515  0.5399 -0.2300  0.0910
  793MPD2     H11743   4.381   2.395  10.536  0.5935 -0.7942 -1.7086
  793MPD2    H111744   4.087   2.153  10.720  2.0507 -0.2820  0.4074
  793MPD2    H211745   4.045   2.269  10.315  2.1430 -0.2060 -0.9345
  793MPD2    H311746   3.965   2.157  10.497  0.4917 -1.4677  3.5205
  793MPD2     N11747   4.318   2.268  10.762  0.2441  0.2177  0.3482
  793MPD2    H511748   4.396   2.332  10.775  0.4198  0.2578 -0.8686
  793MPD2    N111749   4.295   2.396  10.302 -0.7568 -0.1985  0.4108
  793MPD2    H711750   4.376   2.450  10.330 -0.3430 -0.1955 -0.7855
  794MPD2     C11751   0.129   2.008  17.533  0.0739  0.4207  0.4366
  794MPD2    C111752   0.096   1.880  17.490  0.7935 -0.0840  0.1323
  794MPD2    C211753   4.726   1.863  17.408  0.2237 -0.2350  0.1864
  794MPD2    C311754   4.652   1.972  17.364  0.3561 -0.2344  0.6312
  794MPD2    C411755   4.685   2.102  17.411  0.1020  0.0159  0.5217
  794MPD2    C511756   0.065   2.118  17.488 -0.0499  0.4352  0.5612
  794MPD2     H11757   4.704   1.761  17.380  0.0801 -0.4839  1.1913
  794MPD2    H111758   4.622   2.189  17.396 -1.8299 -1.3072  0.9925
  794MPD2    H211759   0.209   2.030  17.604 -0.3755 -1.0043  1.3865
  794MPD2    H311760   0.099   2.214  17.524  2.5350  0.1108 -1.0582
  794MPD2     N11761   4.530   1.962  17.300  0.2389  0.6013 -0.1122
  794MPD2    H511762   4.472   2.046  17.305  1.3573  1.3424  0.4551
  794MPD2    N111763   0.172   1.766  17.533  0.5951 -1.0518  0.5959
  794MPD2    H711764   0.155   1.680  17.482 -2.0957 -0.6035  0.7255
  795MPD2     C11765   2.440   3.762  13.982 -0.5152 -0.0327  0.4115
  795MPD2    C111766   2.413   3.678  13.886 -0.8464  0.6794 -0.0098
  795MPD2    C211767   2.518   3.600  13.830  0.2490 -0.2896 -0.0086
  795MPD2    C311768   2.652   3.612  13.869 -0.2358  0.2502 -0.0386
  795MPD2    C411769   2.668   3.712  13.969  0.2481  0.0192 -0.5197
  795MPD2    C511770   2.566   3.788  14.015 -0.6787  0.3000  0.3270
  795MPD2     H11771   2.493   3.530  13.751 -1.0774  0.4201 -0.2180
  795MPD2    H111772   2.767   3.752  13.987 -0.1251  1.9890 -2.8073
  795MPD2    H211773   2.359   3.828  14.014 -1.0338 -0.5395  0.1368
  795MPD2    H311774   2.577   3.865  14.091 -2.1597  0.8403 -0.0014
  795MPD2     N11775   2.752   3.549  13.795  0.7714  0.0602 -0.0035
  795MPD2    H511776   2.735   3.492  13.713  1.7094  1.4656 -1.1812
  795MPD2    N111777   2.286   3.673  13.831 -0.0335  0.3135 -0.4253
  795MPD2    H711778   2.279   3.633  13.738 -1.8764  1.1294 -0.6522
  796MPD2     C11779   2.087   0.599  15.876  0.0295 -1.0892  0.9417
  796MPD2    C111780   2.163   0.621  15.986 -0.4243  0.2349 -0.6606
  796MPD2    C211781   2.195   0.758  16.015 -0.4910  0.2261 -0.4494
  796MPD2    C311782   2.150   0.865  15.936 -0.0050  0.4983  0.4059
  796MPD2    C411783   2.077   0.827  15.821 -0.0251 -0.3957 -0.1675
  796MPD2    C511784   2.055   0.695  15.794  0.0000  0.1032  0.1628
  796MPD2     H11785   2.260   0.775  16.100  0.3887 -0.3170 -1.0167
  796MPD2    H111786   2.033   0.898  15.752  0.3922 -2.1952 -2.2656
  796MPD2    H211787   2.044   0.503  15.851 -2.5335 -0.0303  1.2299
  796MPD2    H311788   1.992   0.659  15.713  0.5599  1.3495 -0.8292
  796MPD2     N11789   2.183   0.998  15.974  0.1586  0.5033 -0.2207
  796MPD2    H511790   2.240   1.021  16.055 -1.1943  0.4673  0.7475
  796MPD2    N111791   2.213   0.517  16.075 -0.1969  0.0256  0.4275
  796MPD2    H711792   2.280   0.541  16.147  1.1857 -1.2328 -0.4619
  797MPD2     C11793   3.434   0.381  16.968 -0.3382  0.2083 -0.0235
  797MPD2    C111794   3.399   0.425  17.090 -0.7544  0.2926  0.2055
  797MPD2    C211795   3.286   0.370  17.146 -0.3907 -0.0006 -0.2608
  797MPD2    C311796   3.205   0.273  17.080 -0.1741  0.4702  0.3042
  797MPD2    C411797   3.250   0.228  16.959  0.6057  0.6740  0.6015
  797MPD2    C511798   3.370   0.270  16.918  0.0069  0.2762  0.2211
  797MPD2     H11799   3.261   0.410  17.244 -0.4508 -2.4964  0.7579
  797MPD2    H111800   3.206   0.141  16.912  0.6771  0.5650  0.7354
  797MPD2    H211801   3.521   0.416  16.912 -1.0661  1.8485 -0.1377
  797MPD2    H311802   3.411   0.219  16.831 -2.8754 -1.6721  0.0188
  797MPD2     N11803   3.079   0.224  17.129  0.4067 -0.7522 -0.1257
  797MPD2    H511804   3.025   0.162  17.068  0.9098 -1.9864  0.6737
  797MPD2    N111805   3.471   0.532  17.156  0.0974 -0.2963  0.2598
  797MPD2    H711806   3.447   0.573  17.246 -1.8962 -0.5679 -0.1508
  798MPD2     C11807   2.896   0.800  17.497  0.8918 -0.4023 -0.2945
  798MPD2    C111808   2.961   0.684  17.454 -0.2702 -0.2857 -0.4669
  798MPD2    C211809   3.100   0.698  17.438 -0.2498  0.3828 -0.0955
  798MPD2    C311810   3.165   0.826  17.450  0.2593 -0.2580 -0.4843
  798MPD2    C411811   3.098   0.936  17.489 -1.0212 -0.2239 -0.3680
  798MPD2    C511812   2.962   0.922  17.516  0.0756 -0.7123 -0.0554
  798MPD2     H11813   3.153   0.613  17.398 -2.7665 -0.3334 -1.9667
  798MPD2    H111814   3.143   1.033  17.506 -0.1002 -0.7310  0.0971
  798MPD2    H211815   2.789   0.795  17.515  0.7019  0.8432 -1.0544
  798MPD2    H311816   2.903   1.009  17.543 -0.2246 -0.7411 -0.6136
  798MPD2     N11817   3.296   0.832  17.401 -0.1506  0.3832  0.6844
  798MPD2    H511818   3.335   0.741  17.379  0.0919  0.2171  1.7998
  798MPD2    N111819   2.903   0.556  17.422 -0.2162 -0.3376  0.3634
  798MPD2    H711820   2.962   0.474  17.413 -2.0426 -1.6482  0.4504
  799MPD2     C11821   2.166   1.769  14.473  0.7990 -0.1587 -0.4195
  799MPD2    C111822   2.044   1.808  14.529 -0.0933 -0.3479 -0.4610
  799MPD2    C211823   2.013   1.941  14.516 -0.3081 -0.0486 -0.1081
  799MPD2    C311824   2.097   2.031  14.460  0.3294 -0.3729 -0.0543
  799MPD2    C411825   2.217   1.996  14.407 -0.8219 -0.5005  0.1492
  799MPD2    C511826   2.250   1.861  14.413  0.2537  0.0915  0.4019
  799MPD2     H11827   1.924   1.981  14.563  1.3348  1.8442  1.3839
  799MPD2    H111828   2.288   2.058  14.354 -2.0136  0.3963 -0.3965
  799MPD2    H211829   2.186   1.666  14.445  3.7643  0.2360  0.2920
  799MPD2    H311830   2.343   1.820  14.375  1.0292  0.5775  1.7592
  799MPD2     N11831   2.060   2.167  14.453 -0.3986  0.1220  0.0911
  799MPD2    H511832   2.139   2.228  14.437  0.7148 -1.5690 -0.8732
  799MPD2    N111833   1.952   1.714  14.586 -0.9976 -0.1432  0.6612
  799MPD2    H711834   1.867   1.747  14.631 -0.3376  0.2925  1.6035
  800MPD2     C11835   2.382   3.012  14.028  1.4255 -0.5940 -0.5736
  800MPD2    C111836   2.504   3.026  13.969 -1.1658  0.1158 -0.0805
  800MPD2    C211837   2.530   2.950  13.855 -0.1006 -0.3043 -0.2496
  800MPD2    C311838   2.436   2.861  13.811 -0.0994  0.0703 -0.0362
  800MPD2    C411839   2.320   2.848  13.869 -0.3504 -0.2310 -0.0773
  800MPD2    C511840   2.293   2.919  13.980 -0.5018  0.2987  0.1564
  800MPD2     H11841   2.621   2.964  13.798  0.2549  1.5426  0.7578
  800MPD2    H111842   2.241   2.786  13.828 -0.2318  0.5485 -1.4639
  800MPD2    H211843   2.354   3.089  14.099  1.8295  0.6819 -1.7981
  800MPD2    H311844   2.188   2.917  14.006 -0.1463  0.0604  1.5448
  800MPD2     N11845   2.471   2.796  13.695  0.5955  0.0223  0.0481
  800MPD2    H511846   2.561   2.823  13.655  0.1793 -0.4580 -1.2006
  800MPD2    N111847   2.593   3.119  14.023  0.0399  0.4990 -0.2489
  800MPD2    H711848   2.559   3.166  14.106  0.7896 -1.2961  1.0558
  801MPD2     C11849   2.542   3.724  14.343 -0.1325 -0.2009  0.1414
  801MPD2    C111850   2.533   3.587  14.365  0.2408 -0.1751 -0.0974
  801MPD2    C211851   2.429   3.537  14.440  0.6312  0.0888  0.4848
  801MPD2    C311852   2.329   3.613  14.494 -0.2305 -0.2406 -0.6398
  801MPD2    C411853   2.330   3.746  14.451  0.6229  0.1850  0.5504
  801MPD2    C511854   2.439   3.795  14.387 -0.3122 -0.4920  0.1650
  801MPD2     H11855   2.418   3.431  14.462  0.4702 -0.6515 -3.1365
  801MPD2    H111856   2.257   3.820  14.482 -0.7002 -0.9352  0.1378
  801MPD2    H211857   2.617   3.773  14.282  0.4831 -1.1878  0.0904
  801MPD2    H311858   2.444   3.896  14.350 -2.2676 -0.4645 -0.0165
  801MPD2     N11859   2.218   3.561  14.566  0.3846 -0.1038  0.5533
  801MPD2    H511860   2.133   3.613  14.582 -0.2974 -0.2446 -2.6558
  801MPD2    N111861   2.630   3.499  14.307  0.2340 -0.1017  0.1932
  801MPD2    H711862   2.602   3.402  14.307  1.9895 -0.6238 -2.6668
  802MPD2     C11863   1.801   4.466   0.750  0.5110 -0.0588 -0.1077
  802MPD2    C111864   1.739   4.406   0.648  0.1207  0.5669  0.1827
  802MPD2    C211865   1.789   4.288   0.596 -0.3971 -0.0403 -0.1429
  802MPD2    C311866   1.915   4.247   0.630 -0.3279  0.5617  0.8070
  802MPD2    C411867   1.979   4.314   0.728 -0.7977 -0.8146  0.6871
  802MPD2    C511868   1.923   4.416   0.789  0.0448 -0.4972 -1.0543
  802MPD2     H11869   1.725   4.236   0.525  2.3615  0.1410 -2.7652
  802MPD2    H111870   2.077   4.279   0.759  0.2664  0.4596 -1.2610
  802MPD2    H211871   1.773   4.562   0.791 -2.0407 -0.7394 -0.2497
  802MPD2    H311872   1.982   4.464   0.867  0.8094  1.6504 -2.9482
  802MPD2     N11873   1.978   4.149   0.554 -0.2534 -0.5540 -0.1836
  802MPD2    H511874   1.915   4.103   0.489  1.4555 -0.5127 -1.8412
  802MPD2    N111875   1.618   4.460   0.606  0.0667 -0.7244 -0.2174
  802MPD2    H711876   1.549   4.401   0.560 -0.3514  0.2008 -0.7787
  803MPD2     C11877   2.633   2.047  12.658 -0.4566 -0.9216 -0.1680
  803MPD2    C111878   2.753   2.032  12.601 -0.3824 -0.1288  0.0912
  803MPD2    C211879   2.853   1.962  12.669 -0.0674  0.3424  0.8024
  803MPD2    C311880   2.849   1.943  12.807  0.0737 -0.2918  0.1150
  803MPD2    C411881   2.730   1.975  12.865  0.3983  0.0120 -0.4913
  803MPD2    C511882   2.617   2.020  12.793 -0.0571 -0.0686 -0.0482
  803MPD2     H11883   2.945   1.948  12.614 -1.5084  1.0979 -1.8389
  803MPD2    H111884   2.720   1.966  12.972 -1.8973 -0.3890 -0.7398
  803MPD2    H211885   2.546   2.078  12.602  0.1021  0.3066 -0.3516
  803MPD2    H311886   2.525   2.043  12.845 -1.9144 -1.4242 -2.7835
  803MPD2     N11887   2.951   1.894  12.888 -0.2517  0.3814  0.1464
  803MPD2    H511888   2.928   1.885  12.986  0.6859  1.2073  0.4559
  803MPD2    N111889   2.773   2.055  12.466  0.0600  0.4245 -0.0360
  803MPD2    H711890   2.867   2.031  12.435  0.6502  1.3176  1.0874
  804MPD2     C11891   2.414   3.737  17.022 -0.4071 -0.1634 -0.0359
  804MPD2    C111892   2.436   3.683  17.142 -0.3381  0.0313 -0.5318
  804MPD2    C211893   2.512   3.749  17.237  0.5240  0.6412  0.3213
  804MPD2    C311894   2.577   3.864  17.211  0.4312  0.7748  0.7864
  804MPD2    C411895   2.555   3.920  17.084  0.3069 -0.2557  0.3073
  804MPD2    C511896   2.475   3.858  16.992  0.3672  0.7826 -0.3871
  804MPD2     H11897   2.523   3.705  17.336 -0.8090 -0.8124 -0.1722
  804MPD2    H111898   2.596   4.014  17.050 -1.5799  0.9305  1.3069
  804MPD2    H211899   2.350   3.687  16.949 -0.1081 -1.5664  0.6683
  804MPD2    H311900   2.456   3.903  16.895 -0.0144 -0.4844 -0.8967
  804MPD2     N11901   2.662   3.913  17.310 -0.1810 -0.1731  0.7119
  804MPD2    H511902   2.672   3.859  17.396 -0.1187 -2.1721 -0.5407
  804MPD2    N111903   2.389   3.554  17.183  0.3173  0.0547  0.5416
  804MPD2    H711904   2.402   3.523  17.279  1.4362  0.0179  0.3870
  805MPD2     C11905   1.774   1.853  15.722  0.5363 -0.7529  0.3579
  805MPD2    C111906   1.872   1.885  15.634  0.4711  0.0589 -0.3174
  805MPD2    C211907   1.998   1.906  15.681 -0.3211 -0.2170 -0.2821
  805MPD2    C311908   2.040   1.873  15.810 -0.6265 -0.1740  0.0418
  805MPD2    C411909   1.946   1.818  15.889  0.1051 -0.3595 -0.3983
  805MPD2    C511910   1.816   1.812  15.850 -0.1669  0.2091 -0.3552
  805MPD2     H11911   2.060   1.945  15.601  0.2018  1.5320  0.9725
  805MPD2    H111912   1.971   1.778  15.987 -2.0710 -0.4523  0.1265
  805MPD2    H211913   1.668   1.847  15.703  0.1921  0.9638  1.6780
  805MPD2    H311914   1.742   1.786  15.924  0.7074 -1.2230  0.0059
  805MPD2     N11915   2.175   1.878  15.843  0.1636  0.2759 -0.4005
  805MPD2    H511916   2.229   1.925  15.771  0.9738 -1.9642 -1.2626
  805MPD2    N111917   1.841   1.937  15.507 -0.4237  0.1356 -0.2253
  805MPD2    H711918   1.924   1.967  15.458  1.1864 -2.1957  1.0860
  806MPD2     C11919   2.290   1.740   0.662  0.2953 -0.2532 -0.0615
  806MPD2    C111920   2.403   1.827   0.662 -0.6317  0.2274  0.1093
  806MPD2    C211921   2.438   1.902   0.554 -0.2643  0.8240 -0.2096
  806MPD2    C311922   2.361   1.888   0.441 -0.6055 -0.1185 -0.1928
  806MPD2    C411923   2.252   1.797   0.442 -0.2931  0.5556 -0.1889
  806MPD2    C511924   2.216   1.721   0.551  1.3953 -0.4054  0.2940
  806MPD2     H11925   2.520   1.974   0.552  1.7341 -1.4526 -0.7442
  806MPD2    H111926   2.195   1.788   0.350 -0.0866 -2.2500 -0.0348
  806MPD2    H211927   2.254   1.690   0.752  0.7256  1.6363  1.1468
  806MPD2    H311928   2.133   1.651   0.553  1.8175 -0.8643  2.0361
  806MPD2     N11929   2.395   1.974   0.334 -0.1664 -0.2664 -0.3232
  806MPD2    H511930   2.459   2.050   0.355 -0.4012 -0.6568  1.7727
  806MPD2    N111931   2.490   1.821   0.769 -0.3006 -0.5400  0.6167
  806MPD2    H711932   2.454   1.761   0.843  2.1015 -2.0019  0.5858
  807MPD2     C11933   2.581   1.446   1.409  0.6047 -0.3409  0.0383
  807MPD2    C111934   2.655   1.423   1.295 -0.4695  0.4746 -0.6634
  807MPD2    C211935   2.706   1.302   1.262  0.0566 -0.0247  0.1859
  807MPD2    C311936   2.683   1.189   1.344 -0.7821 -0.8637 -0.0097
  807MPD2    C411937   2.618   1.209   1.465 -0.6678  0.0190 -0.7077
  807MPD2    C511938   2.566   1.338   1.491 -0.3308  0.2831  0.4903
  807MPD2     H11939   2.758   1.279   1.170 -1.0354  4.0336 -1.4387
  807MPD2    H111940   2.596   1.134   1.540 -1.1955  1.3908  0.5076
  807MPD2    H211941   2.544   1.544   1.439  0.8654  0.0984 -1.0532
  807MPD2    H311942   2.508   1.344   1.582 -1.5533 -1.1412 -0.2051
  807MPD2     N11943   2.728   1.066   1.300 -0.3004  0.8708  0.6504
  807MPD2    H511944   2.769   1.056   1.208  0.4466  2.6446  0.7840
  807MPD2    N111945   2.695   1.523   1.204  0.2436 -0.5944 -0.0602
  807MPD2    H711946   2.759   1.490   1.132  0.0571  1.8615 -1.3451
  808MPD2     C11947   2.993   2.720   9.890  0.1315  0.8382 -0.1937
  808MPD2    C111948   2.865   2.772   9.879  0.0081  0.0864  0.0044
  808MPD2    C211949   2.846   2.903   9.830  1.0173 -0.1654 -0.2166
  808MPD2    C311950   2.960   2.984   9.810 -0.0281 -0.7125 -0.7910
  808MPD2    C411951   3.085   2.927   9.805 -0.1414  0.7797 -0.6379
  808MPD2    C511952   3.103   2.800   9.851  0.1288 -0.6612 -0.8090
  808MPD2     H11953   2.747   2.946   9.829  0.2866 -1.7858  1.1058
  808MPD2    H111954   3.170   2.987   9.775  0.5501  0.0552 -0.1412
  808MPD2    H211955   3.016   2.619   9.922 -1.9371  0.0728 -1.1337
  808MPD2    H311956   3.204   2.760   9.863  0.5581  0.2646 -1.3546
  808MPD2     N11957   2.961   3.122   9.782  0.4347 -0.1206 -0.1145
  808MPD2    H511958   3.048   3.172   9.764 -0.9056  2.2444 -0.0361
  808MPD2    N111959   2.746   2.696   9.910  0.5190 -0.0853 -0.6033
  808MPD2    H711960   2.657   2.727   9.873  0.1365 -1.0294 -0.4731
  809MPD2     C11961   3.351   3.945   9.404 -0.1233 -0.0180 -0.5451
  809MPD2    C111962   3.327   3.804   9.389 -0.1706 -0.8876 -0.1892
  809MPD2    C211963   3.241   3.740   9.466 -0.5875  0.2532 -0.0578
  809MPD2    C311964   3.177   3.802   9.570 -0.9882 -0.2210  0.2780
  809MPD2    C411965   3.214   3.928   9.602 -0.2813  0.4131 -0.0730
  809MPD2    C511966   3.293   4.004   9.515  0.0472  0.7893 -0.3861
  809MPD2     H11967   3.227   3.633   9.450  0.5457  0.2584 -1.0396
  809MPD2    H111968   3.169   3.974   9.688  0.5156 -2.1975  1.7364
  809MPD2    H211969   3.427   4.000   9.349  0.6170 -0.9428 -0.4508
  809MPD2    H311970   3.321   4.106   9.535  1.4080  0.0348  1.5452
  809MPD2     N11971   3.088   3.729   9.653  0.2432  0.1056  0.0129
  809MPD2    H511972   3.073   3.777   9.741  0.1970  0.7667 -0.3553
  809MPD2    N111973   3.395   3.725   9.293  0.5578 -0.8096 -0.7268
  809MPD2    H711974   3.373   3.626   9.284  1.3138 -1.0280 -0.1726
  810MPD2     C11975   2.537   2.643  10.780 -0.4273  0.1905 -0.0591
  810MPD2    C111976   2.407   2.609  10.803 -0.1839  0.4961  0.3525
  810MPD2    C211977   2.336   2.700  10.879 -0.0059 -0.2966 -0.6621
  810MPD2    C311978   2.384   2.819  10.924 -0.4652  0.7815  0.2511
  810MPD2    C411979   2.516   2.834  10.924 -0.0448  0.1803 -0.2358
  810MPD2    C511980   2.591   2.749  10.844 -0.4514 -0.2390 -0.6986
  810MPD2     H11981   2.233   2.673  10.900  0.5520 -0.4764  1.8074
  810MPD2    H111982   2.573   2.906  10.983 -0.0562  0.5272 -0.6481
  810MPD2    H211983   2.605   2.574  10.729  0.0430  0.2008  0.5484
  810MPD2    H311984   2.699   2.749  10.842 -0.4398 -2.3070 -0.0991
  810MPD2     N11985   2.310   2.915  11.003 -0.2295 -0.1941 -0.1899
  810MPD2    H511986   2.359   2.986  11.056  0.2447 -0.9245  0.3417
  810MPD2    N111987   2.357   2.498  10.738  0.1309 -0.5554 -0.3303
  810MPD2    H711988   2.410   2.458  10.662  2.2469 -0.6985  1.2118
  811MPD2     C11989   1.983   2.546  10.129  0.3989  0.7220 -0.4596
  811MPD2    C111990   1.981   2.579  10.259 -0.1830 -0.5858 -0.4926
  811MPD2    C211991   1.935   2.697  10.308  0.1216  0.0535  0.0326
  811MPD2    C311992   1.881   2.785  10.212 -0.3669  0.5654 -0.4460
  811MPD2    C411993   1.884   2.748  10.079  0.0163 -0.0291  0.0493
  811MPD2    C511994   1.938   2.630  10.035 -0.1716 -0.3139 -0.2797
  811MPD2     H11995   1.927   2.715  10.414  0.5390  1.8738 -0.2459
  811MPD2    H111996   1.853   2.813   9.998 -1.5034  1.0254  1.4672
  811MPD2    H211997   2.005   2.449  10.085 -0.0437  0.9476 -1.1805
  811MPD2    H311998   1.938   2.603   9.930  0.4670 -1.0690 -0.0891
  811MPD2     N11999   1.840   2.911  10.254  0.6763  0.1264 -0.3565
  811MPD2    H512000   1.846   2.927  10.354  1.3619 -0.9379 -0.2353
  811MPD2    N112001   2.023   2.490  10.360 -0.4611  0.6627  0.0065
  811MPD2    H712002   2.005   2.506  10.458 -1.2216 -0.9667  0.1344
  812MPD2     C12003   0.543   2.371  12.263  0.0237 -0.3575 -0.1723
  812MPD2    C112004   0.669   2.425  12.227 -0.4733 -0.7647 -0.5378
  812MPD2    C212005   0.781   2.398  12.311 -0.1937 -0.1797 -0.0346
  812MPD2    C312006   0.762   2.329  12.431 -0.4703 -0.0480 -0.5452
  812MPD2    C412007   0.640   2.271  12.463  0.8188  0.3281 -0.2729
  812MPD2    C512008   0.534   2.293  12.379 -0.1211  0.2763 -0.8750
  812MPD2     H12009   0.882   2.429  12.288  0.0719 -0.1113  1.2676
  812MPD2    H112010   0.617   2.216  12.554  0.5769  3.6538  1.6772
  812MPD2    H212011   0.455   2.386  12.200 -0.8339 -0.2104  1.0629
  812MPD2    H312012   0.442   2.236  12.390 -0.4870  1.5581  2.4243
  812MPD2     N12013   0.872   2.322  12.523  0.3941 -0.2967 -0.5511
  812MPD2    H512014   0.945   2.387  12.498 -1.7721  1.8088 -1.4786
  812MPD2    N112015   0.673   2.495  12.103  0.0743  0.7585 -0.3799
  812MPD2    H712016   0.584   2.508  12.055 -0.1644  1.8449  0.3588
  813MPD2     C12017   0.050   4.180  13.288  0.7081  0.3714 -0.4038
  813MPD2    C112018   0.042   4.314  13.281  0.0316 -0.0479 -0.2056
  813MPD2    C212019   4.654   4.364  13.275 -0.6306  0.5548  0.3552
  813MPD2    C312020   4.540   4.293  13.262  0.1307  0.1652  0.2578
  813MPD2    C412021   4.547   4.160  13.268 -0.4956 -0.0363 -0.9002
  813MPD2    C512022   4.670   4.104  13.277 -0.6135 -0.3486 -0.0362
  813MPD2     H12023   4.645   4.470  13.253  0.0905  0.4130 -0.6558
  813MPD2    H112024   4.471   4.083  13.278 -2.2873  2.1411  2.4176
  813MPD2    H212025   0.146   4.135  13.264 -0.6644 -2.6482 -0.2744
  813MPD2    H312026   4.681   3.996  13.278 -0.5809 -0.3356  1.2186
  813MPD2     N12027   4.412   4.357  13.260 -0.3503  0.0647 -0.2254
  813MPD2    H512028   4.413   4.458  13.268  1.7010 -0.1403  2.1625
  813MPD2    N112029   0.159   4.381  13.293  0.0973  0.0797 -0.3871
  813MPD2    H712030   0.241   4.340  13.250  0.8702 -0.9679  2.0820
  814MPD2     C12031   1.240   1.341  12.734  0.0485 -0.7482 -1.3062
  814MPD2    C112032   1.133   1.418  12.684  0.2317 -0.3338  0.7498
  814MPD2    C212033   1.156   1.546  12.641  0.5284 -0.4118  0.9087
  814MPD2    C312034   1.279   1.603  12.659  0.1461  0.0428 -0.1860
  814MPD2    C412035   1.385   1.533  12.724 -0.5285 -0.3609  0.1718
  814MPD2    C512036   1.361   1.402  12.758  0.3102 -0.0842  0.6661
  814MPD2     H12037   1.066   1.594  12.603  1.8023  0.7339 -0.6342
  814MPD2    H112038   1.482   1.581  12.729  0.6996 -2.6915 -1.4269
  814MPD2    H212039   1.229   1.239  12.770  1.1162 -0.4492 -0.1528
  814MPD2    H312040   1.436   1.342  12.808  1.4728 -0.0498 -1.0424
  814MPD2     N12041   1.318   1.722  12.593 -0.2447  0.4866  0.3520
  814MPD2    H512042   1.415   1.747  12.604  0.2113 -1.2966  0.2631
  814MPD2    N112043   1.010   1.372  12.650 -0.1492 -0.0464 -0.8451
  814MPD2    H712044   0.953   1.432  12.592 -0.9103  0.6230  0.5889
  815MPD2     C12045   1.295   4.151  12.187  0.5739 -0.4551  0.2270
  815MPD2    C112046   1.229   4.033  12.163  0.4513  0.0822 -0.2791
  815MPD2    C212047   1.144   3.984  12.255 -0.3967  0.5901 -0.3108
  815MPD2    C312048   1.110   4.055  12.373  0.4248  0.7509  0.7443
  815MPD2    C412049   1.170   4.174  12.399  0.1476  0.0627  0.2424
  815MPD2    C512050   1.264   4.223  12.301 -1.0550  0.7908  0.3422
  815MPD2     H12051   1.098   3.887  12.239  0.2636  0.4777 -1.5062
  815MPD2    H112052   1.156   4.231  12.490 -1.3043 -0.5721  0.4157
  815MPD2    H212053   1.364   4.191  12.113 -1.1802 -0.4553 -1.4213
  815MPD2    H312054   1.306   4.320  12.325 -0.4189  0.6091 -0.0482
  815MPD2     N12055   1.005   4.001  12.457  0.0681 -0.4459 -0.4367
  815MPD2    H512056   0.953   3.921  12.423 -0.6233 -0.7397  1.2802
  815MPD2    N112057   1.260   3.973  12.034  0.3839  0.1026  0.7255
  815MPD2    H712058   1.314   4.028  11.968  2.3731 -1.2169  1.2595
  816MPD2     C12059   0.893   3.123  17.087 -0.6383  0.0154 -0.8866
  816MPD2    C112060   0.985   3.216  17.126  0.6292 -0.3657 -0.1936
  816MPD2    C212061   1.122   3.197  17.089  0.4035  0.0797  0.3181
  816MPD2    C312062   1.161   3.091  17.012  0.0762 -0.0813 -0.4897
  816MPD2    C412063   1.066   3.003  16.966 -0.5160  0.6170  0.0191
  816MPD2    C512064   0.936   3.011  17.017 -0.2739 -0.3116  0.3579
  816MPD2     H12065   1.198   3.269  17.118  2.0962 -0.9773 -1.4894
  816MPD2    H112066   1.093   2.918  16.904  1.2529  0.6027  0.8077
  816MPD2    H212067   0.788   3.146  17.103 -0.1173  0.7091  1.5586
  816MPD2    H312068   0.873   2.928  16.988 -1.8486  1.1658 -0.4825
  816MPD2     N12069   1.307   3.082  16.984  0.3321 -0.1471 -0.1646
  816MPD2    H512070   1.366   3.161  17.006 -0.0343 -0.0896  0.6117
  816MPD2    N112071   0.946   3.330  17.202  0.2520  0.0830  0.1310
  816MPD2    H712072   0.845   3.344  17.201  0.5572  2.4479  1.7373
  817MPD2     C12073   0.353   0.147   9.848  0.7238  0.2722  0.4097
  817MPD2    C112074   0.315   0.080   9.734  0.4037  0.2464  0.1802
  817MPD2    C212075   0.221   0.144   9.654 -0.8679  0.0924 -0.4367
  817MPD2    C312076   0.172   0.267   9.680 -0.4817  0.3942 -0.3805
  817MPD2    C412077   0.208   0.331   9.801 -0.2577  0.2524  0.4881
  817MPD2    C512078   0.303   0.270   9.880 -0.7792  0.1170  0.7916
  817MPD2     H12079   0.184   0.088   9.569  0.6381 -2.3491  0.5066
  817MPD2    H112080   0.168   0.425   9.838 -0.4807  0.6955 -0.9103
  817MPD2    H212081   0.436   0.112   9.908 -0.3977 -0.5121  1.5216
  817MPD2    H312082   0.337   0.312   9.974  3.3347  0.0514 -0.6415
  817MPD2     N12083   0.085   0.330   9.583  0.2592 -0.0665  0.0661
  817MPD2    H512084   0.085   0.277   9.497  1.5039  0.8249 -0.4869
  817MPD2    N112085   0.363   4.693   9.689  0.2183 -0.3693 -0.0763
  817MPD2    H712086   0.328   4.661   9.599  2.0242 -1.3816 -0.4115
  818MPD2     C12087   4.386   4.477   9.614  0.1554  1.0208 -0.2456
  818MPD2    C112088   4.459   4.384   9.682  0.4789 -0.4872  0.5129
  818MPD2    C212089   4.493   4.267   9.622  0.0645 -0.0775  0.8436
  818MPD2    C312090   4.449   4.242   9.488  0.5240 -0.1392 -0.4028
  818MPD2    C412091   4.368   4.329   9.423  0.0358 -0.6008 -0.2203
  818MPD2    C512092   4.338   4.447   9.490 -0.2790 -0.5246 -0.9268
  818MPD2     H12093   4.560   4.201   9.675  1.6371 -0.6063 -1.7906
  818MPD2    H112094   4.348   4.318   9.317  1.3771  2.0260 -0.7447
  818MPD2    H212095   4.360   4.573   9.656  1.2160  0.7685  0.9869
  818MPD2    H312096   4.278   4.528   9.450  0.0373  0.5378  0.7348
  818MPD2     N12097   4.474   4.125   9.418  0.3791 -0.7327 -0.4742
  818MPD2    H512098   4.431   4.119   9.326  0.6306  1.5741 -0.7384
  818MPD2    N112099   4.486   4.397   9.823 -0.3083 -0.5031 -0.4400
  818MPD2    H712100   4.512   4.317   9.879  0.7546  0.2292  0.1064
  819MPD2     C12101   2.389   1.595  15.584 -0.5226  0.2647  0.3038
  819MPD2    C112102   2.417   1.469  15.629 -0.4386 -0.2340 -1.2714
  819MPD2    C212103   2.496   1.446  15.735  0.9217  0.7847 -0.3002
  819MPD2    C312104   2.582   1.550  15.786  0.9659 -0.3150 -0.5419
  819MPD2    C412105   2.551   1.675  15.740  0.5237 -0.4442  0.4268
  819MPD2    C512106   2.454   1.697  15.647 -0.2970 -0.2314 -0.6727
  819MPD2     H12107   2.524   1.343  15.754 -1.0848  0.1883 -0.5921
  819MPD2    H112108   2.619   1.755  15.766  1.3315 -0.7851 -0.6154
  819MPD2    H212109   2.317   1.617  15.507  1.3594  3.6796 -0.4643
  819MPD2    H312110   2.437   1.792  15.597 -1.8433 -0.8759 -1.3697
  819MPD2     N12111   2.690   1.514  15.875 -0.2247  0.3197  0.2450
  819MPD2    H512112   2.704   1.414  15.884 -0.8089  0.1037 -1.1936
  819MPD2    N112113   2.356   1.365  15.558  0.3565 -0.5797  0.1571
  819MPD2    H712114   2.301   1.393  15.477 -0.1909 -1.3199  0.2747
  820MPD2     C12115   1.629   1.451  14.973  0.0368 -0.2484  0.2694
  820MPD2    C112116   1.741   1.508  15.034 -0.6779  0.1387 -0.2597
  820MPD2    C212117   1.825   1.430  15.111  0.1913  0.6335  0.0414
  820MPD2    C312118   1.792   1.298  15.139  0.2752 -0.1958 -0.1510
  820MPD2    C412119   1.674   1.242  15.082 -0.7981  0.4154  0.0849
  820MPD2    C512120   1.597   1.325  15.007 -0.4459  0.0348  0.1255
  820MPD2     H12121   1.910   1.478  15.159  0.7727  1.2141 -1.5716
  820MPD2    H112122   1.638   1.141  15.098  0.9990  0.0623  1.7500
  820MPD2    H212123   1.553   1.504  14.917  0.0006 -0.7364 -0.1388
  820MPD2    H312124   1.501   1.289  14.970 -1.0555  0.5376  1.2179
  820MPD2     N12125   1.876   1.214  15.227  0.1965  0.1278 -0.2591
  820MPD2    H512126   1.838   1.124  15.256  0.9488 -0.2262 -0.3800
  820MPD2    N112127   1.745   1.651  15.038  0.1377  0.0371 -0.2429
  820MPD2    H712128   1.661   1.698  15.004 -1.5100 -2.7054  0.0660
  821MPD2     C12129   2.453   2.719  12.936 -0.7578 -0.0058  0.5798
  821MPD2    C112130   2.532   2.728  13.051 -0.6734  0.4073 -0.0438
  821MPD2    C212131   2.642   2.807  13.048 -0.2360  0.7738  0.4488
  821MPD2    C312132   2.668   2.893  12.936 -0.4445 -0.3953 -0.3449
  821MPD2    C412133   2.581   2.895  12.832 -0.1815 -0.0162 -0.4313
  821MPD2    C512134   2.489   2.802  12.836  0.1648 -0.3984 -0.3361
  821MPD2     H12135   2.708   2.810  13.134 -1.7851 -0.3301  1.6746
  821MPD2    H112136   2.597   2.958  12.745  0.0463 -0.2913 -0.5907
  821MPD2    H212137   2.367   2.653  12.928 -0.0800 -0.5867 -1.8800
  821MPD2    H312138   2.432   2.801  12.744  1.7466 -1.1845 -1.3184
  821MPD2     N12139   2.779   2.986  12.941 -0.0489  0.6697  0.1505
  821MPD2    H512140   2.768   3.060  12.873  2.1204  2.0295  1.2960
  821MPD2    N112141   2.523   2.646  13.167 -0.2483  0.0490  0.4366
  821MPD2    H712142   2.591   2.670  13.238 -0.1042 -2.4432  1.1382
  822MPD2     C12143   3.050   2.809  15.813  0.1016 -0.0412 -0.7283
  822MPD2    C112144   3.068   2.800  15.950  0.7521 -0.1228  0.0303
  822MPD2    C212145   3.003   2.898  16.028 -0.8901 -0.0700 -0.3373
  822MPD2    C312146   2.938   3.005  15.959  0.6276  0.3672 -0.7381
  822MPD2    C412147   2.932   3.009  15.826 -0.5585 -0.8443  0.0204
  822MPD2    C512148   2.992   2.914  15.751 -0.0599 -0.0862 -0.6407
  822MPD2     H12149   3.005   2.901  16.137 -1.8752 -1.3342 -0.2843
  822MPD2    H112150   2.871   3.076  15.766  1.8258 -0.7864 -2.3535
  822MPD2    H212151   3.077   2.722  15.755 -0.4060 -0.7990  0.1615
  822MPD2    H312152   2.966   2.905  15.646  1.5279  0.9889 -1.1155
  822MPD2     N12153   2.875   3.108  16.034 -0.2932 -0.1106  0.0733
  822MPD2    H512154   2.879   3.096  16.135  1.8330  2.2486  0.2614
  822MPD2    N112155   3.144   2.703  16.016 -0.0017 -0.0313  0.4554
  822MPD2    H712156   3.134   2.700  16.117 -2.9490 -0.3170  0.1647
  823MPD2     C12157   2.627   3.400  16.767 -0.6946 -0.6006  0.4747
  823MPD2    C112158   2.664   3.307  16.672 -0.4906  0.6910 -0.3491
  823MPD2    C212159   2.732   3.194  16.707 -0.3385 -0.2139 -0.1519
  823MPD2    C312160   2.760   3.173  16.843 -0.4877 -0.2580 -0.0895
  823MPD2    C412161   2.727   3.267  16.933  0.0024 -0.1439 -0.6265
  823MPD2    C512162   2.655   3.378  16.901  0.3106  0.0566 -0.2998
  823MPD2     H12163   2.764   3.123  16.632 -4.9084 -1.6207 -0.7728
  823MPD2    H112164   2.750   3.249  17.037 -1.3234 -1.0206 -0.4877
  823MPD2    H212165   2.570   3.487  16.736 -1.1780 -1.1751 -0.2314
  823MPD2    H312166   2.619   3.455  16.969  2.1854 -0.6119  1.4459
  823MPD2     N12167   2.826   3.058  16.899  0.5328  0.6983  0.6371
  823MPD2    H512168   2.846   3.055  16.999  1.3296  0.1038  0.4644
  823MPD2    N112169   2.629   3.335  16.537  0.0749 -0.3367 -0.3842
  823MPD2    H712170   2.588   3.427  16.527 -0.9558 -0.8791 -1.0981
  824MPD2     C12171   3.371   2.007  15.735 -0.2325  0.2247 -0.5786
  824MPD2    C112172   3.469   2.048  15.823  0.2002 -0.5133 -0.5081
  824MPD2    C212173   3.602   2.020  15.806  0.0327 -0.3199  0.0521
  824MPD2    C312174   3.639   1.932  15.708 -0.4522 -0.8200  0.7270
  824MPD2    C412175   3.539   1.876  15.629  0.7095  0.0926 -0.5089
  824MPD2    C512176   3.407   1.917  15.637 -0.2573 -0.2480 -0.1667
  824MPD2     H12177   3.678   2.060  15.872 -0.1606  0.7329 -0.3710
  824MPD2    H112178   3.562   1.808  15.548  0.5754  0.8146 -1.1428
  824MPD2    H212179   3.268   2.039  15.727 -0.5515 -0.5352  0.4185
  824MPD2    H312180   3.341   1.885  15.558 -1.7176 -0.0464  0.9662
  824MPD2     N12181   3.779   1.907  15.696  0.0476  0.0693 -0.5171
  824MPD2    H512182   3.845   1.950  15.760 -1.6396 -0.0927  1.3067
  824MPD2    N112183   3.421   2.146  15.915  0.0964  0.4441  0.0951
  824MPD2    H712184   3.322   2.165  15.904 -0.0768  0.4112  1.5906
  825MPD2     C12185   4.528   2.191  15.820 -0.0367  0.3382 -0.2945
  825MPD2    C112186   4.411   2.192  15.748  0.2862 -0.4121  0.4756
  825MPD2    C212187   4.358   2.313  15.726  0.0757 -0.2308  0.3785
  825MPD2    C312188   4.421   2.427  15.767 -0.5160 -0.2627  0.6269
  825MPD2    C412189   4.536   2.421  15.838  0.0279 -0.4073 -0.2724
  825MPD2    C512190   4.589   2.299  15.865  0.5085  0.5435 -0.3837
  825MPD2     H12191   4.259   2.324  15.682  0.2242  0.7482  0.2958
  825MPD2    H112192   4.596   2.506  15.868 -1.8593 -0.0359  2.4129
  825MPD2    H212193   4.579   2.100  15.849  2.7619  1.9236 -0.2094
  825MPD2    H312194   4.676   2.286  15.928  0.3610 -1.3924 -0.6031
  825MPD2     N12195   4.375   2.555  15.751  0.1965  0.2101  0.3665
  825MPD2    H512196   4.419   2.629  15.805  2.0685  0.7242 -1.8322
  825MPD2    N112197   4.353   2.067  15.720  0.7056  0.2119  0.7926
  825MPD2    H712198   4.399   1.983  15.753  0.7436  0.2820  0.9229
  826MPD2     C12199   4.348   1.663  13.053  0.3724 -0.4912  0.2602
  826MPD2    C112200   4.408   1.736  13.155  0.9405 -0.1873  0.0376
  826MPD2    C212201   4.331   1.787  13.262  0.2593  0.0482  0.6023
  826MPD2    C312202   4.196   1.757  13.268 -0.3045 -0.0623  0.3650
  826MPD2    C412203   4.140   1.687  13.168  0.4254  0.3183 -0.6261
  826MPD2    C512204   4.216   1.640  13.065  0.4341 -0.2322  0.7467
  826MPD2     H12205   4.383   1.839  13.341  0.1409 -1.9158  1.9626
  826MPD2    H112206   4.033   1.670  13.159  0.8081 -1.8670 -1.1308
  826MPD2    H212207   4.389   1.631  12.958 -0.8680  0.2344 -0.5198
  826MPD2    H312208   4.166   1.594  12.980  1.3554 -1.7468  1.0378
  826MPD2     N12209   4.117   1.791  13.376 -0.1018 -0.2090 -0.4114
  826MPD2    H512210   4.017   1.775  13.366 -0.1953 -1.7079  2.8037
  826MPD2    N112211   4.547   1.770  13.140  0.1480  0.0770 -0.3293
  826MPD2    H712212   4.587   1.710  13.067 -3.2827 -1.2037 -1.1347
  827MPD2     C12213   0.241   3.603   9.912  1.3297  0.4643  0.7890
  827MPD2    C112214   0.193   3.528  10.012  0.0060 -0.4282  0.2453
  827MPD2    C212215   0.102   3.422   9.997  0.4481  0.5838  0.0387
  827MPD2    C312216   0.067   3.387   9.867  0.2610  0.8152  0.2611
  827MPD2    C412217   0.119   3.465   9.767 -0.3307  0.2285 -0.0598
  827MPD2    C512218   0.219   3.559   9.789 -0.0770  0.1595  0.3002
  827MPD2     H12219   0.069   3.367  10.084 -0.7233 -0.6119 -1.1585
  827MPD2    H112220   0.078   3.452   9.667 -5.2604  0.4515  1.9121
  827MPD2    H212221   0.318   3.679   9.919  0.3015  1.4591  1.3306
  827MPD2    H312222   0.264   3.612   9.705  0.2669 -1.0108 -0.2522
  827MPD2     N12223   4.708   3.290   9.847  0.1675 -0.5815  0.5198
  827MPD2    H512224   4.645   3.261   9.921 -0.3535  0.6481  0.5553
  827MPD2    N112225   0.257   3.543  10.137 -0.1112  0.1179 -0.2033
  827MPD2    H712226   0.303   3.634  10.140  0.9510 -0.4507  0.5587
  828MPD2     C12227   2.386   3.923  11.985 -0.0957 -0.5383 -0.2838
  828MPD2    C112228   2.500   3.866  11.927  0.3603 -0.3884  0.0950
  828MPD2    C212229   2.558   3.908  11.810  0.1574  0.2665 -0.4014
  828MPD2    C312230   2.492   4.012  11.740  0.0173  0.4322 -1.0327
  828MPD2    C412231   2.372   4.064  11.784 -0.4016 -0.6187 -0.3757
  828MPD2    C512232   2.333   4.024  11.909 -0.0938 -0.3111  0.4020
  828MPD2     H12233   2.654   3.870  11.776  1.4486  0.9666  2.4070
  828MPD2    H112234   2.323   4.137  11.721  2.6940  1.7414 -0.0540
  828MPD2    H212235   2.332   3.882  12.069  1.7456 -1.5872  0.4134
  828MPD2    H312236   2.247   4.074  11.951  0.0808  0.1920  0.1617
  828MPD2     N12237   2.547   4.075  11.628 -0.0279  0.0707 -0.5451
  828MPD2    H512238   2.473   4.123  11.578  1.2261  1.5553 -0.9951
  828MPD2    N112239   2.564   3.747  11.985  0.1229 -0.0089  0.5121
  828MPD2    H712240   2.645   3.710  11.935  0.3415 -0.6564  1.3455
  829MPD2     C12241   2.457   2.788  12.007  0.1109  0.0809  0.1674
  829MPD2    C112242   2.390   2.907  11.972  0.0400 -0.1801  0.2591
  829MPD2    C212243   2.466   3.026  11.996 -0.3006 -0.4839  0.6168
  829MPD2    C312244   2.596   3.027  12.046  0.0509 -0.1742 -0.0693
  829MPD2    C412245   2.648   2.904  12.088  0.0222  0.6579  0.4169
  829MPD2    C512246   2.580   2.787  12.065  0.1927  0.3185  0.3011
  829MPD2     H12247   2.423   3.124  11.977  1.6205  0.6444  2.1202
  829MPD2    H112248   2.750   2.898  12.124 -0.1702 -1.4815  0.5908
  829MPD2    H212249   2.406   2.693  11.992  0.3080  0.1841 -1.2157
  829MPD2    H312250   2.621   2.692  12.098 -0.4628  0.3809  1.3048
  829MPD2     N12251   2.663   3.151  12.063  0.3081 -0.3416 -0.3211
  829MPD2    H512252   2.756   3.135  12.100  1.5215  2.6371 -2.1376
  829MPD2    N112253   2.254   2.898  11.934 -0.5976  0.6516 -0.1719
  829MPD2    H712254   2.214   2.804  11.930  1.9958 -0.4571 -0.2395
  830MPD2     C12255   3.411   1.217  16.074  0.4041 -0.9038  0.5264
  830MPD2    C112256   3.298   1.181  16.007 -0.3456  0.7112 -0.7713
  830MPD2    C212257   3.305   1.139  15.870 -1.2415  0.1120 -0.4893
  830MPD2    C312258   3.425   1.153  15.800  0.2680  0.7211  0.2202
  830MPD2    C412259   3.526   1.214  15.868  0.4314 -0.5761 -0.1152
  830MPD2    C512260   3.520   1.238  16.000  0.1244 -0.3970 -0.2078
  830MPD2     H12261   3.224   1.083  15.825 -1.3803 -1.3575  1.6225
  830MPD2    H112262   3.627   1.242  15.841  0.0835  1.0212  0.2233
  830MPD2    H212263   3.409   1.252  16.176 -2.0401 -0.3899  0.3064
  830MPD2    H312264   3.609   1.271  16.053  0.6754 -1.3336 -0.5408
  830MPD2     N12265   3.453   1.121  15.664 -0.0436 -0.3221  0.1379
  830MPD2    H512266   3.543   1.148  15.626  1.4847 -1.0042  3.3515
  830MPD2    N112267   3.180   1.214  16.075  0.2083 -0.2828  0.0539
  830MPD2    H712268   3.188   1.243  16.173  1.8186  0.9310 -0.4162
  831MPD2     C12269   3.155   3.231  16.292 -0.3231 -0.0161  0.1839
  831MPD2    C112270   3.219   3.112  16.264  0.5220  0.0787 -0.4796
  831MPD2    C212271   3.164   2.994  16.316 -0.0980  0.3983 -0.3894
  831MPD2    C312272   3.049   2.995  16.388  0.1766 -1.1646  0.4233
  831MPD2    C412273   2.994   3.117  16.421  0.2935  0.7743 -0.7165
  831MPD2    C512274   3.042   3.235  16.369  0.8023  0.1427  0.4895
  831MPD2     H12275   3.204   2.895  16.293 -0.1563  0.3571 -0.3143
  831MPD2    H112276   2.905   3.122  16.482  0.6050 -1.6825 -0.0490
  831MPD2    H212277   3.198   3.321  16.249  0.5981  0.6056  2.4051
  831MPD2    H312278   3.002   3.328  16.409  0.4806  0.8280 -1.4533
  831MPD2     N12279   2.968   2.882  16.420  0.0036  0.3473  0.0406
  831MPD2    H512280   2.889   2.902  16.480  0.3222  1.3148  0.1414
  831MPD2    N112281   3.323   3.114  16.166 -0.4439 -0.0261  0.4555
  831MPD2    H712282   3.320   3.194  16.104  0.6353 -1.3687 -1.3382
  832MPD2     C12283   1.646   4.230  17.359 -0.4197  0.5716  0.1368
  832MPD2    C112284   1.676   4.339  17.288  0.2706 -0.0069  0.3931
  832MPD2    C212285   1.610   4.370  17.168  0.2732 -0.2624  0.0054
  832MPD2    C312286   1.521   4.271  17.118  0.0707 -0.3700  0.3649
  832MPD2    C412287   1.496   4.159  17.195 -0.7704  0.7884 -0.5948
  832MPD2    C512288   1.569   4.135  17.302 -0.0049 -0.2071 -0.0356
  832MPD2     H12289   1.637   4.455  17.105 -0.8739 -0.9906 -1.4849
  832MPD2    H112290   1.431   4.080  17.159  0.1933 -0.7222  0.9985
  832MPD2    H212291   1.678   4.207  17.460 -0.7639  0.7603  0.2886
  832MPD2    H312292   1.543   4.039  17.345 -0.0934  0.1511  0.7114
  832MPD2     N12293   1.441   4.272  17.008 -0.1824 -0.0784 -0.1963
  832MPD2    H512294   1.377   4.194  16.996  0.0603 -0.4136  0.7084
  832MPD2    N112295   1.769   4.423  17.347  0.3102  0.2729  0.2540
  832MPD2    H712296   1.810   4.394  17.435  0.7200  0.4364  0.1142
  833MPD2     C12297   3.639   0.969  12.350 -0.6536  0.2045  0.1518
  833MPD2    C112298   3.623   0.996  12.218 -0.1432  0.9123 -0.0110
  833MPD2    C212299   3.727   0.982  12.124 -0.7097  0.3140  0.1139
  833MPD2    C312300   3.847   0.931  12.172 -0.2580 -0.1428  0.2076
  833MPD2    C412301   3.865   0.894  12.303  0.2806 -0.7373 -0.1662
  833MPD2    C512302   3.763   0.931  12.395 -0.2606  0.2061 -0.3774
  833MPD2     H12303   3.723   1.015  12.021 -0.7181  0.5291  0.1828
  833MPD2    H112304   3.955   0.844  12.335  0.2874 -0.6671 -0.0761
  833MPD2    H212305   3.565   0.981  12.428  0.1666 -2.9248  1.4346
  833MPD2    H312306   3.779   0.904  12.498  2.8346 -0.9416 -1.1635
  833MPD2     N12307   3.946   0.896  12.080  0.5868  0.4676 -0.0241
  833MPD2    H512308   4.041   0.893  12.117  0.4064 -0.1555  0.3962
  833MPD2    N112309   3.507   1.065  12.183 -0.1017  0.1558 -0.6584
  833MPD2    H712310   3.435   1.061  12.254  1.5927  1.5625  1.1387
  834MPD2     C12311   4.251   0.693  11.136 -0.0098 -0.2001  1.0049
  834MPD2    C112312   4.155   0.636  11.207 -0.1243 -0.6677  0.6041
  834MPD2    C212313   4.122   0.700  11.324 -0.5976 -0.5363  0.2934
  834MPD2    C312314   4.187   0.810  11.379  0.6091 -0.8383 -0.3251
  834MPD2    C412315   4.300   0.856  11.301  0.7530  0.0664 -0.2495
  834MPD2    C512316   4.324   0.805  11.174  0.3232 -0.3179 -0.0473
  834MPD2     H12317   4.046   0.654  11.387 -1.0629 -0.9522 -0.5776
  834MPD2    H112318   4.371   0.926  11.343  1.8410 -2.4377  2.0350
  834MPD2    H212319   4.266   0.662  11.034  1.4160 -2.4032  1.8786
  834MPD2    H312320   4.402   0.846  11.112  0.1196 -1.8486 -1.3112
  834MPD2     N12321   4.150   0.857  11.503  0.3855  0.2413  0.5647
  834MPD2    H512322   4.083   0.803  11.556 -1.2279  1.6794  0.0076
  834MPD2    N112323   4.107   0.504  11.165 -0.4634  0.4851  0.5608
  834MPD2    H712324   4.151   0.469  11.080 -0.9868  1.3401 -0.0497
  835MPD2     C12325   3.756   3.561  11.575 -0.2929  0.4757 -0.2096
  835MPD2    C112326   3.679   3.669  11.607  0.1600  0.7296  0.3688
  835MPD2    C212327   3.624   3.669  11.735 -0.5094 -0.0969  0.0630
  835MPD2    C312328   3.659   3.576  11.837 -0.3873 -0.1958  0.4168
  835MPD2    C412329   3.757   3.480  11.802  0.0625  0.0501 -0.0536
  835MPD2    C512330   3.798   3.468  11.670  0.4777  0.4758 -0.0263
  835MPD2     H12331   3.543   3.738  11.758  0.1280 -0.0069  2.0669
  835MPD2    H112332   3.803   3.416  11.877  0.3869  2.5447  1.8672
  835MPD2    H212333   3.792   3.539  11.475  0.3725  0.8896 -0.0633
  835MPD2    H312334   3.866   3.386  11.650  1.4100  1.6393 -1.6299
  835MPD2     N12335   3.599   3.588  11.966 -0.0461 -0.0285  0.0208
  835MPD2    H512336   3.627   3.520  12.037  1.7366  0.5108 -0.1699
  835MPD2    N112337   3.639   3.765  11.510  0.6959 -0.3029 -0.3091
  835MPD2    H712338   3.575   3.840  11.536 -1.0869 -1.4626 -1.3935
  836MPD2     C12339   2.927   3.878  12.022 -0.3198  0.0278  0.3263
  836MPD2    C112340   2.967   3.848  12.154 -0.4678 -0.3311 -0.2732
  836MPD2    C212341   2.885   3.889  12.260  0.6240  0.9045 -0.3589
  836MPD2    C312342   2.768   3.957  12.244 -0.8540  0.6788 -0.7850
  836MPD2    C412343   2.734   3.990  12.114 -1.1876 -0.3445 -0.6070
  836MPD2    C512344   2.818   3.966  12.009 -0.1875 -0.2703 -0.3459
  836MPD2     H12345   2.915   3.863  12.361 -0.2660  0.1032 -0.3036
  836MPD2    H112346   2.645   4.047  12.089 -0.8442 -0.7420 -2.7391
  836MPD2    H212347   2.975   3.852  11.928 -1.3982 -2.1978  0.4037
  836MPD2    H312348   2.794   4.009  11.912  1.4661  0.3846 -0.4627
  836MPD2     N12349   2.684   3.997  12.356  0.1778  0.6332 -0.2615
  836MPD2    H512350   2.594   4.035  12.331 -1.4673 -2.1761  1.4548
  836MPD2    N112351   3.088   3.772  12.173  0.1935  0.1527 -0.3492
  836MPD2    H712352   3.131   3.746  12.084 -1.3141  0.8007 -1.2706
  837MPD2     C12353   1.936   3.522  10.689  0.3251 -0.6691 -0.1911
  837MPD2    C112354   1.808   3.523  10.652 -0.4453 -0.0022 -0.3654
  837MPD2    C212355   1.741   3.643  10.645  0.3074 -0.0922 -0.0958
  837MPD2    C312356   1.804   3.763  10.677 -0.0843  0.3810  0.1946
  837MPD2    C412357   1.937   3.766  10.712 -0.3743 -0.0024 -0.2871
  837MPD2    C512358   1.995   3.640  10.724  0.6099 -0.0908 -0.4027
  837MPD2     H12359   1.637   3.650  10.616  0.0948  0.1183  0.7168
  837MPD2    H112360   1.999   3.854  10.720 -0.0814 -0.3929  1.7595
  837MPD2    H212361   1.995   3.431  10.689  2.2726  0.5900  0.0138
  837MPD2    H312362   2.096   3.640  10.764  1.3887 -0.3156 -2.3984
  837MPD2     N12363   1.741   3.885  10.662  1.0342  0.3374  0.2911
  837MPD2    H512364   1.807   3.962  10.671  1.0240  0.2079  1.4881
  837MPD2    N112365   1.739   3.411  10.602  0.5394  0.5490 -0.0348
  837MPD2    H712366   1.640   3.420  10.580  0.3805 -4.3822 -1.4122
  838MPD2     C12367   0.926   1.728  11.792  0.5866 -0.9996 -0.2799
  838MPD2    C112368   0.809   1.654  11.759 -0.1404 -0.7238 -0.4952
  838MPD2    C212369   0.720   1.636  11.862  0.3697 -0.2654  0.0551
  838MPD2    C312370   0.745   1.664  11.997 -0.1567 -0.2918  0.5827
  838MPD2    C412371   0.865   1.726  12.021 -0.2259 -0.5521  0.3796
  838MPD2    C512372   0.958   1.754  11.922 -0.1244 -0.0122 -0.2172
  838MPD2     H12373   0.627   1.583  11.847 -0.1281  1.5122 -3.0708
  838MPD2    H112374   0.886   1.767  12.119  4.2684  3.5830 -2.3195
  838MPD2    H212375   1.001   1.764  11.723 -2.2845  3.0101 -1.2874
  838MPD2    H312376   1.051   1.798  11.958  0.9207  0.5790 -3.6243
  838MPD2     N12377   0.642   1.649  12.092  0.3103 -0.2386 -0.3134
  838MPD2    H512378   0.549   1.642  12.052 -0.0013 -0.1180  0.3939
  838MPD2    N112379   0.768   1.606  11.636  0.4128 -0.0942  0.2631
  838MPD2    H712380   0.674   1.569  11.633  0.5335 -0.3602 -0.3662
  839MPD2     C12381   0.306   0.801  11.384 -0.2893  0.2025 -0.2465
  839MPD2    C112382   0.413   0.826  11.464  0.4829 -0.4911 -0.5045
  839MPD2    C212383   0.479   0.947  11.442 -0.4125 -0.1125  0.1957
  839MPD2    C312384   0.442   1.039  11.347 -0.0326  0.2275  0.1321
  839MPD2    C412385   0.324   1.013  11.282 -0.2658 -0.3884  0.5149
  839MPD2    C512386   0.258   0.897  11.298  0.5221  0.6751 -0.2161
  839MPD2     H12387   0.564   0.960  11.510  0.6789 -1.7954 -0.8486
  839MPD2    H112388   0.279   1.093  11.224 -2.1368 -0.1840  2.2480
  839MPD2    H212389   0.253   0.707  11.391  0.3307 -0.2450 -1.4360
  839MPD2    H312390   0.159   0.882  11.256 -0.3846  0.6138  1.8956
  839MPD2     N12391   0.495   1.167  11.332  0.0087  0.0062 -0.1000
  839MPD2    H512392   0.474   1.206  11.241  2.0611 -0.6366 -0.8352
  839MPD2    N112393   0.466   0.736  11.556 -0.8643 -0.0674 -0.2284
  839MPD2    H712394   0.548   0.766  11.608 -0.2876  0.0324 -1.2111
  840MPD2     C12395   0.540   4.056  10.200  0.2014  0.0117 -0.3555
  840MPD2    C112396   0.569   4.002  10.324 -0.4155  0.6172  0.1820
  840MPD2    C212397   0.640   4.084  10.419  0.7502  0.2413 -0.2176
  840MPD2    C312398   0.674   4.219  10.382  0.4852 -0.4193  0.5289
  840MPD2    C412399   0.636   4.266  10.257 -0.8079 -0.8842 -0.0473
  840MPD2    C512400   0.566   4.183  10.170  0.2513 -0.2342  0.2200
  840MPD2     H12401   0.651   4.054  10.523  1.7714 -1.6696 -0.8832
  840MPD2    H112402   0.662   4.367  10.228  0.2281 -1.3200 -0.6442
  840MPD2    H212403   0.483   3.996  10.131 -2.0713 -1.7479  3.0616
  840MPD2    H312404   0.546   4.222  10.072  0.7810 -1.1502 -0.2554
  840MPD2     N12405   0.745   4.305  10.466  0.1297 -0.2136  0.2956
  840MPD2    H512406   0.773   4.390  10.417 -1.3078  0.4060  0.5660
  840MPD2    N112407   0.516   3.867  10.352  0.4015 -0.4052  0.8160
  840MPD2    H712408   0.465   3.822  10.277 -1.1821  2.4962  0.1361
  841MPD2     C12409   0.150   2.863  14.928  0.6039 -0.0153  0.2026
  841MPD2    C112410   0.158   2.980  14.848  0.1070 -0.6973  0.2658
  841MPD2    C212411   0.141   3.101  14.901  0.0402 -0.0025  0.1396
  841MPD2    C312412   0.114   3.111  15.036 -0.0002  0.2499  0.2844
  841MPD2    C412413   0.121   2.999  15.118  0.6590  0.3124 -0.1162
  841MPD2    C512414   0.138   2.878  15.061  0.1512 -0.5590  0.3177
  841MPD2     H12415   0.150   3.186  14.836 -1.3722 -1.7788 -2.3631
  841MPD2    H112416   0.108   2.991  15.225  0.0422  0.7848 -0.1570
  841MPD2    H212417   0.157   2.764  14.885 -0.9606  1.2400 -3.0139
  841MPD2    H312418   0.127   2.790  15.123  0.2683 -1.7675 -1.3915
  841MPD2     N12419   0.088   3.244  15.094  0.5065 -0.2378 -0.1064
  841MPD2    H512420   0.101   3.323  15.031  2.6237  0.6523  1.4620
  841MPD2    N112421   0.200   2.974  14.712  0.1780 -0.3341 -0.0917
  841MPD2    H712422   0.176   3.048  14.647  1.0719  0.1304  0.1133
  842MPD2     C12423   0.940   4.696  16.795  0.2470  0.0803 -0.2289
  842MPD2    C112424   0.806   4.669  16.766  0.6277  0.2848 -0.0276
  842MPD2    C212425   0.737   4.591  16.859  0.6344  0.2322  0.0148
  842MPD2    C312426   0.803   4.517  16.955 -0.0980 -0.4345  1.2786
  842MPD2    C412427   0.947   4.523  16.944 -0.7801  1.0142 -1.1456
  842MPD2    C512428   1.015   4.623  16.877 -0.5485  0.0718 -0.4038
  842MPD2     H12429   0.629   4.594  16.856  0.6905  0.9569 -1.1009
  842MPD2    H112430   1.006   4.475  17.021 -1.1826  0.3642 -1.2450
  842MPD2    H212431   0.991   0.029  16.730  1.0043 -0.7971 -0.5887
  842MPD2    H312432   1.122   4.641  16.877 -0.4158 -0.6939 -0.6666
  842MPD2     N12433   0.745   4.448  17.060  0.5781  0.4389  0.0547
  842MPD2    H512434   0.806   4.426  17.138  0.8502  3.0946  0.5814
  842MPD2    N112435   0.749   0.008  16.661  0.1024  0.0916 -0.0064
  842MPD2    H712436   0.801   0.090  16.630  2.1655 -0.8750  0.9198
  843MPD2     C12437   3.071   0.526   0.039  0.3319 -0.1703 -0.2326
  843MPD2    C112438   3.200   0.466   0.010  0.6988  0.5833  0.2838
  843MPD2    C212439   3.314   0.555   0.018  0.2547 -0.3715  0.7302
  843MPD2    C312440   3.295   0.688   0.050 -0.2300  0.0490 -0.6816
  843MPD2    C412441   3.168   0.743   0.063 -0.1331  0.0671 -0.3983
  843MPD2    C512442   3.063   0.657   0.064 -0.0724  0.0233  0.7921
  843MPD2     H12443   3.415   0.519  17.747  0.5332 -0.2475  2.0410
  843MPD2    H112444   3.140   0.844   0.088  1.5580  0.5394 -0.3688
  843MPD2    H212445   2.978   0.472   0.028 -1.0852  2.4248 -1.1494
  843MPD2    H312446   2.968   0.702   0.090 -0.8624 -1.3763  0.3161
  843MPD2     N12447   3.394   0.794   0.038 -0.4400 -0.3710 -0.7332
  843MPD2    H512448   3.361   0.889   0.046  0.9787 -0.0202  1.1574
  843MPD2    N112449   3.195   0.336  17.708 -0.0533 -0.2261 -0.0079
  843MPD2    H712450   3.104   0.292  17.711 -0.7408  1.1165 -0.8785
  844MPD2     C12451   1.384   3.897  16.786  0.0365  0.4567  0.8155
  844MPD2    C112452   1.463   3.979  16.702  0.7218  0.1475 -0.8837
  844MPD2    C212453   1.577   4.033  16.753  1.0052  0.0993 -0.5441
  844MPD2    C312454   1.617   4.011  16.881 -1.0373 -0.2575  0.3015
  844MPD2    C412455   1.544   3.923  16.962  0.3526  0.7131 -0.0281
  844MPD2    C512456   1.425   3.872  16.911  0.4360  0.3103  0.1693
  844MPD2     H12457   1.648   4.087  16.691  0.1748  0.5233 -1.1314
  844MPD2    H112458   1.562   3.910  17.068  1.6927  2.2157 -0.0768
  844MPD2    H212459   1.293   3.849  16.753  1.1279 -1.4005  0.5499
  844MPD2    H312460   1.370   3.805  16.976  0.8627 -0.6621 -0.4710
  844MPD2     N12461   1.724   4.091  16.924  0.1239 -0.2289  0.0856
  844MPD2    H512462   1.754   4.162  16.857 -2.3478  1.0060  0.3051
  844MPD2    N112463   1.441   3.987  16.560 -0.8102 -0.3206 -0.3714
  844MPD2    H712464   1.514   4.030  16.504 -1.1826 -2.6292 -2.6128
  845MPD2     C12465   1.880   0.123  16.655 -0.0255  0.2503 -0.4000
  845MPD2    C112466   1.915   0.123  16.794 -0.2656  0.2070 -0.0858
  845MPD2    C212467   1.943   4.729  16.841 -0.3345 -0.0343  0.6313
  845MPD2    C312468   1.929   4.610  16.776 -0.9485 -0.4281 -0.1211
  845MPD2    C412469   1.884   4.626  16.645  0.8513  0.2392 -0.5044
  845MPD2    C512470   1.871   0.008  16.583 -0.2246 -0.3025 -0.0422
  845MPD2     H12471   1.981   4.731  16.943  0.4805 -0.3523  0.3306
  845MPD2    H112472   1.858   4.536  16.590 -0.8542 -0.0431  0.7572
  845MPD2    H212473   1.868   0.218  16.603 -1.4254 -1.1010 -2.5510
  845MPD2    H312474   1.860   0.015  16.475  1.7113  0.7214 -0.1660
  845MPD2     N12475   1.953   4.485  16.832 -0.2096  0.6113  0.0256
  845MPD2    H512476   1.917   4.403  16.784  0.0987  0.2245  0.4470
  845MPD2    N112477   1.913   0.247  16.869 -0.5643  0.0216 -0.2808
  845MPD2    H712478   1.906   0.333  16.815 -1.1999 -0.0043 -0.2388
  846MPD2     C12479   2.964   0.525  13.420  0.0693  0.4626  0.4548
  846MPD2    C112480   2.914   0.629  13.491 -0.2991 -0.4161  0.2373
  846MPD2    C212481   2.899   0.623  13.630  0.0156  0.9815  0.8070
  846MPD2    C312482   2.956   0.518  13.694  0.3893  0.5787 -0.2241
  846MPD2    C412483   3.014   0.417  13.620 -0.1191  0.0731  0.1615
  846MPD2    C512484   3.012   0.416  13.479  0.3759  0.3754  0.6272
  846MPD2     H12485   2.860   0.709  13.684 -2.9304  2.8288 -4.2945
  846MPD2    H112486   3.052   0.328  13.669 -0.5619  0.6236  1.5050
  846MPD2    H212487   2.972   0.527  13.312 -0.9720 -1.7638  0.3534
  846MPD2    H312488   3.058   0.337  13.422 -0.0022 -0.9791  2.1939
  846MPD2     N12489   2.951   0.518  13.837 -0.1710 -0.2192  0.3096
  846MPD2    H512490   2.885   0.583  13.878 -0.0594  0.5662 -0.7262
  846MPD2    N112491   2.863   0.746  13.431  0.2187 -0.0307 -0.1218
  846MPD2    H712492   2.812   0.809  13.492 -0.2917  0.3480 -0.9371
  847MPD2     C12493   3.414   1.063  13.983 -0.0311 -0.3159  0.4096
  847MPD2    C112494   3.420   1.194  14.024  0.3278 -0.1035  0.8479
  847MPD2    C212495   3.528   1.236  14.090  0.2382 -0.3083 -0.2738
  847MPD2    C312496   3.640   1.151  14.113 -1.0959  0.1398  0.3831
  847MPD2    C412497   3.637   1.020  14.066  0.1213 -0.0159 -0.1650
  847MPD2    C512498   3.521   0.974  14.003  0.0348  0.0045  0.0470
  847MPD2     H12499   3.524   1.337  14.128 -0.5229 -0.3853 -0.1522
  847MPD2    H112500   3.720   0.950  14.079 -0.2824 -0.0817  2.0303
  847MPD2    H212501   3.332   1.021  13.925  0.7594  0.3991 -1.2211
  847MPD2    H312502   3.514   0.871  13.971 -1.0653  0.2226 -0.3920
  847MPD2     N12503   3.739   1.200  14.192  0.8275  0.0283  0.0729
  847MPD2    H512504   3.726   1.300  14.206  0.3509  0.0081 -0.2101
  847MPD2    N112505   3.311   1.285  14.011 -0.0141 -0.4020 -0.3421
  847MPD2    H712506   3.320   1.373  14.061  0.9345 -1.2110  0.8928
  848MPD2     C12507   0.997   4.723  16.435 -0.5553  0.3928  0.7710
  848MPD2    C112508   1.130   4.724  16.466  0.4658  0.3930 -0.2033
  848MPD2    C212509   1.217   0.084  16.421  0.6632  0.1513 -0.3699
  848MPD2    C312510   1.173   0.182  16.328  0.3774 -1.3144 -0.2097
  848MPD2    C412511   1.042   0.181  16.289  0.0041 -0.6581 -0.2280
  848MPD2    C512512   0.963   0.080  16.342 -0.0417 -0.1156 -0.0910
  848MPD2     H12513   1.320   0.085  16.455  0.0162 -0.9934  1.6322
  848MPD2    H112514   1.000   0.241  16.210 -2.1431 -1.4527  0.3226
  848MPD2    H212515   0.917   4.662  16.475  0.2283 -0.7556  0.5984
  848MPD2    H312516   0.862   0.077  16.302 -0.2054  0.6512  0.2594
  848MPD2     N12517   1.247   0.293  16.282 -0.4444 -0.0270 -0.0496
  848MPD2    H512518   1.204   0.354  16.213 -2.0080 -2.0133 -0.8646
  848MPD2    N112519   1.182   4.620  16.544  0.4081 -0.1446 -0.0539
  848MPD2    H712520   1.275   4.638  16.582  0.0472 -1.3126  1.4061
  849MPD2     C12521   4.370   4.486  14.836  0.5780 -0.2448 -0.0500
  849MPD2    C112522   4.424   4.392  14.758 -0.1432 -0.0861 -0.6863
  849MPD2    C212523   4.539   4.321  14.791  0.4071 -0.0143  0.3444
  849MPD2    C312524   4.595   4.348  14.916 -0.3599  0.3092  0.5006
  849MPD2    C412525   4.542   4.451  14.995  0.1140 -0.9965  0.0560
  849MPD2    C512526   4.430   4.521  14.954  0.1408 -0.2051 -0.0307
  849MPD2     H12527   4.568   4.245  14.719  2.6251  1.0807  0.0733
  849MPD2    H112528   4.575   4.471  15.096 -0.4869 -1.8338  0.4165
  849MPD2    H212529   4.280   4.544  14.825 -0.4802 -1.6192  1.2870
  849MPD2    H312530   4.387   4.599  15.016 -0.3664  0.8900 -1.7495
  849MPD2     N12531   4.701   4.263  14.967  0.6543 -0.2375 -0.4160
  849MPD2    H512532   4.729   4.284  15.063 -1.2935  0.7391 -0.0723
  849MPD2    N112533   4.342   4.360  14.648 -0.8238 -0.2434  0.3530
  849MPD2    H712534   4.246   4.390  14.635 -0.2581 -0.6723 -4.6059
  850MPD2     C12535   3.268   2.392  14.762 -0.0014 -0.1813 -0.0180
  850MPD2    C112536   3.308   2.328  14.874  0.4179 -0.6430  0.1414
  850MPD2    C212537   3.434   2.326  14.919 -0.6358  0.8700 -0.2121
  850MPD2    C312538   3.530   2.407  14.851 -0.8154  0.4954  0.0341
  850MPD2    C412539   3.488   2.474  14.737  0.2496  0.3137  0.3506
  850MPD2    C512540   3.360   2.462  14.692 -1.4112  0.2766 -0.4194
  850MPD2     H12541   3.457   2.272  15.010 -0.2227  0.3251 -0.6400
  850MPD2    H112542   3.560   2.534  14.683  2.0959 -0.9740  1.3722
  850MPD2    H212543   3.166   2.403  14.724 -0.6018 -1.4728  1.2270
  850MPD2    H312544   3.335   2.516  14.601 -0.2077  1.2648 -0.1581
  850MPD2     N12545   3.665   2.420  14.898  0.1020 -0.0832 -0.9168
  850MPD2    H512546   3.726   2.481  14.845  2.4626 -0.6812  1.1275
  850MPD2    N112547   3.223   2.262  14.957  1.0625  0.0308 -0.0345
  850MPD2    H712548   3.262   2.220  15.042  0.0281 -0.9409 -0.0414
  851MPD2     C12549   3.507   1.841  15.239  0.8750 -0.2234 -0.1729
  851MPD2    C112550   3.374   1.803  15.259 -0.1942 -0.2570  0.1352
  851MPD2    C212551   3.352   1.666  15.257 -0.2009 -0.7390  0.3820
  851MPD2    C312552   3.454   1.571  15.252  0.6435 -0.3909  0.4249
  851MPD2    C412553   3.582   1.619  15.232  0.4296  0.3788 -0.6843
  851MPD2    C512554   3.607   1.753  15.234 -0.3147  0.1816  0.6061
  851MPD2     H12555   3.252   1.625  15.263 -0.1770 -0.8897 -0.2579
  851MPD2    H112556   3.669   1.555  15.221  1.0638  1.2875 -1.0749
  851MPD2    H212557   3.531   1.945  15.221 -0.8778  0.3520  0.7915
  851MPD2    H312558   3.709   1.791  15.227  0.3027 -1.0570  2.9824
  851MPD2     N12559   3.426   1.435  15.270  0.1696  0.3400 -0.8300
  851MPD2    H512560   3.328   1.410  15.270  0.6338 -1.5006  0.1460
  851MPD2    N112561   3.275   1.900  15.231 -0.4657 -0.5967 -0.3362
  851MPD2    H712562   3.302   1.996  15.212  2.0856 -0.3696  4.2160
  852MPD2     C12563   3.255   0.140   9.826  0.5137 -0.1334 -0.4533
  852MPD2    C112564   3.372   0.166   9.894  0.4892 -0.3164  0.4294
  852MPD2    C212565   3.410   0.295   9.916 -0.4565 -0.6878  0.3220
  852MPD2    C312566   3.328   0.401   9.890  0.0832  0.6179  0.3184
  852MPD2    C412567   3.209   0.376   9.830 -0.8149  0.5572 -0.4925
  852MPD2    C512568   3.167   0.244   9.796 -0.6810 -0.1144 -0.6716
  852MPD2     H12569   3.499   0.312   9.976 -1.0053 -0.4475  1.0687
  852MPD2    H112570   3.136   0.454   9.813 -0.3551  1.5634  2.0760
  852MPD2    H212571   3.213   0.041   9.809  2.6676 -0.9891 -0.7764
  852MPD2    H312572   3.068   0.219   9.760 -0.7572 -0.7304 -0.0293
  852MPD2     N12573   3.385   0.532   9.900  0.3790  0.3956  0.3737
  852MPD2    H512574   3.484   0.532   9.922  0.2517 -0.0494  0.9292
  852MPD2    N112575   3.452   0.066   9.950  0.2192 -0.2063  0.0824
  852MPD2    H712576   3.525   0.101  10.012  1.5404 -0.4197 -1.3373
  853MPD2     C12577   0.191   0.548  12.468 -0.2489 -0.0186 -0.5196
  853MPD2    C112578   0.123   0.439  12.515 -0.6422  0.7613  0.2932
  853MPD2    C212579   0.049   0.358  12.427  0.0105  0.3773  0.4995
  853MPD2    C312580   0.046   0.390  12.295  0.0417  0.7391 -0.0269
  853MPD2    C412581   0.105   0.506  12.252  0.8126  0.1129 -0.5021
  853MPD2    C512582   0.173   0.587  12.338  0.3044  0.2844 -0.6285
  853MPD2     H12583   4.732   0.270  12.458  2.7033 -1.6960 -0.6688
  853MPD2    H112584   0.098   0.538  12.148  2.4490 -2.4583 -1.4138
  853MPD2    H212585   0.253   0.607  12.534  2.2845 -1.9868 -1.1321
  853MPD2    H312586   0.222   0.680  12.309  0.5158  0.4346  0.2010
  853MPD2     N12587   4.721   0.308  12.198  0.7165 -0.3101  0.1294
  853MPD2    H512588   0.001   0.339  12.103 -1.1451  0.5327  0.0596
  853MPD2    N112589   0.148   0.416  12.655 -0.0274 -0.6292 -0.2986
  853MPD2    H712590   0.220   0.470  12.701 -1.1534 -0.7260  1.5729
  854MPD2     C12591   1.792   0.415  12.840  0.0311  0.0980 -0.1836
  854MPD2    C112592   1.871   0.409  12.953 -0.7182 -0.3817  0.1818
  854MPD2    C212593   1.914   0.288  13.005  0.2598  0.8355  0.1242
  854MPD2    C312594   1.888   0.173  12.929  0.5894 -0.4388  0.1124
  854MPD2    C412595   1.806   0.179  12.820  0.5846 -0.1711 -0.4414
  854MPD2    C512596   1.749   0.296  12.793 -0.2041 -0.3053 -0.1022
  854MPD2     H12597   1.981   0.296  13.090  1.0802 -3.0631 -0.1426
  854MPD2    H112598   1.779   0.086  12.771  1.2411 -0.8850  0.5660
  854MPD2    H212599   1.759   0.509  12.798  1.6313  0.7500  0.0149
  854MPD2    H312600   1.682   0.292  12.708 -0.7263  2.2064  0.2059
  854MPD2     N12601   1.956   0.055  12.960  0.0498 -0.1606 -0.0948
  854MPD2    H512602   1.999   0.064  13.051  0.7985  1.6556 -0.6072
  854MPD2    N112603   1.913   0.537  12.997  0.1014  0.6516 -0.7106
  854MPD2    H712604   1.900   0.618  12.937  1.2259 -0.4385 -2.4224
  855MPD2     C12605   2.028   4.515  13.746  0.3645 -0.3969 -0.4874
  855MPD2    C112606   2.015   4.399  13.671 -0.2779  0.4728 -0.6755
  855MPD2    C212607   2.029   4.400  13.533  0.5023 -0.2849 -1.0182
  855MPD2    C312608   2.055   4.517  13.464  0.5741  0.1154 -0.2586
  855MPD2    C412609   2.053   4.632  13.534  0.3267 -0.3186 -0.7975
  855MPD2    C512610   2.049   4.624  13.671 -0.8364 -0.2091  0.1773
  855MPD2     H12611   2.020   4.307  13.477 -0.2945 -0.3655 -0.7620
  855MPD2    H112612   2.068   4.735  13.503  0.1046  0.3589  1.3607
  855MPD2    H212613   2.041   4.528  13.853  3.1412  2.1960 -1.1455
  855MPD2    H312614   2.075   4.713  13.728  1.0924 -0.7795  0.1944
  855MPD2     N12615   2.078   4.524  13.326 -0.6478  0.1079 -0.7281
  855MPD2    H512616   2.074   4.617  13.286 -0.1541 -0.0260 -1.0921
  855MPD2    N112617   2.000   4.286  13.747  0.4526 -0.3651  0.4053
  855MPD2    H712618   2.014   4.297  13.846  0.6871  0.0614  0.3257
  856MPD2     C12619   4.293   0.555  14.245  0.4104  0.1261 -0.2708
  856MPD2    C112620   4.318   0.691  14.235  0.2507  1.3418 -0.0616
  856MPD2    C212621   4.235   0.771  14.154 -0.0786  0.6452 -0.5066
  856MPD2    C312622   4.129   0.712  14.088  0.2223  0.1028 -0.1589
  856MPD2    C412623   4.104   0.582  14.094  0.2111  0.4980 -0.5237
  856MPD2    C512624   4.189   0.507  14.170  0.8207  0.1903 -0.3265
  856MPD2     H12625   4.255   0.878  14.151  0.5165  0.4546 -2.8958
  856MPD2    H112626   4.016   0.535  14.050  0.3990  1.6214 -2.0831
  856MPD2    H212627   4.352   0.484  14.302 -1.4067 -0.6031  0.7049
  856MPD2    H312628   4.150   0.409  14.195  1.3139  0.3695  1.1669
  856MPD2     N12629   4.050   0.785  13.993 -0.2014 -0.4317  0.4124
  856MPD2    H512630   3.967   0.734  13.963  0.5806 -1.4548 -0.0116
  856MPD2    N112631   4.414   0.768  14.301 -0.4593 -0.6586  0.4133
  856MPD2    H712632   4.410   0.866  14.276 -0.8388 -0.4955  1.1090
  857MPD2     C12633   1.184   3.566  12.481  0.4984  0.6038 -0.2741
  857MPD2    C112634   1.179   3.477  12.586  0.4463 -0.0560 -0.1549
  857MPD2    C212635   1.164   3.531  12.709 -0.0803  0.1974  0.1530
  857MPD2    C312636   1.143   3.664  12.731  0.0700  0.2048 -0.7112
  857MPD2    C412637   1.146   3.757  12.627  0.4734 -0.0536  0.7867
  857MPD2    C512638   1.172   3.705  12.500  0.0066  0.0343 -0.2667
  857MPD2     H12639   1.172   3.460  12.790 -1.3948 -0.9337 -0.7075
  857MPD2    H112640   1.141   3.863  12.648 -1.1894  0.0006  0.1864
  857MPD2    H212641   1.207   3.527  12.383 -3.0062 -1.7575 -0.1460
  857MPD2    H312642   1.184   3.770  12.414 -1.9768  1.6208  0.6562
  857MPD2     N12643   1.142   3.701  12.868  0.7244  0.4603 -0.4579
  857MPD2    H512644   1.131   3.624  12.933 -0.9153 -0.6897 -2.0869
  857MPD2    N112645   1.197   3.334  12.566 -0.6087 -0.3822  0.1236
  857MPD2    H712646   1.211   3.306  12.469 -1.7746 -3.3440  0.8156
  858MPD2     C12647   1.583   1.776  16.698 -0.2702 -0.3037  0.3970
  858MPD2    C112648   1.717   1.816  16.689  0.0782  0.3020 -0.5783
  858MPD2    C212649   1.738   1.954  16.692 -0.4030 -0.3425  0.0628
  858MPD2    C312650   1.634   2.047  16.720  0.0232  0.0187  0.6554
  858MPD2    C412651   1.508   1.995  16.733 -0.1430  0.1821 -0.3249
  858MPD2    C512652   1.487   1.862  16.722  0.5206 -0.3069  1.0997
  858MPD2     H12653   1.840   1.992  16.692 -0.7154  0.5113  1.0749
  858MPD2    H112654   1.429   2.052  16.781  0.1929 -0.6877  1.2581
  858MPD2    H212655   1.560   1.670  16.695  2.0976 -0.6821 -3.6581
  858MPD2    H312656   1.389   1.832  16.758  0.0663 -2.3287 -1.8357
  858MPD2     N12657   1.663   2.185  16.730 -0.5185 -0.1281  0.3716
  858MPD2    H512658   1.592   2.240  16.778  0.9185 -0.6367  3.0971
  858MPD2    N112659   1.819   1.719  16.681 -0.4373  0.2738  0.1528
  858MPD2    H712660   1.795   1.621  16.691  3.3355 -0.7838 -0.9676
  859MPD2     C12661   0.232   4.475  16.124 -0.5808  0.3207  0.1452
  859MPD2    C112662   0.332   4.419  16.039 -0.2859  0.1691 -1.1459
  859MPD2    C212663   0.373   4.284  16.059 -0.1831  0.0549 -0.4762
  859MPD2    C312664   0.304   4.206  16.158  0.2726  0.7619 -0.7042
  859MPD2    C412665   0.209   4.275  16.234  0.2798 -1.2151 -0.5361
  859MPD2    C512666   0.180   4.401  16.226  0.5897 -0.0066  0.0071
  859MPD2     H12667   0.456   4.237  16.007  0.9710  0.2146  1.1952
  859MPD2    H112668   0.148   4.213  16.299 -0.2526 -0.7194 -0.5646
  859MPD2    H212669   0.208   4.580  16.113  1.5262  0.7712 -0.1260
  859MPD2    H312670   0.102   4.441  16.290  0.3558 -0.8193  0.2295
  859MPD2     N12671   0.329   4.068  16.186 -0.4724  0.1978 -0.1925
  859MPD2    H512672   0.258   4.033  16.249 -0.2562  0.0886 -0.0082
  859MPD2    N112673   0.399   4.504  15.946  0.1086  0.0620 -0.3456
  859MPD2    H712674   0.364   4.600  15.940  1.1176  0.4962  0.7376
  860MPD2     C12675   2.425   0.007  11.429 -0.7811 -0.0017  0.1429
  860MPD2    C112676   2.450   0.001  11.558  0.2172  0.3308 -0.3338
  860MPD2    C212677   2.368   4.675  11.648  1.2066 -0.1695 -0.1191
  860MPD2    C312678   2.250   4.618  11.605 -0.3840  0.0924 -0.2088
  860MPD2    C412679   2.227   4.617  11.471  0.7770  0.5003  0.3846
  860MPD2    C512680   2.308   4.687  11.381  0.9033 -0.3862 -0.0551
  860MPD2     H12681   2.384   4.679  11.755  1.2402  1.0407 -0.1678
  860MPD2    H112682   2.134   4.573  11.436  1.5050  0.2391 -1.2339
  860MPD2    H212683   2.477   0.069  11.357  0.5444 -0.5974  0.6006
  860MPD2    H312684   2.287   4.686  11.274 -1.3978 -0.1293  0.3905
  860MPD2     N12685   2.161   4.567  11.701 -0.1984 -1.0549 -0.6966
  860MPD2    H512686   2.185   4.580  11.798 -2.1768 -1.9329 -0.0774
  860MPD2    N112687   2.558   0.071  11.610  0.1197  0.1443  0.9772
  860MPD2    H712688   2.551   0.062  11.711  2.9701 -1.3593  1.0475
  861MPD2     C12689   1.453   2.781  11.112 -0.2739  0.6185 -0.2055
  861MPD2    C112690   1.348   2.784  11.195  0.4476  0.1826 -0.0053
  861MPD2    C212691   1.235   2.852  11.155 -0.3683 -0.9010 -0.3921
  861MPD2    C312692   1.223   2.918  11.027  0.0010 -0.0002  0.3121
  861MPD2    C412693   1.336   2.916  10.951  0.1716 -0.0309 -0.2075
  861MPD2    C512694   1.450   2.846  10.990  0.1045  0.1708 -0.7238
  861MPD2     H12695   1.154   2.853  11.228 -0.0402  1.9217 -0.0737
  861MPD2    H112696   1.343   2.964  10.854  0.4126 -3.4004 -1.8490
  861MPD2    H212697   1.545   2.737  11.148 -1.2492 -0.7892  0.5935
  861MPD2    H312698   1.539   2.863  10.931  0.0876  0.7009 -0.5910
  861MPD2     N12699   1.109   2.986  10.981  0.4267  0.3420 -0.0674
  861MPD2    H512700   1.113   3.045  10.899 -3.2451 -0.4494 -0.7917
  861MPD2    N112701   1.358   2.721  11.321  0.2845 -0.3792  0.2702
  861MPD2    H712702   1.284   2.748  11.385 -0.3658  0.3913 -0.7936
  862MPD2     C12703   0.701   3.237  10.441 -0.5235 -0.0424 -0.3700
  862MPD2    C112704   0.814   3.173  10.477  0.0834 -0.1100  0.3464
  862MPD2    C212705   0.861   3.068  10.396  0.0213  0.3795 -0.0543
  862MPD2    C312706   0.791   3.040  10.281  0.0185  0.0138 -0.1296
  862MPD2    C412707   0.680   3.109  10.248  0.1131 -0.3053 -0.0644
  862MPD2    C512708   0.630   3.208  10.330 -0.1552  0.1447  0.4271
  862MPD2     H12709   0.951   3.017  10.431 -2.2845 -1.1610  3.6651
  862MPD2    H112710   0.629   3.079  10.157 -0.7555  1.8213 -0.2839
  862MPD2    H212711   0.660   3.317  10.502 -0.3359 -0.2016 -0.0336
  862MPD2    H312712   0.542   3.267  10.305  0.3140  1.2797  1.4238
  862MPD2     N12713   0.818   2.937  10.191  0.5264  0.0818 -0.3818
  862MPD2    H512714   0.755   2.942  10.111  1.5943 -3.4648 -1.4312
  862MPD2    N112715   0.889   3.201  10.593 -0.2274 -0.4749 -0.7460
  862MPD2    H712716   0.978   3.151  10.596  0.2606  0.3968 -0.7275
  863MPD2     C12717   4.331   0.812  16.811  0.1805 -0.6979 -0.5725
  863MPD2    C112718   4.356   0.939  16.856 -0.3519  0.0480 -0.4181
  863MPD2    C212719   4.467   0.967  16.937  0.1243 -0.3689  0.0845
  863MPD2    C312720   4.549   0.863  16.984  0.2900 -0.0082 -0.0690
  863MPD2    C412721   4.515   0.734  16.947  0.2180 -0.6242 -0.1647
  863MPD2    C512722   4.409   0.710  16.868 -0.2642  0.2069  0.4499
  863MPD2     H12723   4.481   1.069  16.972 -1.4394  0.9300 -3.0479
  863MPD2    H112724   4.571   0.648  16.983  2.2591  0.9877  0.5059
  863MPD2    H212725   4.244   0.789  16.750 -1.5470  3.3586  0.3926
  863MPD2    H312726   4.389   0.610  16.833  0.3567  0.2776 -0.1126
  863MPD2     N12727   4.661   0.883  17.064 -0.2036 -0.1477  0.3492
  863MPD2    H512728   4.713   0.802  17.097  1.1003  0.1836 -0.8924
  863MPD2    N112729   4.294   1.046  16.797  0.4075  0.4114 -0.7188
  863MPD2    H712730   4.233   1.032  16.716  0.1993 -0.8473 -0.3319
  864MPD2     C12731   0.396   2.480  17.368 -0.3550 -1.2677 -0.1763
  864MPD2    C112732   0.441   2.398  17.272  0.1265  0.3818  0.0072
  864MPD2    C212733   0.522   2.433  17.165 -0.2906  0.4573 -0.1768
  864MPD2    C312734   0.547   2.566  17.147  0.2121 -0.1368  0.1540
  864MPD2    C412735   0.502   2.648  17.246 -0.0658 -0.1954 -0.1088
  864MPD2    C512736   0.434   2.613  17.354  0.5270  0.1299 -0.3369
  864MPD2     H12737   0.555   2.355  17.097  1.4398  0.1164  1.0778
  864MPD2    H112738   0.518   2.755  17.238  0.0159 -0.3089 -1.5392
  864MPD2    H212739   0.320   2.451  17.440 -1.6330  1.3387 -0.4739
  864MPD2    H312740   0.402   2.692  17.421  0.8040  0.0994 -0.1681
  864MPD2     N12741   0.619   2.629  17.036  0.2462 -0.4098  0.4971
  864MPD2    H512742   0.637   2.729  17.044 -0.9350 -0.1127 -0.6192
  864MPD2    N112743   0.408   2.269  17.302 -0.1199  0.5461 -0.2856
  864MPD2    H712744   0.367   2.254  17.394 -1.0555 -0.2585 -0.8327
  865MPD2     C12745   0.841   2.775  16.239 -0.2995  0.0370  0.5565
  865MPD2    C112746   0.797   2.705  16.353 -0.4031  0.2824  0.0896
  865MPD2    C212747   0.743   2.771  16.460  0.3525 -0.6218  0.5661
  865MPD2    C312748   0.725   2.910  16.454  0.6885  0.4494  0.1571
  865MPD2    C412749   0.759   2.974  16.337  0.4380  0.7318  0.5144
  865MPD2    C512750   0.823   2.911  16.234  0.3412 -0.7557  0.8840
  865MPD2     H12751   0.718   2.707  16.544 -0.6759  0.3133  0.9624
  865MPD2    H112752   0.735   3.080  16.333 -1.3988  0.3973  2.4777
  865MPD2    H212753   0.908   2.734  16.164 -0.3486 -0.3080  0.6979
  865MPD2    H312754   0.849   2.954  16.138 -1.0292  1.2002  1.3880
  865MPD2     N12755   0.681   2.995  16.559  0.6418  0.6140 -0.5591
  865MPD2    H512756   0.649   3.086  16.527  0.4773  0.7380 -0.0408
  865MPD2    N112757   0.820   2.564  16.341  0.2705  0.1505 -0.2338
  865MPD2    H712758   0.862   2.528  16.256  1.1205  1.2637 -0.2829
  866MPD2     C12759   2.118   3.349  11.496 -0.4100  0.9717  0.3984
  866MPD2    C112760   2.095   3.219  11.485  0.3315  0.6052  0.0658
  866MPD2    C212761   1.979   3.168  11.422 -0.6544 -0.4741  0.5698
  866MPD2    C312762   1.883   3.259  11.378  0.1001 -1.0267 -0.1137
  866MPD2    C412763   1.912   3.389  11.395 -0.1224 -0.0234  0.1270
  866MPD2    C512764   2.028   3.434  11.444 -1.0105 -0.7475  0.1175
  866MPD2     H12765   1.949   3.065  11.409 -0.1021 -0.4588 -0.8100
  866MPD2    H112766   1.851   3.467  11.350  0.6008  0.5939  0.2194
  866MPD2    H212767   2.208   3.392  11.538  1.2075 -2.3497  0.2458
  866MPD2    H312768   2.043   3.539  11.467  1.6196 -0.7772 -1.4737
  866MPD2     N12769   1.752   3.216  11.326  0.0812 -0.4294 -0.7216
  866MPD2    H512770   1.742   3.116  11.313  0.4926 -0.6444  0.6148
  866MPD2    N112771   2.198   3.143  11.539 -0.3247  0.6662  0.3912
  866MPD2    H712772   2.274   3.201  11.573  0.6298  0.1973 -0.9221
  867MPD2     C12773   4.035   2.500  17.113  0.1211 -0.1182 -0.1958
  867MPD2    C112774   4.130   2.435  17.183  0.2343 -0.3207  0.1255
  867MPD2    C212775   4.210   2.502  17.266 -0.2274  0.1637 -0.9212
  867MPD2    C312776   4.195   2.637  17.289  0.4057  0.0858 -0.5777
  867MPD2    C412777   4.106   2.705  17.209  0.0201 -0.0009 -0.7321
  867MPD2    C512778   4.030   2.635  17.124  0.0462  0.6586  0.0218
  867MPD2     H12779   4.282   2.448  17.326 -1.0410 -0.9834 -0.9837
  867MPD2    H112780   4.085   2.811  17.203 -0.4634 -0.1463 -1.4963
  867MPD2    H212781   3.962   2.452  17.048  0.5270 -0.1888 -0.6001
  867MPD2    H312782   3.957   2.700  17.076  0.6495  1.0010 -0.4396
  867MPD2     N12783   4.252   2.708  17.394  0.3017 -0.4333 -0.7744
  867MPD2    H512784   4.220   2.804  17.396 -0.2713 -0.6778  2.4954
  867MPD2    N112785   4.140   2.297  17.147 -0.2469  0.3999  0.8030
  867MPD2    H712786   4.067   2.264  17.086 -0.1426  1.6330  0.0056
  868MPD2     C12787   1.206   1.904  13.460  0.5223 -0.3245  0.0608
  868MPD2    C112788   1.243   1.813  13.548 -0.1400 -0.1724  0.1445
  868MPD2    C212789   1.195   1.825  13.676 -0.2607  0.0491  0.0047
  868MPD2    C312790   1.133   1.942  13.717 -0.7454 -0.6632 -0.2427
  868MPD2    C412791   1.105   2.040  13.619 -0.0908  0.3392 -0.5510
  868MPD2    C512792   1.144   2.020  13.492  0.7054  0.0466  1.1173
  868MPD2     H12793   1.208   1.740  13.742  0.0861  0.3098  0.2725
  868MPD2    H112794   1.046   2.128  13.646  1.4970  0.7241  1.6857
  868MPD2    H212795   1.240   1.895  13.357 -0.9728 -0.1915 -0.4389
  868MPD2    H312796   1.121   2.098  13.421 -1.8800  0.0455  1.9454
  868MPD2     N12797   1.071   1.941  13.844 -0.5474  0.4620  0.2167
  868MPD2    H512798   1.090   1.868  13.912 -1.3700 -1.3030 -1.4220
  868MPD2    N112799   1.339   1.716  13.496  0.1639 -0.3378 -1.2408
  868MPD2    H712800   1.375   1.726  13.401  3.2229 -0.0657 -0.0562
  869MPD2     C12801   2.279   3.610   0.663 -0.1188 -0.0267 -0.6703
  869MPD2    C112802   2.293   3.647   0.535  0.7275  0.4588  0.6132
  869MPD2    C212803   2.362   3.757   0.498 -0.3228  0.1737  0.0382
  869MPD2    C312804   2.432   3.826   0.597  0.8754 -0.1140  0.4995
  869MPD2    C412805   2.419   3.796   0.731 -0.2659  0.4822  0.3440
  869MPD2    C512806   2.346   3.683   0.761  0.0338  0.6534 -0.3491
  869MPD2     H12807   2.381   3.787   0.396 -0.9538 -0.1608 -0.1734
  869MPD2    H112808   2.464   3.853   0.811  0.0170  0.0527  0.4938
  869MPD2    H212809   2.235   3.515   0.691 -1.4406  0.5017 -0.9159
  869MPD2    H312810   2.345   3.640   0.860 -0.7256  1.0207 -0.1946
  869MPD2     N12811   2.503   3.948   0.570 -0.2580 -0.3162  0.3073
  869MPD2    H512812   2.526   4.002   0.653  0.8942  0.8514 -0.7816
  869MPD2    N112813   2.221   3.568   0.446 -0.3029  0.3847  0.3420
  869MPD2    H712814   2.161   3.499   0.489  1.9688 -2.0768 -0.4520
  870MPD2     C12815   2.523   3.391   1.261 -0.2629 -0.2418 -0.1630
  870MPD2    C112816   2.480   3.286   1.187 -0.1043  0.8819  0.4812
  870MPD2    C212817   2.338   3.284   1.160  0.0932 -0.4246  0.1230
  870MPD2    C312818   2.250   3.368   1.225  0.6600 -0.1361 -0.4431
  870MPD2    C412819   2.298   3.477   1.292 -0.1158  0.4523 -0.2849
  870MPD2    C512820   2.431   3.478   1.312  0.0945 -0.6158 -0.4986
  870MPD2     H12821   2.287   3.199   1.116  1.4875 -1.6519  0.8935
  870MPD2    H112822   2.241   3.559   1.335  0.5561  1.4958 -1.3964
  870MPD2    H212823   2.628   3.399   1.288 -0.5438  1.0462  0.5348
  870MPD2    H312824   2.478   3.557   1.370  1.1679 -3.7237  2.8690
  870MPD2     N12825   2.114   3.349   1.198  0.0453 -0.2309 -0.1716
  870MPD2    H512826   2.093   3.273   1.134 -1.6681 -0.0319  0.1554
  870MPD2    N112827   2.582   3.199   1.133 -0.1294 -0.2270  0.3874
  870MPD2    H712828   2.674   3.218   1.171 -0.3172 -0.2925  0.8760
  871MPD2     C12829   3.139   2.459  16.490 -0.6120  0.0617  0.6721
  871MPD2    C112830   3.078   2.428  16.610  0.0937  0.7374  0.0024
  871MPD2    C212831   3.016   2.309  16.633 -0.2694  0.1081  0.1293
  871MPD2    C312832   3.042   2.207  16.547 -0.9055  0.7616  0.1771
  871MPD2    C412833   3.099   2.232  16.423  0.2958 -0.0807  0.2204
  871MPD2    C512834   3.146   2.359  16.395 -0.6069 -0.1538 -0.1039
  871MPD2     H12835   2.975   2.276  16.728  0.4914 -2.0423 -0.2716
  871MPD2    H112836   3.093   2.165  16.338  1.9242  2.6863 -2.0813
  871MPD2    H212837   3.187   2.555  16.474 -0.5057 -0.2151 -0.6278
  871MPD2    H312838   3.192   2.384  16.300 -0.2442 -0.7334 -0.0827
  871MPD2     N12839   3.001   2.080  16.587 -0.3599  0.2801  0.9310
  871MPD2    H512840   2.951   2.073  16.675 -1.2225  1.9745  0.5812
  871MPD2    N112841   3.090   2.519  16.719  0.1759 -0.0795  0.3043
  871MPD2    H712842   3.128   2.608  16.691 -2.9518  0.7025 -1.3993
  872MPD2     C12843   3.531   0.273  13.485 -0.1378 -0.7391  0.6655
  872MPD2    C112844   3.627   0.302  13.583 -0.1811  0.0846  0.1251
  872MPD2    C212845   3.574   0.311  13.706  0.2477 -0.3664 -0.2478
  872MPD2    C312846   3.440   0.301  13.736 -0.3218 -0.8629 -0.8378
  872MPD2    C412847   3.345   0.282  13.636  0.5461 -0.4339  0.0640
  872MPD2    C512848   3.398   0.267  13.507  0.7638 -0.3403  0.2181
  872MPD2     H12849   3.640   0.334  13.789 -1.9624  0.1741  1.3896
  872MPD2    H112850   3.241   0.273  13.665  0.7266 -0.5901  0.6495
  872MPD2    H212851   3.568   0.268  13.383  0.2992 -1.2364  0.8497
  872MPD2    H312852   3.331   0.257  13.422  1.5304  1.1735 -0.5600
  872MPD2     N12853   3.393   0.289  13.868 -0.0199  0.1348 -0.1299
  872MPD2    H512854   3.296   0.317  13.877 -0.2851 -1.3860  1.5422
  872MPD2    N112855   3.762   0.330  13.562 -0.1358  0.2055  0.7441
  872MPD2    H712856   3.807   0.378  13.639  1.0522  1.1200 -0.5327
  873MPD2     C12857   0.982   0.528   0.546  0.3676 -0.5773 -0.0004
  873MPD2    C112858   1.041   0.458   0.654  0.0277 -0.2372 -0.0918
  873MPD2    C212859   1.057   0.322   0.650 -0.0228 -0.1422  0.0983
  873MPD2    C312860   1.006   0.255   0.542 -0.4307  0.2726 -0.3530
  873MPD2    C412861   0.960   0.319   0.430  0.0540 -0.4554  0.3883
  873MPD2    C512862   0.939   0.453   0.440  0.2219 -0.2895 -0.6562
  873MPD2     H12863   1.117   0.277   0.728 -1.8504 -0.7987  1.1303
  873MPD2    H112864   0.926   0.268   0.341  0.1651 -1.8323  1.1463
  873MPD2    H212865   0.976   0.636   0.543 -1.9060 -0.6715  0.9454
  873MPD2    H312866   0.910   0.501   0.348  1.6949 -2.9267 -2.4764
  873MPD2     N12867   1.004   0.111   0.544  0.5550  0.3982 -0.5167
  873MPD2    H512868   0.962   0.075   0.459 -0.2474 -1.8834  0.8504
  873MPD2    N112869   1.090   0.543   0.758  0.2590  0.5539  0.0273
  873MPD2    H712870   1.065   0.641   0.756  0.6944  0.6636 -0.0012
  874MPD2     C12871   0.602   0.668  16.167  0.2025 -0.1936  0.4471
  874MPD2    C112872   0.684   0.565  16.221  0.1419  0.3628  0.7001
  874MPD2    C212873   0.821   0.562  16.185 -0.0702  0.3203 -0.5250
  874MPD2    C312874   0.879   0.666  16.129  0.5366  0.3311 -0.2927
  874MPD2    C412875   0.795   0.770  16.085 -0.5606  0.1674 -0.2473
  874MPD2    C512876   0.658   0.765  16.094 -0.2154  0.0418 -0.0268
  874MPD2     H12877   0.878   0.475  16.216 -0.8213  0.5907  1.6597
  874MPD2    H112878   0.831   0.855  16.027  0.8147  0.4292  0.9872
  874MPD2    H212879   0.495   0.664  16.188  0.5042  1.7530  2.3897
  874MPD2    H312880   0.584   0.833  16.053 -0.4166 -0.7281 -0.9286
  874MPD2     N12881   1.018   0.682  16.127  0.3108 -0.3833 -0.2123
  874MPD2    H512882   1.044   0.779  16.111 -0.0756 -0.3830 -0.8611
  874MPD2    N112883   0.618   0.480  16.305 -0.0755 -0.5903 -0.0169
  874MPD2    H712884   0.516   0.481  16.302 -0.0283  1.7504 -0.6984
  875MPD2     C12885   1.422   2.981  14.682  0.1500  0.2606  0.5855
  875MPD2    C112886   1.324   3.014  14.773 -0.5434 -0.0354  0.6791
  875MPD2    C212887   1.359   3.065  14.898  0.1039 -0.2525  0.1090
  875MPD2    C312888   1.497   3.092  14.926  0.6623  0.2424  0.7234
  875MPD2    C412889   1.593   3.059  14.833 -0.1566  0.4767  0.4826
  875MPD2    C512890   1.556   2.995  14.720 -0.0975  0.4647  0.3126
  875MPD2     H12891   1.282   3.082  14.972  1.2449  0.1541  1.2137
  875MPD2    H112892   1.699   3.068  14.855  0.3773 -1.0821 -1.4059
  875MPD2    H212893   1.399   2.930  14.589 -0.6261 -2.5767  2.3445
  875MPD2    H312894   1.634   2.980  14.647 -0.5687 -2.1157  0.3311
  875MPD2     N12895   1.539   3.132  15.059 -0.4961  0.0430  0.3611
  875MPD2    H512896   1.637   3.129  15.088 -0.7155 -1.4950  0.9558
  875MPD2    N112897   1.185   2.995  14.746 -0.0891 -0.4374 -0.1158
  875MPD2    H712898   1.124   3.012  14.825  1.2668  2.0784  0.3785
  876MPD2     C12899   0.624   0.250  16.040 -0.9780  0.3169 -0.4533
  876MPD2    C112900   0.742   0.189  15.997  0.6948 -0.3009  0.6927
  876MPD2    C212901   0.764   0.055  16.029 -0.5569 -0.5672 -0.4151
  876MPD2    C312902   0.669   4.723  16.105 -0.0940  0.4810  0.3123
  876MPD2    C412903   0.550   0.053  16.135 -0.2579  0.4863 -0.5554
  876MPD2    C512904   0.534   0.183  16.114  0.0155  0.1324  0.4414
  876MPD2     H12905   0.854   0.002  15.999 -0.4192 -1.8109  2.1998
  876MPD2    H112906   0.467   0.008  16.188  2.2295 -1.4473  1.6622
  876MPD2    H212907   0.607   0.354  16.014 -2.3591 -0.5418 -3.0709
  876MPD2    H312908   0.446   0.232  16.154 -0.9565 -0.2384 -1.2498
  876MPD2     N12909   0.688   4.586  16.125 -0.9982 -0.1024  0.4928
  876MPD2    H512910   0.767   4.537  16.083  0.0338  2.2211 -0.2966
  876MPD2    N112911   0.835   0.262  15.924  0.5980 -0.0853 -0.3540
  876MPD2    H712912   0.800   0.348  15.885  0.0792  0.2172  0.7663
  877MPD2     C12913   0.634   0.363  15.358  0.1211  0.3836 -0.2177
  877MPD2    C112914   0.769   0.372  15.345 -0.0647 -0.5908 -0.4966
  877MPD2    C212915   0.835   0.348  15.226 -0.3397  0.3628 -0.4233
  877MPD2    C312916   0.759   0.314  15.113  0.7135  0.2333 -0.7302
  877MPD2    C412917   0.622   0.319  15.119  0.4379 -1.1233  0.1378
  877MPD2    C512918   0.565   0.339  15.240 -0.3751 -0.0965  0.3504
  877MPD2     H12919   0.942   0.354  15.211  0.0273 -2.0217  1.2106
  877MPD2    H112920   0.558   0.292  15.035 -1.4966  0.3379  1.1579
  877MPD2    H212921   0.577   0.360  15.451  1.3306 -1.0250  0.4781
  877MPD2    H312922   0.459   0.324  15.261 -0.1084  0.5884  2.2093
  877MPD2     N12923   0.812   0.271  14.988 -0.1782  0.5892  0.9266
  877MPD2    H512924   0.736   0.254  14.923 -0.1818  0.9300  0.8418
  877MPD2    N112925   0.843   0.390  15.469  0.2892 -0.4627  0.2958
  877MPD2    H712926   0.804   0.369  15.560 -0.4547 -0.6516 -0.0656
  878MPD2     C12927   4.379   4.295  13.623  0.2469 -0.1946  0.0100
  878MPD2    C112928   4.443   4.377  13.712  0.0952 -0.2568 -0.1282
  878MPD2    C212929   4.420   4.375  13.846  0.4885  0.1418  0.0209
  878MPD2    C312930   4.341   4.273  13.895 -0.0333  0.5701 -0.1935
  878MPD2    C412931   4.282   4.178  13.809  0.1602 -0.1756  0.8257
  878MPD2    C512932   4.301   4.191  13.671  0.4623  0.5077 -0.4792
  878MPD2     H12933   4.485   4.434  13.910  1.3649 -1.8639  0.9916
  878MPD2    H112934   4.200   4.116  13.841 -1.1390  1.4511  0.6199
  878MPD2    H212935   4.399   4.305  13.517  1.1665  0.8571  0.2869
  878MPD2    H312936   4.252   4.121  13.605 -0.6534 -0.0343  0.9230
  878MPD2     N12937   4.328   4.253  14.034  0.5266 -0.4388 -0.8125
  878MPD2    H512938   4.356   4.334  14.087 -0.7558 -1.3755  1.2861
  878MPD2    N112939   4.531   4.462  13.648  0.9186  0.7375 -0.3730
  878MPD2    H712940   4.559   4.430  13.555 -0.0538 -1.0901 -0.0267
  879MPD2     C12941   1.451   0.370  17.165  0.2264  0.4024 -1.2456
  879MPD2    C112942   1.366   0.467  17.205 -0.2818 -0.2452 -0.7049
  879MPD2    C212943   1.277   0.530  17.116  0.4254  0.4277  0.2792
  879MPD2    C312944   1.279   0.488  16.983 -0.2096  0.1146 -0.8692
  879MPD2    C412945   1.375   0.400  16.946  0.2111 -0.8417 -1.3342
  879MPD2    C512946   1.454   0.334  17.036  0.6339 -0.5010 -0.1361
  879MPD2     H12947   1.206   0.602  17.153  0.9443  0.7706  0.6061
  879MPD2    H112948   1.377   0.372  16.841 -1.8108  1.1677 -1.9262
  879MPD2    H212949   1.525   0.325  17.230 -0.0748  1.2898 -0.2941
  879MPD2    H312950   1.520   0.255  17.000  1.4125 -0.1199  0.4424
  879MPD2     N12951   1.175   0.521  16.896  0.1828  0.4406 -0.2935
  879MPD2    H512952   1.181   0.487  16.801  1.3832  0.0284 -0.0623
  879MPD2    N112953   1.359   0.511  17.339 -0.1598 -0.2805  0.3577
  879MPD2    H712954   1.318   0.599  17.367 -0.1705  0.2313 -1.2854
  880MPD2     C12955   2.038   2.385   0.276 -0.5209 -0.0388  0.1527
  880MPD2    C112956   2.113   2.504   0.269  0.5858  0.0726 -0.1546
  880MPD2    C212957   2.243   2.520   0.307 -0.2839  0.0668 -0.9339
  880MPD2    C312958   2.302   2.406   0.364  0.1350 -0.3346 -0.0250
  880MPD2    C412959   2.238   2.289   0.362 -0.2677  0.0226 -0.3693
  880MPD2    C512960   2.108   2.282   0.330  0.4249 -0.7936  0.2974
  880MPD2     H12961   2.299   2.613   0.298 -0.2760  0.0220 -1.3331
  880MPD2    H112962   2.286   2.200   0.401 -0.8851  0.9055  2.4394
  880MPD2    H212963   1.932   2.373   0.253 -0.1638 -1.5361 -0.7300
  880MPD2    H312964   2.049   2.193   0.347 -0.0963 -0.2906  1.1435
  880MPD2     N12965   2.433   2.417   0.402 -0.1521  0.0317  0.6124
  880MPD2    H512966   2.468   2.512   0.406 -0.9798  0.4327 -2.2736
  880MPD2    N112967   2.038   2.611   0.222 -0.5751  0.0192  0.7947
  880MPD2    H712968   1.946   2.576   0.194 -0.2971 -0.5393  0.5872
  881MPD2     C12969   1.842   3.441  17.562 -0.4114  0.5143  0.3027
  881MPD2    C112970   1.885   3.323  17.512 -0.5349 -0.2009  0.2776
  881MPD2    C212971   1.838   3.210  17.575 -0.2211 -0.4339 -0.0000
  881MPD2    C312972   1.736   3.214  17.663 -0.0176  0.6672  0.4791
  881MPD2    C412973   1.673   3.334  17.687 -0.0755  0.0878  0.6328
  881MPD2    C512974   1.728   3.445  17.640 -0.7595  0.5145  0.2349
  881MPD2     H12975   1.890   3.117  17.560 -2.1934 -1.6376  0.6204
  881MPD2    H112976   1.594   3.351   0.013 -2.6633 -0.8084 -1.9257
  881MPD2    H212977   1.886   3.530  17.517 -0.5663 -0.2015 -1.2543
  881MPD2    H312978   1.687   3.543  17.665 -0.2074  0.1772  2.4637
  881MPD2     N12979   1.705   3.107   0.000  0.2453  1.0158  0.1231
  881MPD2    H512980   1.653   3.137   0.082  0.3916  1.9210 -0.1203
  881MPD2    N112981   2.007   3.327  17.442 -0.0659  0.3844  0.0702
  881MPD2    H712982   2.058   3.414  17.428  0.1368  0.2837  0.1715
  882MPD2     C12983   0.598   4.681  14.249  0.1882 -0.3472  0.4050
  882MPD2    C112984   0.592   0.021  14.365  0.3533 -0.3095 -0.0262
  882MPD2    C212985   0.466   0.042  14.417 -0.7487 -0.6078 -0.0978
  882MPD2    C312986   0.354   4.719  14.365  0.1694  0.2393  0.5601
  882MPD2    C412987   0.358   4.649  14.245  0.0029  0.3957 -0.3357
  882MPD2    C512988   0.485   4.643  14.187  0.3423  0.0053  0.5435
  882MPD2     H12989   0.442   0.108  14.499  0.6671  1.3877 -1.3023
  882MPD2    H112990   0.266   4.616  14.199 -0.2054  0.1513  0.2615
  882MPD2    H212991   0.697   4.658  14.212 -0.1240  0.2631 -0.8257
  882MPD2    H312992   0.498   4.583  14.097  3.3537 -0.1986  1.1270
  882MPD2     N12993   0.229   4.732  14.432 -0.0628 -0.3957 -0.3858
  882MPD2    H512994   0.147   4.696  14.386 -1.7394  0.7747  1.6424
  882MPD2    N112995   0.709   0.064  14.431  0.4441  0.5178 -0.4926
  882MPD2    H712996   0.788   0.003  14.413  1.1005  1.1586  0.1846
  883MPD2     C12997   2.401   4.226  16.160 -0.2153 -0.1816 -0.4412
  883MPD2    C112998   2.489   4.285  16.076  0.2688 -0.4806 -0.8958
  883MPD2    C212999   2.608   4.327  16.130  0.1062 -0.0458  0.5035
  883MPD2    C313000   2.651   4.290  16.258  0.8166 -0.0244 -0.3690
  883MPD2    C413001   2.559   4.222  16.338 -0.1540 -0.0488 -0.0151
  883MPD2    C513002   2.433   4.198  16.297  0.7991 -0.8688  0.3671
  883MPD2     H13003   2.675   4.396  16.080  0.3594  1.4206  2.8801
  883MPD2    H113004   2.589   4.191  16.438  0.4019 -2.8286 -1.0391
  883MPD2    H213005   2.307   4.196  16.116 -0.0064 -2.4026  0.6163
  883MPD2    H313006   2.362   4.148  16.362 -2.1636  2.8400  0.0073
  883MPD2     N13007   2.782   4.336  16.294 -0.0351  0.5278  0.1282
  883MPD2    H513008   2.832   4.381  16.219  1.2314  0.4477  0.9149
  883MPD2    N113009   2.458   4.345  15.952 -0.1482 -0.4685 -0.0337
  883MPD2    H713010   2.533   4.393  15.903 -0.1260 -0.8417 -0.3674
  884MPD2     C13011   4.663   0.798  15.400 -0.1003 -1.0857 -0.3785
  884MPD2    C113012   4.628   0.893  15.299 -0.4326 -0.0202 -0.1330
  884MPD2    C213013   4.490   0.933  15.289  0.2345 -0.5420  0.8138
  884MPD2    C313014   4.396   0.887  15.384  0.4436 -0.0472  0.8885
  884MPD2    C413015   4.444   0.810  15.496  0.0809  0.1604  0.2571
  884MPD2    C513016   4.569   0.758  15.490  0.1097  0.9241 -0.0545
  884MPD2     H13017   4.464   1.009  15.216  0.7893 -0.9031  0.2416
  884MPD2    H113018   4.382   0.776  15.578 -2.4883  0.3699 -1.5972
  884MPD2    H213019   0.027   0.759  15.409  0.4437  0.8802  2.1540
  884MPD2    H313020   4.595   0.686  15.567  0.9706  0.1570 -1.0728
  884MPD2     N13021   4.262   0.926  15.376 -0.2061 -0.1950 -0.4784
  884MPD2    H513022   4.241   0.991  15.302 -1.4156 -1.3967 -1.1915
  884MPD2    N113023   4.720   0.949  15.198  0.0683 -0.4699 -0.1823
  884MPD2    H713024   4.680   1.010  15.127  4.0451  1.3538 -0.8520
  885MPD2     C13025   2.936   1.324   0.220  0.0007  0.1017 -0.4285
  885MPD2    C113026   3.047   1.261   0.173  0.0471  0.8853  1.0617
  885MPD2    C213027   3.071   1.252   0.042 -0.7367 -0.9017 -0.2025
  885MPD2    C313028   2.972   1.288  17.698 -0.0813 -0.6050 -0.4246
  885MPD2    C413029   2.862   1.342   0.006  0.6661 -0.1769  0.3315
  885MPD2    C513030   2.836   1.362   0.138  1.0420  0.1714 -0.2331
  885MPD2     H13031   3.167   1.214   0.008  0.4651 -0.5180  2.7663
  885MPD2    H113032   2.779   1.373  17.691 -1.0629 -1.3290  2.0784
  885MPD2    H213033   2.920   1.326   0.327  0.0373 -0.0479 -0.4193
  885MPD2    H313034   2.744   1.405   0.177  0.1636 -0.7969 -1.2418
  885MPD2     N13035   2.995   1.277  17.558 -0.1854  0.1333 -0.3022
  885MPD2    H513036   3.089   1.277  17.519  0.4584 -0.9128  1.1976
  885MPD2    N113037   3.153   1.225   0.271  0.2894 -0.2953 -0.1639
  885MPD2    H713038   3.145   1.236   0.372 -1.0392  0.1274 -0.3047
  886MPD2     C13039   4.214   4.022  14.965 -0.0156 -0.4488 -0.4851
  886MPD2    C113040   4.274   4.054  15.087 -0.3339 -0.4383 -0.0497
  886MPD2    C213041   4.271   4.183  15.140 -0.7730  0.4502  0.4862
  886MPD2    C313042   4.204   4.285  15.079  0.2937  0.8014  0.1679
  886MPD2    C413043   4.152   4.258  14.952 -0.1782  0.1367  0.3827
  886MPD2    C513044   4.170   4.133  14.893  0.6440 -0.3248 -0.2611
  886MPD2     H13045   4.317   4.199  15.237  1.4874  1.3095 -0.7050
  886MPD2    H113046   4.116   4.335  14.885  0.8544  0.5064  0.2549
  886MPD2    H213047   4.225   3.923  14.923 -0.3012 -0.7651  0.1790
  886MPD2    H313048   4.147   4.121  14.788  1.0124  0.6617 -0.4545
  886MPD2     N13049   4.185   4.419  15.129  0.5003 -0.0371  0.5102
  886MPD2    H513050   4.157   4.481  15.054 -0.6221  0.6291  1.4835
  886MPD2    N113051   4.344   3.957  15.169  0.3898  0.4236 -0.5916
  886MPD2    H713052   4.405   3.994  15.242 -0.0770 -0.9764  0.5220
  887MPD2     C13053   0.087   4.030  15.752 -0.1044  0.1176 -1.0844
  887MPD2    C113054   0.006   4.056  15.644 -0.4476 -0.2877 -0.5765
  887MPD2    C213055   4.705   4.183  15.621 -0.1856  0.3256  0.1291
  887MPD2    C313056   4.732   4.284  15.715 -0.1387 -0.4784 -0.0510
  887MPD2    C413057   0.067   4.253  15.826 -0.4905 -0.1130 -0.5967
  887MPD2    C513058   0.112   4.124  15.850 -0.4731 -0.2084  0.1453
  887MPD2     H13059   4.645   4.215  15.536 -1.9030  0.0336  1.2368
  887MPD2    H113060   0.095   4.334  15.892 -0.7482 -0.2287 -0.3478
  887MPD2    H213061   0.125   3.930  15.772  1.3894  1.0256  0.7140
  887MPD2    H313062   0.169   4.111  15.941 -0.9091 -0.3620  0.3955
  887MPD2     N13063   4.680   4.411  15.683 -0.4812 -0.6706  0.5127
  887MPD2    H513064   4.610   4.417  15.609  0.3171 -0.6536 -0.2421
  887MPD2    N113065   4.699   3.943  15.570  0.0911  0.5769 -0.7830
  887MPD2    H713066   4.712   3.854  15.616 -1.0184  1.6880  1.6927
  888MPD2     C13067   1.541   4.410  14.646 -0.0979  0.1976  0.1409
  888MPD2    C113068   1.563   4.412  14.781 -0.6515 -0.3018 -1.0410
  888MPD2    C213069   1.668   4.488  14.830 -0.0114 -0.5439 -0.6058
  888MPD2    C313070   1.743   4.572  14.747  0.1580 -0.6746  0.0716
  888MPD2    C413071   1.720   4.562  14.612  0.1149  0.0059  0.3208
  888MPD2    C513072   1.619   4.473  14.567  0.3167  0.2226 -0.2360
  888MPD2     H13073   1.694   4.485  14.935  0.8348  2.8387 -0.7137
  888MPD2    H113074   1.775   4.632  14.549  1.7894 -0.8212  0.8575
  888MPD2    H213075   1.468   4.341  14.605 -0.5377  1.0611 -0.5194
  888MPD2    H313076   1.603   4.465  14.460 -0.0991 -0.5762 -0.1148
  888MPD2     N13077   1.847   4.651  14.803  0.1019 -0.4185  0.5697
  888MPD2    H513078   1.866   4.631  14.901  0.2605 -1.5740  0.3086
  888MPD2    N113079   1.494   4.331  14.875 -0.0534  0.3095  0.7119
  888MPD2    H713080   1.535   4.327  14.968  0.4854 -1.6702  0.3892
  889MPD2     C13081   0.468   3.764  13.312 -0.4261  0.4520  0.5070
  889MPD2    C113082   0.571   3.854  13.290 -0.6352 -0.1583 -0.2305
  889MPD2    C213083   0.550   3.983  13.341 -0.3930  0.1724  0.0676
  889MPD2    C313084   0.444   4.016  13.420  0.2615 -0.2520  0.7447
  889MPD2    C413085   0.343   3.931  13.438 -0.2714  0.2803 -0.1264
  889MPD2    C513086   0.358   3.806  13.386 -0.3871 -0.0155 -0.7123
  889MPD2     H13087   0.632   4.052  13.356  1.8066 -2.0218 -1.7754
  889MPD2    H113088   0.251   3.952  13.492 -0.8110  0.3474 -1.0642
  889MPD2    H213089   0.480   3.657  13.300  0.1618  0.4388  1.2325
  889MPD2    H313090   0.276   3.740  13.410  0.5900 -1.5744 -1.6334
  889MPD2     N13091   0.441   4.150  13.464  0.3913 -0.0746  0.6096
  889MPD2    H513092   0.513   4.212  13.428 -0.7170  1.5997  1.2642
  889MPD2    N113093   0.707   3.816  13.258  0.3370 -0.1845  0.3790
  889MPD2    H713094   0.719   3.716  13.244  0.1915 -0.4311  1.9867
  890MPD2     C13095   0.573   0.808  14.755 -0.5968  0.3062 -0.4040
  890MPD2    C113096   0.685   0.850  14.819 -0.1622  0.1520 -0.0613
  890MPD2    C213097   0.698   0.805  14.950  0.1521  0.0610 -0.4858
  890MPD2    C313098   0.601   0.740  15.017 -0.1982 -0.5543  0.2812
  890MPD2    C413099   0.494   0.699  14.951  0.6785 -0.5902  0.5587
  890MPD2    C513100   0.476   0.732  14.816 -0.6779  0.4867 -0.2779
  890MPD2     H13101   0.776   0.847  15.012  0.6681  0.2555 -1.2651
  890MPD2    H113102   0.404   0.660  14.997  0.7655 -1.6811 -0.1870
  890MPD2    H213103   0.563   0.837  14.652 -0.1541  1.7818 -0.0381
  890MPD2    H313104   0.388   0.708  14.758 -0.4357 -1.9106  0.3465
  890MPD2     N13105   0.615   0.711  15.156 -0.4907  0.0795 -0.1654
  890MPD2    H513106   0.702   0.741  15.199 -0.6591 -0.1272  0.3301
  890MPD2    N113107   0.782   0.925  14.746  0.8594  0.2835  0.6662
  890MPD2    H713108   0.759   0.970  14.658 -0.9400 -2.0914 -0.0421
  891MPD2     C13109   3.307   3.838  16.799  0.2384  0.8009  0.7332
  891MPD2    C113110   3.282   3.951  16.723 -0.3719 -0.2691 -0.1628
  891MPD2    C213111   3.360   4.059  16.746 -0.6017 -0.0781 -0.8662
  891MPD2    C313112   3.463   4.056  16.837  0.0489 -0.0626  0.4239
  891MPD2    C413113   3.484   3.940  16.908 -0.1886 -0.4009  0.2934
  891MPD2    C513114   3.404   3.832  16.886  0.6806 -0.2879  0.1132
  891MPD2     H13115   3.333   4.155  16.705  0.2714  0.3326 -0.4845
  891MPD2    H113116   3.574   3.922  16.966  0.2416 -0.0158 -0.2487
  891MPD2    H213117   3.237   3.755  16.789  1.8049 -0.1822 -2.0490
  891MPD2    H313118   3.418   3.744  16.948  1.0084  0.4926  1.1422
  891MPD2     N13119   3.534   4.173  16.859 -0.0470  0.0413 -0.1268
  891MPD2    H513120   3.495   4.262  16.831 -1.0845 -1.1375 -2.3846
  891MPD2    N113121   3.165   3.944  16.633 -0.1526 -0.1457 -0.1413
  891MPD2    H713122   3.114   3.856  16.637  0.9917 -0.8227 -0.1724
  892MPD2     C13123   0.013   0.594  15.071 -0.2235 -0.2223  0.5323
  892MPD2    C113124   4.631   0.521  15.063  0.5633  0.2380 -0.5503
  892MPD2    C213125   4.630   0.386  15.024 -0.7329 -0.8050 -0.7826
  892MPD2    C313126   0.005   0.325  14.985 -0.1285  0.0083 -0.2288
  892MPD2    C413127   0.126   0.392  15.011  0.5919  0.1318 -0.6726
  892MPD2    C513128   0.132   0.523  15.051 -0.1302  0.3341  0.4547
  892MPD2     H13129   4.530   0.344  15.024 -2.6478  3.6849  0.5301
  892MPD2    H113130   0.219   0.353  14.973  0.9286  0.7641 -0.4984
  892MPD2    H213131   0.028   0.696  15.105  0.8428 -0.0494 -0.4684
  892MPD2    H313132   0.229   0.570  15.057  0.8826 -1.4666 -1.7626
  892MPD2     N13133   0.014   0.193  14.933 -0.3403 -0.2684  0.7389
  892MPD2    H513134   0.107   0.178  14.896 -0.6281  0.1055 -0.1570
  892MPD2    N113135   4.510   0.586  15.082 -0.2055  0.0925  0.4036
  892MPD2    H713136   4.496   0.685  15.065  1.6759  0.1450 -0.7550
  893MPD2     C13137   1.309   4.068   1.544 -0.4351  0.2576  0.3489
  893MPD2    C113138   1.292   4.001   1.422 -0.0963  0.2914 -0.0400
  893MPD2    C213139   1.162   3.988   1.374  0.0407 -0.9663 -0.2216
  893MPD2    C313140   1.050   4.012   1.452 -0.1301  0.1623 -0.1539
  893MPD2    C413141   1.074   4.075   1.574  0.6669  0.2166  0.5102
  893MPD2    C513142   1.199   4.093   1.621 -0.1861  0.2545 -0.3566
  893MPD2     H13143   1.146   3.957   1.271  1.4198  0.1765 -0.7904
  893MPD2    H113144   0.998   4.122   1.636 -1.2399  1.5102 -2.8414
  893MPD2    H213145   1.407   4.096   1.580 -0.0951 -0.3228 -0.1126
  893MPD2    H313146   1.213   4.138   1.719  2.0781 -1.9108  0.3078
  893MPD2     N13147   0.919   3.983   1.416 -0.3921  0.2012  0.6272
  893MPD2    H513148   0.842   4.012   1.476 -0.7935  2.0460 -0.7533
  893MPD2    N113149   1.411   3.964   1.347  0.3555  0.0142  0.5966
  893MPD2    H713150   1.494   3.974   1.405  0.9478  1.3702 -0.4910
  894MPD2     C13151   4.558   1.653   2.094 -0.3872  0.1944  0.8388
  894MPD2    C113152   4.447   1.673   2.018 -0.0188 -0.1578  0.1585
  894MPD2    C213153   4.450   1.637   1.888  0.6926 -0.4049  0.5194
  894MPD2    C313154   4.564   1.574   1.831  0.4094  0.4056 -0.5230
  894MPD2    C413155   4.672   1.556   1.905  0.5123  1.0976 -0.6831
  894MPD2    C513156   4.669   1.592   2.037 -0.3734 -0.1259 -0.0544
  894MPD2     H13157   4.359   1.644   1.829  0.9516  3.7314  0.5639
  894MPD2    H113158   0.032   1.522   1.871 -0.4914  0.3124 -2.7314
  894MPD2    H213159   4.566   1.672   2.201  1.9195 -0.0484  0.7135
  894MPD2    H313160   0.012   1.568   2.105 -1.7212  0.4692  1.7383
  894MPD2     N13161   4.563   1.539   1.691 -0.6366 -0.3116 -0.4546
  894MPD2    H513162   4.483   1.574   1.639 -0.8672  2.7994  2.0144
  894MPD2    N113163   4.331   1.735   2.067 -0.2583  0.1052 -0.2625
  894MPD2    H713164   4.254   1.756   2.004  1.6371 -1.3328 -3.0636
  895MPD2     C13165   3.148   4.460  13.383  0.2858  0.4457  0.8883
  895MPD2    C113166   3.062   4.502  13.284  0.0604 -0.4383  0.0056
  895MPD2    C213167   3.117   4.485  13.158 -0.7237 -0.3055  0.4757
  895MPD2    C313168   3.242   4.438  13.133 -0.5553 -1.2790  0.1737
  895MPD2    C413169   3.324   4.403  13.234  0.5710 -0.2079 -0.3747
  895MPD2    C513170   3.273   4.418  13.358  0.5590 -0.3652 -0.0782
  895MPD2     H13171   3.042   4.500  13.080  0.8888  1.8275 -0.6559
  895MPD2    H113172   3.422   4.359  13.223  0.9970  0.4889  0.6014
  895MPD2    H213173   3.116   4.464  13.487  0.3595  3.3729  0.8049
  895MPD2    H313174   3.339   4.399  13.442 -1.6933 -1.4738  1.4489
  895MPD2     N13175   3.292   4.410  13.001  0.3688 -0.4503 -0.0004
  895MPD2    H513176   3.376   4.354  12.990 -0.1928 -1.1578 -0.7125
  895MPD2    N113177   2.924   4.534  13.292 -0.4416 -0.1946 -0.0325
  895MPD2    H713178   2.879   4.563  13.206 -2.1255  1.5171  1.4014
  896MPD2     C13179   1.868   1.897   0.494  0.3781 -0.1155  0.1466
  896MPD2    C113180   1.801   1.971   0.589 -0.4995  0.8402 -0.2883
  896MPD2    C213181   1.689   1.910   0.651  0.6077  0.9853  0.4060
  896MPD2    C313182   1.654   1.782   0.613 -0.5497  0.1974 -1.0760
  896MPD2    C413183   1.711   1.716   0.504  0.1166 -0.5385  0.1725
  896MPD2    C513184   1.815   1.785   0.443 -0.1544  0.2898 -0.3293
  896MPD2     H13185   1.640   1.961   0.734 -0.7532  0.5590 -0.1483
  896MPD2    H113186   1.680   1.624   0.456 -0.6617 -1.2109  1.9713
  896MPD2    H213187   1.950   1.938   0.436 -1.1733  2.3637 -0.2865
  896MPD2    H313188   1.866   1.748   0.355 -1.2198 -0.0832 -0.7884
  896MPD2     N13189   1.541   1.726   0.685  0.0069 -0.2157  0.9505
  896MPD2    H513190   1.496   1.793   0.748 -0.5017  0.6466 -0.3235
  896MPD2    N113191   1.838   2.103   0.621 -0.0676  0.4838  0.0057
  896MPD2    H713192   1.925   2.142   0.586 -0.0990 -0.4087 -1.0592
  897MPD2     C13193   2.404   3.779  10.892 -0.3336 -0.0205 -0.5007
  897MPD2    C113194   2.323   3.881  10.849 -0.3546  0.1303  0.4838
  897MPD2    C213195   2.199   3.901  10.909 -0.9695  0.4599  0.2978
  897MPD2    C313196   2.156   3.814  11.009  0.0675 -0.4326  0.3146
  897MPD2    C413197   2.241   3.719  11.058 -0.4685 -0.4714 -0.4788
  897MPD2    C513198   2.366   3.701  11.000 -0.3096 -0.2187 -0.3682
  897MPD2     H13199   2.133   3.980  10.873  1.6948  2.5536 -0.0269
  897MPD2    H113200   2.211   3.660  11.144 -0.3464  1.4839  0.9075
  897MPD2    H213201   2.501   3.765  10.845 -1.0702 -3.1431 -1.0680
  897MPD2    H313202   2.432   3.623  11.036  0.0176  0.1560 -0.1537
  897MPD2     N13203   2.028   3.836  11.061  0.4993 -0.1584 -0.0421
  897MPD2    H513204   1.972   3.906  11.013 -0.2116 -0.2153  0.7056
  897MPD2    N113205   2.372   3.957  10.737 -0.2112 -0.3389 -0.2291
  897MPD2    H713206   2.462   3.926  10.700  0.3538  1.6245 -0.5277
  898MPD2     C13207   4.519   0.389   0.068 -0.0323 -0.0384  0.2061
  898MPD2    C113208   4.526   0.369  17.680 -0.5989 -0.3278  0.6272
  898MPD2    C213209   4.536   0.473  17.597 -0.3855 -0.4754 -0.6269
  898MPD2    C313210   4.524   0.606  17.633 -0.0034 -0.4230  0.0108
  898MPD2    C413211   4.508   0.629   0.018 -0.6186 -0.5625  0.4103
  898MPD2    C513212   4.516   0.522   0.108 -0.3773  1.1347 -0.4817
  898MPD2     H13213   4.551   0.448  17.492  0.2231  1.5487 -1.0219
  898MPD2    H113214   4.476   0.725   0.055 -1.9750 -1.4863  1.6580
  898MPD2    H213215   4.523   0.313   0.145 -1.4859 -0.0706  0.2397
  898MPD2    H313216   4.500   0.533   0.215  1.2236  1.4336 -0.2628
  898MPD2     N13217   4.512   0.706  17.537  1.0587  0.3087 -0.7354
  898MPD2    H513218   4.506   0.671  17.442  0.2921 -1.1285 -0.1522
  898MPD2    N113219   4.527   0.236  17.636 -0.0719 -0.2073 -0.1624
  898MPD2    H713220   4.537   0.227  17.536  0.1815  1.1258 -0.2616
  899MPD2     C13221   0.114   0.494  17.549  0.5256  0.2712  0.2698
  899MPD2    C113222   0.220   0.593  17.530 -0.0944 -0.1077 -0.2233
  899MPD2    C213223   0.324   0.599  17.625 -0.1964 -1.0440  0.0181
  899MPD2    C313224   0.325   0.513  17.733 -0.6930 -0.6076 -0.2582
  899MPD2    C413225   0.228   0.420  17.741 -0.1895 -0.1917  0.4584
  899MPD2    C513226   0.126   0.407  17.651  0.1885  0.1285 -0.1051
  899MPD2     H13227   0.406   0.669  17.614  0.5496 -2.3950 -2.8683
  899MPD2    H113228   0.227   0.346   0.074  0.9159 -0.3827  0.3007
  899MPD2    H213229   0.034   0.471  17.479  1.7037  2.6353 -1.8205
  899MPD2    H313230   0.055   0.327  17.668  1.3895 -0.7987  0.5405
  899MPD2     N13231   0.414   0.539   0.092  0.7340 -0.1266  0.1828
  899MPD2    H513232   0.486   0.609   0.074  2.0900 -1.9413 -1.5271
  899MPD2    N113233   0.205   0.679  17.423  0.0914  0.4778  0.3046
  899MPD2    H713234   0.126   0.665  17.362 -1.1939  0.7883  1.8973
  900MPD2     C13235   0.250   2.467  12.537  0.0626  0.1645 -0.1150
  900MPD2    C113236   0.180   2.357  12.590  0.5798  0.2643  0.4546
  900MPD2    C213237   0.040   2.372  12.596 -0.4667  0.2235 -0.0201
  900MPD2    C313238   4.710   2.483  12.544  0.4101  0.4458  0.6901
  900MPD2    C413239   0.046   2.584  12.483  0.5685 -0.6625 -0.5330
  900MPD2    C513240   0.181   2.570  12.484 -0.4349 -0.0708  0.1764
  900MPD2     H13241   4.720   2.292  12.642 -0.0609 -0.0172  0.0661
  900MPD2    H113242   0.004   2.672  12.435 -2.7858 -2.9445 -1.8005
  900MPD2    H213243   0.358   2.463  12.531 -0.0986 -2.3102 -1.3961
  900MPD2    H313244   0.237   2.641  12.424  1.1580  0.2087  2.0018
  900MPD2     N13245   4.566   2.484  12.564  0.0546 -0.1098  0.2976
  900MPD2    H513246   4.522   2.397  12.593  0.6186 -0.3850  0.3356
  900MPD2    N113247   0.248   2.248  12.638  0.2588  0.2731  0.3168
  900MPD2    H713248   0.350   2.252  12.637  0.3630 -1.8583  1.5857
  901MPD2     C13249   0.589   1.466  13.324  0.1453  0.3471 -0.0015
  901MPD2    C113250   0.549   1.408  13.205  0.2843 -0.8205 -1.1936
  901MPD2    C213251   0.520   1.494  13.105  0.0554 -0.0090  0.5076
  901MPD2    C313252   0.526   1.634  13.117 -0.0782  0.9388 -0.1525
  901MPD2    C413253   0.573   1.683  13.237 -0.2560  0.5556 -0.4337
  901MPD2    C513254   0.602   1.599  13.336 -0.1580  0.0066 -0.5419
  901MPD2     H13255   0.477   1.449  13.016 -0.0842 -0.2798  0.7108
  901MPD2    H113256   0.584   1.790  13.253 -0.1849  0.7419 -1.7082
  901MPD2    H213257   0.614   1.394  13.401  1.1053  1.1022  0.3828
  901MPD2    H313258   0.650   1.641  13.424  1.0697 -1.9058 -0.3008
  901MPD2     N13259   0.484   1.711  13.009  0.1679 -0.1962 -0.2832
  901MPD2    H513260   0.475   1.660  12.922 -0.2445  0.0570 -0.3879
  901MPD2    N113261   0.504   1.280  13.189  0.6878 -0.4934  0.7957
  901MPD2    H713262   0.458   1.256  13.101  0.6828 -0.1442  0.7029
  902MPD2     C13263   3.429   0.187  12.840  0.3060 -0.1527  0.4871
  902MPD2    C113264   3.422   0.183  12.700 -0.2993  0.4209 -0.3249
  902MPD2    C213265   3.443   0.061  12.640  0.1770  0.5434  0.3353
  902MPD2    C313266   3.443   4.682  12.716 -0.0783 -0.2635 -0.4034
  902MPD2    C413267   3.446   4.683  12.851 -0.0896 -0.3174 -0.2577
  902MPD2    C513268   3.442   0.067  12.909  0.1205 -0.3584  0.1676
  902MPD2     H13269   3.450   0.053  12.533 -2.5092 -0.8347  0.2656
  902MPD2    H113270   3.450   4.590  12.907 -1.5489 -0.5824 -0.5890
  902MPD2    H213271   3.418   0.277  12.899  1.2090  0.5235 -0.3906
  902MPD2    H313272   3.429   0.069  13.017 -2.2483  0.9655 -0.1269
  902MPD2     N13273   3.452   4.568  12.633  0.4340  0.3977 -0.2025
  902MPD2    H513274   3.450   4.581  12.532 -2.9567  0.7621 -0.0898
  902MPD2    N113275   3.405   0.303  12.628  0.5516  0.2855 -0.0967
  902MPD2    H713276   3.400   0.388  12.684  4.0695  0.0548  0.5812
  903MPD2     C13277   3.488   4.443  11.903  0.7350  0.3138  0.4079
  903MPD2    C113278   3.389   4.439  12.001 -0.6479 -0.2249  0.0290
  903MPD2    C213279   3.270   4.513  11.972  0.2680 -0.0463 -0.0571
  903MPD2    C313280   3.252   4.585  11.857  0.2130 -0.2886 -0.1334
  903MPD2    C413281   3.352   4.578  11.764 -0.6198  0.0495 -0.3705
  903MPD2    C513282   3.467   4.513  11.792 -0.8655 -0.1145  0.4762
  903MPD2     H13283   3.187   4.507  12.042 -1.3808  0.4972 -1.9672
  903MPD2    H113284   3.336   4.617  11.664  0.9788 -2.0332 -1.4420
  903MPD2    H213285   3.585   4.397  11.913  0.1495 -0.6355  1.8151
  903MPD2    H313286   3.549   4.502  11.722 -2.0911 -1.8133 -0.6874
  903MPD2     N13287   3.125   4.644  11.844 -0.3991  0.0854 -0.0033
  903MPD2    H513288   3.059   4.625  11.919  0.7878  0.2131  1.0861
  903MPD2    N113289   3.418   4.376  12.119  0.0906 -0.3699  0.0082
  903MPD2    H713290   3.505   4.325  12.114 -0.2792 -0.9422 -0.6506
  904MPD2     C13291   3.251   3.620  13.977 -0.0711  0.4251  0.5421
  904MPD2    C113292   3.251   3.758  14.011  0.0303  0.0707  0.2061
  904MPD2    C213293   3.363   3.815  14.067 -0.3223 -0.1870  0.5404
  904MPD2    C313294   3.475   3.733  14.092  0.4904 -0.2801 -0.1843
  904MPD2    C413295   3.471   3.597  14.078  0.4576 -0.5761 -0.0509
  904MPD2    C513296   3.355   3.545  14.029 -0.0735  0.0149  0.1718
  904MPD2     H13297   3.380   3.921  14.074 -1.7901  0.0202  0.9359
  904MPD2    H113298   3.545   3.522  14.103 -0.7918 -1.8956 -0.3350
  904MPD2    H213299   3.160   3.573  13.940 -0.0126  1.0114 -0.3470
  904MPD2    H313300   3.342   3.438  14.015  0.5232 -0.0115 -0.2024
  904MPD2     N13301   3.595   3.794  14.126  0.0504 -0.0638  0.0360
  904MPD2    H513302   3.596   3.895  14.134  0.8504  0.1355 -2.6579
  904MPD2    N113303   3.140   3.841  13.983  0.2286  0.6397  0.3502
  904MPD2    H713304   3.058   3.800  13.940  1.6434  0.4425 -2.1020
  905MPD2     C13305   2.587   4.168  13.452 -0.2495 -0.2278  0.1947
  905MPD2    C113306   2.724   4.168  13.494  0.1480  0.2312 -0.1371
  905MPD2    C213307   2.820   4.160  13.395  0.0643  0.5314 -0.2816
  905MPD2    C313308   2.794   4.149  13.257 -0.0448  0.0406 -0.4459
  905MPD2    C413309   2.656   4.150  13.216 -0.0255  0.1231  0.2996
  905MPD2    C513310   2.561   4.161  13.313  0.0715  0.0264 -0.6280
  905MPD2     H13311   2.917   4.183  13.436  0.6946 -2.1044 -0.2935
  905MPD2    H113312   2.630   4.141  13.111 -0.1931  0.4446  0.3166
  905MPD2    H213313   2.507   4.180  13.524  0.8248 -1.5098  1.6011
  905MPD2    H313314   2.456   4.174  13.289 -0.3420 -3.3143 -0.7246
  905MPD2     N13315   2.903   4.155  13.162 -0.4347  0.4782 -0.3277
  905MPD2    H513316   2.999   4.148  13.192  0.4288 -1.3863 -3.4257
  905MPD2    N113317   2.754   4.162  13.633  0.3617  0.4184  0.0403
  905MPD2    H713318   2.676   4.172  13.697  0.3173  2.5816 -0.3635
  906MPD2     C13319   1.070   4.448  11.311 -0.6333 -0.2066  0.1118
  906MPD2    C113320   0.961   4.407  11.245 -0.2062  0.8088  1.0317
  906MPD2    C213321   0.880   4.308  11.299  0.1941  0.7787  0.6932
  906MPD2    C313322   0.913   4.256  11.421  0.9981 -1.0728 -0.3254
  906MPD2    C413323   1.017   4.307  11.491  0.2882 -0.6185 -0.0862
  906MPD2    C513324   1.094   4.404  11.435 -0.1882 -0.8430 -0.6920
  906MPD2     H13325   0.804   4.268  11.233  1.7535 -0.8383 -0.1312
  906MPD2    H113326   1.048   4.276  11.590 -0.7469 -1.2849  0.0284
  906MPD2    H213327   1.133   4.523  11.265 -0.1189 -1.8206 -1.8371
  906MPD2    H313328   1.174   4.441  11.498 -0.7684 -0.9395  0.1031
  906MPD2     N13329   0.848   4.138  11.478 -0.1845 -0.6094 -0.4421
  906MPD2    H513330   0.902   4.087  11.547 -0.3270 -1.7825 -1.2013
  906MPD2    N113331   0.935   4.456  11.113  0.1680 -0.3415  0.2591
  906MPD2    H713332   1.013   4.509  11.077 -0.1942  0.4930  0.7052
  907MPD2     C13333   4.246   3.207  16.080  0.6111 -0.0395 -0.7905
  907MPD2    C113334   4.333   3.103  16.048 -0.0524  0.4253 -0.1211
  907MPD2    C213335   4.432   3.063  16.134  0.0647  0.0635  0.5621
  907MPD2    C313336   4.443   3.128  16.257 -0.0696 -0.1846 -0.3345
  907MPD2    C413337   4.349   3.230  16.283  0.2789  0.5015 -0.3464
  907MPD2    C513338   4.254   3.273  16.194 -0.1929  0.5023 -0.5411
  907MPD2     H13339   4.494   2.982  16.098 -0.9540 -0.9886  1.1654
  907MPD2    H113340   4.357   3.286  16.376 -1.1931  0.8570 -0.4295
  907MPD2    H213341   4.166   3.240  16.014  0.6464 -1.1724 -1.4111
  907MPD2    H313342   4.202   3.365  16.217  1.1436  1.5733 -1.7305
  907MPD2     N13343   4.535   3.073  16.354  0.7505 -0.3945 -0.2655
  907MPD2    H513344   4.567   2.978  16.335  3.2802  0.6348 -1.1435
  907MPD2    N113345   4.321   3.032  15.925  0.4246 -0.6237  0.2414
  907MPD2    H713346   4.384   2.955  15.908  1.7857  0.6053 -0.2515
  908MPD2     C13347   2.351   3.544   9.961  0.1234 -0.5795  0.1876
  908MPD2    C113348   2.400   3.514  10.086 -0.1234 -0.2364 -0.4701
  908MPD2    C213349   2.416   3.609  10.180  0.5214  0.2434  0.3690
  908MPD2    C313350   2.379   3.740  10.144  0.1491  0.6510  0.1207
  908MPD2    C413351   2.330   3.768  10.016  0.1293 -0.2357  0.4044
  908MPD2    C513352   2.323   3.671   9.923 -0.6251 -0.1360  1.4973
  908MPD2     H13353   2.468   3.597  10.274  2.6641 -1.1472 -0.9980
  908MPD2    H113354   2.285   3.862   9.984  0.5300  0.1684  1.0332
  908MPD2    H213355   2.346   3.477   9.876  0.2518 -0.7023  0.2761
  908MPD2    H313356   2.291   3.702   9.824 -1.2516  0.1654  1.7943
  908MPD2     N13357   2.390   3.836  10.244  0.0166 -0.1810 -0.1478
  908MPD2    H513358   2.403   3.813  10.342 -0.4941 -0.8442 -0.2371
  908MPD2    N113359   2.453   3.384  10.105 -0.3758 -0.3492  0.1688
  908MPD2    H713360   2.455   3.322  10.025 -1.2833 -1.5270  1.0537
  909MPD2     C13361   2.834   1.895  11.804 -0.7144  0.4976  0.2195
  909MPD2    C113362   2.777   2.024  11.804 -0.5044 -0.6366  0.3739
  909MPD2    C213363   2.666   2.042  11.891  0.2212 -0.5371  0.9319
  909MPD2    C313364   2.613   1.936  11.967 -0.8802  0.3901  0.2634
  909MPD2    C413365   2.669   1.809  11.959 -1.3356  0.1795 -0.0148
  909MPD2    C513366   2.784   1.790  11.882 -0.2292  0.0743  0.1821
  909MPD2     H13367   2.616   2.138  11.897  2.3501  0.7614 -2.0554
  909MPD2    H113368   2.635   1.723  12.017 -0.0048  0.1620  0.7476
  909MPD2    H213369   2.928   1.883  11.751 -1.2616  1.0099 -0.8782
  909MPD2    H313370   2.839   1.697  11.892 -0.2954 -0.0302 -0.4126
  909MPD2     N13371   2.502   1.968  12.049  0.0037  0.3065 -0.9260
  909MPD2    H513372   2.484   2.066  12.067 -1.1509 -0.1531  0.3687
  909MPD2    N113373   2.847   2.118  11.729 -0.0396  0.1020 -0.1150
  909MPD2    H713374   2.931   2.080  11.685 -1.4250 -2.0416 -0.9355
  910MPD2     C13375   3.523   3.428  16.151 -0.6643 -0.1362 -0.3871
  910MPD2    C113376   3.608   3.378  16.052  0.7861 -0.6863  0.3045
  910MPD2    C213377   3.575   3.397  15.915  0.1941 -0.5634 -0.0519
  910MPD2    C313378   3.454   3.453  15.873 -0.5768  0.0148 -0.3190
  910MPD2    C413379   3.368   3.488  15.973 -0.1094 -0.2226  0.8099
  910MPD2    C513380   3.404   3.484  16.110  0.1954  0.2093  0.5010
  910MPD2     H13381   3.642   3.360  15.839  0.0577 -1.2748  0.1728
  910MPD2    H113382   3.269   3.528  15.952 -0.7719 -1.2817  1.8564
  910MPD2    H213383   3.530   3.416  16.258  1.6926  0.8974 -0.4317
  910MPD2    H313384   3.330   3.506  16.187 -0.8015  0.4437 -0.5188
  910MPD2     N13385   3.418   3.487  15.741 -0.1182  0.5925 -0.0107
  910MPD2    H513386   3.323   3.522  15.734  0.7680  2.7010 -1.6491
  910MPD2    N113387   3.721   3.296  16.081  0.4168 -0.1103 -0.0166
  910MPD2    H713388   3.777   3.261  16.004 -0.7398  0.4632 -1.1320
  911MPD2     C13389   1.630   4.063  15.986  0.2024  0.5639 -0.0386
  911MPD2    C113390   1.625   4.087  16.121  0.0903 -0.1614  0.1871
  911MPD2    C213391   1.550   4.197  16.171 -0.6965  0.3162  0.1462
  911MPD2    C313392   1.479   4.275  16.080 -0.3096 -0.7603 -0.5077
  911MPD2    C413393   1.488   4.249  15.948  0.2867  0.5711 -0.2846
  911MPD2    C513394   1.553   4.140  15.904  0.9676 -0.1762  0.0003
  911MPD2     H13395   1.527   4.210  16.277 -1.0153 -0.2357  0.1458
  911MPD2    H113396   1.430   4.305  15.876  1.7257  1.6687 -0.5972
  911MPD2    H213397   1.676   3.977  15.940  0.9471  1.0362 -0.1886
  911MPD2    H313398   1.545   4.112  15.800 -0.2013  0.2206 -0.0193
  911MPD2     N13399   1.410   4.388  16.109  0.2432  0.2896  0.2289
  911MPD2    H513400   1.378   4.450  16.036  0.3112 -0.8665 -0.7897
  911MPD2    N113401   1.700   3.993  16.204 -0.3214 -0.1627  0.1154
  911MPD2    H713402   1.756   3.923  16.157  2.3515  1.6610  0.6078
  912MPD2     C13403   1.130   4.359  15.724 -0.2205  0.7104 -0.3292
  912MPD2    C113404   1.111   4.383  15.856  0.4266 -0.2151  0.0157
  912MPD2    C213405   1.124   4.280  15.945  0.5802  0.4860 -0.5635
  912MPD2    C313406   1.172   4.159  15.909  0.6195  0.0475 -0.0311
  912MPD2    C413407   1.209   4.141  15.774  0.1221  0.2774 -0.9699
  912MPD2    C513408   1.190   4.244  15.686 -0.3414 -0.5917  0.1893
  912MPD2     H13409   1.110   4.292  16.052  2.5513  0.2880 -0.2765
  912MPD2    H113410   1.251   4.050  15.734  1.8108  0.8437 -0.4993
  912MPD2    H213411   1.119   4.444  15.656 -0.2835  0.4743 -0.6135
  912MPD2    H313412   1.231   4.239  15.586 -0.7916 -1.3187  0.0427
  912MPD2     N13413   1.206   4.079  16.019  0.6572  0.1886  0.0459
  912MPD2    H513414   1.184   4.101  16.116 -0.1698  1.4352 -0.4210
  912MPD2    N113415   1.095   4.517  15.899 -0.8005  0.2731 -0.3006
  912MPD2    H713416   1.076   4.590  15.831  0.5648  1.2838  0.4373
  913MPD2     C13417   1.542   0.376  10.902 -0.4812  0.5550  0.0324
  913MPD2    C113418   1.620   0.462  10.974  0.2396  0.3805  0.3210
  913MPD2    C213419   1.713   0.543  10.910 -0.1821 -0.3435 -0.5355
  913MPD2    C313420   1.733   0.530  10.775  0.1228  0.3936 -0.0213
  913MPD2    C413421   1.659   0.442  10.705 -0.1357 -0.1796 -0.7274
  913MPD2    C513422   1.559   0.378  10.774 -0.0272  0.5741 -0.4146
  913MPD2     H13423   1.775   0.614  10.962 -1.6527  0.2541  0.4233
  913MPD2    H113424   1.671   0.428  10.599  2.0347  2.5832 -0.8546
  913MPD2    H213425   1.461   0.319  10.948  1.0393 -1.4416  0.2593
  913MPD2    H313426   1.489   0.313  10.724  1.8062 -1.8774  0.2415
  913MPD2     N13427   1.809   0.623  10.706 -0.2637  0.1073 -0.5071
  913MPD2    H513428   1.806   0.621  10.605 -1.4740  1.7660 -0.5010
  913MPD2    N113429   1.592   0.462  11.108  0.2349 -0.5205  0.2647
  913MPD2    H713430   1.553   0.378  11.150  0.2905 -0.3285  0.7010
  914MPD2     C13431   0.245   0.981  12.440 -0.5436  0.4320  0.6348
  914MPD2    C113432   0.321   1.081  12.500  1.2415  0.6451  0.1782
  914MPD2    C213433   0.338   1.078  12.637 -0.2026  0.3638 -0.6457
  914MPD2    C313434   0.289   0.972  12.713  0.1118 -0.4716 -0.6157
  914MPD2    C413435   0.215   0.871  12.656 -0.0717  0.1394  0.3300
  914MPD2    C513436   0.194   0.882  12.521  0.1430 -0.8981 -0.3348
  914MPD2     H13437   0.404   1.156  12.672 -0.9723  0.4279  0.6372
  914MPD2    H113438   0.186   0.782  12.710  1.2670 -0.5788 -0.1285
  914MPD2    H213439   0.234   0.964  12.334  1.2682  0.3879  0.4652
  914MPD2    H313440   0.147   0.801  12.467 -3.9542  1.8563 -0.8998
  914MPD2     N13441   0.317   0.981  12.853 -0.2218  0.9164  0.0002
  914MPD2    H513442   0.365   1.062  12.892 -1.7374  2.1359 -0.6795
  914MPD2    N113443   0.366   1.184  12.417 -0.5009 -0.5373 -0.0407
  914MPD2    H713444   0.342   1.175  12.319  0.1044 -2.9792  0.0329
  915MPD2     C13445   3.029   0.716  15.482 -0.0617 -0.4000 -0.7006
  915MPD2    C113446   2.920   0.784  15.449  0.8879  0.2270 -0.8704
  915MPD2    C213447   2.837   0.832  15.554 -0.2307 -0.3563  0.5580
  915MPD2    C313448   2.850   0.774  15.681  0.3775  0.2677  0.4851
  915MPD2    C413449   2.957   0.691  15.705 -0.0991 -0.5047  0.3753
  915MPD2    C513450   3.058   0.673  15.610 -0.1767  0.0653 -0.4685
  915MPD2     H13451   2.747   0.891  15.536 -0.4174 -0.5313  0.9117
  915MPD2    H113452   2.976   0.652  15.803  0.5415  1.1550  0.9163
  915MPD2    H213453   3.100   0.691  15.404 -0.8204 -2.9539 -0.5757
  915MPD2    H313454   3.146   0.611  15.625  0.9962  1.6856 -0.6277
  915MPD2     N13455   2.760   0.810  15.788  0.0693  0.3162 -0.2603
  915MPD2    H513456   2.703   0.893  15.779 -2.0790 -1.2248 -0.7994
  915MPD2    N113457   2.900   0.811  15.311 -0.6532 -0.2618  0.6384
  915MPD2    H713458   2.962   0.761  15.249 -0.7324  0.5928 -0.1346
  916MPD2     C13459   0.797   4.205  15.658  0.4722  0.5919  0.0738
  916MPD2    C113460   0.832   4.131  15.761 -0.2360  0.4052 -0.2858
  916MPD2    C213461   0.886   4.006  15.740  0.5244 -0.0534  0.7151
  916MPD2    C313462   0.913   3.966  15.611 -0.3890  0.2779 -0.0876
  916MPD2    C413463   0.871   4.040  15.509 -0.5815 -0.1799 -0.5304
  916MPD2    C513464   0.806   4.160  15.535 -0.1568 -0.0657  0.5682
  916MPD2     H13465   0.923   3.938  15.816  0.6364  0.4542  1.1130
  916MPD2    H113466   0.886   4.011  15.405  3.2183  0.9288 -0.2954
  916MPD2    H213467   0.764   4.307  15.675  0.3379  0.4367  0.7312
  916MPD2    H313468   0.772   4.229  15.459 -1.5375  0.5629  1.7420
  916MPD2     N13469   0.985   3.846  15.598  0.5754 -0.3828  0.6112
  916MPD2    H513470   0.991   3.794  15.685 -2.5655 -0.4501  0.7987
  916MPD2    N113471   0.798   4.186  15.890  0.7625  0.0897  0.0492
  916MPD2    H713472   0.744   4.272  15.894 -0.5475 -0.8463  2.4886
  917MPD2     C13473   1.222   1.617  11.288  0.6160  0.0114 -0.2362
  917MPD2    C113474   1.284   1.726  11.345  0.4950 -0.1114 -0.3220
  917MPD2    C213475   1.337   1.823  11.263  0.1460 -0.3485 -0.2416
  917MPD2    C313476   1.321   1.813  11.126 -0.2095  0.2069  0.2110
  917MPD2    C413477   1.269   1.703  11.076 -0.0169 -0.0654 -0.4573
  917MPD2    C513478   1.221   1.604  11.152  0.2083 -0.9102 -0.0327
  917MPD2     H13479   1.399   1.905  11.298 -1.4423  2.1579 -3.2415
  917MPD2    H113480   1.270   1.693  10.969 -0.6923  0.5298 -0.5244
  917MPD2    H213481   1.180   1.539  11.351 -0.3043  0.4276 -0.3392
  917MPD2    H313482   1.167   1.520  11.108 -1.1171  0.9983 -2.0851
  917MPD2     N13483   1.369   1.908  11.035 -0.1139 -1.0467 -0.4579
  917MPD2    H513484   1.345   1.893  10.937  1.5625 -1.3225 -0.8268
  917MPD2    N113485   1.291   1.730  11.485 -1.0179 -0.5564 -0.0304
  917MPD2    H713486   1.268   1.644  11.535  1.7272 -0.9271  0.5995
  918MPD2     C13487   1.732   2.139  12.397  0.0333 -0.3960  0.5549
  918MPD2    C113488   1.753   2.004  12.401 -0.5146 -0.5279  0.7152
  918MPD2    C213489   1.689   1.927  12.306  0.3325  0.1676  0.0789
  918MPD2    C313490   1.605   1.984  12.208  0.1092  0.2107 -0.5184
  918MPD2    C413491   1.568   2.114  12.228  0.6610  0.5735 -0.2859
  918MPD2    C513492   1.630   2.185  12.320  0.2349  0.1584 -0.5395
  918MPD2     H13493   1.711   1.821  12.295 -2.6529 -0.2720 -1.4582
  918MPD2    H113494   1.487   2.167  12.179 -1.9570 -3.8822 -0.6836
  918MPD2    H213495   1.777   2.205  12.470 -0.0646 -0.9871  1.1534
  918MPD2    H313496   1.600   2.288  12.332  0.3422  0.1726 -0.3883
  918MPD2     N13497   1.551   1.896  12.110 -0.3035 -0.7022  0.7200
  918MPD2    H513498   1.578   1.799  12.115  2.3282 -0.0911 -1.3395
  918MPD2    N113499   1.854   1.947  12.483 -0.0635  0.1403 -0.3051
  918MPD2    H713500   1.877   1.850  12.462  2.1443  0.5438  0.1748
  919MPD2     C13501   2.082   1.031  11.902  0.4957 -0.0864  0.1911
  919MPD2    C113502   1.986   0.933  11.868  1.0503 -0.4532  0.1146
  919MPD2    C213503   1.908   0.961  11.748  0.3749  0.2092  0.4014
  919MPD2    C313504   1.916   1.078  11.676 -0.6814 -0.5181 -0.0577
  919MPD2    C413505   2.006   1.170  11.720 -0.0041 -0.0588  0.0152
  919MPD2    C513506   2.091   1.151  11.825  0.0152  0.1769 -0.5301
  919MPD2     H13507   1.845   0.876  11.725 -0.8659  1.3935 -0.5636
  919MPD2    H113508   2.019   1.264  11.667 -0.9562 -0.6726 -1.3076
  919MPD2    H213509   2.142   1.035  11.992  0.2502  2.1337  0.2548
  919MPD2    H313510   2.149   1.234  11.865 -0.3913 -0.0898  0.6216
  919MPD2     N13511   1.841   1.092  11.558  0.3137  0.3085 -0.1708
  919MPD2    H513512   1.865   1.173  11.502 -0.1472 -0.4163 -1.4054
  919MPD2    N113513   1.970   0.811  11.933 -0.5480 -0.4392 -0.9380
  919MPD2    H713514   1.908   0.737  11.903  1.3478 -2.1782 -0.4906
  920MPD2     C13515   1.900   1.256  10.585  0.0196  0.3024  0.4545
  920MPD2    C113516   1.823   1.139  10.588 -0.0459  0.2109 -0.4250
  920MPD2    C213517   1.756   1.100  10.707 -0.0393 -0.5283 -0.3547
  920MPD2    C313518   1.788   1.160  10.825  0.0388  0.2153 -0.1543
  920MPD2    C413519   1.862   1.278  10.817 -0.1518 -0.3346 -0.6557
  920MPD2    C513520   1.914   1.332  10.699  0.6675 -0.0617 -0.2416
  920MPD2     H13521   1.688   1.015  10.705  2.2050 -2.3096 -0.3636
  920MPD2    H113522   1.886   1.337  10.905 -0.6771 -0.0860 -0.6795
  920MPD2    H213523   1.954   1.291  10.498 -0.4674 -0.2477 -0.0746
  920MPD2    H313524   1.968   1.426  10.689  0.4395  0.2413  1.5062
  920MPD2     N13525   1.734   1.104  10.939 -0.4245  0.1471  0.0781
  920MPD2    H513526   1.663   1.032  10.934  1.1519 -1.1908 -2.6688
  920MPD2    N113527   1.807   1.053  10.474 -0.1575 -0.0523  0.2564
  920MPD2    H713528   1.743   0.975  10.488  0.3772 -0.4670  0.4027
  921MPD2     C13529   2.519   4.125  16.758  0.0134 -0.3101 -0.4585
  921MPD2    C113530   2.521   4.022  16.664 -0.0253 -0.4311  0.5283
  921MPD2    C213531   2.405   3.948  16.638  0.5311  0.0748 -0.5741
  921MPD2    C313532   2.283   3.995  16.689  0.0331 -0.4260 -0.3343
  921MPD2    C413533   2.278   4.113  16.763 -0.1844  0.2789 -0.4037
  921MPD2    C513534   2.393   4.170  16.800  0.0834 -0.1068 -0.1903
  921MPD2     H13535   2.414   3.851  16.590 -0.0494 -0.9418  1.3622
  921MPD2    H113536   2.191   4.157  16.809  1.1367  0.9847  1.4592
  921MPD2    H213537   2.607   4.180  16.790  0.2856 -1.1380  0.2117
  921MPD2    H313538   2.385   4.248  16.875  0.5128  1.4180 -1.7390
  921MPD2     N13539   2.174   3.919  16.649 -0.4976 -0.3050  0.0385
  921MPD2    H513540   2.194   3.833  16.597 -0.1203 -0.0926 -0.1664
  921MPD2    N113541   2.650   3.991  16.608  0.2356 -0.0586  0.4889
  921MPD2    H713542   2.727   4.057  16.610 -0.0062  0.2357 -0.0118
  922MPD2     C13543   3.893   2.526  17.507 -0.1387  0.9368 -0.3504
  922MPD2    C113544   3.815   2.553  17.615  0.1597 -0.4983  0.5440
  922MPD2    C213545   3.708   2.471  17.646  0.5120 -0.6532  0.0297
  922MPD2    C313546   3.675   2.366  17.576  0.3287 -0.2033  0.0973
  922MPD2    C413547   3.751   2.346  17.463 -0.6948  0.2147 -0.3293
  922MPD2    C513548   3.855   2.430  17.425  0.1338  0.2905 -0.6065
  922MPD2     H13549   3.641   2.502  17.725 -0.8061 -0.4006 -1.1778
  922MPD2    H113550   3.726   2.260  17.401 -0.0950 -0.5532  0.4951
  922MPD2    H213551   3.979   2.585  17.474  2.2465 -1.5408  1.4835
  922MPD2    H313552   3.913   2.411  17.335  0.9820  0.9762 -0.2023
  922MPD2     N13553   3.571   2.274  17.617  0.4186 -0.4552  0.3960
  922MPD2    H513554   3.522   2.309  17.699  0.1896  0.4692 -0.1423
  922MPD2    N113555   3.838   2.665  17.696 -0.0637  0.1118 -0.4902
  922MPD2    H713556   3.763   2.680   0.015 -0.3564 -0.8033 -0.6208
  923MPD2     C13557   0.173   3.758   8.905 -0.6181  0.6859  0.2685
  923MPD2    C113558   0.093   3.739   9.014  0.2756 -0.2638  0.0740
  923MPD2    C213559   0.134   3.756   9.146  0.5799  0.4844  0.2598
  923MPD2    C313560   0.270   3.790   9.164 -0.1650  0.1973  0.4122
  923MPD2    C413561   0.357   3.809   9.061 -0.1294 -0.1297  0.5189
  923MPD2    C513562   0.313   3.792   8.925  0.4771  0.1083  0.0725
  923MPD2     H13563   0.062   3.736   9.225 -0.3595  0.0245 -0.7122
  923MPD2    H113564   0.456   3.841   9.090 -0.2065  1.0813 -0.5185
  923MPD2    H213565   0.121   3.751   8.810  2.0390  1.5379 -1.2516
  923MPD2    H313566   0.382   3.796   8.841  0.0955 -2.4795 -0.3689
  923MPD2     N13567   0.327   3.794   9.300 -0.1970 -0.0059  0.1268
  923MPD2    H513568   0.425   3.819   9.306  0.0239 -1.0528  1.0083
  923MPD2    N113569   4.695   3.695   8.989  0.0423 -0.0993 -0.8478
  923MPD2    H713570   4.667   3.680   8.892  0.8584  2.1939 -1.4222
  924MPD2     C13571   0.110   2.359  16.170  0.1678 -0.9159  0.8203
  924MPD2    C113572   0.051   2.356  16.292 -1.0568 -0.4252  0.4851
  924MPD2    C213573   0.057   2.466  16.382 -0.1616 -0.0116  0.6142
  924MPD2    C313574   0.118   2.589  16.344 -0.1341 -1.1638  0.9518
  924MPD2    C413575   0.176   2.591  16.215 -0.9770 -0.1895 -0.4168
  924MPD2    C513576   0.168   2.474  16.134 -0.3677  0.2545 -0.2031
  924MPD2     H13577   0.010   2.453  16.478  1.7399 -0.7790  1.4508
  924MPD2    H113578   0.222   2.679  16.173  3.2069 -1.8935  0.5927
  924MPD2    H213579   0.110   2.278  16.098  0.3153 -0.1411 -0.0522
  924MPD2    H313580   0.212   2.472  16.035  0.0601 -1.5055  0.0213
  924MPD2     N13581   0.115   2.708  16.420 -0.5043  0.3246  0.3002
  924MPD2    H513582   0.166   2.790  16.388 -2.7702  1.6217 -0.0441
  924MPD2    N113583   4.713   2.245  16.343 -0.2431  0.4165  0.9367
  924MPD2    H713584   4.671   2.255  16.435  0.6732  1.5582  1.2286
  925MPD2     C13585   3.643   0.035  14.689 -0.3263 -0.7329  0.9557
  925MPD2    C113586   3.517   4.734  14.655  0.3974 -0.3973  0.1583
  925MPD2    C213587   3.457   4.640  14.734 -0.2689 -0.3552 -0.0786
  925MPD2    C313588   3.516   4.586  14.843 -0.3880  0.1787  0.4010
  925MPD2    C413589   3.643   4.621  14.875  0.5268  0.1685  0.5068
  925MPD2    C513590   3.707   4.716  14.800  0.3615  0.5135  0.0666
  925MPD2     H13591   3.362   4.602  14.699 -0.8361  0.5255  0.5039
  925MPD2    H113592   3.700   4.571  14.953  0.7749 -0.1913  0.0957
  925MPD2    H213593   3.692   0.108  14.626  0.3860 -1.0520  1.1312
  925MPD2    H313594   3.814   4.732  14.814 -0.0337 -1.6056  5.5573
  925MPD2     N13595   3.458   4.491  14.928  0.2524  0.0081 -0.3498
  925MPD2    H513596   3.506   4.478  15.016  0.1810 -2.3062 -0.6455
  925MPD2    N113597   3.448   0.042  14.535 -0.0013 -0.3330  0.1794
  925MPD2    H713598   3.354   0.004  14.532  0.5585 -1.7215  0.6587
  926MPD2     C13599   1.835   3.146  14.088 -0.2775 -0.3456  0.2037
  926MPD2    C113600   1.757   3.143  13.976 -0.2012 -0.3462  0.4889
  926MPD2    C213601   1.819   3.157  13.851 -0.1061  0.2844  0.6584
  926MPD2    C313602   1.955   3.186  13.837 -0.3165  0.8606  0.3534
  926MPD2    C413603   2.031   3.203  13.957 -0.4096  0.6195  0.2770
  926MPD2    C513604   1.970   3.165  14.076  0.1600  0.8305 -0.9260
  926MPD2     H13605   1.758   3.156  13.761  0.9507  1.6865 -0.0758
  926MPD2    H113606   2.134   3.234  13.951 -0.2951 -0.0236 -1.3982
  926MPD2    H213607   1.805   3.121  14.189 -2.0861  0.2735 -0.1904
  926MPD2    H313608   2.036   3.164  14.163 -0.5183 -0.2792 -0.4246
  926MPD2     N13609   2.013   3.209  13.717 -0.0381  0.2613 -0.0949
  926MPD2    H513610   2.114   3.217  13.718  0.1499 -1.7869 -0.9300
  926MPD2    N113611   1.621   3.117  13.979 -0.2461  0.2900  0.0741
  926MPD2    H713612   1.576   3.112  13.888 -1.7345 -1.2644  0.8968
  927MPD2     C13613   1.798   0.966  17.658 -0.1536  0.1098  0.4780
  927MPD2    C113614   1.929   1.013  17.658  0.4927 -0.5416  0.0072
  927MPD2    C213615   2.002   1.034  17.537  0.1298  0.2681  0.4816
  927MPD2    C313616   1.942   0.987  17.425  0.2559  0.0809  0.4117
  927MPD2    C413617   1.811   0.936  17.423  0.0331  0.6089  0.1678
  927MPD2    C513618   1.738   0.935  17.538 -0.3044 -0.0302 -0.0508
  927MPD2     H13619   2.108   1.055  17.536 -0.3121  2.5798  2.6771
  927MPD2    H113620   1.761   0.903  17.333  0.1068 -0.2803  0.4497
  927MPD2    H213621   1.738   0.958   0.001  0.4986 -0.3603  0.8693
  927MPD2    H313622   1.634   0.907  17.533 -0.1001 -0.2602 -3.2728
  927MPD2     N13623   2.021   0.999  17.307  0.2847 -0.1562 -0.0156
  927MPD2    H513624   2.119   1.016  17.328 -0.4989  1.5213  2.3058
  927MPD2    N113625   1.974   1.045   0.037  0.4976 -0.0961  0.5758
  927MPD2    H713626   1.914   1.027   0.116 -0.3378  2.4477  0.5409
  928MPD2     C13627   0.232   4.144   1.246  0.2219  0.3826 -0.4309
  928MPD2    C113628   0.265   4.271   1.207  0.1167  0.4588  0.0601
  928MPD2    C213629   0.272   4.298   1.071  0.0662  0.3868 -0.0459
  928MPD2    C313630   0.243   4.201   0.975 -0.0820 -0.4366  0.0421
  928MPD2    C413631   0.207   4.073   1.013  0.5620 -0.0170  0.8486
  928MPD2    C513632   0.195   4.054   1.148 -0.3105  0.4766  0.6172
  928MPD2     H13633   0.302   4.400   1.048 -2.8067  1.3420  0.4585
  928MPD2    H113634   0.196   3.989   0.946  3.6307 -0.6548  1.1298
  928MPD2    H213635   0.222   4.124   1.352 -1.4518 -1.0603 -0.8499
  928MPD2    H313636   0.171   3.951   1.171  0.9147  0.1726  0.5508
  928MPD2     N13637   0.268   4.226   0.833  0.0965 -0.3531  0.4925
  928MPD2    H513638   0.248   4.144   0.776  2.5661  1.0687 -2.4114
  928MPD2    N113639   0.279   4.371   1.311  0.9178  0.1838  0.3483
  928MPD2    H713640   0.299   4.352   1.408  0.7523  0.2933  0.4032
  929MPD2     C13641   4.684   3.789  10.118  0.4466  0.8573  0.9535
  929MPD2    C113642   4.628   3.676  10.078  0.1618  0.0647 -0.3556
  929MPD2    C213643   4.601   3.654   9.941  0.0670 -0.1759 -0.2714
  929MPD2    C313644   4.628   3.751   9.843  0.0914  0.7174  0.4091
  929MPD2    C413645   4.690   3.866   9.886 -0.1117  0.3596 -0.5286
  929MPD2    C513646   4.706   3.883  10.020  0.9748  0.1600 -0.0510
  929MPD2     H13647   4.594   3.550   9.910  1.2867 -0.8885  1.8496
  929MPD2    H113648   4.710   3.942   9.812  0.0510  0.8466  0.0091
  929MPD2    H213649   4.715   3.804  10.220  3.5797  0.2463  0.0917
  929MPD2    H313650   0.018   3.973  10.055 -1.2543  0.9178  1.1365
  929MPD2     N13651   4.600   3.736   9.708 -0.3213  0.1049  0.0863
  929MPD2    H513652   4.624   3.816   9.650 -1.6868  0.5118  0.0974
  929MPD2    N113653   4.592   3.588  10.184  0.3665 -0.1318  0.0714
  929MPD2    H713654   4.618   3.625  10.275  1.2735 -0.5013 -0.0332
  930MPD2     C13655   1.569   1.706  13.834 -0.1672  0.3331 -0.2215
  930MPD2    C113656   1.674   1.614  13.828  0.0606  1.1038 -0.2411
  930MPD2    C213657   1.791   1.651  13.758  0.3166  0.0833 -0.9697
  930MPD2    C313658   1.806   1.778  13.699  0.4123  0.7209  0.0223
  930MPD2    C413659   1.706   1.869  13.716  0.1092 -0.0161 -0.1425
  930MPD2    C513660   1.592   1.830  13.787 -0.3653 -0.2283  0.4926
  930MPD2     H13661   1.859   1.572  13.730  0.9201 -0.0210  0.8574
  930MPD2    H113662   1.715   1.970  13.677  0.0405 -0.3247 -0.9482
  930MPD2    H213663   1.474   1.675  13.877  0.1163  0.9107  0.8194
  930MPD2    H313664   1.509   1.898  13.802  0.1517  0.8948 -1.8375
  930MPD2     N13665   1.922   1.814  13.632  0.9686  0.6797 -0.5122
  930MPD2    H513666   1.916   1.905  13.588 -0.9000  1.4819  1.4225
  930MPD2    N113667   1.651   1.487  13.890  0.0080 -0.2250 -0.5747
  930MPD2    H713668   1.560   1.461  13.929 -0.2463 -1.2236 -1.8099
  931MPD2     C13669   2.574   0.757   0.403  0.1886 -0.2248 -0.6465
  931MPD2    C113670   2.489   0.808   0.488  0.6303  0.6249 -0.5740
  931MPD2    C213671   2.462   0.741   0.606 -0.5747  0.0873 -0.4419
  931MPD2    C313672   2.522   0.618   0.634 -0.0953  0.1416 -0.0345
  931MPD2    C413673   2.619   0.572   0.546 -0.4805 -0.4713 -0.1377
  931MPD2    C513674   2.654   0.643   0.434  0.4429  0.2836  0.1184
  931MPD2     H13675   2.378   0.777   0.663  0.1012 -1.7995  1.7350
  931MPD2    H113676   2.657   0.470   0.550 -1.0784 -0.6738  0.3550
  931MPD2    H213677   2.584   0.805   0.306 -0.6218  1.9548  0.3452
  931MPD2    H313678   2.717   0.599   0.357 -2.4708 -1.2914 -1.3677
  931MPD2     N13679   2.491   0.542   0.749 -0.2262  0.2333 -0.6063
  931MPD2    H513680   2.539   0.454   0.766  1.3368  1.5973  2.0019
  931MPD2    N113681   2.405   0.909   0.440 -0.0365 -0.7407  0.5879
  931MPD2    H713682   2.412   0.932   0.342 -0.0014 -1.3080  0.4564
  932MPD2     C13683   3.650   4.522  11.373 -0.8452  0.3648 -0.0430
  932MPD2    C113684   3.773   4.497  11.328  1.1260  0.1463 -0.5700
  932MPD2    C213685   3.826   4.366  11.343 -0.6124  0.4882 -0.4342
  932MPD2    C313686   3.766   4.274  11.430 -0.1743  0.4581  0.2497
  932MPD2    C413687   3.654   4.313  11.502 -0.1131 -1.0110  0.3014
  932MPD2    C513688   3.594   4.430  11.466 -0.7664  0.4890 -0.0593
  932MPD2     H13689   3.918   4.341  11.292 -1.2606 -2.4396 -0.1429
  932MPD2    H113690   3.617   4.261  11.589 -0.1190 -0.9532  0.3336
  932MPD2    H213691   3.603   4.617  11.351 -1.9700 -0.1784  0.0283
  932MPD2    H313692   3.505   4.466  11.518  0.4556 -0.0633  2.4058
  932MPD2     N13693   3.831   4.159  11.478  0.2786 -0.2719  0.0123
  932MPD2    H513694   3.778   4.112  11.551 -0.3208 -0.6223 -0.6624
  932MPD2    N113695   3.853   4.595  11.267 -0.4936  0.0888 -0.1628
  932MPD2    H713696   3.944   4.566  11.233 -0.3268 -1.2863  1.4766
  933MPD2     C13697   0.196   0.377   1.814 -0.5455 -0.6376 -0.7520
  933MPD2    C113698   0.187   0.352   1.681  0.2972  0.5228  0.3586
  933MPD2    C213699   0.151   0.446   1.588 -0.2585 -0.5963  0.2511
  933MPD2    C313700   0.106   0.568   1.635  0.2388 -0.2773  0.2828
  933MPD2    C413701   0.103   0.595   1.767  0.0106 -0.5366 -0.2715
  933MPD2    C513702   0.154   0.497   1.857 -0.3625 -0.0033 -0.2529
  933MPD2     H13703   0.146   0.416   1.484  0.3325 -1.7050  0.5339
  933MPD2    H113704   0.058   0.681   1.816  0.5033 -0.8890  0.7902
  933MPD2    H213705   0.218   0.290   1.876  0.1710 -0.1078 -0.2673
  933MPD2    H313706   0.146   0.521   1.962 -0.6522  4.3790 -1.2740
  933MPD2     N13707   0.066   0.662   1.534  0.8166  0.9389  0.2923
  933MPD2    H513708   0.072   0.640   1.435 -1.5990 -1.9270  0.7689
  933MPD2    N113709   0.232   0.228   1.641 -0.3766 -0.4506  0.0193
  933MPD2    H713710   0.268   0.172   1.718  1.0534 -1.3561 -1.3172
  934MPD2     C13711   0.889   1.270   2.166 -0.0272  0.4683  0.5939
  934MPD2    C113712   0.958   1.178   2.085 -0.4452  0.2255  0.1188
  934MPD2    C213713   0.973   1.213   1.946  0.2202 -0.3517 -0.1878
  934MPD2    C313714   0.906   1.323   1.896 -0.0271 -0.3845  0.1511
  934MPD2    C413715   0.825   1.392   1.976 -0.0920 -0.1585  0.4004
  934MPD2    C513716   0.824   1.373   2.109  0.0960  0.6076  0.1857
  934MPD2     H13717   1.032   1.158   1.873 -0.2603 -2.0277  0.6768
  934MPD2    H113718   0.767   1.471   1.931  1.5426  1.2719  0.7765
  934MPD2    H213719   0.903   1.263   2.273 -0.7373  0.4893  0.6889
  934MPD2    H313720   0.765   1.431   2.180 -1.2939 -1.1731  0.4672
  934MPD2     N13721   0.912   1.366   1.760  0.6712  0.0872  0.2372
  934MPD2    H513722   0.870   1.455   1.738  0.6360  0.6613  2.6271
  934MPD2    N113723   1.026   1.062   2.132  0.4621 -0.1708 -0.2916
  934MPD2    H713724   1.070   1.002   2.064  1.4084  0.3483 -0.1389
  935MPD2     C13725   1.439   0.951   1.025 -0.3349 -0.6333  0.0997
  935MPD2    C113726   1.354   1.040   0.962  0.2048  0.3978  0.0510
  935MPD2    C213727   1.263   1.115   1.026  0.3277 -0.5005 -0.3432
  935MPD2    C313728   1.251   1.097   1.159 -0.7266 -0.7208 -0.1478
  935MPD2    C413729   1.333   1.015   1.232 -0.1485 -0.8018 -0.5184
  935MPD2    C513730   1.429   0.942   1.162 -0.8487 -0.6027  0.0087
  935MPD2     H13731   1.202   1.184   0.969  0.9376 -0.9338 -1.5279
  935MPD2    H113732   1.330   1.015   1.340  1.5083  2.2236 -0.4593
  935MPD2    H213733   1.515   0.888   0.983  0.4820  0.0667  0.5294
  935MPD2    H313734   1.507   0.892   1.218 -0.7885 -0.3392  0.1548
  935MPD2     N13735   1.159   1.174   1.237 -0.4958  0.3361 -0.2742
  935MPD2    H513736   1.160   1.162   1.338 -2.2912  2.1854 -0.0500
  935MPD2    N113737   1.365   1.054   0.815 -0.0417 -0.4853 -0.0717
  935MPD2    H713738   1.297   1.109   0.763 -0.2583  0.3876  1.1220
  936MPD2     C13739   4.452   2.955  13.414 -0.2956 -0.0211 -0.3675
  936MPD2    C113740   4.372   3.018  13.318  0.6870 -0.0838  0.5362
  936MPD2    C213741   4.428   3.056  13.200 -0.2353  0.6117 -0.1293
  936MPD2    C313742   4.567   3.045  13.175  0.0251 -0.4211 -0.2893
  936MPD2    C413743   4.642   2.988  13.267 -0.4936  0.6777 -0.1955
  936MPD2    C513744   4.584   2.945  13.387  0.0524 -0.5839 -0.3916
  936MPD2     H13745   4.362   3.099  13.125  0.0902  0.7706 -0.3246
  936MPD2    H113746   0.013   2.983  13.258 -0.2275  0.2048  3.3701
  936MPD2    H213747   4.420   2.918  13.510  0.1635 -0.2800 -0.3171
  936MPD2    H313748   4.647   2.895  13.461  0.8471  1.8697  0.5915
  936MPD2     N13749   4.624   3.108  13.063  0.1143 -0.6717 -0.1161
  936MPD2    H513750   4.723   3.123  13.082  0.7886 -2.3185 -2.2677
  936MPD2    N113751   4.244   3.070  13.348  0.0359 -0.1940 -0.7445
  936MPD2    H713752   4.198   3.112  13.268  0.0736  0.1406 -0.5907
  937MPD2     C13753   1.977   0.217  11.575 -0.1404  0.7632 -0.1047
  937MPD2    C113754   2.089   0.276  11.625 -0.3290 -0.0031 -0.2110
  937MPD2    C213755   2.186   0.313  11.530 -0.1641 -0.3783  0.1772
  937MPD2    C313756   2.188   0.263  11.396 -0.4405  0.2416 -0.5916
  937MPD2    C413757   2.080   0.181  11.361 -0.1782 -0.6500  0.0649
  937MPD2    C513758   1.975   0.168  11.448 -0.6199 -0.4272  0.3340
  937MPD2     H13759   2.264   0.375  11.573 -0.1122  0.5687 -1.2726
  937MPD2    H113760   2.071   0.139  11.261  1.1983 -1.9937  0.4917
  937MPD2    H213761   1.894   0.191  11.641  0.8410 -3.5633 -0.5376
  937MPD2    H313762   1.893   0.108  11.411 -0.8586  0.1445 -0.0640
  937MPD2     N13763   2.292   0.303  11.304 -0.6132  0.2577  0.0685
  937MPD2    H513764   2.372   0.349  11.347 -0.2585  0.9031 -1.2819
  937MPD2    N113765   2.080   0.343  11.754  0.2077  0.1858  0.8314
  937MPD2    H713766   2.155   0.405  11.783 -0.5889  1.1988  0.7093
  938MPD2     C13767   4.578   1.255   1.168 -0.3050 -0.6726 -0.2211
  938MPD2    C113768   4.713   1.253   1.159  0.1575 -0.4458  0.7749
  938MPD2    C213769   0.048   1.218   1.278 -0.1894  0.7599 -0.5609
  938MPD2    C313770   4.717   1.183   1.394 -0.1919  0.5201  0.5271
  938MPD2    C413771   4.583   1.184   1.396 -0.1134  0.3118  0.7027
  938MPD2    C513772   4.516   1.213   1.279  0.3045  0.3290 -0.5846
  938MPD2     H13773   0.156   1.207   1.281 -0.1972  0.3165 -1.8067
  938MPD2    H113774   4.530   1.165   1.488 -0.0498 -1.4945  0.3614
  938MPD2    H213775   4.507   1.282   1.090 -0.7303 -1.1968 -0.0161
  938MPD2    H313776   4.408   1.206   1.279  0.3031  0.3063 -0.0002
  938MPD2     N13777   0.042   1.139   1.514 -0.1428 -0.0244 -0.0001
  938MPD2    H513778   4.708   1.135   1.587  0.0629  0.3632  0.2179
  938MPD2    N113779   0.047   1.294   1.043  0.2377  0.2732  0.4225
  938MPD2    H713780   0.148   1.285   1.042  0.4695  2.7576  1.3897
  939MPD2     C13781   0.986   1.634   0.509 -0.0830 -0.4276  0.5210
  939MPD2    C113782   0.932   1.750   0.452 -0.1379 -0.8182 -0.6105
  939MPD2    C213783   0.984   1.777   0.321 -0.0657 -0.0827  1.0495
  939MPD2    C313784   1.082   1.700   0.256 -0.2194 -0.1168  0.2006
  939MPD2    C413785   1.131   1.593   0.323 -0.3495  0.9897  0.4861
  939MPD2    C513786   1.072   1.555   0.444 -0.0372  0.0970  0.2136
  939MPD2     H13787   0.941   1.866   0.276 -0.9168 -1.5891 -1.1006
  939MPD2    H113788   1.211   1.529   0.287 -1.8941  1.2718 -3.4149
  939MPD2    H213789   0.950   1.602   0.606 -0.2507 -1.2739  0.1749
  939MPD2    H313790   1.097   1.457   0.483 -2.4478 -1.1151 -1.3215
  939MPD2     N13791   1.121   1.728   0.124 -0.4224 -0.5070 -0.3248
  939MPD2    H513792   1.088   1.815   0.082 -1.6701 -0.3919  0.8804
  939MPD2    N113793   0.846   1.830   0.526  0.5354  0.2186 -0.4812
  939MPD2    H713794   0.804   1.795   0.611  1.5081  0.1455 -0.0243
  940MPD2     C13795   0.268   3.032  13.498 -0.1171  0.0034  0.5140
  940MPD2    C113796   0.210   3.123  13.411  0.0609  0.2696  0.4112
  940MPD2    C213797   0.266   3.144  13.277 -0.4326 -0.1581  1.3675
  940MPD2    C313798   0.365   3.058  13.235  1.0957 -0.3019 -0.6445
  940MPD2    C413799   0.429   2.974  13.325  0.3966  0.3539  0.2909
  940MPD2    C513800   0.377   2.963  13.451  0.7592 -0.0744  0.2632
  940MPD2     H13801   0.221   3.207  13.201  0.2140 -0.2796  0.8913
  940MPD2    H113802   0.498   2.902  13.283  1.2667  0.5723  1.3343
  940MPD2    H213803   0.227   3.008  13.595 -0.0004 -2.0960  0.0340
  940MPD2    H313804   0.418   2.886  13.515 -0.4789 -0.4026  0.6590
  940MPD2     N13805   0.404   3.037  13.101 -0.8820 -0.0072 -0.0390
  940MPD2    H513806   0.492   2.987  13.092 -0.9706 -0.6931  2.9991
  940MPD2    N113807   0.097   3.194  13.458  0.0263  0.3584 -0.3278
  940MPD2    H713808   0.065   3.189  13.555  0.9030  0.6137 -0.0233
  941MPD2     C13809   3.496   2.595  10.222  0.2194  0.1087 -0.3468
  941MPD2    C113810   3.563   2.481  10.273  0.0919  0.9774  0.2398
  941MPD2    C213811   3.511   2.352  10.269 -0.3898 -0.5295 -0.6594
  941MPD2    C313812   3.396   2.331  10.198 -0.0689  0.4832  0.5756
  941MPD2    C413813   3.324   2.442  10.158  0.4624  0.4469 -1.0076
  941MPD2    C513814   3.374   2.568  10.165 -1.0803 -0.4950 -0.5643
  941MPD2     H13815   3.561   2.270  10.319 -0.2338 -0.9116 -1.4413
  941MPD2    H113816   3.228   2.414  10.115  0.4450  0.9314 -1.2846
  941MPD2    H213817   3.534   2.696  10.220 -0.8336  0.4568 -2.5973
  941MPD2    H313818   3.319   2.650  10.121  1.4290  1.4144 -0.1412
  941MPD2     N13819   3.324   2.208  10.196  0.1060  0.6852  0.5174
  941MPD2    H513820   3.252   2.203  10.124 -0.6039 -0.5010  1.3216
  941MPD2    N113821   3.687   2.508  10.333  0.2437 -0.1146  1.1165
  941MPD2    H713822   3.723   2.603  10.324  1.4167 -0.6150  0.4819
  942MPD2     C13823   4.255   3.295   9.229 -0.5922 -0.3489  0.6707
  942MPD2    C113824   4.304   3.252   9.108 -0.1013  0.6666 -0.2378
  942MPD2    C213825   4.443   3.261   9.097  1.0399 -0.5117  0.2392
  942MPD2    C313826   4.531   3.318   9.187 -0.4449 -1.1604  0.4222
  942MPD2    C413827   4.469   3.362   9.301  1.0360  0.1986  0.2547
  942MPD2    C513828   4.335   3.355   9.322  0.0494  1.1724  0.0506
  942MPD2     H13829   4.489   3.222   9.007 -1.1452 -2.3069 -0.0969
  942MPD2    H113830   4.526   3.406   9.383 -1.7477  0.8729  1.8217
  942MPD2    H213831   4.152   3.299   9.263 -0.2598 -0.7698  1.7372
  942MPD2    H313832   4.289   3.386   9.415  1.1615  1.4575  0.5061
  942MPD2     N13833   4.670   3.348   9.169 -0.2880  0.2757  0.1687
  942MPD2    H513834   4.713   3.406   9.241 -1.3762  2.2951 -0.8026
  942MPD2    N113835   4.226   3.195   9.006 -0.3317  0.4777 -0.2952
  942MPD2    H713836   4.281   3.157   8.930 -1.6309 -0.8863 -0.5603
  943MPD2     C13837   3.011   1.768  10.663 -0.4765 -0.2515 -0.0387
  943MPD2    C113838   2.946   1.850  10.570  0.2295 -1.0884  0.2212
  943MPD2    C213839   3.009   1.978  10.545 -1.1029  0.1030  0.4762
  943MPD2    C313840   3.123   2.018  10.618 -0.1895 -0.4516  0.2917
  943MPD2    C413841   3.185   1.924  10.703 -0.3632 -0.3851  0.6999
  943MPD2    C513842   3.126   1.803  10.728  0.4275  0.7552  0.1173
  943MPD2     H13843   2.959   2.044  10.475  0.8547  1.2696  0.1885
  943MPD2    H113844   3.272   1.954  10.760 -0.0043  1.2852 -0.7483
  943MPD2    H213845   2.960   1.677  10.694 -0.7873 -0.0484  0.0437
  943MPD2    H313846   3.173   1.730  10.793 -0.5015  0.7264  0.7657
  943MPD2     N13847   3.197   2.136  10.602 -0.0830  0.0551  0.0314
  943MPD2    H513848   3.279   2.141  10.662 -0.7214 -1.3855  1.0296
  943MPD2    N113849   2.823   1.804  10.512 -0.3587 -0.2169  0.3922
  943MPD2    H713850   2.780   1.716  10.538 -1.0188  0.1122  0.3878
  944MPD2     C13851   2.935   1.537  11.270  0.8820  0.1949 -0.2616
  944MPD2    C113852   2.833   1.446  11.258 -0.2121 -0.0539 -0.1561
  944MPD2    C213853   2.775   1.400  11.376 -0.8690  0.4809  0.3268
  944MPD2    C313854   2.825   1.428  11.504 -0.4227 -0.2665  0.1135
  944MPD2    C413855   2.936   1.510  11.513 -0.4112  0.1653  0.5680
  944MPD2    C513856   2.985   1.561  11.394 -0.1320 -0.7703 -0.5082
  944MPD2     H13857   2.685   1.340  11.378 -0.2365 -0.5253 -1.8554
  944MPD2    H113858   2.984   1.542  11.605 -0.5854  0.3588  0.5923
  944MPD2    H213859   2.993   1.573  11.186 -1.4768  1.5448 -1.3076
  944MPD2    H313860   3.069   1.628  11.409 -1.2602  0.6572 -0.5878
  944MPD2     N13861   2.756   1.390  11.623  0.4410  0.2282 -0.4320
  944MPD2    H513862   2.665   1.348  11.611  0.2000  0.3142  1.0939
  944MPD2    N113863   2.799   1.405  11.129  0.3671 -0.6183  0.2167
  944MPD2    H713864   2.845   1.459  11.057 -0.5645 -1.4422 -1.0099
    1TMC1    C113865   0.389   2.352  15.521 -0.5858  0.1297 -0.3713
    1TMC1    C213866   0.525   2.356  15.531  0.3476  0.1552  0.4908
    1TMC1    C313867   0.585   2.272  15.615 -0.4182 -0.0398  0.3039
    1TMC1    C413868   0.316   2.276  15.612 -0.0071  0.8448  0.4473
    1TMC1    C513869   0.380   2.204  15.706 -0.0341 -0.0958  0.6278
    1TMC1    C613870   0.514   2.194  15.704 -0.1808 -0.0772  0.5531
    1TMC1     C13871   0.340   2.345  15.386 -0.2202  0.0457 -0.1711
    1TMC1     O13872   0.251   2.269  15.357 -0.2577 -0.1615 -0.4016
    1TMC1     H13873   0.592   2.403  15.460 -0.2120  0.0919 -0.0772
    1TMC1    H113874   0.208   2.265  15.615  0.1872 -1.1952  0.1716
    1TMC1    H213875   0.563   2.130  15.776  0.2636  0.1465  0.4493
    1TMC1    C713876   0.304   2.141  15.808  0.7224 -0.3304  0.5858
    1TMC1    C813877   0.718   2.242  15.592 -0.0838 -0.7762  0.4234
    1TMC1    O113878   0.339   2.032  15.859  0.1727  0.0317  0.4759
    1TMC1    O213879   0.804   2.327  15.574  0.0298 -0.8328  0.0878
    1TMC1    O313880   0.247   2.241  15.878  0.1719 -0.3886  0.1324
    1TMC1    H313881   0.289   2.328  15.862 -1.4777  0.3727 -0.1054
    1TMC1    O513882   0.738   2.112  15.621  0.4759 -0.1059 -0.5137
    1TMC1    H513883   0.658   2.056  15.609  2.2136 -2.7183  0.0166
    2MPD2     C13884   0.347   2.513  14.906 -0.4104  0.4812 -0.8162
    2MPD2    C113885   0.424   2.590  14.987 -0.3797  0.0400 -0.4761
    2MPD2    C213886   0.454   2.549  15.120 -0.3733  0.0172  0.9182
    2MPD2    C313887   0.386   2.447  15.165  0.3817  0.1910 -0.2668
    2MPD2    C413888   0.302   2.370  15.083  0.0871 -0.5861  0.2557
    2MPD2    C513889   0.288   2.391  14.951  0.5142  0.1607 -0.2436
    2MPD2     H13890   0.523   2.601  15.185  1.4301 -0.9102 -0.2770
    2MPD2    H113891   0.249   2.286  15.126  0.4616 -0.9101  0.0774
    2MPD2    H213892   0.341   2.536  14.800  1.9249 -1.2911 -1.3425
    2MPD2    H313893   0.224   2.330  14.889  1.8170 -0.5790 -0.8701
    2MPD2     N13894   0.408   2.432  15.305  1.0320  0.0220 -0.1646
    2MPD2    H513895   0.465   2.499  15.356  0.9452  0.3637 -0.5124
    2MPD2    N113896   0.466   2.715  14.940 -0.2893  0.5170 -0.2166
    2MPD2    H713897   0.431   2.740  14.848 -1.0239  1.5187  0.3361
    3TMC2    C113898   0.518   2.944  14.947 -0.3550  1.1398 -0.9238
    3TMC2    C213899   0.477   3.052  15.026 -0.4831 -0.1211 -0.8434
    3TMC2    C313900   0.466   3.169  14.963 -0.7386  0.1304  0.3554
    3TMC2    C413901   0.528   2.954  14.816 -0.2077 -0.2602  0.5077
    3TMC2    C513902   0.509   3.075  14.761  0.3935 -0.7977 -0.3602
    3TMC2    C613903   0.487   3.183  14.833 -0.2733 -0.2749 -0.8660
    3TMC2     C13904   0.528   2.814  15.010  0.0168  0.6021  0.2473
    3TMC2     O13905   0.575   2.809  15.122 -0.1682 -0.6817 -0.0277
    3TMC2     H13906   0.461   3.044  15.133  2.4476 -3.6238 -0.6716
    3TMC2    H113907   0.554   2.869  14.754 -2.2313 -2.2000  2.3214
    3TMC2    H213908   0.494   3.284  14.794  1.5772  0.4187  1.2644
    3TMC2    C713909   0.546   3.085  14.624 -1.1376  0.7267 -0.0248
    3TMC2    C813910   0.423   3.283  15.042 -0.2360 -0.3721 -0.0263
    3TMC2    O113911   0.614   2.991  14.578  0.4379  0.4616  0.3481
    3TMC2    O213912   0.346   3.364  14.991  0.0694 -0.0189  0.0186
    3TMC2    O513913   0.525   3.322  15.124 -0.6211  0.0866  0.1558
    3TMC2    H513914   0.585   3.245  15.134  0.6450  1.0929  0.2410
    4TMC2    C113915   0.050   3.673  13.929  0.2328 -0.4391 -0.0724
    4TMC2    C213916   0.015   3.793  13.983  0.3996  0.2986  1.1959
    4TMC2    C313917   0.038   3.805  14.116 -0.0479  0.4008 -0.3400
    4TMC2    C413918   0.115   3.576  13.999  0.3213 -0.2196 -0.2981
    4TMC2    C513919   0.145   3.603  14.130  0.1886 -0.5267 -0.2424
    4TMC2    C613920   0.108   3.719  14.190 -0.7336  0.4850 -0.7465
    4TMC2     C13921   0.043   3.657  13.780  0.6074  0.6500 -0.1429
    4TMC2     O13922   0.118   3.571  13.744 -0.2516 -0.0321 -0.4715
    4TMC2     H13923   4.706   3.869  13.922 -1.2810 -1.6859  0.0066
    4TMC2    H113924   0.153   3.486  13.950 -0.0453 -0.0730 -0.8537
    4TMC2    H213925   0.112   3.742  14.296 -1.7063  0.4484 -0.7050
    4TMC2    C713926   0.197   3.504  14.221  0.3647 -0.2288  0.3612
    4TMC2    C813927   0.001   3.931  14.176 -0.4447  0.0874  0.7972
    4TMC2    O113928   0.192   3.529  14.342  0.4971 -0.0848 -0.1681
    4TMC2    O213929   0.044   3.973  14.283 -0.2004 -0.3042 -0.2599
    4TMC2    O513930   4.610   3.927  14.142  0.4766 -0.5410  0.2809
    4TMC2    H513931   4.579   3.872  14.067  1.4145 -0.1342 -0.4129
    5MPD2     C13932   4.622   3.714  13.303 -0.6262 -0.4712 -0.3481
    5MPD2    C113933   4.523   3.753  13.388  0.3969  0.9233  0.1573
    5MPD2    C213934   4.542   3.764  13.524 -0.1475  0.1739  0.8857
    5MPD2    C313935   4.658   3.718  13.575  0.2127  0.1719  0.4786
    5MPD2    C413936   0.023   3.678  13.488 -0.4053 -0.2169 -0.3878
    5MPD2    C513937   0.001   3.668  13.354  0.0137  0.4297 -0.3738
    5MPD2     H13938   4.463   3.813  13.581  0.2527  0.5313  1.1356
    5MPD2    H113939   0.117   3.640  13.528 -1.3077 -2.8679 -0.7955
    5MPD2    H213940   4.606   3.722  13.197  0.2509 -1.3490 -0.5473
    5MPD2    H313941   0.074   3.618  13.291 -0.1914 -0.9056  0.4473
    5MPD2     N13942   4.679   3.727  13.714  0.1895 -0.3144  0.0111
    5MPD2    H513943   4.614   3.781  13.770  0.9187  1.7929 -1.1647
    5MPD2    N113944   4.403   3.798  13.324 -0.2653 -0.3408 -0.4073
    5MPD2    H713945   4.406   3.781  13.224 -0.2506  1.6140 -0.7384
    6MPD1     C13946   3.659   0.764  12.678 -0.4788 -0.7708  0.0661
    6MPD1    C113947   3.646   0.750  12.813  0.2203 -0.0387 -0.3855
    6MPD1    C213948   3.686   0.629  12.874  0.0409 -0.4681 -0.8575
    6MPD1    C313949   3.699   0.516  12.788 -0.0900 -0.2712  0.3798
    6MPD1    C413950   3.694   0.533  12.649  0.0226  0.6412  0.0265
    6MPD1    C513951   3.682   0.660  12.594  0.0143  0.3484  0.2643
    6MPD1     H13952   3.695   0.622  12.982  0.1123  0.1846 -0.8185
    6MPD1    H113953   3.706   0.453  12.576 -0.0957  1.4809 -0.9220
    6MPD1    H213954   3.640   0.860  12.632 -0.3893  0.0717  1.7948
    6MPD1    H313955   3.687   0.689  12.490  0.9223  0.6959  0.4051
    6MPD1     N13956   3.719   0.384  12.842 -0.6351  0.6899  0.3513
    6MPD1    H513957   3.725   0.310  12.773  1.0563 -0.9625  2.2480
    6MPD1    N113958   3.641   0.863  12.896 -0.4413 -0.4436  0.7548
    6MPD1    H613959   3.602   0.842  12.988 -0.2341  0.7807  1.1193
    6MPD1    H713960   3.580   0.935  12.856 -0.7644 -1.0641  0.1195
    7MPD2     C13961   3.671   4.462  13.459 -0.0367  0.0680 -0.7321
    7MPD2    C113962   3.708   4.447  13.327 -0.1941  0.5843  0.7178
    7MPD2    C213963   3.755   4.319  13.288  0.8680 -0.2621 -0.7873
    7MPD2    C313964   3.772   4.218  13.379  0.5920  0.1268 -0.4656
    7MPD2    C413965   3.715   4.230  13.508  0.3057  0.2945  0.5106
    7MPD2    C513966   3.669   4.355  13.546 -0.0139 -0.0133  0.0606
    7MPD2     H13967   3.799   4.313  13.189  0.7514 -2.6896 -0.6879
    7MPD2    H113968   3.722   4.151  13.582 -0.6490  0.0717  0.3694
    7MPD2    H213969   3.630   4.554  13.502  0.4085  0.4663 -1.1625
    7MPD2    H313970   3.640   4.372  13.649 -1.6334  0.8552 -0.5485
    7MPD2     N13971   3.840   4.094  13.335 -0.5347 -0.3426 -0.1906
    7MPD2    H513972   3.856   4.029  13.412 -0.2688 -0.1018 -0.0449
    7MPD2    N113973   3.718   4.550  13.233 -0.0376  0.1996  0.1923
    7MPD2    H713974   3.743   4.522  13.139 -2.6616  1.1531 -0.7888
    8TMC3    C113975   3.984   3.948  13.208 -0.4962  0.1217  0.6430
    8TMC3    C213976   4.076   3.928  13.307  0.3883 -0.4613 -0.4880
    8TMC3    C313977   4.203   3.898  13.263 -0.2000 -0.6038 -0.0317
    8TMC3    C413978   4.013   3.932  13.078  0.9871 -0.6703 -0.2792
    8TMC3    C513979   4.138   3.917  13.042  0.1754 -0.6161 -0.8358
    8TMC3    C613980   4.237   3.892  13.133 -0.5350 -0.0697 -0.3373
    8TMC3     C13981   3.887   4.065  13.217 -0.1137  0.5899 -0.2808
    8TMC3     O13982   3.873   4.122  13.114 -0.2493 -0.3369  0.1511
    8TMC3     H13983   4.063   3.955  13.411  0.7146 -0.2309 -0.5055
    8TMC3    H113984   3.933   3.926  13.005 -0.1650  0.4733  0.9002
    8TMC3    H213985   4.337   3.888  13.091  1.1818  1.3934  3.6116
    8TMC3    C713986   4.174   3.984  12.917 -0.1961  0.2375  0.3576
    8TMC3    C813987   4.292   3.864  13.371 -0.2300  0.2906  0.9883
    8TMC3    O113988   4.284   3.966  12.873 -0.3981 -0.1319  0.3901
    8TMC3    O213989   4.261   3.905  13.484  0.0189 -0.7832  0.4364
    9TMC3    C113990   3.769   0.220  13.003 -0.0229 -0.6304  0.1566
    9TMC3    C213991   3.846   0.142  12.909 -0.0158 -0.0033 -0.8586
    9TMC3    C313992   3.873   0.010  12.927  0.0555  0.2911  0.0015
    9TMC3    C413993   3.714   0.155  13.114 -0.1311 -0.0016 -0.4121
    9TMC3    C513994   3.747   0.021  13.129 -0.0537  0.5049 -0.2034
    9TMC3    C613995   3.824   4.685  13.040 -0.1860  0.8251  0.1689
    9TMC3     C13996   3.723   0.352  12.978 -0.0628 -0.2578 -0.3288
    9TMC3     O13997   3.706   0.426  13.078 -0.3193 -0.0491  0.2453
    9TMC3     H13998   3.901   0.188  12.827  1.5111  2.8781  1.7925
    9TMC3    H113999   3.647   0.206  13.182  1.4069  1.7228 -0.2034
    9TMC3    H214000   3.870   4.593  13.073  0.3081  0.4838 -1.4660
    9TMC3    C714001   3.701   4.684  13.249  0.0423 -0.2792  0.1246
    9TMC3    C814002   3.969   4.677  12.846 -0.4828 -0.2134 -0.9170
    9TMC3    O114003   3.637   4.731  13.342  0.9622  0.1111 -0.8033
    9TMC3    O214004   4.047   0.008  12.780 -0.1237 -0.3983 -0.0523
   10MPD2     C14005   4.230   4.241  12.760  0.6963 -0.0065 -0.1063
   10MPD2    C114006   4.115   4.218  12.828 -0.0412 -0.0226  0.2236
   10MPD2    C214007   4.024   4.317  12.848  0.5141 -0.4230  0.2653
   10MPD2    C314008   4.050   4.446  12.806 -0.1930 -0.2192  0.1519
   10MPD2    C414009   4.171   4.476  12.738  0.0633  0.3607 -0.1212
   10MPD2    C514010   4.246   4.366  12.709 -0.2378 -0.3245  0.6313
   10MPD2     H14011   3.938   4.293  12.910  0.3112  2.6946  1.1732
   10MPD2    H114012   4.191   4.576  12.702 -1.6646 -0.2775 -2.8926
   10MPD2    H214013   4.300   4.159  12.745  1.6657  0.7014  0.5334
   10MPD2    H314014   4.336   4.379  12.651 -0.5877 -1.9670 -0.2780
   10MPD2     N14015   3.953   4.540  12.852  0.1008 -0.1786  0.4584
   10MPD2    H514016   3.868   4.500  12.890  0.6756 -0.7015  1.1851
   10MPD2    N114017   4.088   4.091  12.893 -0.0824  0.3719  0.0732
   10MPD2    H714018   3.999   4.093  12.942 -0.3300  1.2886 -0.4128
   11MPD2     C14019   0.560   3.143  14.326 -0.1810  0.4074 -0.1617
   11MPD2    C114020   0.475   3.209  14.412 -0.4607  0.4109  0.8361
   11MPD2    C214021   0.389   3.297  14.358 -0.3785  0.6378  0.1739
   11MPD2    C314022   0.372   3.322  14.223 -0.2638 -0.1534 -0.8249
   11MPD2    C414023   0.453   3.249  14.139  0.4438 -0.2952  0.5362
   11MPD2    C514024   0.544   3.160  14.191  0.1550  0.3775 -0.1972
   11MPD2     H14025   0.329   3.356  14.427 -1.0139  0.2154 -0.0170
   11MPD2    H114026   0.446   3.257  14.031  1.7835 -1.4509  0.3574
   11MPD2    H214027   0.641   3.076  14.350  0.9164  0.9769 -2.2154
   11MPD2    H314028   0.609   3.108  14.122  1.4707 -0.2909  1.5316
   11MPD2     N14029   0.278   3.411  14.160  0.0274 -0.5757  0.0685
   11MPD2    H514030   0.277   3.409  14.059 -1.1830 -3.6593  0.1316
   11MPD2    N114031   0.473   3.182  14.559  0.1533  0.5250  0.0029
   11MPD2    H714032   0.401   3.226  14.616 -1.1377 -1.9349  0.2998
    1MPD1     C14033   2.555   4.532  16.469  0.3356 -0.5256 -0.2423
    1MPD1    C114034   2.644   4.522  16.571 -0.2995  0.2107 -0.0286
    1MPD1    C214035   2.737   4.620  16.579  0.2537 -0.2723 -0.1382
    1MPD1    C314036   2.751   4.718  16.478 -0.0141  0.3459  0.2086
    1MPD1    C414037   2.663   4.720  16.378  0.1303  0.4433  0.2199
    1MPD1    C514038   2.556   4.634  16.378  0.0083  0.2259 -0.1209
    1MPD1     H14039   2.806   4.613  16.662 -1.5904  0.5354  1.4809
    1MPD1    H114040   2.672   0.065  16.308  0.4737 -0.2557 -0.5660
    1MPD1    H214041   2.476   4.459  16.460 -2.6628  2.7080 -0.2489
    1MPD1    H314042   2.486   4.629  16.295  0.8028  0.7576 -0.8227
    1MPD1     N14043   2.853   0.078  16.468  0.3751 -0.3563 -0.9711
    1MPD1    H514044   2.841   0.143  16.391 -0.1294  0.3577 -0.2832
    1MPD1    N114045   2.635   4.435  16.686 -0.4706 -0.4951  0.8490
    1MPD1    H614046   2.587   4.347  16.667  0.0894 -1.3679  3.4397
    1MPD1    H714047   2.726   4.418  16.731 -0.3305 -0.0753  0.7203
    2MPD1     C14048   3.118   0.852  15.955 -0.2526 -0.3674  1.4595
    2MPD1    C114049   3.216   0.758  15.937 -0.0461 -0.6986  0.3998
    2MPD1    C214050   3.245   0.657  16.035  0.1130  0.7192  0.4763
    2MPD1    C314051   3.150   0.643  16.135  0.8288 -0.2930 -0.3993
    2MPD1    C414052   3.047   0.734  16.148  0.4520  0.2657 -0.0337
    2MPD1    C514053   3.039   0.839  16.064 -0.0170 -0.4209  0.2351
    2MPD1     H14054   3.332   0.594  16.019 -2.0407 -2.1817  0.1203
    2MPD1    H114055   2.980   0.738  16.234 -0.2262  0.6197 -0.5778
    2MPD1    H214056   3.103   0.942  15.896  1.6192 -0.9256  0.1143
    2MPD1    H314057   2.968   0.918  16.086  0.8762  0.4605 -0.0609
    2MPD1     N14058   3.167   0.539  16.227  0.4300 -0.2250 -0.3031
    2MPD1    H514059   3.256   0.491  16.234  0.2698 -0.5456 -0.4837
    2MPD1    N114060   3.310   0.771  15.832 -0.4472  0.0742  0.4611
    2MPD1    H614061   3.339   0.679  15.801 -0.1835 -0.4931  2.4437
    2MPD1    H714062   3.268   0.817  15.751  1.2485 -0.8695 -0.9441
    3TMC3    C114063   3.104   0.394  16.413  0.0020  0.0764  0.3421
    3TMC3    C214064   3.238   0.379  16.444 -0.4681  0.2871 -0.4562
    3TMC3    C314065   3.263   0.270  16.529  0.0025 -0.0814 -0.1525
    3TMC3    C414066   3.003   0.302  16.444 -0.4617  0.9289 -0.2401
    3TMC3    C514067   3.043   0.192  16.516  0.4393  0.8928  0.0119
    3TMC3    C614068   3.171   0.170  16.548 -0.2657  0.1542 -0.4249
    3TMC3     C14069   3.068   0.496  16.312 -0.2760 -0.1021 -0.3182
    3TMC3     O14070   2.946   0.507  16.294 -0.6650 -0.3149 -0.8950
    3TMC3     H14071   3.302   0.463  16.418  1.0531 -0.8178 -0.3231
    3TMC3    H114072   2.900   0.325  16.419  0.1134  1.1589 -2.4865
    3TMC3    H214073   3.207   0.082  16.599  0.7510  0.8630  0.0765
    3TMC3    C714074   2.960   0.084  16.547  0.4442  0.2580  0.5381
    3TMC3    C814075   3.398   0.244  16.566  0.4156 -0.3855 -0.4566
    3TMC3    O114076   2.989   0.021  16.648  0.2586 -0.1585 -0.1586
    3TMC3    O214077   3.440   0.131  16.585 -0.0774  0.1793 -0.7404
    4MPD1     C14078   3.875   0.415  16.534 -0.6301 -0.2115 -0.1799
    4MPD1    C114079   3.794   0.521  16.516 -0.2272 -0.5826  0.0358
    4MPD1    C214080   3.660   0.501  16.520 -0.2966  0.3933  0.4887
    4MPD1    C314081   3.608   0.372  16.548 -0.2434  0.1490 -0.3123
    4MPD1    C414082   3.700   0.271  16.566  0.1905 -0.0761  0.3520
    4MPD1    C514083   3.831   0.293  16.558 -0.8971 -0.6061 -0.5921
    4MPD1     H14084   3.594   0.583  16.494 -1.6730 -0.6846  0.6526
    4MPD1    H114085   3.678   0.165  16.575  1.8737 -0.4911 -0.4152
    4MPD1    H214086   3.983   0.425  16.529 -0.7141  0.6629 -0.2028
    4MPD1    H314087   3.904   0.215  16.574  0.0984  0.8922  2.2461
    4MPD1     N14088   3.469   0.359  16.550  0.2193 -0.4199  0.0579
    4MPD1    H514089   3.420   0.445  16.530  1.7216  0.1473 -1.1364
    4MPD1    N114090   3.844   0.644  16.472 -0.2402  0.4347 -0.0311
    4MPD1    H614091   3.937   0.668  16.507 -0.6216  2.5200 -0.4636
    4MPD1    H714092   3.786   0.727  16.463 -0.6909  0.1054 -0.1355
    1TCq1    O114093   4.084   4.419  11.019  0.1219  0.0977  0.2624
    1TCq1    C114094   4.184   4.444  11.101 -0.1386  0.3052 -0.0863
    1TCq1    O214095   4.172   4.493  11.214  0.3109 -0.0767  0.2110
    1TCq1    C214096   4.286   4.498  11.012 -0.9577 -0.3627 -0.1880
    1TCq1    C314097   4.295   4.447  10.891 -0.1300 -0.7583  0.0880
    1TCq1    C414098   4.403   4.483  10.814  0.5212 -0.4445 -0.1726
    1TCq1    C514099   4.502   4.560  10.864  0.3021  0.1422  0.0203
    1TCq1    C614100   4.481   4.617  10.993 -0.4689  0.2576 -0.5433
    1TCq1    C714101   4.373   4.587  11.067 -0.7754 -0.0683  0.1045
    1TCq1    C814102   4.590   4.691  11.054 -0.7347 -0.4219 -0.3638
    1TCq1    O414103   4.609   4.676  11.172  0.0858 -0.3101  0.0241
    1TCq1    C914104   4.439   4.411  10.695  0.0063 -0.0431  0.6585
    1TCq1    O514105   4.371   4.309  10.664 -0.8450  0.6473 -0.2207
    1TCq1    O614106   4.543   4.439  10.631  0.6709  0.5842  0.2827
    1TCq1    H114107   4.089   4.449  10.926 -0.6049 -0.2870  0.0969
    1TCq1    H214108   4.245   4.359  10.853 -0.9681 -0.0603 -0.4020
    1TCq1    H314109   4.596   4.564  10.810 -0.3655  0.3180 -1.1229
    1TCq1    H414110   4.354   4.646  11.156 -0.0314  0.1340  0.1287
    2MPD1     C14111   0.283   0.224  10.983  0.1212  0.0852 -0.5326
    2MPD1    C114112   0.245   0.173  10.862  0.3386  0.2184  0.4336
    2MPD1    C214113   0.120   0.120  10.854 -0.8112 -0.5810 -0.0656
    2MPD1    C314114   0.048   0.085  10.969 -0.3233 -0.2390  0.2393
    2MPD1    C414115   0.101   0.108  11.094  0.1398 -0.2005 -0.5276
    2MPD1    C514116   0.217   0.183  11.100 -0.2762 -0.1621  0.7378
    2MPD1     H14117   0.091   0.105  10.750  0.8713  1.6004 -0.8467
    2MPD1    H114118   0.055   0.098  11.192 -0.4120 -2.2112 -0.9867
    2MPD1    H214119   0.379   0.274  10.987  0.3987 -0.4097 -0.9485
    2MPD1    H314120   0.249   0.208  11.200 -1.8889  1.9180  0.7239
    2MPD1     N14121   4.660   0.020  10.952  0.0878  0.0087 -0.3366
    2MPD1    H514122   4.625   0.029  10.857  0.3016  0.5957 -0.3611
    2MPD1    N114123   0.309   0.209  10.747  0.2802  0.4735  0.7719
    2MPD1    H614124   0.408   0.204  10.769  0.4593  1.1723  0.1284
    2MPD1    H714125   0.283   0.142  10.675 -0.7688 -0.5558  2.1103
    1TMC1    C114126   2.306   0.474  17.699  0.3869  0.0503 -0.7334
    1TMC1    C214127   2.265   0.528   0.072 -0.1905  0.7228 -0.4287
    1TMC1    C314128   2.180   0.630   0.056  0.5410  0.0449  0.3435
    1TMC1    C414129   2.267   0.515  17.572  0.2708 -1.0959  0.4816
    1TMC1    C514130   2.179   0.619  17.568 -0.6733 -0.4834  0.3719
    1TMC1    C614131   2.134   0.676  17.683  0.6907  0.3501  0.4274
    1TMC1     C14132   2.396   0.358  17.706  0.3626 -0.1812 -1.2815
    1TMC1     O14133   2.451   0.329   0.066  0.0887 -0.1159 -0.3211
    1TMC1     H14134   2.299   0.489   0.167 -1.4633  1.5966  0.3738
    1TMC1    H114135   2.314   0.482  17.480  1.1141  0.9384  0.1925
    1TMC1    H214136   2.070   0.763  17.676  2.6157  1.8762  1.7886
    1TMC1    C714137   2.140   0.664  17.445  0.2059 -0.2507  0.4195
    1TMC1    C814138   2.125   0.689   0.179 -0.1366  0.7360  0.6867
    1TMC1    O114139   2.196   0.633  17.342 -0.2798 -0.3403 -0.5906
    1TMC1    O214140   2.017   0.748   0.190 -0.2858 -0.5695 -0.2286
    1TMC1    O314141   2.003   0.650  17.460 -0.5699 -0.1412 -0.1074
    1TMC1    H314142   1.954   0.670  17.543 -2.3814  0.0474 -1.2084
    1TMC1    O514143   2.226   0.709   0.263 -0.0862 -0.0343  0.0736
    1TMC1    H514144   2.310   0.692   0.216 -0.5730  3.0780 -1.9048
    2MPD1     C14145   2.667   0.006  17.440  0.6743  0.0526  0.0734
    2MPD1    C114146   2.583   0.066  17.348 -0.2953  0.6106  0.1851
    2MPD1    C214147   2.493   0.151  17.408  0.0098 -0.3667 -0.0685
    2MPD1    C314148   2.489   0.179  17.542  1.1425  0.7611 -0.4043
    2MPD1    C414149   2.571   0.121  17.635 -0.1566  0.5732 -0.5926
    2MPD1    C514150   2.665   0.034  17.579 -0.1257 -0.2698 -1.1598
    2MPD1     H14151   2.435   0.214  17.341 -1.0417 -1.9497 -0.6451
    2MPD1    H114152   2.565   0.134  17.743  1.2643 -1.0335 -0.3230
    2MPD1    H214153   2.734   4.666  17.405 -0.6330 -1.9091  1.8909
    2MPD1    H314154   2.740   4.724  17.642 -2.5696 -0.5408  1.5652
    2MPD1     N14155   2.400   0.287  17.585  0.2028 -0.0759  0.1070
    2MPD1    H514156   2.337   0.320  17.511 -0.6074  1.5866  1.5398
    2MPD1    N114157   2.574   0.035  17.206  0.8818 -0.3222 -0.2015
    2MPD1    H614158   2.563   0.112  17.140  2.3119  1.7734  1.9925
    2MPD1    H714159   2.648   4.711  17.175  0.4004  0.0619 -2.1208
    1MPD1     C14160   1.560   3.475  12.946 -0.1308 -0.0454 -0.5140
    1MPD1    C114161   1.556   3.595  13.021 -0.1096  0.9912  0.4856
    1MPD1    C214162   1.551   3.714  12.949 -0.3754 -0.5511 -0.1118
    1MPD1    C314163   1.532   3.712  12.810 -0.4536  0.2614 -0.3719
    1MPD1    C414164   1.520   3.594  12.743 -0.2044 -0.3470  0.4676
    1MPD1    C514165   1.543   3.480  12.807  0.0099  0.0412  0.0172
    1MPD1     H14166   1.557   3.811  12.997 -2.2265 -0.6801  0.3634
    1MPD1    H114167   1.476   3.581  12.645  0.6893  1.0136 -0.1012
    1MPD1    H214168   1.566   3.378  12.995 -0.9118 -0.5366 -1.3698
    1MPD1    H314169   1.536   3.390  12.747  1.3670 -0.1045  0.0804
    1MPD1     N14170   1.509   3.837  12.753  0.3187 -0.7590  0.8467
    1MPD1    H514171   1.505   3.917  12.816  1.1237  0.9136 -1.2238
    1MPD1    N114172   1.594   3.613  13.153 -0.8807 -0.5370 -0.3053
    1MPD1    H614173   1.561   3.532  13.204  0.0636 -1.2679 -0.8521
    1MPD1    H714174   1.553   3.696  13.195  2.0078 -0.3461  2.1137
    2MPD1     C14175   0.169   0.360  11.714  0.0166  0.8167  0.3225
    2MPD1    C114176   0.192   0.289  11.827  0.1017  0.1937 -0.5657
    2MPD1    C214177   0.204   0.148  11.819  0.0777 -0.8093  0.3448
    2MPD1    C314178   0.204   0.088  11.692 -0.2589  0.5597  0.2538
    2MPD1    C414179   0.189   0.165  11.578 -0.4588  0.1464 -0.1144
    2MPD1    C514180   0.177   0.298  11.590 -0.1260 -0.9123 -0.1397
    2MPD1     H14181   0.216   0.094  11.911 -0.3842  1.2097  1.5991
    2MPD1    H114182   0.178   0.125  11.478 -0.9095 -2.1909  0.8763
    2MPD1    H214183   0.159   0.468  11.708  1.6253  1.0215  1.3256
    2MPD1    H314184   0.165   0.357  11.500 -0.7469  0.2036  0.6862
    2MPD1     N14185   0.213   4.683  11.675  0.2676  0.0163 -0.3059
    2MPD1    H514186   0.196   4.656  11.579  0.5099 -0.9522 -0.0752
    2MPD1    N114187   0.191   0.354  11.953 -0.1642 -0.3130 -0.0681
    2MPD1    H614188   0.254   0.319  12.025 -1.0492  1.1419  1.3830
    2MPD1    H714189   0.188   0.455  11.944 -1.0051 -0.3338 -0.0176
    3MPD1     C14190   0.082   3.897  11.098 -0.7549 -0.1820  0.0044
    3MPD1    C114191   0.212   3.878  11.141  0.2996  0.2116 -0.4240
    3MPD1    C214192   0.270   3.961  11.230 -0.2722  0.2399 -0.3326
    3MPD1    C314193   0.190   4.051  11.306 -0.3970  0.4097  0.6879
    3MPD1    C414194   0.056   4.065  11.271  0.2137  0.1228  0.2274
    3MPD1    C514195   0.002   3.984  11.170  0.0824  0.2531  0.5246
    3MPD1     H14196   0.376   3.957  11.254 -0.3601 -1.8172 -0.2681
    3MPD1    H114197   4.727   4.134  11.323 -0.0165  1.7071 -2.1788
    3MPD1    H214198   0.038   3.856  11.009  1.6820 -1.3882 -0.6537
    3MPD1    H314199   4.636   4.004  11.145  0.1973  2.0471  1.4454
    3MPD1     N14200   0.260   4.135  11.394 -0.5033 -0.4076 -0.0270
    3MPD1    H514201   0.361   4.133  11.398 -0.4883  1.7234  1.0068
    3MPD1    N114202   0.297   3.790  11.071  0.2031 -0.1083 -0.0891
    3MPD1    H614203   0.377   3.755  11.123 -0.2285 -0.6837  0.2001
    3MPD1    H714204   0.247   3.707  11.038  2.1149 -0.0030 -3.2303
    4MPD2     C14205   1.201   4.550  12.678 -0.0247  0.2180  0.6587
    4MPD2    C114206   1.303   4.528  12.595  0.1526 -0.7622  0.2693
    4MPD2    C214207   1.315   4.600  12.478  0.2742 -0.2318  0.2497
    4MPD2    C314208   1.219   4.693  12.447 -0.5593  1.5238 -0.6779
    4MPD2    C414209   1.126   4.724  12.534  0.6490 -0.2400 -0.5826
    4MPD2    C514210   1.116   4.656  12.649 -0.3713 -0.1370  0.4393
    4MPD2     H14211   1.405   4.583  12.420 -1.1011 -1.8932 -1.3708
    4MPD2    H114212   1.057   0.069  12.520  2.9843  1.9212  0.5701
    4MPD2    H214213   1.188   4.494  12.770 -0.7460 -0.6257  0.0402
    4MPD2    H314214   1.038   4.681  12.719  1.8942 -0.9020  3.2415
    4MPD2     N14215   1.243   0.024  12.330 -0.2261  0.0472  0.0186
    4MPD2    H514216   1.334   0.003  12.291  0.6747  1.2980  1.4434
    4MPD2    N114217   1.391   4.412  12.617 -0.1740 -0.5928  0.0376
    4MPD2    H714218   1.458   4.396  12.542  1.0131  0.4617  0.8637
    5TMC3    C114219   1.483   4.208  12.703  0.6119  0.5738 -0.2266
    5TMC3    C214220   1.442   4.081  12.691 -0.7559  0.2584 -0.6250
    5TMC3    C314221   1.488   4.004  12.586  0.8978 -1.0756 -0.1716
    5TMC3    C414222   1.577   4.255  12.616 -0.0140  0.0899 -0.1456
    5TMC3    C514223   1.615   4.174  12.507 -0.6280  0.1979 -0.0496
    5TMC3    C614224   1.567   4.051  12.484  0.3166 -0.0201 -0.1972
    5TMC3     C14225   1.378   4.312  12.714 -0.6610  0.0279  0.0349
    5TMC3     O14226   1.293   4.294  12.801 -0.0041  0.1044  0.0071
    5TMC3     H14227   1.364   4.043  12.757 -0.4396  0.6794 -0.0182
    5TMC3    H114228   1.618   4.354  12.629 -0.6797  0.5254 -1.3652
    5TMC3    H214229   1.587   3.985  12.401 -1.0346 -0.0770 -0.4889
    5TMC3    C714230   1.600   4.256  12.387  0.3388 -0.9725 -0.1170
    5TMC3    C814231   1.495   3.862  12.618 -0.1375 -1.1635 -0.3575
    5TMC3    O114232   1.571   4.371  12.414  0.3526  0.1510 -0.5358
    5TMC3    O214233   1.515   3.796  12.516 -0.1511  0.5651  0.2200
    6TMC3    C114234   0.312   4.479  11.713 -0.1666 -0.2522  0.3464
    6TMC3    C214235   0.247   4.426  11.609  0.3692 -0.6582  0.1094
    6TMC3    C314236   0.288   4.303  11.556  0.1840  0.4404  0.2974
    6TMC3    C414237   0.434   4.433  11.744  0.8219 -0.6281 -0.5698
    6TMC3    C514238   0.474   4.309  11.692  0.3803  0.0472  0.1330
    6TMC3    C614239   0.394   4.237  11.603 -0.1315  0.4752  0.2543
    6TMC3     C14240   0.258   4.597  11.774 -0.6933 -0.0023  0.7471
    6TMC3     O14241   0.318   4.632  11.876 -0.2036  0.7401  0.1547
    6TMC3     H14242   0.151   4.467  11.580  0.1841 -1.8150 -0.9229
    6TMC3    H114243   0.489   4.483  11.823  0.1547  0.0597 -0.5453
    6TMC3    H214244   0.412   4.131  11.587  0.3973  0.5860  0.1384
    6TMC3    C714245   0.586   4.239  11.743  0.2034  0.7555 -0.1274
    6TMC3    C814246   0.195   4.234  11.468  0.3675  0.1619 -0.0039
    6TMC3    O114247   0.589   4.114  11.739 -1.0120 -0.3653  0.3229
    6TMC3    O214248   0.086   4.286  11.457  0.1540  0.3051  0.2254
    7MPD2     C14249   1.652   4.380  11.895 -0.3289  0.1264  0.5577
    7MPD2    C114250   1.573   4.446  11.997 -0.0117 -0.2431 -0.9195
    7MPD2    C214251   1.563   4.384  12.120 -1.1135 -0.3235 -0.4917
    7MPD2    C314252   1.622   4.255  12.139  0.2652  0.5240  1.1372
    7MPD2    C414253   1.680   4.188  12.036  0.6017 -0.6204  0.1345
    7MPD2    C514254   1.700   4.253  11.920 -0.2074 -1.0238 -0.7456
    7MPD2     H14255   1.513   4.426  12.207 -1.4797 -2.5362  0.3879
    7MPD2    H114256   1.723   4.089  12.047 -0.5300 -1.2534 -1.0237
    7MPD2    H214257   1.663   4.424  11.797  0.1528  0.1396  0.6209
    7MPD2    H314258   1.750   4.197  11.842  2.5117 -0.8598  0.8962
    7MPD2     N14259   1.627   4.197  12.267  0.2214  0.2817  0.0637
    7MPD2    H514260   1.671   4.106  12.263  2.3401  1.3024  0.5184
    7MPD2    N114261   1.517   4.567  11.974  0.8135 -0.5804  0.7993
    7MPD2    H714262   1.516   4.607  11.881  1.8193 -3.1836 -0.3342
    8TMC3    C114263   1.389   0.005  12.015  0.9330  0.3787  0.2040
    8TMC3    C214264   1.302   4.691  11.925 -0.3257  0.1641  0.3142
    8TMC3    C314265   1.177   0.002  11.926  0.4580  0.6339 -0.5273
    8TMC3    C414266   1.353   0.103  12.110 -0.0282  0.3635 -0.0152
    8TMC3    C514267   1.222   0.131  12.125  0.1396  0.4642  0.5577
    8TMC3    C614268   1.134   0.095  12.024 -0.3401  0.5819 -0.0590
    8TMC3     C14269   1.473   4.653  12.067 -0.1308  0.3222  0.0024
    8TMC3     O14270   1.486   4.660  12.187 -0.1671  0.2476  0.2897
    8TMC3     H14271   1.339   4.638  11.838 -3.4012  1.2253 -1.6229
    8TMC3    H114272   1.433   0.138  12.173 -1.6377 -0.4569  2.4872
    8TMC3    H214273   1.027   0.108  12.034 -0.7730 -2.5914 -0.7648
    8TMC3    C714274   1.158   0.108  12.259  0.7475  0.1772  0.5323
    8TMC3    C814275   1.073   4.643  11.885  0.3078 -0.2614  0.0348
    8TMC3    O114276   1.038   0.124  12.275  0.3685 -0.4185 -0.0158
    8TMC3    O214277   0.955   4.679  11.885 -0.1416  1.0109 -0.0345
    9MPD2     C14278   1.080   4.273  11.871  0.7428 -0.3992 -0.6922
    9MPD2    C114279   1.028   4.399  11.853 -0.3144  0.0499  0.4829
    9MPD2    C214280   0.895   4.405  11.825  0.1528 -0.8126  0.7184
    9MPD2    C314281   0.817   4.298  11.808  1.1170  1.4286 -0.0821
    9MPD2    C414282   0.876   4.175  11.816 -0.2421 -0.4581  0.2611
    9MPD2    C514283   1.004   4.164  11.844  0.3925  0.1712 -0.3329
    9MPD2     H14284   0.841   4.499  11.822  2.0902  0.2130 -1.7667
    9MPD2    H114285   0.823   4.081  11.820 -0.5720 -0.3824 -3.0784
    9MPD2    H214286   1.182   4.254  11.903  0.7217  0.6677  0.0017
    9MPD2    H314287   1.041   4.067  11.876 -1.8620 -0.8690 -0.9397
    9MPD2     N14288   0.680   4.326  11.777  0.8743  0.2370 -0.6557
    9MPD2    H514289   0.664   4.425  11.761 -1.9186  0.6516  4.6246
    9MPD2    N114290   1.117   4.511  11.876  0.3640 -0.3927 -0.3817
    9MPD2    H714291   1.213   4.482  11.895  0.2369 -1.3219 -1.1248
    1MPD1     C14292   1.535   3.562  17.088 -0.3917  0.8895 -0.4978
    1MPD1    C114293   1.416   3.569  17.160  0.3167  0.2464  0.0122
    1MPD1    C214294   1.300   3.551  17.085  0.2690 -0.9344 -0.7590
    1MPD1    C314295   1.298   3.532  16.950 -0.1076 -0.5536  1.2336
    1MPD1    C414296   1.420   3.518  16.886 -0.4151  0.2594 -0.3087
    1MPD1    C514297   1.539   3.537  16.951  0.3626 -0.4983 -0.1801
    1MPD1     H14298   1.203   3.562  17.131  0.8316 -0.8925  0.4099
    1MPD1    H114299   1.430   3.499  16.780  1.3037  1.4631 -0.3542
    1MPD1    H214300   1.630   3.564  17.140 -0.8351 -2.2332  0.4161
    1MPD1    H314301   1.631   3.519  16.897  0.5481 -2.7072  0.8745
    1MPD1     N14302   1.183   3.509  16.871  0.5773  0.2590  0.2462
    1MPD1    H514303   1.195   3.464  16.780  1.8854  0.1783  0.4581
    1MPD1    N114304   1.414   3.599  17.294 -0.4485 -0.1801  0.3240
    1MPD1    H614305   1.485   3.548  17.346 -0.2747 -0.9500 -0.6728
    1MPD1    H714306   1.326   3.561  17.329 -0.9473  1.2376  0.6000
    2TMC2    C114307   0.729   3.496  16.740  0.3130  0.5477  0.1754
    2TMC2    C214308   0.752   3.394  16.648 -0.0054 -0.5678  0.2054
    2TMC2    C314309   0.883   3.356  16.641 -0.0879 -0.3273 -0.4975
    2TMC2    C414310   0.829   3.556  16.818  0.0573 -0.7989 -0.5051
    2TMC2    C514311   0.956   3.509  16.789  0.2272  0.1139 -0.0133
    2TMC2    C614312   0.989   3.408  16.708  0.0681  0.6721 -0.2431
    2TMC2     C14313   0.591   3.519  16.782  0.1367  0.4509  0.1258
    2TMC2     O14314   0.571   3.557  16.899 -0.1727 -0.3266 -0.1333
    2TMC2     H14315   0.676   3.336  16.597  0.2336 -1.0039  0.3419
    2TMC2    H114316   0.800   3.618  16.902 -2.4664 -0.6234 -1.4848
    2TMC2    H214317   1.086   3.359  16.714 -0.7036 -0.5903  2.0074
    2TMC2    C714318   1.053   3.552  16.894 -0.5982 -0.2053  0.5208
    2TMC2    C814319   0.915   3.272  16.527 -0.6299 -0.5552  0.5445
    2TMC2    O114320   1.016   3.622  16.986  0.4119 -0.4228 -0.6956
    2TMC2    O214321   1.013   3.195  16.522  0.4338 -0.4624 -0.1284
    2TMC2    O514322   0.835   3.318  16.426 -0.0877  0.3538  0.4565
    2TMC2    H514323   0.762   3.378  16.451  0.1285  0.8044 -0.0167
    3MPD1     C14324   0.093   3.393  16.744  0.1453  0.2810  0.0371
    3MPD1    C114325   0.149   3.398  16.618  0.4785  0.0218  0.4185
    3MPD1    C214326   0.279   3.432  16.609  0.4016 -0.1962  0.6356
    3MPD1    C314327   0.358   3.472  16.718 -0.2691  0.3276 -0.0844
    3MPD1    C414328   0.295   3.476  16.837  0.0474  0.1886  0.5162
    3MPD1    C514329   0.162   3.436  16.851  0.4396  0.7915  0.4624
    3MPD1     H14330   0.322   3.423  16.510  1.4904 -1.0434  1.1861
    3MPD1    H114331   0.350   3.504  16.926  0.9137  0.7153 -0.1983
    3MPD1    H214332   4.726   3.372  16.762  0.1599  1.0089  0.9639
    3MPD1    H314333   0.124   3.440  16.952 -0.8694 -0.1488  0.0003
    3MPD1     N14334   0.495   3.485  16.689  0.2350  0.2414  0.2727
    3MPD1    H514335   0.534   3.467  16.597  1.6382  0.6114  0.7965
    3MPD1    N114336   0.076   3.352  16.510 -0.1489  0.6365  0.5087
    3MPD1    H614337   0.094   3.419  16.435  0.2180 -0.3885 -0.3207
    3MPD1    H714338   4.714   3.347  16.529 -0.0718  0.0944  0.7595
    1TMC1    C114339   4.359   1.701  14.071 -0.1606 -0.7691  0.5353
    1TMC1    C214340   4.370   1.798  14.163 -0.2359 -0.0895  0.1417
    1TMC1    C314341   4.337   1.767  14.291 -0.5600 -0.4112  0.5469
    1TMC1    C414342   4.313   1.573  14.105 -0.0576 -0.0253 -0.0652
    1TMC1    C514343   4.279   1.545  14.237 -0.0129 -0.2978  0.1299
    1TMC1    C614344   4.295   1.644  14.331  0.3528  0.3442  0.2048
    1TMC1     C14345   4.407   1.733  13.935 -0.4999 -0.5868 -0.7609
    1TMC1     O14346   4.496   1.819  13.931  0.0446  0.2946 -0.0667
    1TMC1     H14347   4.405   1.898  14.139  0.8587 -0.8192 -1.2992
    1TMC1    H114348   4.301   1.496  14.030  0.2632  0.9856 -1.1395
    1TMC1    H214349   4.267   1.624  14.434 -0.5724  0.3357 -0.0525
    1TMC1    C714350   4.241   1.416  14.272  0.2893 -0.3470  0.0622
    1TMC1    C814351   4.418   1.842  14.384  0.1304 -0.1644 -0.6405
    1TMC1    O114352   4.295   1.313  14.229 -0.4245 -0.4371 -0.4726
    1TMC1    O214353   4.540   1.855  14.378 -0.3405  0.1287 -0.5203
    1TMC1    O314354   4.161   1.428  14.383 -0.0821 -0.4815  0.3175
    1TMC1    H314355   4.119   1.516  14.396 -0.1566 -0.2551 -1.5140
    1TMC1    O514356   4.336   1.850  14.493 -0.0295 -0.6591 -0.0225
    1TMC1    H514357   4.245   1.815  14.487  0.0757 -1.1379  1.1250
    2MPD2     C14358   4.528   1.703  13.663 -0.0209 -0.4916 -0.1124
    2MPD2    C114359   4.416   1.632  13.705 -0.2794  1.6903  0.1292
    2MPD2    C214360   4.374   1.531  13.623  0.5230  0.3053  1.0438
    2MPD2    C314361   4.435   1.502  13.498  0.3706 -0.0952  0.4074
    2MPD2    C414362   4.539   1.578  13.455 -0.0048 -0.4269  0.3041
    2MPD2    C514363   4.586   1.672  13.540  0.0062 -0.3259  0.3335
    2MPD2     H14364   4.277   1.485  13.639 -0.2213  0.5664 -2.7059
    2MPD2    H114365   4.587   1.561  13.359  1.3559 -0.0557  0.9112
    2MPD2    H214366   4.570   1.783  13.722  1.2383 -1.2085 -0.0409
    2MPD2    H314367   4.674   1.726  13.506 -0.0188 -1.4430 -1.5106
    2MPD2     N14368   4.374   1.398  13.421  0.9371 -0.2679  0.5375
    2MPD2    H514369   4.303   1.345  13.471 -1.3437  2.0168 -0.2659
    2MPD2    N114370   4.366   1.645  13.834  0.6342 -0.3347  0.1721
    2MPD2    H714371   4.293   1.579  13.860  0.8819  0.0121  1.7328
    3TCq1    O114372   4.345   0.983  12.878 -0.4971 -0.5025 -0.1245
    3TCq1    C114373   4.382   1.098  12.929  0.1256  0.3481  0.2415
    3TCq1    O214374   4.464   1.183  12.894  0.3060 -0.3927  0.0781
    3TCq1    C214375   4.330   1.106  13.062  0.2856  0.0089  0.5462
    3TCq1    C314376   4.195   1.098  13.074 -0.3966 -0.0302  0.1762
    3TCq1    C414377   4.130   1.170  13.171 -0.1011 -0.0628  0.1337
    3TCq1    C514378   4.201   1.259  13.243 -0.1190 -0.0655  0.3201
    3TCq1    C614379   4.335   1.252  13.236 -0.1803  0.0443 -0.5190
    3TCq1    C714380   4.400   1.178  13.142  0.3173 -0.0677 -0.1936
    3TCq1    C814381   4.412   1.363  13.297  0.5184  0.5620 -0.3854
    3TCq1    O414382   4.508   1.392  13.224 -0.0507 -0.0747 -0.1138
    3TCq1    C914383   3.993   1.157  13.187  0.8995 -0.1911 -0.2322
    3TCq1    O514384   3.941   1.245  13.256  0.3576  0.0075  0.0741
    3TCq1    O614385   3.943   1.054  13.139  0.0200  0.2768 -0.3836
    3TCq1    H114386   4.309   0.918  12.942  0.1552  0.2569  1.0031
    3TCq1    H214387   4.155   1.028  13.001 -3.5206  0.4167  1.4314
    3TCq1    H314388   4.153   1.337  13.301 -2.5172 -0.4888 -1.0932
    3TCq1    H414389   4.507   1.188  13.124  0.1820  0.4087 -0.7107
    1MPD2     C14390   3.094   3.102  14.544  0.2305 -0.0880  0.6815
    1MPD2    C114391   3.114   2.990  14.619  0.6852 -0.3067  0.7496
    1MPD2    C214392   3.225   2.996  14.697  0.0907 -0.4153 -0.0047
    1MPD2    C314393   3.322   3.098  14.681  0.8543 -0.1251 -0.1650
    1MPD2    C414394   3.294   3.213  14.615 -0.4992 -0.4649 -0.2504
    1MPD2    C514395   3.183   3.212  14.534 -0.2216 -0.0178 -0.2622
    1MPD2     H14396   3.250   2.927  14.777 -2.0491 -2.6091 -1.2126
    1MPD2    H114397   3.353   3.304  14.608 -0.6299 -0.5160 -1.9636
    1MPD2    H214398   2.999   3.112  14.492  1.2293 -1.0035 -1.3345
    1MPD2    H314399   3.165   3.299  14.473  0.7023  0.3912  0.0526
    1MPD2     N14400   3.443   3.080  14.751  0.2915  0.4881  0.2344
    1MPD2    H514401   3.449   2.992  14.802  0.1910 -0.4633 -1.3739
    1MPD2    N114402   3.018   2.881  14.637  0.2392 -0.2851  0.4086
    1MPD2    H714403   2.932   2.879  14.583  2.1264  1.1958 -2.6710
    2TMC3    C114404   2.905   2.722  14.771  0.7015 -0.4846  0.4066
    2TMC3    C214405   2.934   2.617  14.845  0.5146 -0.0720  0.5935
    2TMC3    C314406   2.863   2.594  14.956 -0.6537  0.3110  0.5907
    2TMC3    C414407   2.809   2.813  14.808  0.4314  0.1202 -1.0969
    2TMC3    C514408   2.732   2.783  14.918  0.5511  0.4621 -0.4727
    2TMC3    C614409   2.758   2.671  14.986 -0.4024  0.1186 -0.2927
    2TMC3     C14410   3.031   2.774  14.725 -0.0785 -0.8818  0.2659
    2TMC3     O14411   3.129   2.733  14.785 -0.2336 -0.8059  0.1293
    2TMC3     H14412   3.005   2.541  14.816 -0.7025 -1.6797  1.8218
    2TMC3    H114413   2.797   2.902  14.748  0.4942  1.4108  0.7869
    2TMC3    H214414   2.701   2.645  15.075  0.8668 -0.7895  0.2524
    2TMC3    C714415   2.647   2.888  14.979 -0.1791 -0.1925  0.2553
    2TMC3    C814416   2.959   2.566  15.068 -0.4623  0.3155 -0.5658
    2TMC3    O114417   2.557   2.855  15.049  0.2199  0.2483 -0.2455
    2TMC3    O214418   2.919   2.572  15.185 -0.1365 -0.3704  0.8616
    3TCq1    O114419   2.712   4.078  14.510  0.8640 -0.1347  0.4977
    3TCq1    C114420   2.651   4.021  14.617  0.1547  0.7250 -0.0756
    3TCq1    O214421   2.544   4.047  14.669 -0.0221 -0.5339 -0.3940
    3TCq1    C214422   2.712   3.891  14.627  0.1518 -0.6107  0.4156
    3TCq1    C314423   2.837   3.897  14.674 -0.1588 -0.0415 -0.0442
    3TCq1    C414424   2.883   3.798  14.760  0.7100  0.3913  0.0215
    3TCq1    C514425   2.806   3.684  14.780 -0.2089  0.5044 -0.5078
    3TCq1    C614426   2.677   3.688  14.735 -0.3249  0.2196  0.9267
    3TCq1    C714427   2.626   3.795  14.671  0.7030  0.2517 -0.3487
    3TCq1    C814428   2.580   3.591  14.791 -0.7114 -0.1174 -0.1383
    3TCq1    O414429   2.486   3.639  14.855 -0.2094 -0.5194 -0.1745
    3TCq1    C914430   3.019   3.803  14.805  0.7807  0.9753  0.3438
    3TCq1    O514431   3.071   3.697  14.848 -0.5208  0.6410  0.0611
    3TCq1    O614432   3.092   3.895  14.762 -0.0009 -0.3473  0.2491
    3TCq1    H114433   2.783   4.016  14.483  0.6999 -1.0061  2.0019
    3TCq1    H214434   2.899   3.981  14.646  2.4657 -1.4610  1.5343
    3TCq1    H314435   2.859   3.601  14.826  1.0842  1.8580  0.4466
    3TCq1    H414436   2.520   3.806  14.651  1.1316  2.5686 -1.3836
    4MPD2     C14437   2.456   3.362  14.928 -0.6447 -0.9361 -0.7228
    4MPD2    C114438   2.570   3.352  14.853  0.7020  0.0114 -0.2755
    4MPD2    C214439   2.647   3.237  14.851  0.6308 -0.3578 -0.2941
    4MPD2    C314440   2.605   3.129  14.922 -0.9352 -0.0119 -0.2553
    4MPD2    C414441   2.488   3.139  14.994 -0.6970  0.2981 -0.7562
    4MPD2    C514442   2.414   3.253  14.992 -0.2437 -0.2496 -0.0812
    4MPD2     H14443   2.730   3.232  14.782 -0.3341 -0.2714 -1.4457
    4MPD2    H114444   2.464   3.063  15.068  0.7362  0.1939 -0.4000
    4MPD2    H214445   2.390   3.448  14.934 -0.0106 -0.5003  0.1105
    4MPD2    H314446   2.319   3.257  15.045  1.1136  0.8661  2.2857
    4MPD2     N14447   2.676   3.005  14.923 -0.2437  0.1147  0.6616
    4MPD2    H514448   2.764   3.018  14.873 -0.7887  0.0243 -0.3161
    4MPD2    N114449   2.629   3.464  14.785 -0.2781  0.0100  0.3810
    4MPD2    H714450   2.715   3.450  14.734  0.6609 -3.4587  2.8873
    5TMC2    C114451   3.662   2.890  14.950  0.4000  0.0411  0.1148
    5TMC2    C214452   3.694   2.965  15.059 -0.0083  0.2658 -0.0850
    5TMC2    C314453   3.722   3.095  15.037 -0.1452  0.0414  0.1106
    5TMC2    C414454   3.644   2.946  14.830  0.0788 -0.1567  0.2002
    5TMC2    C514455   3.658   3.080  14.816 -0.0459 -0.5948 -0.3190
    5TMC2    C614456   3.699   3.156  14.919  0.0058 -0.0546  0.1348
    5TMC2     C14457   3.554   2.797  14.970  0.1751  0.3882 -0.3176
    5TMC2     O14458   3.466   2.810  14.882 -0.3543  0.4886 -0.3577
    5TMC2     H14459   3.716   2.921  15.156  0.9435 -0.2488 -0.5466
    5TMC2    H114460   3.620   2.891  14.741  0.8914 -2.1032  1.1762
    5TMC2    H214461   3.700   3.263  14.901  0.2316 -0.1497 -0.4103
    5TMC2    C714462   3.558   3.150  14.744  0.8361  1.1565  0.2917
    5TMC2    C814463   3.780   3.187  15.140 -0.3167  0.9696 -0.8216
    5TMC2    O114464   3.583   3.264  14.706 -0.5761  0.0038  0.5611
    5TMC2    O214465   3.806   3.302  15.100  0.5898  0.2170  0.5938
    5TMC2    O514466   3.870   3.115  15.210 -0.2905 -0.2830  0.3237
    5TMC2    H514467   3.887   3.022  15.184  1.9262  0.1920  0.0680
    6MPD2     C14468   3.203   2.520  15.231 -0.1165 -0.5879 -0.1218
    6MPD2    C114469   3.205   2.575  15.098  0.2796 -0.0655  0.7237
    6MPD2    C214470   3.320   2.627  15.040  0.1117  0.4383 -0.5209
    6MPD2    C314471   3.430   2.647  15.124  0.0905 -0.1030  0.5604
    6MPD2    C414472   3.433   2.579  15.249 -0.0101  0.1177  0.1119
    6MPD2    C514473   3.325   2.520  15.306 -1.0792 -0.0916  0.6024
    6MPD2     H14474   3.307   2.674  14.944  1.4565  0.1652 -0.8405
    6MPD2    H114475   3.525   2.581  15.306 -1.1508  1.2404  1.9171
    6MPD2    H214476   3.113   2.480  15.276  0.5027 -2.0816 -0.2035
    6MPD2    H314477   3.327   2.490  15.410 -1.2937  2.9795  1.4861
    6MPD2     N14478   3.548   2.729  15.092  0.0793 -0.5069  0.1076
    6MPD2    H514479   3.615   2.747  15.166 -0.0702 -1.1715  0.4043
    6MPD2    N114480   3.084   2.583  15.022 -0.1375 -0.3839  0.2654
    6MPD2    H714481   3.093   2.635  14.935  0.9298 -0.4659  0.3273
  945NH4     N114482   4.548   0.251   0.473  0.1744 -0.3399  0.3106
  945NH4     H214483   4.610   0.190   0.530  1.5964 -1.0987 -2.0457
  945NH4     H314484   4.603   0.314   0.410 -1.2253  0.7473  0.1720
  945NH4     H414485   4.495   0.314   0.536 -0.4425 -0.6582  0.1049
  945NH4     H514486   4.492   0.182   0.420 -2.0582  1.9604 -0.3208
  946SOD     NA14487   1.624   3.496  13.974 -0.3745  0.0593 -0.4117
  947SOD     NA14488   3.276   3.725  14.780 -0.0752 -0.2667  0.0905
  948SOD     NA14489   0.248   4.083  14.381 -0.4990  0.0147 -0.1498
  949SOD     NA14490   0.432   1.439  16.990 -0.1268  0.1188  0.4408
  950SOD     NA14491   4.487   4.354  11.781  0.6053 -0.1744  0.2756
  951SOD     NA14492   4.192   4.246  10.560 -0.0329 -0.8302  0.0141
  952SOD     NA14493   1.573   4.638  13.283  0.3089  0.1395 -0.6434
  953SOL     OW14494   1.074   3.883   6.248 -0.1364 -0.0565 -0.7728
  953SOL    HW114495   1.140   3.868   6.181 -0.2328 -1.5015 -0.5403
  953SOL    HW214496   1.005   3.927   6.198 -1.0663  0.8503  1.2916
  954SOL     OW14497   2.723   4.049   7.160  0.4494  0.1115 -0.2507
  954SOL    HW114498   2.749   3.967   7.117  1.9515 -0.3958  1.6050
  954SOL    HW214499   2.643   4.058   7.109  0.2502  3.1617  0.5845
  955SOL     OW14500   4.362   1.144   5.442  0.6721 -0.4136 -0.5451
  955SOL    HW114501   4.275   1.148   5.481  0.6539 -0.5840 -0.5684
  955SOL    HW214502   4.368   1.052   5.417  2.8530 -0.4848  0.1995
  956SOL     OW14503   3.707   4.476   6.189 -0.7220 -0.1449  0.1106
  956SOL    HW114504   3.798   4.449   6.177 -0.4060  0.6968  0.5905
  956SOL    HW214505   3.701   4.512   6.277  0.1866 -0.3425  0.2489
  957SOL     OW14506   1.194   1.397  11.534  0.0158  0.2262  0.3504
  957SOL    HW114507   1.147   1.368  11.456  1.0859 -0.6497  0.0345
  957SOL    HW214508   1.270   1.340  11.527  0.7006  1.2069 -0.1593
  958SOL     OW14509   1.173   3.165   6.147  0.1937 -1.1507 -0.0968
  958SOL    HW114510   1.138   3.120   6.070 -0.7704 -0.4523 -0.0689
  958SOL    HW214511   1.229   3.093   6.178  3.0657  0.3852 -1.7201
  959SOL     OW14512   2.090   3.586   4.791  0.0122  0.0441 -0.5892
  959SOL    HW114513   2.181   3.592   4.820 -0.6142 -0.2839  1.4632
  959SOL    HW214514   2.081   3.658   4.729 -2.6535  0.6332  0.4672
  960SOL     OW14515   3.317   1.377   9.588 -0.1965  0.3287 -0.4938
  960SOL    HW114516   3.275   1.301   9.628 -2.0785  0.7383 -1.6910
  960SOL    HW214517   3.320   1.348   9.497  0.5823 -0.2125 -0.2975
  961SOL     OW14518   3.964   0.691   5.886 -0.2005 -0.5499  0.0031
  961SOL    HW114519   4.051   0.710   5.852  0.2668 -2.1958  0.2970
  961SOL    HW214520   3.952   0.596   5.880 -1.3822 -0.3215 -1.2451
  962SOL     OW14521   3.332   1.818   9.401 -0.3327 -0.3378 -0.2534
  962SOL    HW114522   3.374   1.800   9.486  0.2388  1.9547 -0.0607
  962SOL    HW214523   3.389   1.887   9.367  3.4861 -2.8259  1.0248
  963SOL     OW14524   0.313   3.386  14.697  0.3322  0.6118  0.0326
  963SOL    HW114525   0.266   3.417  14.775 -1.5327 -0.0386 -0.8177
  963SOL    HW214526   0.288   3.456  14.637 -0.9088 -0.1650 -0.3500
  964SOL     OW14527   4.623   1.153   5.169  0.2009 -0.2037 -0.0771
  964SOL    HW114528   4.552   1.144   5.106  0.8548 -3.3946 -0.3632
  964SOL    HW214529   4.645   1.246   5.166  0.2046 -0.1421  1.5821
  965SOL     OW14530   1.333   0.332   8.379 -0.0552  0.3355 -0.0090
  965SOL    HW114531   1.296   0.418   8.397  0.9794  0.3733  1.9134
  965SOL    HW214532   1.366   0.317   8.468  0.7297 -3.3468 -0.8894
  966SOL     OW14533   0.250   0.999   5.429 -0.4872  0.2374  0.4319
  966SOL    HW114534   0.336   1.004   5.471 -0.4401 -2.0929  0.6545
  966SOL    HW214535   0.250   1.057   5.353  1.0164 -2.2944 -1.5090
  967SOL     OW14536   0.051   4.596  16.580  0.4194  0.2270  1.2676
  967SOL    HW114537   0.127   4.654  16.581  2.0207 -1.8943  2.0337
  967SOL    HW214538   0.006   4.652  16.516  0.5079  0.9153  1.8104
  968SOL     OW14539   3.988   3.998   8.421  0.2329  0.2219  0.2858
  968SOL    HW114540   3.929   3.957   8.485  1.1690 -1.4832  0.0761
  968SOL    HW214541   3.995   3.934   8.350  1.4208 -0.3451  0.9177
  969SOL     OW14542   4.090   1.544   6.620  0.2877 -0.0700  0.8294
  969SOL    HW114543   4.135   1.625   6.646 -1.1767  0.9071  0.2995
  969SOL    HW214544   4.001   1.576   6.637 -0.7477 -1.6895 -1.6205
  970SOL     OW14545   1.061   2.133   1.836  0.5193 -0.2673 -0.1049
  970SOL    HW114546   1.116   2.057   1.820  2.2508  0.8830  0.3282
  970SOL    HW214547   1.079   2.148   1.929  1.6385 -0.8542 -0.2326
  971SOL     OW14548   2.985   3.154   7.652 -0.7549  0.8654 -0.3056
  971SOL    HW114549   3.038   3.082   7.688 -0.5288  0.1222 -2.1095
  971SOL    HW214550   2.993   3.123   7.561 -1.0476 -1.1391  0.3512
  972SOL     OW14551   2.187   4.002   8.326  0.3999  0.0454 -0.3014
  972SOL    HW114552   2.245   3.963   8.391 -1.5126 -0.3972  1.1070
  972SOL    HW214553   2.104   3.998   8.373 -0.6372  1.2358 -2.0427
  973SOL     OW14554   0.661   0.759   2.553  0.3961 -0.2932 -0.1475
  973SOL    HW114555   0.659   0.754   2.457 -3.0757  2.1150 -0.2112
  973SOL    HW214556   0.670   0.666   2.572  1.4888 -0.2597 -0.4819
  974SOL     OW14557   3.359   3.203  11.295 -0.0952  0.0314  0.3754
  974SOL    HW114558   3.288   3.143  11.317  0.1015 -0.7292 -1.0243
  974SOL    HW214559   3.307   3.267  11.246  1.1396  0.2581 -0.6363
  975SOL     OW14560   3.693   2.925   7.055 -0.2052  0.2218  0.3150
  975SOL    HW114561   3.747   2.887   7.125 -1.0297 -0.6378  0.4939
  975SOL    HW214562   3.634   2.982   7.104  1.1785  0.1210  2.0863
  976SOL     OW14563   2.901   3.194   7.111  0.2950  0.2413  0.3778
  976SOL    HW114564   2.920   3.255   7.183  0.4997  0.0233  0.5118
  976SOL    HW214565   2.810   3.178   7.133 -0.0772  0.2667 -1.1685
  977SOL     OW14566   4.583   4.324   8.553  0.3751 -0.3085  0.3738
  977SOL    HW114567   4.605   4.403   8.504  0.6078 -0.5507  0.0868
  977SOL    HW214568   4.628   4.260   8.497  2.7397 -0.7695  2.7905
  978SOL     OW14569   4.363   1.238   9.418 -0.3029 -0.4267  0.2609
  978SOL    HW114570   4.273   1.261   9.398  0.1140  0.0374 -1.0734
  978SOL    HW214571   4.360   1.218   9.511 -0.6848  1.9794  0.7759
  979SOL     OW14572   2.072   4.113   4.581  0.3820  0.1491  0.1666
  979SOL    HW114573   2.076   4.209   4.584  2.6847  0.1233 -1.9630
  979SOL    HW214574   1.996   4.087   4.633  0.2915  1.2960  0.6046
  980SOL     OW14575   2.549   3.640   1.782 -0.4575 -0.0172 -0.2112
  980SOL    HW114576   2.596   3.581   1.842 -1.5306 -1.1319 -0.4720
  980SOL    HW214577   2.592   3.722   1.807 -1.5345  1.0129 -1.7532
  981SOL     OW14578   2.141   2.411   7.782  0.3690  0.1355  0.1554
  981SOL    HW114579   2.204   2.358   7.831  0.5773 -0.4192 -0.7140
  981SOL    HW214580   2.115   2.464   7.857  1.8249 -1.3711  1.7123
  982SOL     OW14581   4.085   0.739   6.160 -0.2725  0.9593 -0.2910
  982SOL    HW114582   4.070   0.749   6.066 -1.4798 -1.0147 -0.3156
  982SOL    HW214583   4.088   0.643   6.163  0.7968  1.0093  0.4518
  983SOL     OW14584   3.152   3.177   8.794 -0.4503 -0.1128 -0.7175
  983SOL    HW114585   3.223   3.140   8.846 -0.6840  0.2673 -0.1331
  983SOL    HW214586   3.176   3.270   8.796 -0.2788 -0.1808  0.3544
  984SOL     OW14587   0.309   1.266   5.736  0.0068 -0.4221  0.1320
  984SOL    HW114588   0.403   1.250   5.737 -0.0056 -0.6795 -2.5497
  984SOL    HW214589   0.289   1.254   5.829 -0.4059 -0.0359  0.0950
  985SOL     OW14590   0.752   1.329   8.557  0.9200 -0.3773  0.4197
  985SOL    HW114591   0.695   1.310   8.632  0.1464 -1.6530 -0.4856
  985SOL    HW214592   0.704   1.396   8.508 -0.5921 -1.0929  0.9083
  986SOL     OW14593   4.269   1.181   4.605  0.3861  0.0900  0.0379
  986SOL    HW114594   4.263   1.242   4.679  0.9993  1.3582 -0.9492
  986SOL    HW214595   4.331   1.118   4.641 -1.0940 -1.3013  0.1166
  987SOL     OW14596   3.666   1.747   8.691 -0.3126 -0.1399  0.4883
  987SOL    HW114597   3.655   1.659   8.656  0.1922 -0.5441  1.3444
  987SOL    HW214598   3.580   1.789   8.688 -0.7277 -1.0899 -1.4664
  988SOL     OW14599   1.888   2.272   4.166  0.4279  0.1175  0.2743
  988SOL    HW114600   1.967   2.257   4.218  0.9863  1.0114 -0.3105
  988SOL    HW214601   1.856   2.333   4.232 -1.7413  0.2451 -0.8934
  989SOL     OW14602   4.419   2.788  11.066 -0.6054  0.7817  0.1155
  989SOL    HW114603   4.448   2.878  11.086  0.5086  0.1508  1.3811
  989SOL    HW214604   4.381   2.790  10.978 -0.2838  1.0931 -0.0187
  990SOL     OW14605   0.230   0.637  10.467 -0.3536 -0.4301 -0.0412
  990SOL    HW114606   0.138   0.636  10.439 -0.2966 -3.8634 -0.0775
  990SOL    HW214607   0.215   0.675  10.553 -0.0728  1.6654 -0.9045
  991SOL     OW14608   4.534   4.328   9.057  0.0152 -0.1280  0.4321
  991SOL    HW114609   4.520   4.423   9.056  0.5657 -0.0588 -0.8272
  991SOL    HW214610   4.614   4.318   9.109  0.7851  1.1239 -0.5268
  992SOL     OW14611   2.089   0.049   8.860  0.4444  0.2828 -0.3461
  992SOL    HW114612   2.005   0.091   8.843  0.0908  0.5807  2.0879
  992SOL    HW214613   2.064   4.713   8.916 -0.7597 -0.4355 -1.8336
  993SOL     OW14614   3.377   0.888  16.255  0.1104 -0.7129  0.3685
  993SOL    HW114615   3.305   0.932  16.210 -0.5007  0.5923  2.6332
  993SOL    HW214616   3.452   0.897  16.197 -0.2564 -0.3320 -0.0461
  994SOL     OW14617   4.613   2.865   7.348  0.3362 -0.0661 -0.2104
  994SOL    HW114618   4.701   2.903   7.350  0.0404  0.4472  2.4691
  994SOL    HW214619   4.565   2.938   7.309 -2.0301 -2.4856 -1.8749
  995SOL     OW14620   1.733   3.104   2.773 -0.3459  0.0847 -0.3357
  995SOL    HW114621   1.767   3.055   2.849  0.6765 -0.8410 -1.3925
  995SOL    HW214622   1.660   3.153   2.812 -0.6808 -0.0790 -0.7569
  996SOL     OW14623   2.193   2.892   2.508 -0.1685 -0.1573 -0.5683
  996SOL    HW114624   2.171   2.945   2.585  0.9630  1.0377 -1.0761
  996SOL    HW214625   2.227   2.811   2.545 -1.0722 -0.1772  0.2079
  997SOL     OW14626   2.701   3.570  11.087 -0.7363  0.8138 -0.2883
  997SOL    HW114627   2.635   3.582  11.155 -1.2445  0.7887 -0.7784
  997SOL    HW214628   2.651   3.535  11.014  2.8729 -2.1372 -1.3681
  998SOL     OW14629   2.832   3.295   4.935  0.3722 -0.4292  0.1288
  998SOL    HW114630   2.871   3.327   5.016  1.9642  0.8409 -1.1487
  998SOL    HW214631   2.876   3.211   4.919  0.4577 -0.3051 -0.2767
  999SOL     OW14632   4.660   1.040   4.343 -0.0602 -0.1112  0.5503
  999SOL    HW114633   4.733   1.099   4.363  0.8654 -0.8183 -0.7829
  999SOL    HW214634   4.691   0.991   4.267  3.3805  1.6624  0.8262
 1000SOL     OW14635   1.909   1.166   8.549  0.5144  0.2770  0.2908
 1000SOL    HW114636   1.951   1.251   8.534  1.0740 -0.1054 -0.3528
 1000SOL    HW214637   1.924   1.123   8.465  0.5979  0.1291  0.3813
 1001SOL     OW14638   0.637   4.166   2.304 -1.1906  0.3091 -0.2653
 1001SOL    HW114639   0.690   4.126   2.235 -0.5208 -1.1500  1.0985
 1001SOL    HW214640   0.693   4.206   2.370  0.9347 -1.5913 -0.9194
 1002SOL     OW14641   2.206   3.429   1.672 -0.0464  0.0638  0.2789
 1002SOL    HW114642   2.295   3.401   1.694  0.4133  0.4124 -1.0827
 1002SOL    HW214643   2.165   3.351   1.635 -0.1237  0.6951 -0.9880
 1003SOL     OW14644   1.199   0.204   9.812 -0.3249  0.0637 -0.1276
 1003SOL    HW114645   1.259   0.129   9.817 -0.2529 -0.0613 -2.8117
 1003SOL    HW214646   1.248   0.273   9.767 -1.1723  1.7769  1.5856
 1004SOL     OW14647   0.731   2.011  11.776 -0.1494  0.3003  0.0976
 1004SOL    HW114648   0.646   1.999  11.819  1.3105 -0.2559  2.8529
 1004SOL    HW214649   0.703   2.018  11.685 -1.7920 -1.7433  0.4453
 1005SOL     OW14650   4.111   3.785   8.717  0.1365  0.0601 -0.8035
 1005SOL    HW114651   4.052   3.791   8.792 -0.4091  0.7439 -1.2841
 1005SOL    HW214652   4.048   3.796   8.645  1.1223  1.7190 -1.4044
 1006SOL     OW14653   4.080   3.606   3.922  0.0987  0.4476  0.5215
 1006SOL    HW114654   4.149   3.626   3.986 -0.7468 -0.6277  1.7470
 1006SOL    HW214655   4.100   3.517   3.892  3.3785  1.2860  0.1564
 1007SOL     OW14656   3.568   2.913  11.825  0.4747  0.2727 -0.2395
 1007SOL    HW114657   3.573   2.819  11.804 -4.1566 -0.0483  0.1833
 1007SOL    HW214658   3.605   2.964  11.753 -2.5635  0.1267 -1.9159
 1008SOL     OW14659   1.783   3.550   6.473  0.1728  0.0856 -0.1106
 1008SOL    HW114660   1.690   3.571   6.468  0.5275  1.9197  0.9779
 1008SOL    HW214661   1.798   3.591   6.558 -1.6798 -0.9619  0.7009
 1009SOL     OW14662   3.098   0.173   1.980 -0.7492 -0.0638 -0.9043
 1009SOL    HW114663   3.089   0.179   2.075 -1.5585 -0.8379 -0.9268
 1009SOL    HW214664   3.116   0.079   1.973  0.2864 -0.0247  1.2986
 1010SOL     OW14665   0.700   4.191   0.681 -0.0197  0.2752 -0.2276
 1010SOL    HW114666   0.744   4.177   0.765 -0.7198 -0.3999  0.0218
 1010SOL    HW214667   0.618   4.142   0.688  0.0347 -0.0036 -1.5067
 1011SOL     OW14668   1.489   4.245   8.806  0.4027  0.1971 -0.3080
 1011SOL    HW114669   1.524   4.262   8.719 -1.0884  3.0190 -0.3483
 1011SOL    HW214670   1.528   4.317   8.854 -1.5715 -0.1888  1.9055
 1012SOL     OW14671   4.412   4.572   4.760  0.2169  0.0301  0.4054
 1012SOL    HW114672   4.321   4.549   4.778  0.3099 -1.0957 -0.5628
 1012SOL    HW214673   4.432   4.632   4.832 -1.8434  0.2621  0.7845
 1013SOL     OW14674   1.626   2.806   6.507  0.1098 -0.5404  0.0419
 1013SOL    HW114675   1.633   2.885   6.561  2.6994 -1.9313  1.7292
 1013SOL    HW214676   1.620   2.846   6.420  2.3187 -0.6111 -0.1510
 1014SOL     OW14677   0.507   1.187   4.158 -0.3344 -0.2152  0.5114
 1014SOL    HW114678   0.530   1.094   4.162  1.6928  0.2430 -0.6593
 1014SOL    HW214679   0.421   1.185   4.115 -0.0441  1.0887 -0.1200
 1015SOL     OW14680   0.227   0.056   6.902  0.0003 -0.0155 -0.0549
 1015SOL    HW114681   0.150   0.112   6.895  0.8748  1.1548 -0.3625
 1015SOL    HW214682   0.268   0.063   6.815  3.6504 -2.1845  1.5042
 1016SOL     OW14683   3.482   4.643   7.952 -0.4575  0.1093 -0.3771
 1016SOL    HW114684   3.519   4.638   8.040 -1.2419 -1.6989 -0.1360
 1016SOL    HW214685   3.477   4.737   7.938  0.4655  0.4156  1.3034
 1017SOL     OW14686   2.511   0.633   3.445 -0.0871 -0.7705  0.0285
 1017SOL    HW114687   2.423   0.643   3.407  0.2231  0.4989 -0.3590
 1017SOL    HW214688   2.502   0.540   3.467  1.1409 -0.9447 -0.2186
 1018SOL     OW14689   1.451   3.230  17.171 -0.0118  0.4672 -0.2474
 1018SOL    HW114690   1.497   3.289  17.231  1.6041  0.4050 -1.3997
 1018SOL    HW214691   1.382   3.186  17.219 -0.8560  2.2106  0.1520
 1019SOL     OW14692   4.037   0.087   6.949 -0.2898 -0.4750  0.8247
 1019SOL    HW114693   3.992   0.153   7.003  1.5652 -0.3954  2.2627
 1019SOL    HW214694   4.034   0.011   7.006  2.6684 -0.0328  1.5732
 1020SOL     OW14695   3.632   3.269  13.142  0.3005 -0.5906 -0.3442
 1020SOL    HW114696   3.542   3.292  13.166 -0.2402  0.6337 -3.4832
 1020SOL    HW214697   3.679   3.331  13.197 -2.5312  0.0979  1.3112
 1021SOL     OW14698   1.617   0.430   8.346 -0.4224  0.2439 -0.3867
 1021SOL    HW114699   1.584   0.370   8.413 -1.6360 -0.3932 -1.5479
 1021SOL    HW214700   1.554   0.500   8.363 -0.7324  0.0766 -0.8596
 1022SOL     OW14701   2.207   1.794  17.660 -0.5159  0.0656 -0.6614
 1022SOL    HW114702   2.250   1.829  17.738 -0.3214 -1.8690  0.1038
 1022SOL    HW214703   2.146   1.865  17.641 -1.2956 -0.0778  1.2877
 1023SOL     OW14704   2.135   3.527   7.029  0.4273  0.1790  0.5469
 1023SOL    HW114705   2.211   3.586   7.027 -0.0298  0.7588  0.1181
 1023SOL    HW214706   2.194   3.454   7.012 -0.1642 -0.9215  3.1739
 1024SOL     OW14707   3.601   0.789   7.710  0.3013  0.6223 -0.1891
 1024SOL    HW114708   3.629   0.777   7.801 -1.6053  2.4078  0.6303
 1024SOL    HW214709   3.655   0.862   7.680  3.1012 -2.2657 -2.1778
 1025SOL     OW14710   0.267   4.425   2.778  0.5026  0.4222  0.1006
 1025SOL    HW114711   0.259   4.478   2.856  0.6092 -0.0255  0.4157
 1025SOL    HW214712   0.218   4.474   2.711  0.2425  1.2261  0.8901
 1026SOL     OW14713   1.799   2.881   1.592  0.2224 -0.4674 -0.5963
 1026SOL    HW114714   1.884   2.837   1.597  0.4591  0.3068  2.1851
 1026SOL    HW214715   1.768   2.818   1.527 -1.0227  0.2466 -0.6951
 1027SOL     OW14716   2.602   1.833   2.407 -0.0469  0.0547  0.1324
 1027SOL    HW114717   2.690   1.800   2.392 -0.0227  0.0028  0.3843
 1027SOL    HW214718   2.581   1.826   2.501  0.0744  2.0470  0.2983
 1028SOL     OW14719   0.765   3.081   3.917  0.0366  0.0465 -0.1246
 1028SOL    HW114720   0.856   3.107   3.904  1.0804 -2.9823  1.0709
 1028SOL    HW214721   0.728   3.159   3.875 -0.7444  0.2600  0.9614
 1029SOL     OW14722   0.424   2.398   6.170  0.4193  0.4273 -0.1066
 1029SOL    HW114723   0.356   2.421   6.107  1.8500  0.5215 -1.6049
 1029SOL    HW214724   0.377   2.368   6.248 -0.6012 -2.1237 -1.7110
 1030SOL     OW14725   3.071   0.898  16.789  0.1864  0.2532 -0.5480
 1030SOL    HW114726   2.989   0.947  16.786 -0.1424 -0.2796 -0.2775
 1030SOL    HW214727   3.045   0.821  16.841 -1.0041  2.0658  1.5314
 1031SOL     OW14728   3.749   3.632   0.683 -0.1452 -0.3245 -0.0479
 1031SOL    HW114729   3.818   3.631   0.617  0.3804  1.7092  0.4582
 1031SOL    HW214730   3.792   3.642   0.768  0.9180 -2.0997 -0.3977
 1032SOL     OW14731   3.946   1.721  10.785  0.3889  0.5266 -0.0360
 1032SOL    HW114732   3.905   1.764  10.710  3.9269  0.7920 -1.8192
 1032SOL    HW214733   3.874   1.668  10.818 -0.3372  0.2984 -1.9960
 1033SOL     OW14734   0.845   4.541  13.440 -0.0763  0.4875 -0.1871
 1033SOL    HW114735   0.819   4.450  13.427  4.3006 -1.3009  3.7071
 1033SOL    HW214736   0.807   4.561  13.526  0.7883 -1.0006  0.5360
 1034SOL     OW14737   0.062   4.267   1.611  0.8343 -0.0903  0.0406
 1034SOL    HW114738   0.032   4.303   1.527  2.2489 -0.6067 -0.6996
 1034SOL    HW214739   0.158   4.272   1.604  0.6479  1.1290 -1.6665
 1035SOL     OW14740   0.050   4.287  10.580 -0.1058 -0.4208 -0.0515
 1035SOL    HW114741   4.706   4.330  10.606 -0.3267 -1.5827  1.1952
 1035SOL    HW214742   0.126   4.328  10.622  1.0044 -3.3692  0.7582
 1036SOL     OW14743   2.830   1.181   4.556  0.0278 -0.4438 -0.0454
 1036SOL    HW114744   2.875   1.265   4.555 -0.7076 -0.0560 -0.5572
 1036SOL    HW214745   2.900   1.120   4.580  1.8939  1.5928 -0.3828
 1037SOL     OW14746   3.221   4.107  14.818  0.4290 -0.1322  0.4051
 1037SOL    HW114747   3.305   4.074  14.848  0.2970 -1.9701 -1.2098
 1037SOL    HW214748   3.171   4.026  14.813  2.3266 -1.1705 -1.7940
 1038SOL     OW14749   3.237   2.397   4.554  0.0968  0.0206  0.0024
 1038SOL    HW114750   3.331   2.413   4.562  0.4202 -0.2955 -3.5220
 1038SOL    HW214751   3.213   2.412   4.646 -0.1583  1.1857 -0.2438
 1039SOL     OW14752   3.167   1.738   3.497  0.0409 -0.4343  0.1805
 1039SOL    HW114753   3.101   1.677   3.530 -0.0578  0.3531  1.4289
 1039SOL    HW214754   3.251   1.709   3.531  0.6657  0.7411 -0.3498
 1040SOL     OW14755   0.746   2.101   1.926  0.2208 -0.0727  0.2959
 1040SOL    HW114756   0.785   2.137   2.005  1.4219 -1.6753  0.4400
 1040SOL    HW214757   0.694   2.176   1.900  0.3754  0.2736  0.9875
 1041SOL     OW14758   1.435   2.168   5.127  0.0468  0.3837  0.1433
 1041SOL    HW114759   1.508   2.109   5.108 -0.8022 -0.0053 -1.9122
 1041SOL    HW214760   1.392   2.171   5.041  0.4922  0.0454 -0.0930
 1042SOL     OW14761   3.177   0.407   1.318  0.0207  0.0167  0.5365
 1042SOL    HW114762   3.109   0.370   1.375  2.4768 -1.4303  2.5318
 1042SOL    HW214763   3.247   0.431   1.379  1.8425  1.4468 -2.1466
 1043SOL     OW14764   4.134   2.869   4.901  0.1531 -0.3569  0.4765
 1043SOL    HW114765   4.133   2.815   4.980  0.4741 -0.6705  0.2633
 1043SOL    HW214766   4.218   2.841   4.865 -0.7094 -1.4378 -0.7204
 1044SOL     OW14767   0.147   0.822   9.375 -1.0593  0.4550 -0.5018
 1044SOL    HW114768   0.060   0.862   9.363 -0.6866  1.3207 -0.2973
 1044SOL    HW214769   0.185   0.882   9.439 -0.4636 -0.6874  0.2134
 1045SOL     OW14770   2.450   3.095   4.471  0.3283 -0.3969 -0.0651
 1045SOL    HW114771   2.360   3.097   4.504  0.0426 -0.2443 -0.8494
 1045SOL    HW214772   2.482   3.006   4.490  0.8985 -0.2898 -0.5322
 1046SOL     OW14773   3.827   1.024   8.010 -0.1506  0.1494  0.1008
 1046SOL    HW114774   3.775   1.104   8.002  0.4011  0.3228 -1.8087
 1046SOL    HW214775   3.828   1.023   8.105 -0.8149  0.0063  0.1077
 1047SOL     OW14776   2.029   2.106   1.721 -0.0682 -0.2565 -0.2443
 1047SOL    HW114777   2.056   2.167   1.653  0.4579  1.7772  1.7945
 1047SOL    HW214778   2.076   2.131   1.801 -1.1266 -0.4761  0.4506
 1048SOL     OW14779   0.849   0.560  10.433  0.8383  0.2659 -0.2204
 1048SOL    HW114780   0.820   0.488  10.377 -0.3938  1.1613 -0.7452
 1048SOL    HW214781   0.769   0.609  10.450  2.1721  1.5802  2.2619
 1049SOL     OW14782   2.476   1.080   9.242  0.3041 -0.5099  0.7350
 1049SOL    HW114783   2.439   1.034   9.318  1.9798  1.2777  2.6332
 1049SOL    HW214784   2.440   1.169   9.244 -0.1284 -0.7125  2.5593
 1050SOL     OW14785   2.499   0.368   3.857  0.1852  0.5751  0.4163
 1050SOL    HW114786   2.515   0.290   3.910  3.1289  1.4639  0.8222
 1050SOL    HW214787   2.575   0.360   3.800  0.9112  2.3822  1.1171
 1051SOL     OW14788   4.595   0.123   6.425 -0.7106 -0.8863 -0.3802
 1051SOL    HW114789   4.569   0.168   6.345 -0.4183  1.3600  0.7857
 1051SOL    HW214790   4.588   0.196   6.487  1.6554  0.9004 -2.2393
 1052SOL     OW14791   3.893   4.182  10.299  0.5201  0.3803 -0.6344
 1052SOL    HW114792   3.924   4.096  10.326 -0.5379  0.0926 -0.3022
 1052SOL    HW214793   3.923   4.235  10.372  1.3569  0.0864 -0.7727
 1053SOL     OW14794   3.701   4.192   9.897  0.3017 -0.6218  0.3615
 1053SOL    HW114795   3.634   4.165   9.960 -1.7271 -0.3544 -1.6900
 1053SOL    HW214796   3.784   4.196   9.944  0.0173  0.4123  0.7903
 1054SOL     OW14797   0.452   1.714   3.694 -0.3752 -0.2723 -0.8464
 1054SOL    HW114798   0.523   1.736   3.755 -1.3189  0.3987  0.0133
 1054SOL    HW214799   0.376   1.721   3.752 -0.0560 -0.5570 -0.3861
 1055SOL     OW14800   3.766   0.083   1.559  0.1398  0.2903  0.6414
 1055SOL    HW114801   3.712   0.152   1.520  0.6295 -0.4137 -1.2930
 1055SOL    HW214802   3.843   0.077   1.502  0.4579  0.6353  1.0335
 1056SOL     OW14803   0.899   1.745   4.508  0.4076  0.3649 -0.4141
 1056SOL    HW114804   0.895   1.830   4.551  1.3917  1.2772 -2.0985
 1056SOL    HW214805   0.838   1.691   4.558  1.0345 -0.1174 -0.1681
 1057SOL     OW14806   3.674   0.163   1.127  0.0370  0.0992  0.0230
 1057SOL    HW114807   3.582   0.144   1.145  0.4900  0.5193  2.7760
 1057SOL    HW214808   3.669   0.258   1.136  0.5305 -0.0382  1.8091
 1058SOL     OW14809   0.065   2.879   6.046  0.4035  0.3711  0.3817
 1058SOL    HW114810   0.012   2.812   6.088 -1.4837  1.8845  0.4091
 1058SOL    HW214811   0.103   2.835   5.970  0.4923 -0.9519  1.2093
 1059SOL     OW14812   1.835   0.794  12.788 -0.3883  0.2701  0.1090
 1059SOL    HW114813   1.810   0.821  12.700  0.1134  0.0300 -0.1075
 1059SOL    HW214814   1.920   0.757  12.764 -1.0019 -0.2125 -1.3034
 1060SOL     OW14815   0.767   1.124  13.484  0.8345  0.0682  0.0567
 1060SOL    HW114816   0.788   1.196  13.543  2.4089  1.2211 -1.9255
 1060SOL    HW214817   0.680   1.157  13.462  1.8109  2.8622  0.4032
 1061SOL     OW14818   3.337   0.491   6.575 -0.0279 -0.1604 -0.1517
 1061SOL    HW114819   3.280   0.506   6.499 -0.1969 -1.0347 -0.1977
 1061SOL    HW214820   3.350   0.581   6.606  1.0955 -0.6178  0.6771
 1062SOL     OW14821   0.511   0.060   3.572  0.0320  0.7145 -0.2704
 1062SOL    HW114822   0.428   0.041   3.616 -0.0411  3.2956  0.7033
 1062SOL    HW214823   0.526   4.707   3.546 -1.4520  0.2826  0.3322
 1063SOL     OW14824   2.019   3.927   2.946  0.2633  0.1712  0.2960
 1063SOL    HW114825   2.051   3.839   2.966 -0.9907 -0.1689  0.8056
 1063SOL    HW214826   1.930   3.910   2.915  1.5293 -2.0697 -2.0777
 1064SOL     OW14827   3.648   2.502   5.764 -0.1228 -0.3169  0.1001
 1064SOL    HW114828   3.675   2.588   5.732  0.8780 -0.2956  1.0070
 1064SOL    HW214829   3.720   2.469   5.818  0.9733  1.1515 -0.4619
 1065SOL     OW14830   3.302   1.209   8.067  0.5152 -0.3418  0.4492
 1065SOL    HW114831   3.243   1.248   8.003  3.5352  3.5558 -0.0494
 1065SOL    HW214832   3.288   1.115   8.055 -3.4958  0.2935  0.3087
 1066SOL     OW14833   1.662   2.331   9.485  0.0710  0.3981  0.4087
 1066SOL    HW114834   1.582   2.374   9.516 -0.3555  1.4669 -2.1392
 1066SOL    HW214835   1.628   2.246   9.458 -3.7336  1.4352  2.0058
 1067SOL     OW14836   4.402   0.344  15.445  0.3833  0.3498  0.1557
 1067SOL    HW114837   4.391   0.373  15.354  2.4555  0.2416 -0.1193
 1067SOL    HW214838   4.325   0.380  15.489  0.8367  0.8431  0.5482
 1068SOL     OW14839   2.921   1.984   7.904  0.0129  0.0553  0.1943
 1068SOL    HW114840   2.871   2.061   7.880 -0.6748  0.2831  2.3384
 1068SOL    HW214841   3.002   1.983   7.853  0.4572 -0.7227  0.9047
 1069SOL     OW14842   3.174   2.580   0.610 -0.5807 -0.5402  0.1248
 1069SOL    HW114843   3.205   2.581   0.701  1.2813  4.6852 -0.5715
 1069SOL    HW214844   3.238   2.526   0.563  0.5248  1.4711 -0.6706
 1070SOL     OW14845   3.688   3.309   8.200 -0.3332 -0.4294 -0.0679
 1070SOL    HW114846   3.669   3.267   8.283 -0.3333 -1.4665 -0.5835
 1070SOL    HW214847   3.635   3.388   8.210 -0.2649 -0.9137  3.7903
 1071SOL     OW14848   3.201   2.815  16.648 -0.4144  0.1555  0.2032
 1071SOL    HW114849   3.149   2.894  16.631  0.1834  0.1532 -1.6975
 1071SOL    HW214850   3.280   2.855  16.611  0.6911 -1.5850  0.6811
 1072SOL     OW14851   3.228   1.321   3.767  0.3980  0.4979  0.5731
 1072SOL    HW114852   3.193   1.306   3.854  0.6303 -3.4503 -0.0143
 1072SOL    HW214853   3.320   1.322   3.791  0.7958  0.6139 -0.9154
 1073SOL     OW14854   2.745   3.227  14.512  0.4818 -0.1410  0.4395
 1073SOL    HW114855   2.757   3.133  14.510 -1.9587 -0.4958  2.2671
 1073SOL    HW214856   2.652   3.232  14.534  0.4235 -1.2451  0.4026
 1074SOL     OW14857   1.011   0.421   7.122  0.1267 -0.0405  0.2891
 1074SOL    HW114858   0.950   0.392   7.190  0.1248  0.3464  0.4514
 1074SOL    HW214859   1.077   0.352   7.132 -0.5623 -0.7456 -0.0329
 1075SOL     OW14860   0.501   3.187   4.556  0.3649  0.6487 -0.2526
 1075SOL    HW114861   0.464   3.109   4.516  1.3646 -0.6777  1.4382
 1075SOL    HW214862   0.583   3.194   4.507 -0.3143 -1.3386 -1.6481
 1076SOL     OW14863   2.471   3.560  16.508  0.6462 -0.2299  0.1008
 1076SOL    HW114864   2.518   3.643  16.517  0.6699 -0.0869 -1.3059
 1076SOL    HW214865   2.407   3.574  16.577  1.7378 -0.1892  1.1105
 1077SOL     OW14866   3.677   4.648   8.449 -0.2803 -0.5429  0.2763
 1077SOL    HW114867   3.749   4.641   8.512  0.3949  0.5814 -0.3788
 1077SOL    HW214868   3.625   4.714   8.496 -0.4946 -0.4820 -0.0500
 1078SOL     OW14869   0.304   3.806  10.150 -0.6154  0.9141 -0.0801
 1078SOL    HW114870   0.225   3.844  10.189 -0.9496 -1.1340  1.2489
 1078SOL    HW214871   0.321   3.863  10.075 -0.6346 -0.5350 -1.1811
 1079SOL     OW14872   2.446   2.650   7.026  0.4471 -0.2730  0.2771
 1079SOL    HW114873   2.506   2.644   6.952 -1.2203  0.1990 -1.1080
 1079SOL    HW214874   2.390   2.724   7.003  0.3358  0.3606  2.5645
 1080SOL     OW14875   3.867   4.199   8.829 -0.1893  0.6964  0.0011
 1080SOL    HW114876   3.785   4.205   8.779 -0.5575 -0.8155  0.4153
 1080SOL    HW214877   3.929   4.230   8.763  1.0881  0.7694  1.2617
 1081SOL     OW14878   2.781   1.121   3.726  0.2549 -0.0883  0.4745
 1081SOL    HW114879   2.706   1.101   3.670 -0.7770 -1.6163  2.4025
 1081SOL    HW214880   2.801   1.212   3.705  1.9938 -0.9718 -1.6179
 1082SOL     OW14881   4.573   2.809  13.737  0.2330  0.4513 -0.5248
 1082SOL    HW114882   4.641   2.826  13.803 -1.1717  1.7467  0.5967
 1082SOL    HW214883   4.625   2.769  13.667 -0.4725 -0.3783 -0.5672
 1083SOL     OW14884   2.305   2.411   5.630  0.0521  0.1203 -0.7580
 1083SOL    HW114885   2.334   2.502   5.643  2.4872 -0.6743 -0.6999
 1083SOL    HW214886   2.288   2.423   5.536 -0.7096 -1.1441 -0.7791
 1084SOL     OW14887   0.100   2.480   8.730 -0.0145  0.1960  0.6300
 1084SOL    HW114888   0.030   2.544   8.714 -0.2873 -0.6983 -1.7327
 1084SOL    HW214889   0.062   2.403   8.688  0.0500 -0.2016  1.2999
 1085SOL     OW14890   2.943   3.331   2.698  0.1149 -0.2086 -0.4402
 1085SOL    HW114891   2.980   3.406   2.651 -1.0091  0.2940 -0.5245
 1085SOL    HW214892   2.858   3.321   2.654  0.6545  1.3076 -1.8251
 1086SOL     OW14893   0.920   4.186   0.906 -0.2150  0.0774 -0.2688
 1086SOL    HW114894   0.940   4.139   0.826 -0.4246  1.1248 -0.9389
 1086SOL    HW214895   0.982   4.155   0.973 -1.9533 -1.8069  0.4405
 1087SOL     OW14896   0.399   2.355   1.116 -0.3488  0.3485 -0.0038
 1087SOL    HW114897   0.402   2.271   1.070 -0.8443  1.1886 -1.5557
 1087SOL    HW214898   0.402   2.418   1.044  0.3954 -1.3437 -1.4505
 1088SOL     OW14899   2.329   3.840   9.373 -0.0588 -0.4158  0.1621
 1088SOL    HW114900   2.366   3.897   9.441 -0.5170 -0.0979  0.1423
 1088SOL    HW214901   2.348   3.756   9.416  1.2908  0.6145  1.5942
 1089SOL     OW14902   3.647   2.378   7.629  0.3329  0.6094  0.3839
 1089SOL    HW114903   3.647   2.292   7.588  0.6174 -0.1858  2.0402
 1089SOL    HW214904   3.741   2.389   7.616  0.3759  0.3315  0.4619
 1090SOL     OW14905   2.108   4.614  15.900 -0.6102 -0.1595  0.4226
 1090SOL    HW114906   2.194   4.652  15.884  0.1187 -0.9519  2.5670
 1090SOL    HW214907   2.101   4.640  15.991  0.0810 -2.0290  1.0094
 1091SOL     OW14908   3.383   3.105   1.953 -0.1357 -0.5597  0.1770
 1091SOL    HW114909   3.430   3.074   2.030 -0.7647  0.4811  0.9856
 1091SOL    HW214910   3.454   3.145   1.903 -1.0663 -1.0704 -1.5329
 1092SOL     OW14911   1.968   1.538   9.851 -0.4232 -0.0280 -0.2449
 1092SOL    HW114912   2.039   1.601   9.863 -0.6755  0.4807 -1.3662
 1092SOL    HW214913   2.011   1.470   9.799  1.8358  0.2424  1.2409
 1093SOL     OW14914   1.886   0.112   8.606  0.1530 -0.8147 -0.7338
 1093SOL    HW114915   1.962   0.146   8.559 -1.1830  2.0683 -0.7653
 1093SOL    HW214916   1.818   0.127   8.540  1.0897 -0.3692 -1.5958
 1094SOL     OW14917   2.319   1.057   9.767  0.0886  0.1409 -0.2270
 1094SOL    HW114918   2.236   1.034   9.724  1.0343  0.6750 -2.3664
 1094SOL    HW214919   2.381   1.090   9.702 -1.1494  0.0634 -1.4486
 1095SOL     OW14920   3.552   1.432   7.745 -0.1447 -0.3574  0.5121
 1095SOL    HW114921   3.519   1.344   7.725 -0.5906  0.3801 -2.0617
 1095SOL    HW214922   3.521   1.447   7.834  2.8646  2.6444  1.0354
 1096SOL     OW14923   0.773   3.592   9.174 -0.1806  0.0156 -0.1896
 1096SOL    HW114924   0.708   3.540   9.222  0.9175  1.5501  2.9227
 1096SOL    HW214925   0.816   3.644   9.241 -0.0960 -0.7259  0.3311
 1097SOL     OW14926   0.463   1.385   6.229  0.4836 -0.1443 -0.2118
 1097SOL    HW114927   0.502   1.470   6.251  0.0613 -0.1890  0.6926
 1097SOL    HW214928   0.444   1.349   6.315 -0.9134 -1.0664 -0.9152
 1098SOL     OW14929   3.454   4.731  15.611 -0.7590 -0.1589  0.1617
 1098SOL    HW114930   3.512   0.050  15.560 -1.4975  0.6112  0.1765
 1098SOL    HW214931   3.478   0.023  15.698  0.3854 -1.8350  0.4078
 1099SOL     OW14932   0.365   1.631   8.930  0.3618  0.2004 -0.6824
 1099SOL    HW114933   0.380   1.542   8.960 -2.1162  0.0315  0.0329
 1099SOL    HW214934   0.428   1.674   8.989  0.0307 -0.0932 -0.1231
 1100SOL     OW14935   4.184   1.119   1.472  0.1052  0.4807  1.1334
 1100SOL    HW114936   4.215   1.117   1.563  1.3098  2.5211  0.7868
 1100SOL    HW214937   4.204   1.030   1.445  0.1322  0.5468  0.9398
 1101SOL     OW14938   2.265   2.508  12.189 -0.1513 -0.5462 -0.6759
 1101SOL    HW114939   2.212   2.515  12.268  0.6706 -1.6960 -0.0324
 1101SOL    HW214940   2.220   2.572  12.133 -1.2472  0.7598  1.6943
 1102SOL     OW14941   0.608   3.382   4.719  0.4026  0.0211 -0.5095
 1102SOL    HW114942   0.668   3.328   4.770  0.3735  1.5987  1.2156
 1102SOL    HW214943   0.553   3.313   4.682  0.2697 -1.5088  2.5540
 1103SOL     OW14944   2.112   1.979   5.008 -0.0708  0.1102 -0.0851
 1103SOL    HW114945   2.188   2.026   5.045 -0.2017  0.2838 -0.0352
 1103SOL    HW214946   2.080   1.941   5.090  1.0868 -1.6514 -0.4577
 1104SOL     OW14947   1.637   2.224   0.268 -0.4209  0.7304 -0.3295
 1104SOL    HW114948   1.594   2.181   0.195 -0.8068  1.6106 -0.6169
 1104SOL    HW214949   1.728   2.199   0.251 -0.5631  0.5133 -0.7483
 1105SOL     OW14950   0.435   2.875   3.477 -0.2274  0.3742  0.0828
 1105SOL    HW114951   0.405   2.806   3.537 -0.8529 -1.4128 -2.2652
 1105SOL    HW214952   0.403   2.838   3.394 -0.7014 -0.6035  0.7030
 1106SOL     OW14953   1.905   3.055   7.096  0.3294  0.2193 -0.3528
 1106SOL    HW114954   1.926   3.100   7.178 -0.6808  1.4033 -0.7486
 1106SOL    HW214955   1.868   2.973   7.129 -0.0575  0.7119  0.4343
 1107SOL     OW14956   2.851   2.372   3.582 -0.3177  0.0715  1.1002
 1107SOL    HW114957   2.830   2.401   3.671  1.5631  2.0007  0.9332
 1107SOL    HW214958   2.885   2.454   3.545 -1.6764 -0.6861 -1.8469
 1108SOL     OW14959   2.274   0.007   6.309  0.0465  0.4640  0.7045
 1108SOL    HW114960   2.248   0.089   6.268 -0.2504  0.4222  0.8098
 1108SOL    HW214961   2.194   4.722   6.356  0.2687 -0.5237  0.6228
 1109SOL     OW14962   3.522   0.912   3.089 -0.1887  0.2556 -0.2863
 1109SOL    HW114963   3.501   0.984   3.148 -1.0393 -0.0588 -0.2061
 1109SOL    HW214964   3.505   0.834   3.142  1.2060  0.1207 -0.0329
 1110SOL     OW14965   4.457   2.308   3.467  0.5695  0.2622 -0.2058
 1110SOL    HW114966   4.519   2.270   3.405 -0.4896 -0.1282 -1.0161
 1110SOL    HW214967   4.376   2.259   3.453  0.2570 -0.1810  2.9941
 1111SOL     OW14968   1.646   1.398   5.870 -0.5799 -0.2041  0.1498
 1111SOL    HW114969   1.642   1.309   5.834 -0.7312 -0.4044  0.6689
 1111SOL    HW214970   1.640   1.443   5.786 -0.2378 -0.2767  0.0843
 1112SOL     OW14971   0.768   0.930   8.373 -1.0321  0.3133  0.0950
 1112SOL    HW114972   0.777   0.958   8.464  2.8644 -1.1852  0.1718
 1112SOL    HW214973   0.823   1.000   8.339  0.7506 -0.1752  1.9851
 1113SOL     OW14974   1.697   0.945   6.515 -0.6420  0.0926 -0.4804
 1113SOL    HW114975   1.654   0.989   6.442 -0.1030  0.4191 -0.6082
 1113SOL    HW214976   1.641   0.951   6.592  1.4506  1.6868  0.9443
 1114SOL     OW14977   0.104   3.485  14.849  0.1026  0.5322 -0.3406
 1114SOL    HW114978   0.043   3.457  14.781  1.0262  1.1100 -1.4228
 1114SOL    HW214979   0.047   3.555  14.882  0.1083  0.4087 -0.0734
 1115SOL     OW14980   1.731   4.350   9.799  0.5018  0.2758  0.1859
 1115SOL    HW114981   1.712   4.402   9.721 -0.3333 -1.4334 -0.7330
 1115SOL    HW214982   1.827   4.348   9.795  0.5332 -1.8374  1.8729
 1116SOL     OW14983   2.959   4.328  16.003  0.0882  0.2135  0.6749
 1116SOL    HW114984   3.052   4.350  15.995 -0.0687  0.6070 -0.0651
 1116SOL    HW214985   2.962   4.234  16.020 -1.0726  0.2147  0.8763
 1117SOL     OW14986   3.206   1.530   2.362 -0.1668  0.1795 -0.5589
 1117SOL    HW114987   3.142   1.480   2.312  0.3041 -1.4572  0.4690
 1117SOL    HW214988   3.235   1.466   2.427 -0.3322  2.4106  1.6989
 1118SOL     OW14989   2.084   0.928  13.941 -0.5831 -0.0150 -0.3110
 1118SOL    HW114990   2.087   1.008  13.992 -0.7424 -1.2993  1.7164
 1118SOL    HW214991   2.013   0.884  13.989 -1.8299  1.6017 -0.6791
 1119SOL     OW14992   2.280   2.174   6.177  0.7257  0.1142  0.2805
 1119SOL    HW114993   2.197   2.149   6.217  0.8295 -1.5685 -0.5757
 1119SOL    HW214994   2.261   2.169   6.083  0.9799  0.1791  0.2254
 1120SOL     OW14995   3.492   4.341   2.694  0.1786 -0.1043 -0.4910
 1120SOL    HW114996   3.523   4.356   2.783 -1.0256 -2.5221  0.3462
 1120SOL    HW214997   3.571   4.315   2.646 -0.5796 -0.5638 -1.4843
 1121SOL     OW14998   1.539   0.901  15.261 -0.5760  0.2676 -0.0362
 1121SOL    HW114999   1.522   0.941  15.176 -0.6489  3.1538  1.3250
 1121SOL    HW215000   1.569   0.813  15.238  0.6084  0.3928  0.9991
 1122SOL     OW15001   0.788   3.022   7.476  0.3939 -0.3512  0.2025
 1122SOL    HW115002   0.714   2.962   7.465 -0.0923  0.3336 -0.2666
 1122SOL    HW215003   0.801   3.060   7.389  1.2460 -0.3812  0.3175
 1123SOL     OW15004   3.019   0.795  10.572 -0.2869  0.0672  0.0330
 1123SOL    HW115005   3.026   0.723  10.509 -0.9149 -0.1688  0.2343
 1123SOL    HW215006   2.950   0.843  10.527  0.0696  0.9226  0.4044
 1124SOL     OW15007   3.263   1.951  11.510  0.2782 -0.1584  0.2515
 1124SOL    HW115008   3.202   1.957  11.584  1.1434 -0.2631  0.9737
 1124SOL    HW215009   3.284   2.042  11.489  0.4860 -0.1274  0.5935
 1125SOL     OW15010   2.134   2.560   3.878 -0.3710  0.4138  0.4149
 1125SOL    HW115011   2.190   2.485   3.895  0.5359  1.2248  0.9928
 1125SOL    HW215012   2.055   2.536   3.925 -0.2673  0.1426  0.4517
 1126SOL     OW15013   0.433   3.914   4.430 -0.2575  0.2565  0.5213
 1126SOL    HW115014   0.491   3.844   4.459 -1.9403 -1.8376 -1.1430
 1126SOL    HW215015   0.351   3.875   4.462 -1.0316  1.2897 -0.1846
 1127SOL     OW15016   0.977   3.086   8.313 -0.2599 -0.2302 -0.2059
 1127SOL    HW115017   1.026   3.135   8.380 -1.6717  2.4462 -1.1360
 1127SOL    HW215018   1.042   3.046   8.256 -1.4625  0.3807 -1.9843
 1128SOL     OW15019   0.396   3.464   0.554 -0.3443  0.2283 -0.6854
 1128SOL    HW115020   0.374   3.426   0.639  2.8708 -0.5300 -0.2079
 1128SOL    HW215021   0.469   3.407   0.529  1.2760  1.4455  1.2802
 1129SOL     OW15022   1.119   2.948   1.365  0.2364  0.4936 -0.2209
 1129SOL    HW115023   1.051   3.014   1.381  0.4757  1.0658 -1.5127
 1129SOL    HW215024   1.193   2.956   1.425 -1.2788 -1.3766  1.8969
 1130SOL     OW15025   2.085   0.891   9.606  0.0071  0.2994 -0.0401
 1130SOL    HW115026   2.124   0.829   9.669  2.0462  0.3048 -1.3036
 1130SOL    HW215027   2.078   0.836   9.528  3.3436 -0.0786 -0.0569
 1131SOL     OW15028   2.285   4.728  14.304 -0.1148 -0.0127  0.1931
 1131SOL    HW115029   2.347   0.055  14.340 -1.1768  1.4943 -0.6832
 1131SOL    HW215030   2.205   0.022  14.345 -1.8387  1.2564 -4.1624
 1132SOL     OW15031   2.490   3.273   8.407 -0.3405 -0.5328 -0.2181
 1132SOL    HW115032   2.526   3.227   8.484 -0.5482 -0.5332 -0.1217
 1132SOL    HW215033   2.400   3.261   8.436 -0.2943 -1.0102 -0.2668
 1133SOL     OW15034   0.098   2.187   1.972  0.8374  0.1968  0.2934
 1133SOL    HW115035   0.162   2.154   2.035 -0.3347 -2.1779  0.2569
 1133SOL    HW215036   0.145   2.270   1.966  0.8420  0.0523 -1.7708
 1134SOL     OW15037   0.783   0.925   7.991  0.1034 -0.0956  0.3808
 1134SOL    HW115038   0.814   0.861   8.056 -1.5375  0.7326  1.9566
 1134SOL    HW215039   0.797   1.006   8.040  1.4917  0.5753 -1.1099
 1135SOL     OW15040   0.543   1.458   5.018  0.1899  0.5473  0.0374
 1135SOL    HW115041   0.516   1.540   5.059  1.2046  1.4902 -1.1791
 1135SOL    HW215042   0.453   1.441   4.990  0.7323 -2.6022  0.1749
 1136SOL     OW15043   4.044   2.054   6.048 -0.1321 -0.8486  0.3485
 1136SOL    HW115044   4.058   2.140   6.009  0.1079  0.3562  3.1095
 1136SOL    HW215045   4.011   2.077   6.135 -0.5257 -1.4884  0.3714
 1137SOL     OW15046   1.737   1.468  11.917  0.2971  0.0728  0.1730
 1137SOL    HW115047   1.691   1.434  11.994 -2.6292  1.2931 -1.0350
 1137SOL    HW215048   1.810   1.511  11.962  0.9581 -1.3155  0.4609
 1138SOL     OW15049   3.563   0.248   3.928  0.3084 -0.4760 -0.1826
 1138SOL    HW115050   3.628   0.187   3.962 -0.0851 -0.3837  0.7250
 1138SOL    HW215051   3.530   0.290   4.007 -1.2279 -1.1415 -0.4726
 1139SOL     OW15052   0.255   0.076   5.525 -0.0142 -0.2901  0.1923
 1139SOL    HW115053   0.315   0.005   5.548 -2.1639 -2.3122 -0.5745
 1139SOL    HW215054   0.256   0.070   5.430 -0.3020 -0.7935  0.2229
 1140SOL     OW15055   2.516   4.619   6.171  0.8574 -0.0609  0.7996
 1140SOL    HW115056   2.450   4.549   6.173 -0.9532  1.5773 -1.9649
 1140SOL    HW215057   2.455   4.691   6.156  1.0706 -0.6170 -2.8199
 1141SOL     OW15058   3.939   1.524   5.467 -0.0842 -0.1264  0.2184
 1141SOL    HW115059   3.884   1.489   5.537  0.1130 -0.6042  0.1333
 1141SOL    HW215060   4.022   1.529   5.514 -0.2707  1.5162  0.3902
 1142SOL     OW15061   3.241   0.760   5.058 -0.0013 -0.1303 -0.4099
 1142SOL    HW115062   3.325   0.752   5.013 -0.6207  0.1570 -1.6321
 1142SOL    HW215063   3.233   0.855   5.063 -1.5917 -0.3694  1.3129
 1143SOL     OW15064   2.665   2.025   3.269 -0.3981  0.1278  0.0510
 1143SOL    HW115065   2.686   1.995   3.357 -1.6378 -1.5035 -0.1919
 1143SOL    HW215066   2.699   2.114   3.271 -0.9097  0.3365 -0.3877
 1144SOL     OW15067   3.091   4.573   8.399 -0.2966  0.0069  0.4066
 1144SOL    HW115068   3.156   4.581   8.329 -2.0046 -0.2858 -1.2289
 1144SOL    HW215069   3.130   4.514   8.464  1.7400 -1.9064 -2.5672
 1145SOL     OW15070   3.704   0.441   4.875 -0.4511  0.0021 -1.1243
 1145SOL    HW115071   3.631   0.435   4.936 -1.0021 -1.3073 -1.8973
 1145SOL    HW215072   3.674   0.519   4.828  0.0582  0.7780 -0.1549
 1146SOL     OW15073   3.842   1.020   7.045  0.2811  0.1532  0.4769
 1146SOL    HW115074   3.758   0.988   7.012  0.0377 -2.3076  3.4390
 1146SOL    HW215075   3.870   1.069   6.967 -0.8214 -0.4856 -0.3329
 1147SOL     OW15076   4.274   4.638   3.795  0.2668  0.0556 -0.7619
 1147SOL    HW115077   4.234   4.649   3.882 -1.0781  1.7911 -1.6055
 1147SOL    HW215078   4.283   4.543   3.788  0.8938 -0.0599  1.5820
 1148SOL     OW15079   3.552   3.189   7.988 -0.1307  0.1925 -0.2154
 1148SOL    HW115080   3.560   3.234   8.072  0.1697  0.7511 -0.5417
 1148SOL    HW215081   3.600   3.251   7.933 -0.0396 -0.1013 -0.4709
 1149SOL     OW15082   1.139   2.495  12.158 -0.1136  0.2017  0.4396
 1149SOL    HW115083   1.135   2.401  12.147 -0.2676  0.1008  1.3487
 1149SOL    HW215084   1.052   2.534  12.146  0.1795  0.3794 -1.1817
 1150SOL     OW15085   1.945   1.390   5.243  0.2163 -0.1384 -0.0815
 1150SOL    HW115086   2.015   1.328   5.220 -0.9354 -0.2205 -3.2484
 1150SOL    HW215087   2.004   1.432   5.306 -0.2186  2.0411 -1.1223
 1151SOL     OW15088   2.191   0.722  13.796 -0.0616 -0.2521 -0.7592
 1151SOL    HW115089   2.270   0.698  13.844 -1.4464 -2.1633  0.5598
 1151SOL    HW215090   2.158   0.791  13.853  0.2230  0.3844 -1.3594
 1152SOL     OW15091   3.287   4.150   6.306  0.2602 -0.0376 -0.1965
 1152SOL    HW115092   3.381   4.164   6.313 -0.2622  3.6339 -0.4585
 1152SOL    HW215093   3.253   4.167   6.218  0.7407  2.2613  0.0515
 1153SOL     OW15094   0.477   0.495   3.810  0.4395 -0.5625  0.4188
 1153SOL    HW115095   0.395   0.531   3.775  1.4476  0.2288 -1.1053
 1153SOL    HW215096   0.545   0.536   3.757 -0.6829  1.2144  0.3711
 1154SOL     OW15097   0.439   2.339   2.848 -0.4898  0.3793 -0.0883
 1154SOL    HW115098   0.446   2.245   2.861 -2.0222  0.1126 -1.2240
 1154SOL    HW215099   0.505   2.350   2.780 -0.7543 -0.6724 -0.5071
 1155SOL     OW15100   2.793   1.039   7.027  0.4878  0.0172 -0.3000
 1155SOL    HW115101   2.873   1.032   6.974  1.3056  0.5389  0.8539
 1155SOL    HW215102   2.820   0.973   7.091 -1.7385  0.7367  1.3856
 1156SOL     OW15103   4.172   2.473   7.621 -0.6623 -0.0648 -0.8177
 1156SOL    HW115104   4.170   2.569   7.618 -0.8466  0.0097  1.5681
 1156SOL    HW215105   4.249   2.451   7.570 -1.4602  1.1122 -2.5100
 1157SOL     OW15106   3.174   4.274  10.623  0.0468  0.4559 -0.2944
 1157SOL    HW115107   3.127   4.235  10.697 -2.4085 -0.4278 -2.3278
 1157SOL    HW215108   3.257   4.300  10.663 -0.4685 -1.0568  1.7786
 1158SOL     OW15109   3.692   2.189   7.947  0.3931  0.0341  0.6115
 1158SOL    HW115110   3.727   2.135   7.876 -0.7318 -0.4642  0.4324
 1158SOL    HW215111   3.708   2.276   7.910 -2.4375 -0.1454 -1.0170
 1159SOL     OW15112   4.343   2.070   2.391  0.0376 -0.3939 -0.3706
 1159SOL    HW115113   4.381   2.102   2.473 -0.7530  0.1995 -0.2411
 1159SOL    HW215114   4.287   2.008   2.437  0.4340 -0.5079 -0.0371
 1160SOL     OW15115   2.250   4.070   2.835  0.3167 -0.0389  0.0927
 1160SOL    HW115116   2.324   4.010   2.829  0.0099 -0.2685 -1.3013
 1160SOL    HW215117   2.187   4.017   2.884 -0.9295  2.0970  0.8026
 1161SOL     OW15118   1.859   4.437   5.498  0.0585 -0.0369 -0.1207
 1161SOL    HW115119   1.786   4.406   5.551 -2.3764  2.0270 -2.2943
 1161SOL    HW215120   1.819   4.435   5.411  0.1656 -0.6429 -0.1595
 1162SOL     OW15121   3.095   4.610   3.368  0.5166  0.1249 -0.2474
 1162SOL    HW115122   3.100   4.690   3.420 -1.2037  0.9098 -1.2805
 1162SOL    HW215123   3.124   4.554   3.440 -0.7340  1.9921  1.7084
 1163SOL     OW15124   3.042   2.464   1.813  0.5138  0.1377 -0.5783
 1163SOL    HW115125   2.967   2.407   1.831  0.7584 -0.6420 -2.0132
 1163SOL    HW215126   3.113   2.399   1.817  0.4268  0.2114  1.8742
 1164SOL     OW15127   4.589   1.280   8.690  0.4842 -0.0569  0.1679
 1164SOL    HW115128   4.629   1.201   8.728 -1.1716 -0.1196  1.7422
 1164SOL    HW215129   4.616   1.336   8.762  2.5225  0.0069 -0.6277
 1165SOL     OW15130   0.913   2.568   5.861  0.0701 -0.8624  0.3847
 1165SOL    HW115131   0.999   2.566   5.818  0.2792 -0.0679  0.7834
 1165SOL    HW215132   0.935   2.613   5.942 -2.0958 -0.8493  0.9572
 1166SOL     OW15133   2.518   2.139   6.986  0.3715  0.3678 -0.6872
 1166SOL    HW115134   2.586   2.205   6.972 -0.1552  1.2398  0.8621
 1166SOL    HW215135   2.556   2.064   6.940 -0.4608 -0.7633  0.4731
 1167SOL     OW15136   1.064   0.698   2.742  0.4970 -0.5677  0.0995
 1167SOL    HW115137   0.982   0.659   2.772 -0.3304  2.0131  1.1958
 1167SOL    HW215138   1.081   0.641   2.667 -1.9618 -2.1590  0.7638
 1168SOL     OW15139   2.805   0.001   0.140 -0.2786 -0.1428  0.0853
 1168SOL    HW115140   2.854   4.659   0.157 -0.3419 -0.0246  0.8176
 1168SOL    HW215141   2.737   0.007   0.207 -0.5176  1.1355 -0.2541
 1169SOL     OW15142   2.657   0.754   8.666  0.4028  0.1222  0.3399
 1169SOL    HW115143   2.648   0.701   8.587 -0.2226  0.5861  0.0983
 1169SOL    HW215144   2.619   0.705   8.738 -1.4084  1.0283 -0.0022
 1170SOL     OW15145   0.405   1.896   1.828  0.1429  0.3088  0.1602
 1170SOL    HW115146   0.340   1.844   1.783 -0.0272  1.2109 -0.6324
 1170SOL    HW215147   0.370   1.910   1.916  1.0709  2.6878  0.1562
 1171SOL     OW15148   0.975   0.535   5.158  0.2927 -0.2749  0.6131
 1171SOL    HW115149   0.914   0.587   5.211 -0.5453  0.3317 -0.9321
 1171SOL    HW215150   0.962   0.450   5.200  0.9710 -0.2655  0.8415
 1172SOL     OW15151   2.382   3.010   6.733 -0.2654  0.1890  0.4482
 1172SOL    HW115152   2.473   2.991   6.713 -0.0246  1.3499  0.4090
 1172SOL    HW215153   2.353   2.947   6.798  0.4475 -1.3334 -0.7314
 1173SOL     OW15154   0.820   2.414   2.296 -0.2518 -0.6147  0.2279
 1173SOL    HW115155   0.802   2.503   2.266  3.4740  0.1131  0.1046
 1173SOL    HW215156   0.843   2.425   2.389  1.1274  1.0149 -0.2960
 1174SOL     OW15157   2.072   3.076  16.227  0.1645  0.3893 -0.1927
 1174SOL    HW115158   2.008   3.013  16.193 -1.3011  1.0083  1.4651
 1174SOL    HW215159   2.054   3.154  16.174 -0.6891 -0.9546 -1.9034
 1175SOL     OW15160   2.089   2.171   8.888 -0.3042 -0.0893 -0.2717
 1175SOL    HW115161   2.154   2.135   8.828 -0.6734  0.9452 -1.2977
 1175SOL    HW215162   2.062   2.092   8.935  0.8303  0.3578  1.1302
 1176SOL     OW15163   2.305   3.600  16.707  0.3822  0.3065  0.0368
 1176SOL    HW115164   2.341   3.591  16.795  3.2212 -1.5553 -1.3151
 1176SOL    HW215165   2.228   3.544  16.719 -1.3474  2.2271 -2.1576
 1177SOL     OW15166   4.429   4.155   8.357 -0.1337 -0.1499  0.1085
 1177SOL    HW115167   4.440   4.214   8.432  1.6978 -1.1531  0.6327
 1177SOL    HW215168   4.498   4.091   8.373 -0.5076 -0.0730  1.9952
 1178SOL     OW15169   1.513   2.496   6.934  0.1823 -0.1904  0.0327
 1178SOL    HW115170   1.488   2.403   6.929  2.7437 -0.8217 -1.3264
 1178SOL    HW215171   1.436   2.532   6.979  0.8027  2.6623 -1.2115
 1179SOL     OW15172   1.045   0.810   3.279  0.0126  0.2499  0.1983
 1179SOL    HW115173   1.011   0.754   3.209 -0.7696 -0.8431  1.4350
 1179SOL    HW215174   1.139   0.799   3.268 -0.4320 -0.2104 -3.2776
 1180SOL     OW15175   1.150   2.183   8.988  0.3970 -0.1459  0.2943
 1180SOL    HW115176   1.055   2.184   9.004  0.3708 -0.8876  0.1890
 1180SOL    HW215177   1.149   2.088   9.000  1.6540 -0.0844  0.7858
 1181SOL     OW15178   0.121   4.139  14.589  0.4865 -0.1085  0.5236
 1181SOL    HW115179   0.172   4.219  14.600  1.1726 -0.1055 -2.6184
 1181SOL    HW215180   0.058   4.146  14.661 -1.5810 -4.5149 -0.8610
 1182SOL     OW15181   1.528   3.314   8.136 -0.1078 -0.8495 -0.1468
 1182SOL    HW115182   1.477   3.358   8.204  2.1610  1.8425 -0.1640
 1182SOL    HW215183   1.616   3.311   8.175  1.1139 -0.9030 -2.8878
 1183SOL     OW15184   3.015   2.771  15.338 -0.1761  0.4619  0.0800
 1183SOL    HW115185   3.104   2.738  15.327  0.3448  1.5598  1.0261
 1183SOL    HW215186   2.976   2.694  15.297  0.9089 -0.7860  1.4222
 1184SOL     OW15187   1.740   1.267   8.994  0.6496 -0.0596 -0.5031
 1184SOL    HW115188   1.660   1.241   8.948 -0.3143 -1.4292  1.9424
 1184SOL    HW215189   1.786   1.327   8.935  1.6223  0.8800  1.2180
 1185SOL     OW15190   3.329   2.325  12.637  0.0062 -0.0136 -0.0704
 1185SOL    HW115191   3.239   2.292  12.624  0.4793 -1.5396  0.4899
 1185SOL    HW215192   3.375   2.252  12.596  0.0022  0.0630 -0.2126
 1186SOL     OW15193   0.274   1.189   7.080 -0.6767 -0.4389 -0.1883
 1186SOL    HW115194   0.215   1.239   7.136  0.7931  1.6812 -0.5419
 1186SOL    HW215195   0.220   1.189   7.001 -0.4757 -1.2997 -0.3266
 1187SOL     OW15196   2.492   2.307   3.181  0.3330 -1.2104 -1.0647
 1187SOL    HW115197   2.525   2.233   3.232 -1.3934 -0.2811  1.3980
 1187SOL    HW215198   2.576   2.352   3.179  0.7689 -1.9434  0.4716
 1188SOL     OW15199   1.698   2.890   8.681 -0.7456 -0.0888 -0.1358
 1188SOL    HW115200   1.743   2.971   8.702 -1.2962  0.6582 -1.8766
 1188SOL    HW215201   1.610   2.913   8.651 -0.4536 -0.6204 -1.4029
 1189SOL     OW15202   0.456   3.089   9.119  0.0783  0.2214 -0.2725
 1189SOL    HW115203   0.360   3.091   9.113  0.1675  0.1558 -1.7051
 1189SOL    HW215204   0.492   3.109   9.033 -0.5510 -0.6446 -0.7350
 1190SOL     OW15205   0.220   4.696  12.178 -0.4393  0.1118 -0.6146
 1190SOL    HW115206   0.299   4.702  12.123  0.1905  0.8963  0.3928
 1190SOL    HW215207   0.248   4.718  12.267  1.3357 -0.9344 -0.9010
 1191SOL     OW15208   1.423   2.472   2.613 -0.1777  0.1961  0.4829
 1191SOL    HW115209   1.432   2.566   2.626 -2.4712  0.6506 -1.1314
 1191SOL    HW215210   1.363   2.471   2.539 -0.0753  1.2345  0.3841
 1192SOL     OW15211   3.322   2.793   7.195  0.3151 -0.5663 -0.3851
 1192SOL    HW115212   3.390   2.781   7.260  0.3941  1.1750 -0.1520
 1192SOL    HW215213   3.292   2.883   7.209  0.4635 -0.6173  0.2544
 1193SOL     OW15214   3.838   3.440   6.746 -0.6292  0.1428  0.4273
 1193SOL    HW115215   3.820   3.346   6.737  0.1101  0.0805 -0.3404
 1193SOL    HW215216   3.869   3.449   6.656  1.3975  1.7977  1.2989
 1194SOL     OW15217   2.705   0.864  11.396 -0.7752  0.2412 -0.0871
 1194SOL    HW115218   2.692   0.789  11.455  1.1935  0.8097  1.0646
 1194SOL    HW215219   2.650   0.847  11.319 -1.6712  0.9125  0.3977
 1195SOL     OW15220   2.929   1.190   2.822  0.5206 -0.3228 -0.3671
 1195SOL    HW115221   2.911   1.172   2.914  0.6387 -2.1296 -0.7035
 1195SOL    HW215222   2.858   1.254   2.811  0.4193 -0.4599 -0.5210
 1196SOL     OW15223   3.062   4.595  12.345 -0.5353  0.2696  0.5375
 1196SOL    HW115224   3.084   4.577  12.437  0.4643 -0.5536  0.1335
 1196SOL    HW215225   3.117   4.529  12.302 -1.1738 -1.5678  2.5582
 1197SOL     OW15226   3.409   3.928   2.742  0.1530  1.1544 -0.3615
 1197SOL    HW115227   3.469   3.923   2.817  1.3328  3.9548 -1.1361
 1197SOL    HW215228   3.467   3.978   2.685  2.1645 -0.7897 -0.0070
 1198SOL     OW15229   2.149   1.266  13.144  0.1505 -0.1371  0.5367
 1198SOL    HW115230   2.077   1.300  13.090  0.3156  0.7242  0.8469
 1198SOL    HW215231   2.189   1.349  13.172  0.7612 -0.1998 -0.1427
 1199SOL     OW15232   4.208   0.872  12.192  0.0216  0.0858 -0.0788
 1199SOL    HW115233   4.221   0.864  12.287 -0.9016  0.5890  0.0906
 1199SOL    HW215234   4.286   0.833  12.152 -0.1289 -1.7598  1.3942
 1200SOL     OW15235   4.468   2.474   4.691 -0.3899 -0.1520  0.1799
 1200SOL    HW115236   4.552   2.497   4.730 -1.6581  0.0025  2.7663
 1200SOL    HW215237   4.497   2.470   4.599 -0.3049 -1.5707  0.2618
 1201SOL     OW15238   1.756   3.764   4.709 -0.3625 -0.1067 -0.2343
 1201SOL    HW115239   1.692   3.807   4.766  0.4904  0.3451  0.3693
 1201SOL    HW215240   1.785   3.841   4.659 -0.3481  0.0489  0.0155
 1202SOL     OW15241   3.047   3.578   7.652 -0.2282 -0.4140  0.9330
 1202SOL    HW115242   3.072   3.522   7.579 -0.0685  1.2721 -0.3037
 1202SOL    HW215243   2.975   3.533   7.697 -1.8059  0.0078 -1.1679
 1203SOL     OW15244   1.090   0.861   1.904 -0.0383 -0.1068 -0.3929
 1203SOL    HW115245   1.014   0.878   1.847  0.3272  0.8564 -0.5840
 1203SOL    HW215246   1.062   0.772   1.926  1.0103 -0.0863  1.0069
 1204SOL     OW15247   3.936   0.251  12.215  0.4699  0.1294 -0.1125
 1204SOL    HW115248   3.844   0.250  12.190 -0.3181  0.5663  2.8612
 1204SOL    HW215249   3.935   0.280  12.306  2.4197 -1.0683  0.2794
 1205SOL     OW15250   2.620   4.657  10.043 -0.4178  0.6170 -0.1972
 1205SOL    HW115251   2.663   0.005  10.038 -0.1292  0.3363 -2.3537
 1205SOL    HW215252   2.541   4.687   9.999 -0.4356 -1.4312 -1.5219
 1206SOL     OW15253   2.849   3.323   1.243  0.2733  0.1210 -0.5141
 1206SOL    HW115254   2.846   3.416   1.267  1.0443  0.2420 -0.8774
 1206SOL    HW215255   2.913   3.294   1.307 -1.9367  0.0297  1.6399
 1207SOL     OW15256   1.788   3.181   5.200 -0.4801 -0.3458 -0.4198
 1207SOL    HW115257   1.777   3.276   5.206 -0.1386 -0.4081  1.1293
 1207SOL    HW215258   1.699   3.146   5.191 -0.4663 -0.4121 -0.2914
 1208SOL     OW15259   1.199   2.428   0.063  0.4320  0.0764  0.4072
 1208SOL    HW115260   1.125   2.376   0.094  0.8886 -2.1878 -2.2408
 1208SOL    HW215261   1.193   2.492   0.134 -0.9414 -1.5205  1.7350
 1209SOL     OW15262   3.528   1.186   1.843  0.6726  0.0924 -0.0350
 1209SOL    HW115263   3.471   1.151   1.774  1.8131 -0.9818 -0.4300
 1209SOL    HW215264   3.554   1.105   1.887 -1.6675 -0.4857  0.3014
 1210SOL     OW15265   0.084   2.856   5.325  0.0210  0.0970 -0.1586
 1210SOL    HW115266   0.112   2.821   5.410  0.4551  0.3189 -0.2072
 1210SOL    HW215267   0.165   2.876   5.277  0.7783 -1.2561  0.5514
 1211SOL     OW15268   0.404   0.642   4.701  0.0505  0.0389 -0.4822
 1211SOL    HW115269   0.367   0.575   4.759  1.4880  0.2638  0.6807
 1211SOL    HW215270   0.381   0.604   4.616 -2.6360  0.0169  0.2575
 1212SOL     OW15271   0.951   2.055   6.780 -0.1856 -0.0757  0.3551
 1212SOL    HW115272   0.976   2.037   6.870  0.3785  3.1096  0.8237
 1212SOL    HW215273   0.900   1.978   6.753  0.7305  0.3823 -2.6511
 1213SOL     OW15274   1.457   3.755   2.450  0.1412 -0.2381 -0.0700
 1213SOL    HW115275   1.459   3.662   2.474 -1.9348  0.0665  1.2702
 1213SOL    HW215276   1.462   3.797   2.536 -1.4436  0.5667 -0.3789
 1214SOL     OW15277   2.616   0.728  12.824 -0.0030 -0.0357 -0.2571
 1214SOL    HW115278   2.548   0.791  12.802 -0.8650 -0.1373  2.1544
 1214SOL    HW215279   2.602   0.661  12.756  0.2406 -1.3551  0.9875
 1215SOL     OW15280   3.930   1.027   6.203 -0.7020  0.1174 -0.3747
 1215SOL    HW115281   3.885   0.999   6.282  1.4275 -0.7582  0.5445
 1215SOL    HW215282   3.958   0.943   6.166 -2.1534 -0.4740 -0.1230
 1216SOL     OW15283   1.502   4.732   2.486 -0.0080 -0.2476  0.5214
 1216SOL    HW115284   1.488   4.639   2.467 -0.3503 -0.5857  2.4389
 1216SOL    HW215285   1.593   0.016   2.466 -0.1869  1.1024  1.1536
 1217SOL     OW15286   4.614   2.110   2.918  0.2673  0.6058 -0.3646
 1217SOL    HW115287   4.631   2.174   2.849 -2.8974  0.2985 -1.4234
 1217SOL    HW215288   4.703   2.097   2.951  0.0688  2.6916  0.9947
 1218SOL     OW15289   1.749   1.753   2.291  0.4036 -0.4411 -0.3015
 1218SOL    HW115290   1.793   1.779   2.371 -0.4481 -1.6661  0.5597
 1218SOL    HW215291   1.737   1.836   2.244 -0.0386  0.0760  0.7329
 1219SOL     OW15292   3.411   4.255   9.057 -0.4951 -0.2205 -0.4517
 1219SOL    HW115293   3.321   4.273   9.086 -0.0743  1.2178 -0.0172
 1219SOL    HW215294   3.450   4.342   9.063 -0.6445 -0.2857  1.2614
 1220SOL     OW15295   1.458   4.626   7.518  0.4863 -0.3680 -0.1301
 1220SOL    HW115296   1.445   4.547   7.570  0.9952 -0.4556 -0.1406
 1220SOL    HW215297   1.541   4.600   7.477  0.1715 -2.4853  0.5689
 1221SOL     OW15298   3.465   0.112  11.267  0.3408  0.5000 -0.1842
 1221SOL    HW115299   3.552   0.087  11.297 -0.7661 -2.3829  0.6198
 1221SOL    HW215300   3.404   0.069  11.326  1.7431 -1.9936 -0.5517
 1222SOL     OW15301   2.153   1.496   2.700 -0.4528 -0.2934 -0.0075
 1222SOL    HW115302   2.200   1.415   2.683  1.7952  1.3439 -1.5204
 1222SOL    HW215303   2.060   1.473   2.688 -0.6587  0.0206  1.0106
 1223SOL     OW15304   4.106   1.030   7.404 -0.1019  0.5327 -0.1903
 1223SOL    HW115305   4.011   1.021   7.399 -0.0134  0.1968 -1.2347
 1223SOL    HW215306   4.124   0.975   7.328  0.4484 -0.5658  0.7193
 1224SOL     OW15307   3.427   0.522  13.094 -0.4634 -0.4098  0.0993
 1224SOL    HW115308   3.468   0.607  13.112 -0.7257 -0.1332 -0.5852
 1224SOL    HW215309   3.504   0.477  13.058 -0.4349 -0.7598  0.6098
 1225SOL     OW15310   0.391   4.033  15.636  0.1300 -0.2935  0.2101
 1225SOL    HW115311   0.378   3.938  15.633 -0.8365 -0.1262 -1.1624
 1225SOL    HW215312   0.444   4.021  15.715 -0.4058  0.6634  0.7226
 1226SOL     OW15313   3.178   2.670   8.218 -0.1502  0.4160  0.4780
 1226SOL    HW115314   3.092   2.665   8.176  0.4861  1.1348 -0.8653
 1226SOL    HW215315   3.231   2.687   8.141 -0.5005 -0.0959  0.1209
 1227SOL     OW15316   2.220   4.639  16.689 -0.7684  0.0178  0.1010
 1227SOL    HW115317   2.309   4.668  16.710 -1.0223  0.6103  0.3385
 1227SOL    HW215318   2.180   4.631  16.775  1.2253 -1.8052  0.8815
 1228SOL     OW15319   3.340   3.156   7.816 -0.6890  0.3438  0.0472
 1228SOL    HW115320   3.426   3.138   7.856 -0.6073  1.1957  0.2634
 1228SOL    HW215321   3.356   3.251   7.816  0.7643  0.1102  0.5524
 1229SOL     OW15322   1.982   2.203   9.308 -0.1659  0.4407 -0.1200
 1229SOL    HW115323   2.012   2.112   9.311  1.4102  0.9985  1.5412
 1229SOL    HW215324   1.889   2.192   9.290 -0.4048  0.6393  0.9413
 1230SOL     OW15325   4.008   2.454   3.479  0.4728  0.2094  0.1439
 1230SOL    HW115326   4.011   2.374   3.530 -0.3637  0.3430  0.3998
 1230SOL    HW215327   3.920   2.443   3.444  1.7208 -2.9418 -1.9868
 1231SOL     OW15328   4.729   2.420   7.059 -0.9071  0.1723  0.2172
 1231SOL    HW115329   0.031   2.421   6.972  0.7458  2.2398  0.9851
 1231SOL    HW215330   4.719   2.327   7.077  2.8799 -0.8439 -3.0797
 1232SOL     OW15331   2.940   1.917  11.516 -0.7358  0.5746  0.0646
 1232SOL    HW115332   2.883   1.844  11.539  1.8898 -1.1817  0.9601
 1232SOL    HW215333   2.890   1.960  11.446 -2.3337 -0.7003  0.4351
 1233SOL     OW15334   0.606   2.856  10.808 -0.3271  0.2365  0.0559
 1233SOL    HW115335   0.572   2.898  10.729  3.2205  0.8116 -1.1910
 1233SOL    HW215336   0.645   2.782  10.761 -0.6638 -0.4289  0.8297
 1234SOL     OW15337   1.343   2.304   0.808  0.0822 -0.4397  0.2304
 1234SOL    HW115338   1.339   2.310   0.713  0.1473  0.3144  0.2809
 1234SOL    HW215339   1.296   2.386   0.822  0.6538 -0.1584  0.4944
 1235SOL     OW15340   2.381   4.392   6.353 -0.1574  0.2723  0.3618
 1235SOL    HW115341   2.375   4.374   6.447  0.7535  1.7686  0.6910
 1235SOL    HW215342   2.476   4.400   6.344 -0.2972  0.4573 -0.9481
 1236SOL     OW15343   1.946   0.777   4.863  0.1741 -0.2595  0.3562
 1236SOL    HW115344   1.944   0.806   4.954  1.2797 -0.9269  0.5925
 1236SOL    HW215345   1.885   0.704   4.870 -0.7582  0.6422  1.7199
 1237SOL     OW15346   4.653   0.546   2.984  0.0655 -0.0039 -0.3113
 1237SOL    HW115347   4.560   0.529   2.967  0.9940 -2.2325 -3.2647
 1237SOL    HW215348   4.652   0.637   3.011  2.5745 -0.1107  0.1307
 1238SOL     OW15349   2.377   1.331   7.119  0.4270 -0.5290 -0.3176
 1238SOL    HW115350   2.371   1.424   7.098 -2.3087 -0.6076  0.1088
 1238SOL    HW215351   2.340   1.330   7.207  2.3885  0.5600  0.5200
 1239SOL     OW15352   3.934   1.916   9.242 -0.2397 -0.0016 -0.1480
 1239SOL    HW115353   4.005   1.854   9.228 -0.9038 -0.9639  0.7759
 1239SOL    HW215354   3.877   1.856   9.291 -1.7720  1.0873 -0.5699
 1240SOL     OW15355   4.695   2.983   7.832 -1.0759  0.2962 -0.1340
 1240SOL    HW115356   4.668   3.035   7.908  1.5366 -0.7248  1.4528
 1240SOL    HW215357   4.614   2.980   7.781 -0.4155 -0.9527 -1.1112
 1241SOL     OW15358   3.487   4.613  16.480  0.0040  0.1345  0.0314
 1241SOL    HW115359   3.549   4.547  16.512 -1.8836 -1.7466 -0.1729
 1241SOL    HW215360   3.490   4.675  16.553  0.5488  1.8691 -1.4958
 1242SOL     OW15361   1.900   2.326   1.938 -0.1870  0.5876  0.4813
 1242SOL    HW115362   1.824   2.268   1.940  0.8515 -0.7834  0.6003
 1242SOL    HW215363   1.969   2.270   1.974  0.9624 -0.1927 -2.9246
 1243SOL     OW15364   3.638   2.803   4.721  0.1128  0.5825  0.2532
 1243SOL    HW115365   3.725   2.843   4.726  1.2334 -1.4747 -2.5938
 1243SOL    HW215366   3.662   2.713   4.699 -1.9156  0.5437 -1.8052
 1244SOL     OW15367   1.773   0.085   9.843 -0.2875 -0.2161  0.6894
 1244SOL    HW115368   1.704   0.019   9.849 -1.0130  0.3319 -1.5098
 1244SOL    HW215369   1.795   0.110   9.932 -0.8248 -0.1080  0.7923
 1245SOL     OW15370   1.056   3.966   2.155 -0.0287  0.4762 -0.3926
 1245SOL    HW115371   1.095   3.915   2.226 -0.0010 -1.6141 -1.9222
 1245SOL    HW215372   0.963   3.945   2.145  0.3934 -0.3644 -2.5176
 1246SOL     OW15373   1.674   2.708  14.171  0.3219  0.8024 -0.1638
 1246SOL    HW115374   1.649   2.636  14.114  0.1346 -0.4517  1.4836
 1246SOL    HW215375   1.735   2.753  14.113 -0.5624  1.3117 -0.6909
 1247SOL     OW15376   1.059   4.022   3.159  0.0177 -0.1879 -0.0256
 1247SOL    HW115377   1.068   4.081   3.234 -1.4692  1.8533 -1.4496
 1247SOL    HW215378   0.964   4.012   3.151 -0.0778  0.9758 -0.4146
 1248SOL     OW15379   1.882   4.610  15.085  0.1799 -0.3673  0.0294
 1248SOL    HW115380   1.962   4.610  15.137  0.8983  1.1683 -1.0582
 1248SOL    HW215381   1.824   4.558  15.140 -0.8914  1.6657  0.8294
 1249SOL     OW15382   1.539   2.814   9.243  0.0623 -0.0947 -0.2324
 1249SOL    HW115383   1.495   2.843   9.323  2.2711 -0.5887  1.1733
 1249SOL    HW215384   1.503   2.872   9.176  1.0024  1.3726  0.5299
 1250SOL     OW15385   1.621   2.169   6.300 -0.0812  0.2481  0.3493
 1250SOL    HW115386   1.582   2.214   6.375 -0.3284  0.3125  0.1830
 1250SOL    HW215387   1.710   2.204   6.291  0.2136 -1.2310 -2.3422
 1251SOL     OW15388   4.463   2.434   5.496  0.2281 -0.1632 -0.1523
 1251SOL    HW115389   4.379   2.390   5.482 -0.2094  0.8571 -0.7553
 1251SOL    HW215390   4.470   2.415   5.590 -0.0168 -0.4733 -0.1997
 1252SOL     OW15391   1.942   4.597   4.293 -0.0043 -0.7400  0.5575
 1252SOL    HW115392   1.846   4.600   4.297  0.0320  0.3687  0.6649
 1252SOL    HW215393   1.961   4.683   4.329 -1.5751 -0.1538 -0.0235
 1253SOL     OW15394   1.879   4.141  11.590 -0.0672  0.1156  0.2233
 1253SOL    HW115395   1.960   4.184  11.563  0.4398 -1.4129 -0.6796
 1253SOL    HW215396   1.918   4.054  11.604 -0.5934  0.0456  1.2179
 1254SOL     OW15397   1.580   2.058   6.027  0.4110  0.7671 -1.0940
 1254SOL    HW115398   1.527   2.124   5.984 -2.5314  0.0433  1.4431
 1254SOL    HW215399   1.588   2.095   6.115 -1.7558  1.0740 -1.0394
 1255SOL     OW15400   3.423   4.587   5.086  0.3244 -0.6277 -0.1495
 1255SOL    HW115401   3.354   4.635   5.131  1.4943  2.3677 -1.5773
 1255SOL    HW215402   3.491   4.609   5.150 -0.7540 -1.6720  1.3415
 1256SOL     OW15403   1.643   1.642   2.714 -0.3641 -0.2981 -0.1161
 1256SOL    HW115404   1.710   1.581   2.743  0.1054  0.3535  0.1571
 1256SOL    HW215405   1.692   1.687   2.644 -0.9946 -0.4494 -0.6607
 1257SOL     OW15406   0.638   3.616  15.312  0.0057 -0.3438 -0.0201
 1257SOL    HW115407   0.684   3.558  15.251 -0.3463 -0.3141 -0.3170
 1257SOL    HW215408   0.585   3.656  15.243  0.7473  1.4375  0.4433
 1258SOL     OW15409   0.363   0.381  10.404  0.1737  0.0813 -0.3083
 1258SOL    HW115410   0.328   0.465  10.434  1.8753  0.5711  0.2600
 1258SOL    HW215411   0.286   0.326  10.418 -0.1844  0.5858 -0.2922
 1259SOL     OW15412   3.578   2.168   8.199 -0.2797  0.5384 -1.0078
 1259SOL    HW115413   3.549   2.254   8.169  0.8480  1.5014  0.6623
 1259SOL    HW215414   3.612   2.141   8.114  0.9586  0.6590 -0.5438
 1260SOL     OW15415   1.345   1.252   5.621  0.1591  0.7704  0.1896
 1260SOL    HW115416   1.426   1.296   5.644 -0.8581  3.1440 -0.8229
 1260SOL    HW215417   1.284   1.325   5.610 -0.3700  0.3935  0.5929
 1261SOL     OW15418   1.600   4.616   9.906  0.2980 -0.0196  0.0567
 1261SOL    HW115419   1.615   4.529   9.869 -0.4298  0.2244 -0.8037
 1261SOL    HW215420   1.562   4.598   9.992  0.7005  0.7896  0.4007
 1262SOL     OW15421   1.500   3.651   2.205 -0.3400  0.0016 -0.2307
 1262SOL    HW115422   1.478   3.678   2.294 -0.5220 -0.0628 -0.2554
 1262SOL    HW215423   1.583   3.699   2.201 -0.3393  0.0487  0.4185
 1263SOL     OW15424   1.433   2.097  17.260  0.8892 -0.0419  0.2111
 1263SOL    HW115425   1.349   2.142  17.260 -0.1092 -1.9237 -0.5662
 1263SOL    HW215426   1.449   2.091  17.355  1.7933  0.7626  0.1109
 1264SOL     OW15427   4.101   0.638   9.148 -0.0271 -0.3534  0.3690
 1264SOL    HW115428   4.017   0.683   9.136 -0.8819 -2.8534 -3.0027
 1264SOL    HW215429   4.062   0.553   9.167  2.7303 -1.6175  0.3620
 1265SOL     OW15430   2.450   2.836   0.806  0.5946 -0.1940 -0.1720
 1265SOL    HW115431   2.420   2.927   0.815 -1.7691 -1.1324  1.4180
 1265SOL    HW215432   2.406   2.821   0.722  0.5887  1.4938 -0.4723
 1266SOL     OW15433   0.889   1.980   5.336  0.3291 -0.3794  0.4427
 1266SOL    HW115434   0.901   1.887   5.358  1.7735 -0.3993 -0.4638
 1266SOL    HW215435   0.854   2.007   5.421  0.4058 -0.8320  0.6202
 1267SOL     OW15436   4.130   1.772   6.762 -0.3502 -0.2433 -0.4120
 1267SOL    HW115437   4.105   1.830   6.833 -0.3223 -0.9796  0.2039
 1267SOL    HW215438   4.107   1.825   6.685  0.2926 -0.5248 -0.8086
 1268SOL     OW15439   0.188   4.089   6.062 -0.2365  0.0402 -0.5124
 1268SOL    HW115440   0.222   4.024   6.124 -0.3504 -0.6300 -1.1587
 1268SOL    HW215441   0.108   4.115   6.107 -1.6319  0.2369 -3.1376
 1269SOL     OW15442   0.135   3.545   4.355  0.7356 -0.3251  0.3878
 1269SOL    HW115443   0.070   3.612   4.333 -0.5405 -0.9582  2.1829
 1269SOL    HW215444   0.073   3.478   4.386  0.8224 -0.7990 -0.4563
 1270SOL     OW15445   1.234   4.422   5.031  0.9029  0.4448 -0.2375
 1270SOL    HW115446   1.146   4.413   5.068  1.4457  1.1523  1.2139
 1270SOL    HW215447   1.287   4.465   5.099  0.6974 -0.4162  0.4658
 1271SOL     OW15448   1.389   1.075  14.206  0.0693  0.2401  0.2661
 1271SOL    HW115449   1.400   1.128  14.127 -1.3844 -0.5640 -0.4839
 1271SOL    HW215450   1.311   1.023  14.187  0.0691  0.8100 -1.2500
 1272SOL     OW15451   2.365   2.548  16.478 -0.7331 -0.3262  0.0719
 1272SOL    HW115452   2.301   2.488  16.440 -1.4344  1.4650 -1.6255
 1272SOL    HW215453   2.433   2.494  16.518 -0.2694  0.7260  0.7321
 1273SOL     OW15454   0.629   1.706  13.759 -0.3118  0.9959  0.4263
 1273SOL    HW115455   0.546   1.753  13.766 -2.6241 -2.4931 -3.5411
 1273SOL    HW215456   0.683   1.761  13.702 -1.2758  3.0268  1.4758
 1274SOL     OW15457   1.999   0.573  14.722  0.2773 -0.3720 -0.4384
 1274SOL    HW115458   1.956   0.580  14.636 -0.3374  1.5004  0.0159
 1274SOL    HW215459   1.990   0.663  14.755 -0.4539 -0.7104  0.2796
 1275SOL     OW15460   2.072   0.805   6.346 -0.3201 -0.3698  0.3139
 1275SOL    HW115461   1.986   0.841   6.323 -0.9114 -0.0381  3.0217
 1275SOL    HW215462   2.127   0.860   6.291 -0.7457 -0.9565 -0.7203
 1276SOL     OW15463   0.873   3.021   0.937  0.3135  0.4625 -0.6100
 1276SOL    HW115464   0.916   3.017   0.852  2.8777 -0.1976  0.7224
 1276SOL    HW215465   0.880   3.116   0.952 -1.6648  0.0543  2.7754
 1277SOL     OW15466   3.652   0.740   5.357 -0.0076 -0.0621 -0.7898
 1277SOL    HW115467   3.624   0.829   5.333  3.2671  1.6362  1.7677
 1277SOL    HW215468   3.600   0.722   5.435  0.3770 -1.2294 -0.8076
 1278SOL     OW15469   2.321   2.054   7.473  0.4800 -0.0001  0.0278
 1278SOL    HW115470   2.239   2.028   7.431 -0.1150  2.0725 -0.1151
 1278SOL    HW215471   2.313   2.149   7.482  1.1008 -0.0209  0.8502
 1279SOL     OW15472   2.698   3.719  17.554  0.2391  0.5347  0.2463
 1279SOL    HW115473   2.691   3.626  17.573  0.1162  1.0466  2.7083
 1279SOL    HW215474   2.762   3.745  17.619 -0.3508  0.7193  0.7563
 1280SOL     OW15475   0.540   3.805   6.758  0.3712 -0.0155 -0.1408
 1280SOL    HW115476   0.452   3.842   6.760  0.6238  0.5136  1.4146
 1280SOL    HW215477   0.552   3.773   6.669 -0.2856 -1.6048  0.3440
 1281SOL     OW15478   4.090   1.553   9.478 -0.0101  0.1338  0.1325
 1281SOL    HW115479   4.098   1.557   9.382 -0.3348 -1.4770  0.0461
 1281SOL    HW215480   3.996   1.540   9.490 -0.2713  1.6824 -0.2316
 1282SOL     OW15481   2.364   0.506   6.627  0.2477 -0.0032  0.0591
 1282SOL    HW115482   2.299   0.575   6.613  1.4740  1.2151  0.2791
 1282SOL    HW215483   2.394   0.536   6.714 -0.4331 -0.9424  0.6150
 1283SOL     OW15484   2.911   2.923   2.804 -0.3907  0.7662 -0.7036
 1283SOL    HW115485   2.990   2.916   2.857 -0.8218  1.3188  0.0083
 1283SOL    HW215486   2.887   3.011   2.835 -1.1038 -0.4873  2.3145
 1284SOL     OW15487   0.173   3.811  10.496  0.3913 -0.3375  0.9701
 1284SOL    HW115488   0.178   3.847  10.407 -2.4395 -0.6329  0.6946
 1284SOL    HW215489   0.157   3.893  10.542  1.4930  0.1962  0.4193
 1285SOL     OW15490   4.503   4.512   6.966  0.1934 -0.4143 -0.5623
 1285SOL    HW115491   4.422   4.485   6.923  1.1222 -3.0101 -0.6916
 1285SOL    HW215492   4.463   4.553   7.043 -0.0724 -1.5662 -0.0879
 1286SOL     OW15493   1.383   2.958   7.752  0.6384  0.3388 -0.1899
 1286SOL    HW115494   1.293   2.991   7.750  0.2808 -0.6391 -0.4491
 1286SOL    HW215495   1.384   2.895   7.680  2.0440 -1.6055  1.5432
 1287SOL     OW15496   4.215   1.921   2.574 -0.0596 -0.5529  0.1760
 1287SOL    HW115497   4.258   1.839   2.600  1.0372 -0.1041 -0.2307
 1287SOL    HW215498   4.199   1.967   2.657 -3.3668  1.2515 -1.4798
 1288SOL     OW15499   0.319   2.042   3.800 -0.0455  0.1510 -0.5131
 1288SOL    HW115500   0.268   2.119   3.775  1.5180  1.5743  0.7299
 1288SOL    HW215501   0.267   2.006   3.872  1.4636  0.7339  0.8585
 1289SOL     OW15502   2.370   2.789   1.281 -0.2157  0.4901  0.2045
 1289SOL    HW115503   2.334   2.700   1.287  1.5783 -0.4163 -2.1683
 1289SOL    HW215504   2.310   2.824   1.215 -1.3764 -2.1928 -0.1705
 1290SOL     OW15505   4.035   3.037   2.330 -0.2475 -0.9645 -0.4862
 1290SOL    HW115506   4.021   3.128   2.355 -1.5847 -1.2874 -0.0659
 1290SOL    HW215507   3.954   3.019   2.282 -1.1479  1.6505  0.0946
 1291SOL     OW15508   1.289   2.465   2.375  0.3137  0.3345 -0.1360
 1291SOL    HW115509   1.228   2.538   2.387 -2.1896 -1.7888 -0.2021
 1291SOL    HW215510   1.234   2.388   2.382  1.0612 -0.1229  0.6483
 1292SOL     OW15511   3.615   0.137  12.206  0.5787  0.4070  0.4397
 1292SOL    HW115512   3.615   0.232  12.216  1.8909  0.4099  0.3982
 1292SOL    HW215513   3.558   0.132  12.129  1.7329  1.1482 -0.4482
 1293SOL     OW15514   3.207   2.717   3.183 -0.0425  0.1755 -0.4440
 1293SOL    HW115515   3.135   2.661   3.153  1.6107 -1.9189 -0.5338
 1293SOL    HW215516   3.155   2.777   3.236 -0.0067 -0.2225  0.0480
 1294SOL     OW15517   2.780   4.631  12.430 -0.1902  0.2793  0.1105
 1294SOL    HW115518   2.874   4.642  12.422 -0.4679  2.7329  0.3983
 1294SOL    HW215519   2.773   4.541  12.397  0.6566 -0.0396  0.7962
 1295SOL     OW15520   3.230   0.030  15.439  0.5058  0.0587 -0.5134
 1295SOL    HW115521   3.169   4.721  15.496  0.1413  0.6952 -0.3821
 1295SOL    HW215522   3.312   0.037  15.488 -0.2180  1.3613  0.5040
 1296SOL     OW15523   0.093   0.339   6.332  0.0801 -0.0152 -0.2099
 1296SOL    HW115524   0.054   0.359   6.418 -1.5001 -3.5352 -0.1418
 1296SOL    HW215525   0.068   0.418   6.285 -1.5896  0.1327  0.9174
 1297SOL     OW15526   1.115   3.513   7.552  0.0938  0.3371 -0.0775
 1297SOL    HW115527   1.078   3.495   7.638 -0.5602 -1.9577 -0.8488
 1297SOL    HW215528   1.208   3.499   7.572  0.6843 -0.5918 -3.4384
 1298SOL     OW15529   3.071   0.790  11.376 -0.8099 -0.2409 -0.1267
 1298SOL    HW115530   3.026   0.711  11.347 -0.5870 -0.3329 -0.2162
 1298SOL    HW215531   3.162   0.770  11.358 -0.6071  1.5858 -1.1283
 1299SOL     OW15532   1.601   3.309   5.747 -0.3497 -0.1625  0.0739
 1299SOL    HW115533   1.540   3.381   5.730  0.6191  0.6638  0.1228
 1299SOL    HW215534   1.560   3.234   5.703  1.3826 -0.7501 -0.5498
 1300SOL     OW15535   2.942   0.437  14.989  0.3062  0.5241  0.0618
 1300SOL    HW115536   2.909   0.353  14.957 -2.8633  1.5592  0.6623
 1300SOL    HW215537   2.937   0.478  14.903  0.1107 -0.0278 -0.1930
 1301SOL     OW15538   2.479   1.717   6.022  0.1875 -0.5561  0.4751
 1301SOL    HW115539   2.540   1.770   5.971 -0.3040 -1.1486 -0.7409
 1301SOL    HW215540   2.544   1.658   6.062 -0.0890  0.0473  1.8144
 1302SOL     OW15541   1.252   3.404   2.009  0.3372  0.3466  0.0775
 1302SOL    HW115542   1.289   3.411   1.921 -2.1644 -1.4104 -1.1043
 1302SOL    HW215543   1.317   3.445   2.066 -2.2569  0.4246  2.9313
 1303SOL     OW15544   1.249   4.693   4.144 -0.3544  0.2500 -0.2669
 1303SOL    HW115545   1.207   4.640   4.212 -2.1356 -1.6875 -2.8279
 1303SOL    HW215546   1.298   0.025   4.187  0.8569  0.2867 -1.6982
 1304SOL     OW15547   2.707   4.548   3.889 -0.4317 -0.1455 -0.7580
 1304SOL    HW115548   2.771   4.545   3.817 -0.7067  1.0741 -1.0399
 1304SOL    HW215549   2.639   4.599   3.847 -2.9341 -2.0986  0.9410
 1305SOL     OW15550   0.909   1.492   5.314 -0.0270  0.0369 -0.0094
 1305SOL    HW115551   0.892   1.557   5.382 -2.3031 -2.1066  1.4663
 1305SOL    HW215552   1.003   1.490   5.298  0.0931  0.8864  0.6064
 1306SOL     OW15553   4.262   0.028   1.447 -0.4792 -0.7209  0.3195
 1306SOL    HW115554   4.265   0.007   1.540 -0.5823  3.5347  1.2579
 1306SOL    HW215555   4.209   4.686   1.431  2.6843 -3.0923  1.6444
 1307SOL     OW15556   0.044   3.908   7.382  0.3935 -0.0034 -0.2622
 1307SOL    HW115557   0.134   3.930   7.408 -0.7059  1.7092  2.0413
 1307SOL    HW215558   0.060   3.849   7.308  1.2876 -0.6648  0.4392
 1308SOL     OW15559   0.148   4.670  12.743 -0.0394 -0.2401  0.1152
 1308SOL    HW115560   0.220   4.731  12.727  0.5887 -0.4368  2.3092
 1308SOL    HW215561   0.118   4.688  12.832 -2.0410 -0.7860 -0.4426
 1309SOL     OW15562   2.244   1.978  17.415  0.7105 -0.0488  0.2484
 1309SOL    HW115563   2.209   2.040  17.351 -0.2863  0.4930  1.3340
 1309SOL    HW215564   2.179   1.978  17.485  0.6741  0.4031  0.2148
 1310SOL     OW15565   4.351   2.204   8.112 -0.3233 -0.4465 -0.4552
 1310SOL    HW115566   4.286   2.234   8.176 -0.7322  0.5047 -1.3194
 1310SOL    HW215567   4.347   2.277   8.050 -0.4011  0.8186  1.0528
 1311SOL     OW15568   4.110   4.102   3.759 -0.3643 -0.3754 -0.6431
 1311SOL    HW115569   4.069   4.024   3.797 -0.8945  0.5700  0.7209
 1311SOL    HW215570   4.196   4.090   3.799  0.9112  2.1567 -2.6247
 1312SOL     OW15571   3.668   4.463   9.616  0.0420  0.6712  0.4523
 1312SOL    HW115572   3.635   4.389   9.668 -0.7504 -0.4152 -1.6098
 1312SOL    HW215573   3.751   4.440   9.572 -1.4506  2.3111 -3.1772
 1313SOL     OW15574   4.113   4.524   0.387  0.4189  0.1793 -0.2083
 1313SOL    HW115575   4.094   4.567   0.470 -1.0782 -0.1291 -0.3872
 1313SOL    HW215576   4.209   4.522   0.384  0.4078 -2.1659  0.9277
 1314SOL     OW15577   1.097   2.941   2.951  0.8028 -0.4355 -0.1798
 1314SOL    HW115578   1.187   2.949   2.982  1.6732 -3.7990 -1.8808
 1314SOL    HW215579   1.102   2.850   2.922 -2.1319 -0.7411  0.1743
 1315SOL     OW15580   3.351   4.554   0.834 -0.4765 -0.9238 -0.1973
 1315SOL    HW115581   3.290   4.574   0.905 -1.8206 -1.5795 -1.1562
 1315SOL    HW215582   3.422   4.553   0.899  0.8649 -2.1856 -1.6779
 1316SOL     OW15583   0.542   1.170   8.351 -0.0292  0.6630  0.0313
 1316SOL    HW115584   0.488   1.103   8.392 -1.1187  2.4588  1.5501
 1316SOL    HW215585   0.588   1.210   8.425 -0.4073 -0.0553  0.6535
 1317SOL     OW15586   2.767   0.922   0.140  0.8378 -0.1787 -1.2688
 1317SOL    HW115587   2.722   0.846   0.103 -1.5048  1.0339 -0.9043
 1317SOL    HW215588   2.806   0.963   0.063  2.4577  0.5274 -0.0511
 1318SOL     OW15589   0.504   4.253  11.179 -0.7759 -0.1557 -0.1488
 1318SOL    HW115590   0.583   4.285  11.136 -0.2499 -2.3722 -0.8013
 1318SOL    HW215591   0.549   4.197  11.242 -0.5866  0.5160  0.3215
 1319SOL     OW15592   2.020   0.002   6.604  0.0233 -0.3925 -0.3592
 1319SOL    HW115593   1.970   0.007   6.522 -0.2066  1.6037 -0.1128
 1319SOL    HW215594   2.088   0.068   6.590 -0.3692 -0.2148 -1.4523
 1320SOL     OW15595   2.028   3.507   6.312 -0.3131  0.3808 -0.2172
 1320SOL    HW115596   1.950   3.553   6.342 -0.1620  0.4438  0.0879
 1320SOL    HW215597   2.036   3.453   6.391 -0.7950  1.9799  0.9372
 1321SOL     OW15598   3.052   2.896   6.759  0.0154  0.1918  0.3606
 1321SOL    HW115599   3.124   2.850   6.715  1.4033  2.0629  0.6872
 1321SOL    HW215600   3.013   2.835   6.822 -0.5016 -1.6249 -1.7159
 1322SOL     OW15601   0.728   2.243   5.268  0.5572 -0.1337 -0.0267
 1322SOL    HW115602   0.771   2.157   5.262  1.3676  0.3073 -0.4090
 1322SOL    HW215603   0.805   2.298   5.266 -0.0567  0.7830  1.2601
 1323SOL     OW15604   2.465   3.328   2.887  0.0037 -0.0682  0.2853
 1323SOL    HW115605   2.493   3.246   2.847  0.7488 -0.4542  1.5813
 1323SOL    HW215606   2.546   3.341   2.937 -1.3126 -0.5061  2.4813
 1324SOL     OW15607   1.814   3.537  15.866 -0.3053  0.7628 -0.5583
 1324SOL    HW115608   1.761   3.458  15.879 -1.2247  1.4722  0.0062
 1324SOL    HW215609   1.774   3.555  15.781 -0.9981  3.8272  0.4143
 1325SOL     OW15610   1.493   1.071   2.744  0.9580 -0.8125  0.9176
 1325SOL    HW115611   1.445   1.141   2.788  0.2040 -0.1989 -0.9123
 1325SOL    HW215612   1.431   1.005   2.777 -1.1178  0.1533 -1.0317
 1326SOL     OW15613   2.467   1.345   8.200  0.7524 -0.4521 -0.4628
 1326SOL    HW115614   2.497   1.286   8.130  0.9304 -1.6856  0.6548
 1326SOL    HW215615   2.460   1.422   8.143  0.6253 -0.3175 -0.2617
 1327SOL     OW15616   1.863   0.558   2.862  0.1539  0.8837  0.1808
 1327SOL    HW115617   1.892   0.630   2.919 -0.5900 -0.5079  2.3100
 1327SOL    HW215618   1.829   0.611   2.790  1.0139 -0.4959 -1.2185
 1328SOL     OW15619   1.373   2.392  16.100  0.0944  0.2902 -0.1589
 1328SOL    HW115620   1.418   2.429  16.175  0.9686  1.9162 -1.4805
 1328SOL    HW215621   1.295   2.346  16.132 -0.3342  0.1781 -1.3569
 1329SOL     OW15622   2.925   3.811   7.711 -0.0777  0.0729 -0.2827
 1329SOL    HW115623   2.991   3.750   7.679 -1.0339  0.5118 -3.0775
 1329SOL    HW215624   2.928   3.877   7.642 -0.3166 -1.6641 -1.9512
 1330SOL     OW15625   1.552   0.270   4.668 -0.2468 -0.2875 -0.0579
 1330SOL    HW115626   1.482   0.313   4.716 -1.2622 -3.2265  1.1389
 1330SOL    HW215627   1.586   0.331   4.602  2.0011  0.0022  1.3740
 1331SOL     OW15628   2.720   2.575   4.714 -0.2465  0.3449  0.3038
 1331SOL    HW115629   2.766   2.650   4.677  1.4005  0.2576  2.1816
 1331SOL    HW215630   2.710   2.526   4.632  0.4126 -0.8421  0.9258
 1332SOL     OW15631   4.524   2.652  11.993  1.1432  0.0523  0.1591
 1332SOL    HW115632   4.433   2.629  12.013  0.8892 -0.7231 -1.8748
 1332SOL    HW215633   4.512   2.745  11.972  0.1379 -0.4079 -1.2773
 1333SOL     OW15634   4.367   2.886   1.304  0.4030  0.3125  0.2865
 1333SOL    HW115635   4.367   2.879   1.400  0.0919 -2.2472  0.0973
 1333SOL    HW215636   4.300   2.953   1.288  2.6286  2.5499  0.3588
 1334SOL     OW15637   0.113   2.710  17.264 -0.2764 -0.1003 -0.3918
 1334SOL    HW115638   0.120   2.623  17.306  0.5018  0.5252  0.7871
 1334SOL    HW215639   0.157   2.774  17.320 -2.5399  2.3819 -1.4371
 1335SOL     OW15640   3.706   2.582   1.462 -0.0664 -0.2202 -0.3854
 1335SOL    HW115641   3.654   2.539   1.395 -2.2811 -0.2711  1.3726
 1335SOL    HW215642   3.661   2.666   1.452 -0.6373 -0.2932  1.5658
 1336SOL     OW15643   2.999   2.300   7.302  0.2061  0.0495  0.1365
 1336SOL    HW115644   2.968   2.213   7.275 -0.7565  0.6186 -0.5948
 1336SOL    HW215645   2.950   2.359   7.244 -1.2922  0.1597  1.5228
 1337SOL     OW15646   2.872   3.266   6.864  0.6196 -0.2188 -0.2327
 1337SOL    HW115647   2.851   3.358   6.850  0.7236 -0.4609 -1.9761
 1337SOL    HW215648   2.876   3.257   6.959  1.3898  0.1313 -0.2293
 1338SOL     OW15649   3.953   4.148  12.215 -0.2489  0.4794 -0.2397
 1338SOL    HW115650   3.956   4.053  12.228  0.5348  0.5156 -0.1412
 1338SOL    HW215651   4.045   4.166  12.198 -1.1568  2.7514 -2.7657
 1339SOL     OW15652   0.888   1.316  13.717 -0.5791  0.3698 -0.0181
 1339SOL    HW115653   0.962   1.346  13.665 -1.0070  0.3250 -0.6565
 1339SOL    HW215654   0.921   1.235  13.754 -0.2265  1.8717  2.9778
 1340SOL     OW15655   3.082   1.230   0.587 -0.1644  0.4848 -0.2247
 1340SOL    HW115656   2.988   1.221   0.603 -0.1628  2.6180  1.0904
 1340SOL    HW215657   3.095   1.325   0.577 -1.5806  0.6889 -0.1698
 1341SOL     OW15658   3.369   1.497   3.096  0.3458 -0.2318  0.0291
 1341SOL    HW115659   3.444   1.457   3.052  0.5860 -0.6047  0.7858
 1341SOL    HW215660   3.408   1.563   3.154 -0.6185 -0.5301  0.9936
 1342SOL     OW15661   0.228   4.073  15.374 -0.2443 -0.1573  0.4745
 1342SOL    HW115662   0.210   3.986  15.340  1.0387  0.3610 -1.5069
 1342SOL    HW215663   0.262   4.048  15.460 -1.5774 -2.0990  0.4389
 1343SOL     OW15664   0.653   3.676   5.190  0.4976  0.5564 -0.2436
 1343SOL    HW115665   0.625   3.595   5.148 -0.9883  0.5797  0.6910
 1343SOL    HW215666   0.663   3.657   5.284  0.2866  0.7873 -0.1731
 1344SOL     OW15667   1.937   4.577   3.466  0.2382  0.6823 -0.5768
 1344SOL    HW115668   2.020   4.535   3.446 -0.5107 -0.9026 -0.3441
 1344SOL    HW215669   1.941   4.644   3.398 -0.3062  0.7702 -0.5215
 1345SOL     OW15670   1.836   4.323   3.461 -0.4109 -0.2468 -0.0206
 1345SOL    HW115671   1.892   4.272   3.520 -1.4645 -1.0596  0.2666
 1345SOL    HW215672   1.863   4.411   3.485 -0.3924 -0.2224 -0.1327
 1346SOL     OW15673   3.651   4.503   3.709 -0.2361  0.2412 -0.6564
 1346SOL    HW115674   3.556   4.507   3.719 -0.0267 -0.6522  1.6407
 1346SOL    HW215675   3.667   4.591   3.675 -0.7764  0.1707 -1.0929
 1347SOL     OW15676   2.693   0.685  13.851 -0.0701 -0.2014  0.3470
 1347SOL    HW115677   2.664   0.711  13.763  1.6749  1.3599  0.2452
 1347SOL    HW215678   2.609   0.662  13.891 -0.1570 -0.1485  0.1976
 1348SOL     OW15679   0.933   3.295   4.366 -0.9055  0.9844 -0.8008
 1348SOL    HW115680   0.853   3.284   4.418 -0.1238  1.6507  0.5448
 1348SOL    HW215681   0.963   3.204   4.371  0.7387  1.4805 -1.3919
 1349SOL     OW15682   3.349   1.809   0.082  0.4133 -0.1875  0.3630
 1349SOL    HW115683   3.342   1.760   0.000  2.4931  0.1732 -0.0445
 1349SOL    HW215684   3.269   1.788   0.129  0.3494  3.2254  1.8210
 1350SOL     OW15685   0.945   1.888  15.586 -0.1246 -0.6350  0.8026
 1350SOL    HW115686   0.882   1.817  15.598 -0.3627 -0.3030  1.5167
 1350SOL    HW215687   0.889   1.961  15.560  1.6160  0.9658  1.4797
 1351SOL     OW15688   3.251   0.017   3.180 -0.0078  0.4023 -0.1448
 1351SOL    HW115689   3.192   4.708   3.240  0.5425  0.4891  0.4683
 1351SOL    HW215690   3.333   4.708   3.198 -0.9137 -1.6313 -1.2463
 1352SOL     OW15691   2.712   2.418   5.828 -0.3084  0.4629  0.1817
 1352SOL    HW115692   2.674   2.380   5.907 -1.1895 -0.2734 -0.5946
 1352SOL    HW215693   2.786   2.359   5.817 -1.9503 -0.8416 -3.9081
 1353SOL     OW15694   3.394   3.020   8.889  0.2147  0.0324 -0.0985
 1353SOL    HW115695   3.334   3.001   8.961 -0.7915 -0.5274 -1.0877
 1353SOL    HW215696   3.478   3.034   8.934  0.6112  0.6320 -1.0413
 1354SOL     OW15697   0.179   1.655   9.850 -0.1961 -0.4788 -0.2673
 1354SOL    HW115698   0.267   1.628   9.824  0.6018  1.7804  0.0685
 1354SOL    HW215699   0.123   1.615   9.783 -1.5830  0.0098  0.6221
 1355SOL     OW15700   1.554   2.178   4.521 -0.3440  0.0028  0.2767
 1355SOL    HW115701   1.599   2.252   4.562 -0.7582  0.6743 -0.4576
 1355SOL    HW215702   1.594   2.103   4.565  2.4881  1.5692  0.3685
 1356SOL     OW15703   4.273   1.005   6.854  0.2234  0.6255  0.0140
 1356SOL    HW115704   4.274   1.091   6.813 -0.7419  0.8990  0.5693
 1356SOL    HW215705   4.213   0.964   6.792 -0.2199  1.2898  0.0029
 1357SOL     OW15706   0.237   2.726  17.617  0.2107 -0.4310 -0.3737
 1357SOL    HW115707   0.209   2.789  17.551  3.0201 -0.0425 -1.1758
 1357SOL    HW215708   0.172   2.657  17.605  0.0244 -0.3246  0.0208
 1358SOL     OW15709   4.157   3.549   3.588  0.3947 -0.0144 -0.0516
 1358SOL    HW115710   4.073   3.586   3.613 -0.1521 -1.1358 -0.2058
 1358SOL    HW215711   4.139   3.523   3.497  0.0516 -0.4893  0.1522
 1359SOL     OW15712   1.949   1.593   9.483  0.5001 -0.1197  0.2342
 1359SOL    HW115713   1.920   1.503   9.471 -2.0238  0.6015  0.9480
 1359SOL    HW215714   1.912   1.626   9.402 -0.6980 -0.5821  0.5916
 1360SOL     OW15715   1.511   0.319   8.626  0.6360 -0.5168  0.0268
 1360SOL    HW115716   1.599   0.354   8.638  0.3359  0.6785 -1.2016
 1360SOL    HW215717   1.498   0.284   8.714  0.3828 -1.1664 -0.2611
 1361SOL     OW15718   2.861   0.564   7.884  0.1189 -0.5525  0.3028
 1361SOL    HW115719   2.939   0.527   7.925 -0.0398  0.2224  1.3220
 1361SOL    HW215720   2.899   0.628   7.825 -1.2711  0.5399  0.5961
 1362SOL     OW15721   4.264   4.000  11.635  0.3498  0.4263 -0.3876
 1362SOL    HW115722   4.231   4.020  11.722  1.5064  2.9056 -0.5394
 1362SOL    HW215723   4.322   3.926  11.652  2.5392  2.1225 -0.4510
 1363SOL     OW15724   3.227   4.206   4.129 -0.1980 -0.0091 -0.1276
 1363SOL    HW115725   3.132   4.210   4.137 -0.0214  2.2546  0.8741
 1363SOL    HW215726   3.249   4.154   4.206  0.2995 -0.4473 -0.5683
 1364SOL     OW15727   4.309   1.465   8.253  0.0193  0.0343  0.0739
 1364SOL    HW115728   4.342   1.377   8.272 -1.8150 -0.5872  0.4194
 1364SOL    HW215729   4.351   1.490   8.171  1.7726 -3.8090 -0.2097
 1365SOL     OW15730   2.633   4.318   4.334 -0.2670  0.1190  0.0449
 1365SOL    HW115731   2.620   4.322   4.239  0.8380 -0.9631 -0.1471
 1365SOL    HW215732   2.632   4.224   4.349  0.2964  0.5682  2.9724
 1366SOL     OW15733   4.313   4.611   7.854 -0.4437 -0.3146  0.1480
 1366SOL    HW115734   4.339   4.548   7.787  0.6761  0.1969  0.1025
 1366SOL    HW215735   4.354   4.693   7.827 -0.9010  0.3969  1.5851
 1367SOL     OW15736   0.012   1.835   5.239  0.4050 -0.5065 -0.0928
 1367SOL    HW115737   0.032   1.754   5.192 -0.8985  0.5053 -2.4385
 1367SOL    HW215738   4.712   1.893   5.171 -1.3784  0.3873  1.6519
 1368SOL     OW15739   1.540   1.430   4.500 -0.0384 -0.1687  0.6137
 1368SOL    HW115740   1.551   1.459   4.591 -0.8966 -2.4950  1.4749
 1368SOL    HW215741   1.589   1.350   4.518  1.9221  1.1008  0.8313
 1369SOL     OW15742   1.372   0.444   1.831 -0.2240 -1.1333 -0.3265
 1369SOL    HW115743   1.378   0.474   1.740  1.8105  1.1583  0.5597
 1369SOL    HW215744   1.466   0.434   1.845  0.0238  1.9861  0.2324
 1370SOL     OW15745   4.072   0.340   2.831  0.1443  0.1138 -0.2160
 1370SOL    HW115746   4.016   0.405   2.873  0.6727 -0.5566  1.5225
 1370SOL    HW215747   4.135   0.331   2.903 -0.4502  1.1686  0.4437
 1371SOL     OW15748   0.014   1.530   6.768 -0.0522 -0.2719  0.0197
 1371SOL    HW115749   0.091   1.564   6.812  1.0287 -0.3706 -1.7963
 1371SOL    HW215750   0.037   1.438   6.753  0.3920 -0.4776  1.9231
 1372SOL     OW15751   2.573   2.122   5.507 -0.1063 -0.0217  0.2564
 1372SOL    HW115752   2.542   2.209   5.482  1.7163  0.4658 -0.2662
 1372SOL    HW215753   2.529   2.101   5.590 -1.3721 -0.6282 -0.5545
 1373SOL     OW15754   0.960   4.218   2.314 -0.2501 -0.6806 -0.5620
 1373SOL    HW115755   0.983   4.152   2.247  2.0267  1.9893 -2.4405
 1373SOL    HW215756   0.912   4.285   2.266 -0.6302 -0.6218 -0.0997
 1374SOL     OW15757   3.308   1.749   6.456  0.0512  0.0915 -0.1345
 1374SOL    HW115758   3.354   1.819   6.410  2.2767 -1.1578  0.1554
 1374SOL    HW215759   3.254   1.788   6.524 -0.0784 -2.6673  1.3798
 1375SOL     OW15760   0.740   0.372   5.602 -0.2776  0.0081  0.7336
 1375SOL    HW115761   0.697   0.449   5.639 -0.0335 -0.7258  2.5449
 1375SOL    HW215762   0.707   0.387   5.513 -1.2939  0.0871  1.1257
 1376SOL     OW15763   4.602   2.118   8.057  0.7807  0.2989 -0.6553
 1376SOL    HW115764   4.557   2.045   8.013  0.7278  0.3060 -0.6133
 1376SOL    HW215765   4.530   2.145   8.114  0.2497 -1.4841 -0.4701
 1377SOL     OW15766   0.825   2.094   4.948 -0.3988 -0.0147  0.2097
 1377SOL    HW115767   0.909   2.058   4.974 -0.8662 -0.0542  1.7069
 1377SOL    HW215768   0.853   2.179   4.982  1.0514  0.1474 -1.3870
 1378SOL     OW15769   0.693   2.927   6.952 -0.1063 -0.8124 -0.5058
 1378SOL    HW115770   0.764   2.892   6.899  0.3710  0.9565 -1.0113
 1378SOL    HW215771   0.654   2.995   6.897  0.1138  0.2815  0.6878
 1379SOL     OW15772   0.803   1.735   9.315  0.0742 -0.2842 -0.0070
 1379SOL    HW115773   0.750   1.656   9.329 -0.2924 -0.2424 -1.1530
 1379SOL    HW215774   0.779   1.782   9.395 -2.3925 -0.0135 -0.9065
 1380SOL     OW15775   1.498   2.769   2.209  0.2479 -0.2268 -0.2432
 1380SOL    HW115776   1.508   2.674   2.216  0.3580 -0.1905  0.1294
 1380SOL    HW215777   1.566   2.798   2.148 -1.0189  1.3769 -0.8828
 1381SOL     OW15778   3.384   2.257   4.917 -0.1967 -0.1009  0.0382
 1381SOL    HW115779   3.396   2.307   4.998  0.4896  0.4014 -0.3709
 1381SOL    HW215780   3.444   2.184   4.931  1.6501  1.4682  0.3404
 1382SOL     OW15781   3.578   2.857  11.453 -0.1167 -0.0310  0.4320
 1382SOL    HW115782   3.602   2.943  11.417  0.2157  0.0139  0.7692
 1382SOL    HW215783   3.639   2.826  11.519 -0.4103  0.1100  0.7670
 1383SOL     OW15784   4.465   1.679   9.296 -0.0547  0.3851 -0.2291
 1383SOL    HW115785   4.478   1.747   9.230  1.1297  0.7669  0.3916
 1383SOL    HW215786   4.453   1.732   9.375 -1.3168 -2.6945  1.6271
 1384SOL     OW15787   4.623   2.018   3.630  1.1966 -0.3321 -0.1109
 1384SOL    HW115788   4.595   1.950   3.568 -1.4945  0.4023  0.2964
 1384SOL    HW215789   4.604   2.099   3.583 -1.5279 -1.0433 -0.2435
 1385SOL     OW15790   3.801   0.535   7.049  0.1709  0.1194  0.1928
 1385SOL    HW115791   3.843   0.612   7.086 -0.1433  1.0678 -1.3852
 1385SOL    HW215792   3.743   0.496   7.115  2.1435 -0.4417  1.5687
 1386SOL     OW15793   3.300   3.637   1.455 -0.1982  0.9553 -0.1930
 1386SOL    HW115794   3.336   3.548   1.450  0.7579  1.2076  2.5623
 1386SOL    HW215795   3.343   3.676   1.531  0.7904 -0.8571  0.1869
 1387SOL     OW15796   2.043   4.378   7.883 -0.0871  0.1449 -0.1038
 1387SOL    HW115797   1.986   4.302   7.895 -1.7165  1.1005 -1.7589
 1387SOL    HW215798   1.979   4.445   7.856 -0.0061  1.6894  3.4840
 1388SOL     OW15799   4.708   0.139   8.501 -0.1315  0.2768  0.1022
 1388SOL    HW115800   4.733   0.047   8.515  0.5363  0.5262  0.5899
 1388SOL    HW215801   0.046   0.187   8.536  1.3202 -1.3011 -0.8609
 1389SOL     OW15802   3.757   0.620  11.930 -0.2548 -0.6041  0.4109
 1389SOL    HW115803   3.788   0.709  11.944  0.4671 -0.4984 -1.9475
 1389SOL    HW215804   3.725   0.635  11.841 -1.0716 -0.5081  0.7171
 1390SOL     OW15805   2.717   2.543   2.177  0.1187  0.5811 -1.0444
 1390SOL    HW115806   2.773   2.494   2.237 -0.4979  1.2154  0.0504
 1390SOL    HW215807   2.694   2.608   2.243 -0.1147 -0.6307  0.0546
 1391SOL     OW15808   3.923   2.222   6.795  0.1391  0.2008 -0.4983
 1391SOL    HW115809   3.846   2.275   6.773 -0.8137 -1.3820 -0.9578
 1391SOL    HW215810   3.938   2.232   6.889  0.6960  0.4970 -0.6146
 1392SOL     OW15811   1.594   2.351   4.872  0.0767  0.5501 -0.6520
 1392SOL    HW115812   1.514   2.302   4.852 -0.1157 -0.9836  4.0188
 1392SOL    HW215813   1.624   2.359   4.781 -0.7456 -0.4521 -1.0155
 1393SOL     OW15814   3.167   3.353   2.211  0.4063  0.1602  0.1364
 1393SOL    HW115815   3.176   3.317   2.300  1.0370 -1.9016 -0.7800
 1393SOL    HW215816   3.154   3.448   2.217 -0.0551  0.0214  1.4897
 1394SOL     OW15817   2.435   0.004   9.481  0.0796 -0.1085  0.1193
 1394SOL    HW115818   2.471   0.069   9.541 -1.7628  1.1013 -0.0897
 1394SOL    HW215819   2.359   0.050   9.445 -0.9010 -0.5407  1.6165
 1395SOL     OW15820   4.437   1.398   5.515  0.0768  0.7891  0.2359
 1395SOL    HW115821   4.401   1.313   5.492  1.4359  0.6304 -1.2486
 1395SOL    HW215822   4.410   1.446   5.437 -0.3627 -1.1307 -0.8015
 1396SOL     OW15823   2.817   3.920   9.630 -0.3464 -0.3946 -0.2951
 1396SOL    HW115824   2.870   3.950   9.556 -1.3751  0.7120 -0.5940
 1396SOL    HW215825   2.769   3.847   9.592  1.1370 -1.7566  0.4642
 1397SOL     OW15826   3.887   1.819   6.481 -0.0701  0.2042 -1.0961
 1397SOL    HW115827   3.861   1.872   6.556  3.3420  0.4209 -0.0694
 1397SOL    HW215828   3.840   1.736   6.495  1.8866 -0.4974  1.1638
 1398SOL     OW15829   0.876   1.741   3.749 -0.7983  0.1752 -0.7423
 1398SOL    HW115830   0.932   1.782   3.682 -0.0046  1.6487  0.8239
 1398SOL    HW215831   0.933   1.684   3.801 -2.8626 -0.4369  0.8314
 1399SOL     OW15832   0.473   0.180   4.300  0.3016  0.2442  0.5666
 1399SOL    HW115833   0.405   0.118   4.324  0.6266  0.2546  1.5229
 1399SOL    HW215834   0.500   0.163   4.210 -2.7944  0.3557 -0.3971
 1400SOL     OW15835   3.258   0.955   6.597 -0.1755 -0.2232 -0.7267
 1400SOL    HW115836   3.283   1.003   6.676  0.9066 -2.3940  0.2370
 1400SOL    HW215837   3.162   0.957   6.599 -0.2248 -1.9603 -1.5273
 1401SOL     OW15838   1.945   0.296  10.357  0.2303 -0.2391  0.1880
 1401SOL    HW115839   1.981   0.385  10.350  1.7051 -0.9211 -0.8866
 1401SOL    HW215840   1.940   0.302  10.453 -1.4565  0.2029  0.0640
 1402SOL     OW15841   1.051   1.337  13.496  0.1378  0.5423  0.2979
 1402SOL    HW115842   1.114   1.277  13.537  2.0003  2.2842 -0.0111
 1402SOL    HW215843   1.034   1.283  13.420 -0.5151  1.2198 -0.0356
 1403SOL     OW15844   2.503   2.207   8.055 -0.0169  0.2383 -0.0975
 1403SOL    HW115845   2.567   2.158   8.003  0.4432 -0.5000  1.1806
 1403SOL    HW215846   2.547   2.284   8.089  0.8147 -0.4230  0.3268
 1404SOL     OW15847   0.416   4.732   7.096 -0.0496 -0.1268 -0.4177
 1404SOL    HW115848   0.436   0.070   7.151  1.4790 -0.2682 -0.7898
 1404SOL    HW215849   0.340   0.018   7.042 -1.0617  0.6922  1.3589
 1405SOL     OW15850   1.669   3.052  16.127 -0.2886 -0.6052  0.4412
 1405SOL    HW115851   1.581   3.022  16.153 -0.6992 -0.3473 -0.6496
 1405SOL    HW215852   1.679   3.144  16.151  0.3886 -0.7410  0.6766
 1406SOL     OW15853   0.520   2.841   4.954 -0.5128  0.0192 -0.0388
 1406SOL    HW115854   0.431   2.808   4.951  0.5785 -3.1140  2.9842
 1406SOL    HW215855   0.546   2.791   5.031 -1.6200 -2.9042 -1.5693
 1407SOL     OW15856   3.518   0.549   4.695 -0.3872  0.2364  0.6515
 1407SOL    HW115857   3.558   0.591   4.619 -0.8287 -0.1154  0.2213
 1407SOL    HW215858   3.454   0.488   4.657  0.5616 -1.8390  2.3836
 1408SOL     OW15859   3.548   1.112   5.995  0.1129  0.5504 -0.6972
 1408SOL    HW115860   3.581   1.022   6.005  0.8706  1.3315  3.7540
 1408SOL    HW215861   3.489   1.118   6.071  1.2434 -0.7685  0.2937
 1409SOL     OW15862   4.373   0.926  10.078 -0.3758  0.2934 -0.7918
 1409SOL    HW115863   4.361   1.021  10.079 -0.8933  0.2038  0.5010
 1409SOL    HW215864   4.384   0.905   9.985  0.4226 -2.8378 -0.0118
 1410SOL     OW15865   2.849   1.195   8.827  0.4952 -0.3558 -0.5840
 1410SOL    HW115866   2.801   1.164   8.904 -0.0509  2.4893  0.2005
 1410SOL    HW215867   2.835   1.114   8.778 -2.4257 -0.5537  0.6055
 1411SOL     OW15868   3.323   4.519  10.402  0.1902 -0.2517 -0.0304
 1411SOL    HW115869   3.236   4.548  10.375  0.3408 -0.9582 -1.2616
 1411SOL    HW215870   3.316   4.439  10.350  0.2959  0.3585 -0.9710
 1412SOL     OW15871   2.925   0.655   4.399  0.1222  0.2294  0.0624
 1412SOL    HW115872   2.979   0.733   4.412  0.9318 -0.2495 -0.4643
 1412SOL    HW215873   2.854   0.693   4.348 -0.4530 -1.3520 -0.3067
 1413SOL     OW15874   3.053   1.505   2.752  0.4950  0.1309 -0.1692
 1413SOL    HW115875   2.992   1.474   2.685 -1.2124 -1.1624  1.9597
 1413SOL    HW215876   3.037   1.599   2.737  0.7384 -0.1392 -2.1015
 1414SOL     OW15877   2.870   4.336  12.583  0.5400 -0.1584 -0.6495
 1414SOL    HW115878   2.917   4.419  12.586  0.3127 -0.0606  0.1035
 1414SOL    HW215879   2.801   4.343  12.518  1.4483 -0.4558 -1.6562
 1415SOL     OW15880   2.883   0.625   4.999  0.0730  0.4144 -0.3065
 1415SOL    HW115881   2.812   0.680   5.033  0.0226 -0.0032  0.2451
 1415SOL    HW215882   2.833   0.565   4.943  0.0858 -1.2571  1.4675
 1416SOL     OW15883   0.259   4.609   4.994  0.1307 -0.4968  0.4351
 1416SOL    HW115884   0.348   4.577   4.978  0.7545  1.0984  0.7394
 1416SOL    HW215885   0.255   4.661   4.914  1.0094 -2.8124 -1.1104
 1417SOL     OW15886   3.935   2.494   6.508 -0.4213 -0.7983 -0.6854
 1417SOL    HW115887   3.861   2.492   6.569  0.0033 -0.0523 -0.1303
 1417SOL    HW215888   3.904   2.430   6.445 -0.1307 -0.0411 -1.5946
 1418SOL     OW15889   1.340   2.501   3.230  0.3881  0.1848  0.3755
 1418SOL    HW115890   1.411   2.508   3.167 -0.7302  0.3837 -0.8476
 1418SOL    HW215891   1.315   2.594   3.238  0.9489  0.2810  1.0154
 1419SOL     OW15892   3.708   3.371  12.104 -0.4998 -0.2705 -0.1121
 1419SOL    HW115893   3.802   3.357  12.090 -0.3499 -0.2686  0.9472
 1419SOL    HW215894   3.677   3.289  12.065  0.1305 -1.0372  1.0009
 1420SOL     OW15895   3.218   0.344   7.853  0.2926 -0.4901  0.1748
 1420SOL    HW115896   3.253   0.352   7.764  0.0762  0.0149  0.1307
 1420SOL    HW215897   3.268   0.414   7.895 -3.2777  1.1622  1.6529
 1421SOL     OW15898   1.290   0.062   5.453 -0.1572 -0.2520 -0.2920
 1421SOL    HW115899   1.330   0.139   5.412  1.1596 -1.7116 -1.7776
 1421SOL    HW215900   1.216   0.100   5.499  0.1189  0.7868 -0.6984
 1422SOL     OW15901   4.673   0.987  11.119  0.6819  0.0060  0.2093
 1422SOL    HW115902   4.692   1.042  11.195  1.6381  1.4742 -1.0734
 1422SOL    HW215903   4.632   1.049  11.059 -0.1644  0.8642  1.6763
 1423SOL     OW15904   1.560   2.762   6.167 -0.5321 -0.3832  0.4533
 1423SOL    HW115905   1.516   2.689   6.212 -1.2136 -1.0718 -1.3595
 1423SOL    HW215906   1.614   2.722   6.098 -3.1083 -1.7579 -0.7626
 1424SOL     OW15907   0.973   2.942   2.232  0.6585  0.5110 -0.2331
 1424SOL    HW115908   0.914   2.941   2.307 -1.1580 -0.8611 -1.6783
 1424SOL    HW215909   1.057   2.915   2.270  0.4036  0.0426 -0.0049
 1425SOL     OW15910   1.305   3.601   2.976  0.4363 -0.3383  0.3115
 1425SOL    HW115911   1.359   3.659   2.922  0.6958 -0.0447  0.8861
 1425SOL    HW215912   1.285   3.526   2.920  0.4315 -0.8475  0.9911
 1426SOL     OW15913   2.131   0.814   7.514 -0.2403 -0.2262 -0.0369
 1426SOL    HW115914   2.185   0.755   7.462  0.4412  0.0922  0.3090
 1426SOL    HW215915   2.182   0.819   7.595 -1.5673  0.5150  0.7609
 1427SOL     OW15916   3.151   4.249  14.581  0.3057  0.0267  0.2227
 1427SOL    HW115917   3.213   4.221  14.514 -1.2696 -1.3457 -0.6597
 1427SOL    HW215918   3.156   4.198  14.662 -0.1954 -1.4573 -0.6960
 1428SOL     OW15919   4.615   0.368   3.701  0.3443 -0.4913  0.0366
 1428SOL    HW115920   4.563   0.288   3.711 -1.1371  0.4528 -0.1412
 1428SOL    HW215921   4.706   0.336   3.698  0.5195 -0.0800  1.0839
 1429SOL     OW15922   4.412   2.922   0.968 -0.1333  0.1755  1.1010
 1429SOL    HW115923   4.498   2.933   1.009  0.9242  1.9332 -1.6710
 1429SOL    HW215924   4.355   2.901   1.042 -0.2744 -2.1775  0.3130
 1430SOL     OW15925   2.598   0.466   5.952 -0.1165  0.0740  0.1663
 1430SOL    HW115926   2.530   0.532   5.963  0.0751  0.2784  0.1310
 1430SOL    HW215927   2.664   0.526   5.918 -0.6464  0.0906 -0.8143
 1431SOL     OW15928   3.813   1.486   0.645  0.0426 -0.5651  0.0382
 1431SOL    HW115929   3.785   1.403   0.606 -0.9827 -0.1773 -0.0583
 1431SOL    HW215930   3.855   1.526   0.570  0.6459  0.0406  0.7021
 1432SOL     OW15931   2.695   2.034   3.537  0.7048 -0.0817 -0.1938
 1432SOL    HW115932   2.769   2.010   3.592  0.4053 -0.0799  0.2086
 1432SOL    HW215933   2.666   2.116   3.576  1.1893 -0.5344  1.1091
 1433SOL     OW15934   1.171   3.573   0.240 -0.2745 -0.2529 -0.4865
 1433SOL    HW115935   1.183   3.653   0.190  1.8312 -1.0711 -1.2910
 1433SOL    HW215936   1.205   3.598   0.326  0.3226 -0.8911 -0.5288
 1434SOL     OW15937   4.375   1.175   9.680 -0.2890  0.7044  0.3407
 1434SOL    HW115938   4.413   1.256   9.713 -0.2680  1.0688 -0.5809
 1434SOL    HW215939   4.449   1.121   9.707  1.0209  2.6297  0.5700
 1435SOL     OW15940   1.618   0.593   4.033 -0.2157 -0.4896  0.4192
 1435SOL    HW115941   1.613   0.498   4.041  0.5781 -0.4069  1.7521
 1435SOL    HW215942   1.606   0.613   3.940  2.2743  1.3935  0.5001
 1436SOL     OW15943   3.744   2.402   2.488  0.6838  0.0224 -0.3014
 1436SOL    HW115944   3.721   2.339   2.420  0.1865  1.5253 -1.5300
 1436SOL    HW215945   3.785   2.472   2.437 -0.6763  0.1842 -1.1666
 1437SOL     OW15946   0.599   3.591  14.219  0.0225  0.3609  0.3036
 1437SOL    HW115947   0.584   3.559  14.131  1.8375  3.5487 -1.1751
 1437SOL    HW215948   0.680   3.547  14.244 -0.4501 -0.2705  0.7266
 1438SOL     OW15949   2.038   2.720   1.611  0.0496 -0.0188 -0.0312
 1438SOL    HW115950   2.035   2.624   1.610  0.3379 -0.0510  2.3303
 1438SOL    HW215951   2.132   2.730   1.628  0.0154 -1.3261  0.9643
 1439SOL     OW15952   4.073   4.018   2.177  0.0095 -0.2525  0.2249
 1439SOL    HW115953   4.140   4.073   2.137  0.6155  0.1842  1.8287
 1439SOL    HW215954   3.993   4.054   2.139 -0.0588 -0.1291  0.4822
 1440SOL     OW15955   1.800   1.304   3.672  0.2426 -0.0989  0.2670
 1440SOL    HW115956   1.708   1.292   3.650  0.4033  1.1651 -1.0678
 1440SOL    HW215957   1.820   1.392   3.640 -0.5479 -0.6245 -1.6960
 1441SOL     OW15958   4.504   2.621  10.430  0.2484  0.0831  0.0974
 1441SOL    HW115959   4.418   2.642  10.393  1.6929  3.7783 -1.0848
 1441SOL    HW215960   4.519   2.700  10.481  1.9395 -1.2176  1.6257
 1442SOL     OW15961   1.697   0.661  11.863  0.2728 -0.2557 -0.1008
 1442SOL    HW115962   1.771   0.661  11.802 -0.1252 -2.0321 -0.5881
 1442SOL    HW215963   1.629   0.711  11.818  2.1409  1.5347 -0.9324
 1443SOL     OW15964   2.833   3.561   7.400 -0.2642 -0.1412 -0.2089
 1443SOL    HW115965   2.884   3.564   7.319  2.7007  0.9737  1.6703
 1443SOL    HW215966   2.829   3.465   7.407 -1.9103 -0.0841 -0.4438
 1444SOL     OW15967   1.129   4.454   6.401 -0.3818 -0.6881  0.0165
 1444SOL    HW115968   1.193   4.522   6.421 -2.1813  0.9439  0.2468
 1444SOL    HW215969   1.177   4.375   6.375  0.1320  0.3934 -2.2636
 1445SOL     OW15970   0.397   3.540  13.918 -0.2661  0.1657 -0.5290
 1445SOL    HW115971   0.492   3.538  13.901 -0.2831 -2.0421 -0.3589
 1445SOL    HW215972   0.383   3.627  13.956  0.2977  0.2912 -0.5926
 1446SOL     OW15973   1.719   0.344   6.794  1.1824  0.2732 -0.2757
 1446SOL    HW115974   1.684   0.336   6.705 -0.0630 -1.1928  0.3518
 1446SOL    HW215975   1.812   0.366   6.783  0.6967  2.1103 -0.7930
 1447SOL     OW15976   0.991   4.390   5.827 -0.1619 -0.2371  0.6877
 1447SOL    HW115977   0.978   4.479   5.795  0.2554 -0.5659 -0.3928
 1447SOL    HW215978   1.078   4.401   5.868 -0.1750  2.2466  0.0589
 1448SOL     OW15979   1.974   0.762   6.881  0.3695 -0.4297  0.4377
 1448SOL    HW115980   2.007   0.829   6.940 -1.8337 -0.1269  1.3214
 1448SOL    HW215981   1.951   0.816   6.805 -1.3767 -0.8890  0.6438
 1449SOL     OW15982   1.323   4.139   5.703 -0.0444  0.1874  1.0426
 1449SOL    HW115983   1.327   4.235   5.699 -2.8733  0.3053  1.2023
 1449SOL    HW215984   1.399   4.123   5.646 -0.1256  2.0908  0.3864
 1450SOL     OW15985   3.705   3.197   6.342 -0.2613 -0.5614 -0.2795
 1450SOL    HW115986   3.676   3.289   6.343 -0.2928 -0.5788  0.5318
 1450SOL    HW215987   3.799   3.205   6.329 -0.0213 -1.1220  1.1788
 1451SOL     OW15988   2.563   1.057   1.034 -0.6998 -0.4756 -0.4938
 1451SOL    HW115989   2.490   0.999   1.056 -0.1431 -0.4721  1.3515
 1451SOL    HW215990   2.526   1.138   1.069 -0.5234 -1.6168  2.3179
 1452SOL     OW15991   2.047   4.176   3.079 -0.3952 -0.2438  0.2879
 1452SOL    HW115992   2.058   4.084   3.055 -1.8508 -1.2381  3.5062
 1452SOL    HW215993   1.957   4.188   3.049 -0.1494 -0.7432 -0.6504
 1453SOL     OW15994   4.644   2.431  11.921  0.2833  0.2873 -0.0444
 1453SOL    HW115995   4.572   2.390  11.872  0.6791  0.1934 -0.5407
 1453SOL    HW215996   4.617   2.523  11.915  0.2075  0.1913 -1.0900
 1454SOL     OW15997   4.157   4.119   3.491  0.5673  0.1161 -0.3662
 1454SOL    HW115998   4.126   4.108   3.580 -0.6355 -0.4837 -0.8631
 1454SOL    HW215999   4.186   4.030   3.469  2.1891  0.0960  1.9054
 1455SOL     OW16000   3.748   1.237   5.791  0.2697 -0.4343  0.0166
 1455SOL    HW116001   3.684   1.202   5.853 -0.9687  0.2881 -0.8647
 1455SOL    HW216002   3.819   1.261   5.851  1.0660 -1.0839 -0.6662
 1456SOL     OW16003   1.943   0.783   2.982 -0.4486 -0.3360  0.5923
 1456SOL    HW116004   1.878   0.851   2.964  0.6073  0.2188 -1.1333
 1456SOL    HW216005   1.996   0.820   3.052  2.8530 -1.0032 -1.5794
 1457SOL     OW16006   3.896   2.555   2.301 -0.0979 -0.1758  0.8987
 1457SOL    HW116007   3.964   2.487   2.306  0.6231  0.2549 -2.7392
 1457SOL    HW216008   3.929   2.611   2.231  0.1891 -0.9093  0.4401
 1458SOL     OW16009   0.906   0.029   9.014 -0.5351  0.8177 -0.1575
 1458SOL    HW116010   0.845   4.723   9.074  0.0504 -0.7384 -0.6595
 1458SOL    HW216011   0.871   0.117   9.019  1.8044  1.6679  1.2250
 1459SOL     OW16012   1.505   4.630   4.039  0.1051 -0.9855  0.3315
 1459SOL    HW116013   1.500   4.669   3.952  1.0377 -0.0496  0.6974
 1459SOL    HW216014   1.412   4.623   4.059  0.2421 -1.8204  0.6954
 1460SOL     OW16015   3.422   1.266   6.454  0.2785  0.1453 -0.3281
 1460SOL    HW116016   3.503   1.224   6.482 -0.5186  1.3020  3.7556
 1460SOL    HW216017   3.409   1.316   6.534  1.0905  2.7402 -1.8076
 1461SOL     OW16018   1.087   0.292   9.315  0.3676  0.2485 -0.2838
 1461SOL    HW116019   1.140   0.268   9.391 -2.5923  0.4089  1.8612
 1461SOL    HW216020   1.000   0.289   9.356  0.6025 -1.3743  0.1132
 1462SOL     OW16021   0.740   1.934   0.046 -0.7390  0.3466  0.7422
 1462SOL    HW116022   0.689   1.909  17.716 -2.0128  1.1749  1.3190
 1462SOL    HW216023   0.712   1.862   0.103  2.9694  0.0190  2.1798
 1463SOL     OW16024   2.096   0.414   8.954  0.1730  0.5364  0.7170
 1463SOL    HW116025   2.187   0.404   8.983  1.0354  0.8411 -1.8870
 1463SOL    HW216026   2.102   0.497   8.907  0.1996 -0.4323 -1.0128
 1464SOL     OW16027   4.242   0.341  12.168 -0.0655 -0.2586 -0.2240
 1464SOL    HW116028   4.263   0.302  12.252  2.0922 -2.5719 -1.8401
 1464SOL    HW216029   4.146   0.338  12.171  0.0257 -1.5671  1.1591
 1465SOL     OW16030   1.671   2.432   9.920 -0.0691  0.1903 -0.1976
 1465SOL    HW116031   1.766   2.426   9.909 -0.4365 -3.8055 -1.1798
 1465SOL    HW216032   1.667   2.528   9.918 -0.3048  0.1705 -0.5331
 1466SOL     OW16033   1.973   0.831   5.544  0.1245  0.0416 -0.0514
 1466SOL    HW116034   1.937   0.844   5.632  0.7507 -0.9298  0.3583
 1466SOL    HW216035   2.061   0.803   5.570 -0.1477 -0.6043  0.1745
 1467SOL     OW16036   1.609   0.582   6.363  0.0341  0.0438  0.2108
 1467SOL    HW116037   1.522   0.618   6.347  1.1059  1.7088 -1.8367
 1467SOL    HW216038   1.625   0.534   6.282 -2.3665 -1.3061  0.5364
 1468SOL     OW16039   2.242   1.183  13.879 -0.5922 -0.9985  0.1167
 1468SOL    HW116040   2.168   1.208  13.934 -1.2259  0.3631 -1.3362
 1468SOL    HW216041   2.288   1.122  13.936  0.0557  1.3926  2.1546
 1469SOL     OW16042   1.485   2.272   8.383  0.1170  0.2602  0.6577
 1469SOL    HW116043   1.406   2.321   8.360 -1.6060 -1.5681  2.6736
 1469SOL    HW216044   1.487   2.290   8.477  2.5325 -2.6776  1.1797
 1470SOL     OW16045   3.247   3.413   4.346  0.2371 -0.3569 -0.3594
 1470SOL    HW116046   3.271   3.352   4.415  1.4613  1.6570  1.0000
 1470SOL    HW216047   3.200   3.484   4.389 -0.8126 -2.6552  2.3146
 1471SOL     OW16048   2.531   2.613   0.070  0.4394  0.3564 -0.7212
 1471SOL    HW116049   2.578   2.685   0.029  1.6027  0.4912  0.8496
 1471SOL    HW216050   2.506   2.651   0.155 -1.7728 -0.6275 -0.9136
 1472SOL     OW16051   3.285   3.379  10.183 -0.1032 -0.2458  0.4989
 1472SOL    HW116052   3.348   3.425  10.238  2.0559  2.5945 -4.3028
 1472SOL    HW216053   3.208   3.413  10.229  0.5289  2.4349 -0.3975
 1473SOL     OW16054   4.021   1.237   5.284 -0.6571 -0.4843  0.0307
 1473SOL    HW116055   3.927   1.248   5.298 -0.0083  3.3604  1.4242
 1473SOL    HW216056   4.050   1.205   5.369 -0.3798 -1.4471 -0.4321
 1474SOL     OW16057   1.352   0.290   5.296 -0.1643  0.3221  0.1008
 1474SOL    HW116058   1.315   0.268   5.211  0.5753 -0.5981  0.0160
 1474SOL    HW216059   1.378   0.380   5.275 -0.3536  0.2903 -0.2590
 1475SOL     OW16060   0.294   0.125  12.386  0.3282 -0.2106 -0.1365
 1475SOL    HW116061   0.206   0.154  12.409  0.4513  1.6861 -2.0305
 1475SOL    HW216062   0.335   0.138  12.472 -0.1076  0.2958  0.0006
 1476SOL     OW16063   4.637   1.385   5.694  0.1405  0.1295  0.0214
 1476SOL    HW116064   4.694   1.336   5.634 -2.0708 -1.9963 -0.3591
 1476SOL    HW216065   4.559   1.405   5.641 -0.4040 -1.9324  0.0094
 1477SOL     OW16066   1.696   0.667  15.029 -0.1875 -0.3403 -0.3593
 1477SOL    HW116067   1.633   0.617  15.080  0.1728 -0.6027 -0.1699
 1477SOL    HW216068   1.776   0.634  15.070  0.2114  1.9445  0.7031
 1478SOL     OW16069   0.593   0.384   7.677 -0.1725 -0.3134 -0.2712
 1478SOL    HW116070   0.540   0.431   7.613 -0.3215 -2.2999 -1.5735
 1478SOL    HW216071   0.583   0.443   7.752  2.3220 -1.8383  1.2902
 1479SOL     OW16072   1.227   0.777   7.720  0.8262  0.0785 -0.1343
 1479SOL    HW116073   1.177   0.733   7.788  0.9687  0.6729  0.3547
 1479SOL    HW216074   1.213   0.719   7.645 -0.6278  1.3040 -0.8041
 1480SOL     OW16075   2.261   1.243   2.643 -0.3428 -0.7914 -0.7330
 1480SOL    HW116076   2.190   1.248   2.579 -0.4082 -0.2953 -0.6258
 1480SOL    HW216077   2.292   1.155   2.621  3.3513 -0.0361  1.6364
 1481SOL     OW16078   2.673   0.651   6.993 -0.3967  0.2878 -0.3384
 1481SOL    HW116079   2.735   0.701   7.046 -0.1333 -0.6474  0.2426
 1481SOL    HW216080   2.739   0.600   6.945  0.0154 -1.7619  2.3296
 1482SOL     OW16081   4.035   3.838   6.048  0.1992  0.4030 -0.0768
 1482SOL    HW116082   3.986   3.795   5.978 -0.0749  0.5726  0.0079
 1482SOL    HW216083   4.020   3.932   6.038 -0.9843  0.1149 -1.0772
 1483SOL     OW16084   3.343   4.664  10.786  0.0145  0.2084 -0.1164
 1483SOL    HW116085   3.350   0.014  10.748  1.2874 -1.5110 -3.7678
 1483SOL    HW216086   3.370   4.679  10.877  0.1891 -0.1835 -0.1037
 1484SOL     OW16087   2.297   2.936   8.830  0.4516 -0.4308  0.0056
 1484SOL    HW116088   2.306   3.011   8.889 -0.3046 -0.4686  0.1582
 1484SOL    HW216089   2.301   2.979   8.745  2.0984 -0.8266 -0.1338
 1485SOL     OW16090   4.277   0.507   5.628  0.4735  0.5507 -0.3490
 1485SOL    HW116091   4.207   0.474   5.572 -1.1678  2.3775  0.6273
 1485SOL    HW216092   4.337   0.437   5.652 -1.8492 -2.1697 -2.4363
 1486SOL     OW16093   3.243   4.683  11.377 -0.3753  0.4049  0.0046
 1486SOL    HW116094   3.219   4.723  11.461  2.3598  1.0378  0.5037
 1486SOL    HW216095   3.228   4.592  11.402  1.8159  0.0620  0.1151
 1487SOL     OW16096   2.711   1.188  15.481  0.0060  0.7052 -0.6011
 1487SOL    HW116097   2.726   1.107  15.431  0.6234 -1.0139  2.3386
 1487SOL    HW216098   2.718   1.161  15.573 -1.3804 -1.8222 -1.2119
 1488SOL     OW16099   0.361   0.993  10.945  0.1947 -0.2754 -0.1077
 1488SOL    HW116100   0.401   0.935  10.880 -0.8834 -2.2109  0.9680
 1488SOL    HW216101   0.271   0.961  10.953  0.5446 -1.6616 -1.8593
 1489SOL     OW16102   0.598   2.626   8.123 -0.3129 -0.2387  0.1479
 1489SOL    HW116103   0.571   2.643   8.213  3.5952 -1.3858  1.5261
 1489SOL    HW216104   0.659   2.553   8.128  0.4782  0.4071 -0.0917
 1490SOL     OW16105   3.045   3.540   5.070 -0.4016 -0.1389  0.3506
 1490SOL    HW116106   3.036   3.459   5.120 -0.1282  0.0997  0.7870
 1490SOL    HW216107   3.131   3.559   5.108  0.4280 -1.5027 -0.8216
 1491SOL     OW16108   0.445   1.021   6.347 -0.1169 -0.2425  0.0388
 1491SOL    HW116109   0.361   1.043   6.308  0.5731  1.8962 -0.2390
 1491SOL    HW216110   0.433   0.932   6.380 -0.3844  0.1035  0.8809
 1492SOL     OW16111   2.554   1.734  11.684  0.6855 -0.1464 -0.3740
 1492SOL    HW116112   2.583   1.766  11.769  0.6040  1.4754 -0.9515
 1492SOL    HW216113   2.491   1.674  11.724 -0.8705  0.8657 -1.3017
 1493SOL     OW16114   3.857   3.309  15.538  0.1324  0.1610 -1.0600
 1493SOL    HW116115   3.774   3.303  15.492 -0.4354 -1.6389  0.2127
 1493SOL    HW216116   3.820   3.316  15.626 -0.8189  0.9379 -1.5189
 1494SOL     OW16117   2.100   4.432   7.095 -0.1889  0.3166 -0.2276
 1494SOL    HW116118   2.010   4.416   7.066 -0.8469  2.0018  0.8615
 1494SOL    HW216119   2.140   4.469   7.016  1.0467  0.5428  0.5094
 1495SOL     OW16120   2.709   0.705  14.627  0.0570 -0.0092 -0.0146
 1495SOL    HW116121   2.764   0.724  14.551 -0.0446 -2.8225 -0.7904
 1495SOL    HW216122   2.633   0.662  14.588 -0.8599 -0.2973  2.0744
 1496SOL     OW16123   0.520   2.928  13.725  0.7494 -0.2874  0.0382
 1496SOL    HW116124   0.476   2.857  13.772  0.5726 -1.2623 -1.5919
 1496SOL    HW216125   0.465   2.998  13.760  0.8084 -0.3817  0.3144
 1497SOL     OW16126   0.611   2.419   2.640 -0.7302  0.3292  0.3218
 1497SOL    HW116127   0.583   2.508   2.619 -1.6732  0.2679  1.2998
 1497SOL    HW216128   0.700   2.420   2.605 -0.8675 -1.0991 -0.0852
 1498SOL     OW16129   3.052   3.730   1.427  0.6055 -0.0507 -0.1216
 1498SOL    HW116130   3.053   3.809   1.481  0.6572 -0.8075  0.9888
 1498SOL    HW216131   3.143   3.701   1.423  0.4172 -0.5066 -1.1033
 1499SOL     OW16132   0.522   1.458  17.198  0.5933  0.1165  0.2044
 1499SOL    HW116133   0.528   1.466  17.293  2.3410 -0.6569  0.1600
 1499SOL    HW216134   0.606   1.484  17.162  0.0431 -0.7172 -1.6759
 1500SOL     OW16135   4.599   4.272   7.889  0.7432  0.6742  0.0592
 1500SOL    HW116136   4.615   4.270   7.795 -1.7872  0.1385 -0.3714
 1500SOL    HW216137   4.645   4.355   7.905  1.6765  0.7211 -2.8690
 1501SOL     OW16138   2.705   3.699   8.492 -0.2757  0.2973 -0.2789
 1501SOL    HW116139   2.675   3.748   8.415 -0.6003  0.0807 -0.2911
 1501SOL    HW216140   2.679   3.618   8.449 -2.4123  0.1844  1.2263
 1502SOL     OW16141   3.875   0.468  10.064  0.1378 -0.0236 -0.3746
 1502SOL    HW116142   3.919   0.545  10.100 -1.4236  2.1485 -3.1021
 1502SOL    HW216143   3.883   0.411  10.141 -3.0345 -0.9845 -0.7591
 1503SOL     OW16144   4.138   2.422  11.085  0.1865  0.5264  0.2248
 1503SOL    HW116145   4.223   2.396  11.050 -0.2574 -0.4385 -0.1122
 1503SOL    HW216146   4.132   2.348  11.145  1.0485 -0.2453 -0.6317
 1504SOL     OW16147   1.425   3.639  12.310  0.2358  0.3042  0.2834
 1504SOL    HW116148   1.422   3.709  12.244  1.4113  0.9889  0.9474
 1504SOL    HW216149   1.446   3.692  12.388  0.4611  0.1250  0.3417
 1505SOL     OW16150   4.535   1.687   4.900  0.3506 -0.2998 -0.0390
 1505SOL    HW116151   4.626   1.661   4.893  0.9435  1.6493  0.3692
 1505SOL    HW216152   4.518   1.721   4.812 -1.9187 -0.6173  0.2602
 1506SOL     OW16153   3.154   3.127   0.293 -0.0438  0.3582  0.0107
 1506SOL    HW116154   3.170   3.204   0.347  0.4510 -1.1461  1.9864
 1506SOL    HW216155   3.233   3.127   0.240 -0.6900 -0.9599 -0.9651
 1507SOL     OW16156   3.492   2.081  10.688 -0.1085 -0.6237 -0.3514
 1507SOL    HW116157   3.479   2.007  10.746  0.5826 -0.1256  0.4344
 1507SOL    HW216158   3.552   2.042  10.624  2.5127 -0.7240  2.1809
 1508SOL     OW16159   1.745   2.813   0.814 -0.1041 -0.6874 -0.2973
 1508SOL    HW116160   1.760   2.860   0.732  2.2349 -1.0775 -0.1006
 1508SOL    HW216161   1.672   2.761   0.782 -1.8051  0.1796  2.0873
 1509SOL     OW16162   4.196   3.443   6.816  0.5369  0.0382  0.3316
 1509SOL    HW116163   4.153   3.358   6.811 -1.7110  1.0741  2.2759
 1509SOL    HW216164   4.249   3.445   6.736  0.2218  1.8619  0.1575
 1510SOL     OW16165   3.234   0.886   8.243  0.1535  0.2503 -0.1292
 1510SOL    HW116166   3.322   0.919   8.225 -0.1908  0.6699 -1.0624
 1510SOL    HW216167   3.257   0.805   8.287 -1.3747 -0.2854 -0.3414
 1511SOL     OW16168   1.078   4.394   4.145 -0.2743 -0.0661  0.0668
 1511SOL    HW116169   1.010   4.328   4.160 -0.4465 -0.1099 -0.8689
 1511SOL    HW216170   1.109   4.415   4.233 -0.0911 -1.3475  0.3087
 1512SOL     OW16171   0.323   4.156   5.023 -0.0320  0.3748  0.0136
 1512SOL    HW116172   0.338   4.062   5.010 -0.1446  0.7657 -2.9018
 1512SOL    HW216173   0.273   4.192   4.950  0.8068  2.6358  0.5536
 1513SOL     OW16174   1.208   2.038  10.120 -0.0284 -0.4358  0.7149
 1513SOL    HW116175   1.172   1.983  10.051  2.9982  0.6296 -1.7059
 1513SOL    HW216176   1.220   1.971  10.188  1.4275 -0.5511  0.3468
 1514SOL     OW16177   1.897   0.953   6.677  0.0871  0.0026  0.2661
 1514SOL    HW116178   1.834   0.937   6.606 -0.8461  0.6216  0.9547
 1514SOL    HW216179   1.947   1.029   6.648 -0.1358 -0.1161 -0.4265
 1515SOL     OW16180   3.494   0.142   6.452  0.4389  0.2164  0.4641
 1515SOL    HW116181   3.564   0.184   6.502 -1.4454  0.9286  2.5237
 1515SOL    HW216182   3.499   0.052   6.485 -0.1151 -0.6597 -1.8722
 1516SOL     OW16183   3.763   4.255  11.837  0.6360 -0.1682 -0.1146
 1516SOL    HW116184   3.840   4.306  11.809 -0.7513  1.2303 -1.3462
 1516SOL    HW216185   3.797   4.166  11.849 -0.6018 -0.7039 -0.6457
 1517SOL     OW16186   1.854   2.003   5.906  0.5985 -0.0490  0.2338
 1517SOL    HW116187   1.810   1.924   5.938 -1.5229  1.5585  1.2932
 1517SOL    HW216188   1.912   2.025   5.979  2.3364 -4.3873  0.1687
 1518SOL     OW16189   0.492   0.222  14.140 -1.1932 -0.1298  0.1948
 1518SOL    HW116190   0.462   0.213  14.050  1.2297  0.6293 -0.6821
 1518SOL    HW216191   0.491   0.131  14.173 -2.6785 -0.6084 -1.1554
 1519SOL     OW16192   0.303   2.345   4.110  0.0118  0.2381 -0.0850
 1519SOL    HW116193   0.212   2.345   4.080 -0.7917  0.9419  2.3042
 1519SOL    HW216194   0.320   2.268   4.165 -1.5998 -1.5324 -2.0734
 1520SOL     OW16195   4.317   3.733  12.505 -0.0853  0.3902  0.0912
 1520SOL    HW116196   4.234   3.749  12.549  0.1582 -5.8998  2.9280
 1520SOL    HW216197   4.375   3.744  12.581 -1.1844  0.5189  0.9196
 1521SOL     OW16198   2.474   4.355   6.081  0.4821 -0.2487 -0.2143
 1521SOL    HW116199   2.421   4.299   6.025  1.7449 -0.6004 -1.0504
 1521SOL    HW216200   2.443   4.337   6.170  1.2799 -1.5161 -0.1923
 1522SOL     OW16201   1.544   2.258  13.066  0.2665  0.4113  0.1644
 1522SOL    HW116202   1.599   2.218  12.999  1.0171  0.4265  0.7705
 1522SOL    HW216203   1.492   2.182  13.093  0.0205  1.4285  2.5502
 1523SOL     OW16204   3.456   4.631   8.794 -0.0528  0.1801  0.2114
 1523SOL    HW116205   3.542   4.591   8.810  0.2131 -0.0171 -1.7683
 1523SOL    HW216206   3.407   4.607   8.873  2.2043 -0.3468  1.4515
 1524SOL     OW16207   2.608   2.486   3.397 -0.2341 -0.1910 -0.0147
 1524SOL    HW116208   2.680   2.430   3.371 -0.0764  0.6678 -1.4156
 1524SOL    HW216209   2.592   2.453   3.486 -0.2274 -0.1644 -0.0035
 1525SOL     OW16210   0.798   2.385   3.807 -0.1962 -0.3210 -0.0627
 1525SOL    HW116211   0.722   2.340   3.769  1.0452 -2.7456  0.3461
 1525SOL    HW216212   0.866   2.349   3.751 -0.4729  1.3567 -1.4826
 1526SOL     OW16213   4.198   3.532   8.073 -0.4407 -0.8356 -0.0242
 1526SOL    HW116214   4.103   3.525   8.070 -0.6116  0.9895  1.5183
 1526SOL    HW216215   4.221   3.596   8.005  1.9863  0.4191  1.9629
 1527SOL     OW16216   4.053   1.001   7.829 -0.0607 -0.1804  0.2237
 1527SOL    HW116217   4.097   0.940   7.888  1.2804 -0.6472 -1.2605
 1527SOL    HW216218   3.965   0.996   7.865 -0.5713 -2.8763 -1.4381
 1528SOL     OW16219   2.872   1.505  14.430 -0.4761 -0.1855  0.4595
 1528SOL    HW116220   2.961   1.509  14.465 -1.4175  0.2156  2.7876
 1528SOL    HW216221   2.827   1.548  14.502  0.6455  0.2742  0.8812
 1529SOL     OW16222   2.424   4.729   9.867  0.4223 -0.2415 -0.3587
 1529SOL    HW116223   2.390   4.647   9.830  1.7605 -2.1904  2.7188
 1529SOL    HW216224   2.347   0.046   9.847 -2.1616 -3.1707  1.5312
 1530SOL     OW16225   3.519   4.639   1.417 -0.0697  0.1494  0.1494
 1530SOL    HW116226   3.528   4.693   1.495  0.6773 -0.0848  0.2270
 1530SOL    HW216227   3.488   4.552   1.443 -1.6092  0.8168  0.5569
 1531SOL     OW16228   2.038   1.988   9.699  0.1208 -0.0894 -0.0218
 1531SOL    HW116229   2.078   1.915   9.651  0.3222 -0.3226  0.5045
 1531SOL    HW216230   2.117   2.036   9.726  0.2328 -0.5517  0.4607
 1532SOL     OW16231   3.166   4.251   1.665 -0.0428 -0.2484 -0.1621
 1532SOL    HW116232   3.139   4.341   1.649 -1.5320 -0.3105  2.0438
 1532SOL    HW216233   3.217   4.225   1.588  0.4010 -1.2154  0.4579
 1533SOL     OW16234   2.667   0.747   4.398 -0.5885  0.3499  0.4754
 1533SOL    HW116235   2.592   0.714   4.448 -0.1428 -0.8414  0.3548
 1533SOL    HW216236   2.617   0.796   4.333  0.8723  0.2630 -0.7237
 1534SOL     OW16237   4.584   3.998   2.910 -0.5725  0.4541  0.3974
 1534SOL    HW116238   4.505   4.051   2.899  0.0208  0.9474 -1.5718
 1534SOL    HW216239   4.578   3.945   2.830 -0.5050 -2.3562  2.2648
 1535SOL     OW16240   2.339   1.636  16.349 -0.5476 -0.1927  0.9254
 1535SOL    HW116241   2.433   1.647  16.361 -0.4626 -0.7629  0.7755
 1535SOL    HW216242   2.315   1.724  16.378  0.5933  0.7126 -0.8655
 1536SOL     OW16243   2.625   2.072   2.167 -0.3266 -0.1412 -0.0459
 1536SOL    HW116244   2.688   2.024   2.113  0.1194  0.2628  0.1118
 1536SOL    HW216245   2.658   2.051   2.254 -2.7128 -0.6386  0.7548
 1537SOL     OW16246   1.281   3.665   7.900  0.2431 -0.1211 -0.3225
 1537SOL    HW116247   1.190   3.669   7.870  0.1731  1.5136  0.1154
 1537SOL    HW216248   1.269   3.606   7.975 -1.3918 -0.3850 -0.7880
 1538SOL     OW16249   1.220   1.775   6.974 -0.2638  0.1738  0.0333
 1538SOL    HW116250   1.180   1.769   6.887  1.3814  2.6742 -0.8939
 1538SOL    HW216251   1.245   1.683   6.977  0.2462  0.3342  0.6819
 1539SOL     OW16252   4.679   4.125   7.202  0.0624 -0.7103  0.0421
 1539SOL    HW116253   4.587   4.104   7.219  0.7949 -1.8875  2.5217
 1539SOL    HW216254   4.718   4.043   7.231  1.9418  0.0529 -0.2972
 1540SOL     OW16255   3.056   3.088   4.164  0.3127  0.6493  0.2739
 1540SOL    HW116256   3.126   3.084   4.230 -0.1162 -3.2688  0.4584
 1540SOL    HW216257   3.038   2.995   4.151  1.6051  0.4545 -0.1540
 1541SOL     OW16258   2.273   3.658  13.133  0.2938 -0.3857 -0.2657
 1541SOL    HW116259   2.279   3.752  13.148 -1.1007 -0.4370  0.5864
 1541SOL    HW216260   2.203   3.651  13.068  0.1596  0.7520 -0.2315
 1542SOL     OW16261   2.667   3.273   7.635 -0.0940 -0.4154  0.1774
 1542SOL    HW116262   2.585   3.235   7.667  0.5033 -0.6869  1.4156
 1542SOL    HW216263   2.715   3.310   7.709 -2.2550 -1.3800  2.0718
 1543SOL     OW16264   2.803   4.088   4.585  0.2383  0.9093  0.1255
 1543SOL    HW116265   2.819   4.087   4.679 -1.2664  0.3099  0.3747
 1543SOL    HW216266   2.849   4.004   4.577  2.0125  1.8613  0.2661
 1544SOL     OW16267   2.323   3.547   5.112  0.2560 -0.4344 -0.9658
 1544SOL    HW116268   2.330   3.613   5.043 -1.1248  0.3277 -0.3962
 1544SOL    HW216269   2.413   3.516   5.117 -0.1815 -1.4001  1.0346
 1545SOL     OW16270   3.763   0.319   4.276  0.6674  0.4786  0.6793
 1545SOL    HW116271   3.744   0.312   4.370 -1.6378 -0.3525  0.1687
 1545SOL    HW216272   3.683   0.346   4.231  0.1898 -1.0614  0.5761
 1546SOL     OW16273   0.928   4.161   8.551  0.3538 -0.6813 -0.5888
 1546SOL    HW116274   0.915   4.067   8.541 -0.5553 -0.6524  0.3658
 1546SOL    HW216275   1.004   4.176   8.495  1.1790 -1.0397  0.4414
 1547SOL     OW16276   2.495   1.947  17.618 -0.3004 -0.3399 -0.3966
 1547SOL    HW116277   2.572   1.982  17.573 -0.1662 -1.2854 -0.8904
 1547SOL    HW216278   2.420   1.976  17.567  0.1675 -1.7064 -1.8383
 1548SOL     OW16279   1.759   0.916   2.803  0.3486 -0.1285  0.2902
 1548SOL    HW116280   1.684   0.976   2.809  1.0453  0.6405  1.2051
 1548SOL    HW216281   1.813   0.974   2.750 -0.2373  0.4466  0.3124
 1549SOL     OW16282   1.090   0.583   7.960 -0.2770 -0.0925  0.4151
 1549SOL    HW116283   0.998   0.578   7.986 -0.2359 -1.8161  0.2566
 1549SOL    HW216284   1.120   0.492   7.967  2.6090  0.8219 -0.0192
 1550SOL     OW16285   1.633   4.694  11.759 -0.0946  0.7241  0.1843
 1550SOL    HW116286   1.626   0.038  11.709 -3.4350  1.5886  2.0599
 1550SOL    HW216287   1.678   4.716  11.841  0.0283  1.5984 -0.1231
 1551SOL     OW16288   3.675   0.174   6.997  0.0714 -0.4568 -0.3965
 1551SOL    HW116289   3.580   0.177   6.990  0.0389  0.2545  0.2766
 1551SOL    HW216290   3.693   0.080   6.996  0.3806 -0.3640 -2.9719
 1552SOL     OW16291   3.560   2.116   4.024 -0.0869 -0.1669 -0.2358
 1552SOL    HW116292   3.568   2.185   4.090  2.4418 -1.1338  0.4638
 1552SOL    HW216293   3.491   2.138   3.962 -2.3661 -1.8214  1.6990
 1553SOL     OW16294   1.280   1.497   3.243 -0.0242  0.5091  0.8950
 1553SOL    HW116295   1.243   1.411   3.221  2.7428 -0.6131  0.6543
 1553SOL    HW216296   1.373   1.481   3.231 -0.0364 -0.2691  1.8819
 1554SOL     OW16297   1.485   0.051   7.824  0.1071  0.1954 -0.2829
 1554SOL    HW116298   1.569   0.077   7.787 -0.0266  2.6376  1.1100
 1554SOL    HW216299   1.508   0.054   7.917 -1.8975 -2.2458  0.2976
 1555SOL     OW16300   3.743   0.941   5.621 -0.2229  0.0246 -0.7710
 1555SOL    HW116301   3.816   0.979   5.670  0.2561 -2.7534  0.7176
 1555SOL    HW216302   3.787   0.865   5.581 -0.0276 -0.1762 -0.1668
 1556SOL     OW16303   1.887   3.553   2.481 -0.1946 -0.3246 -0.1582
 1556SOL    HW116304   1.881   3.523   2.390  1.1011  0.9002 -0.6434
 1556SOL    HW216305   1.905   3.646   2.470  1.0517 -0.5566 -0.0925
 1557SOL     OW16306   1.857   4.077   2.215  0.0112  0.1942 -0.3487
 1557SOL    HW116307   1.836   4.119   2.298 -0.1329 -0.5524 -0.0128
 1557SOL    HW216308   1.873   4.149   2.154  2.7366  0.7575  1.0150
 1558SOL     OW16309   0.233   0.042   5.831 -0.3998 -0.5983 -0.2113
 1558SOL    HW116310   0.149   0.008   5.800  0.7039 -2.5696 -1.0455
 1558SOL    HW216311   0.268   4.703   5.878 -2.1219 -0.8806  0.6292
 1559SOL     OW16312   2.300   3.730  11.372  0.1328 -0.7585 -0.4402
 1559SOL    HW116313   2.300   3.706  11.465  1.3754 -2.4438 -0.8655
 1559SOL    HW216314   2.232   3.795  11.387 -0.6559 -1.5046 -0.7951
 1560SOL     OW16315   0.081   1.114  16.451  0.3900 -0.4554 -0.5193
 1560SOL    HW116316   0.065   1.159  16.369 -1.2777 -0.7781 -0.3653
 1560SOL    HW216317   0.102   1.191  16.504 -1.2148 -0.7988  0.6156
 1561SOL     OW16318   1.727   1.895   9.902  0.1663 -0.1566 -0.0158
 1561SOL    HW116319   1.669   1.966   9.874 -0.0702  0.3798  1.8163
 1561SOL    HW216320   1.762   1.934   9.983  0.3815  1.9602 -1.1084
 1562SOL     OW16321   1.518   3.075   1.882  0.2538  0.0420  0.4436
 1562SOL    HW116322   1.558   2.990   1.864  0.2521  0.3678 -1.0957
 1562SOL    HW216323   1.564   3.091   1.965  1.6882 -0.0788 -0.3232
 1563SOL     OW16324   0.881   0.831  15.229 -0.2422 -0.0085 -0.1162
 1563SOL    HW116325   0.918   0.919  15.217 -0.3804 -0.0712 -1.0479
 1563SOL    HW216326   0.941   0.763  15.200  2.3150  1.4768  1.7108
 1564SOL     OW16327   4.166   0.128   8.515  0.2731  0.2421  0.1423
 1564SOL    HW116328   4.155   0.108   8.608  1.6547 -2.9272 -0.3767
 1564SOL    HW216329   4.252   0.095   8.487 -0.3432 -1.1963 -0.0411
 1565SOL     OW16330   1.022   0.283   2.985  0.2285 -0.0292  0.0553
 1565SOL    HW116331   1.039   0.263   3.077 -0.0109 -0.7489 -0.0553
 1565SOL    HW216332   1.096   0.343   2.973 -0.6128  1.1644  0.8361
 1566SOL     OW16333   2.198   2.876   5.629  0.1303  0.4195 -0.3931
 1566SOL    HW116334   2.226   2.899   5.717  2.5689 -0.6237 -0.8901
 1566SOL    HW216335   2.104   2.856   5.632  0.0612  1.2026  2.2022
 1567SOL     OW16336   1.691   3.485   8.950  0.4506  0.2738  0.1123
 1567SOL    HW116337   1.650   3.551   9.006 -0.9260 -0.6277  0.1578
 1567SOL    HW216338   1.625   3.415   8.948 -0.2162  1.0275 -3.2707
 1568SOL     OW16339   4.678   3.538   0.517  1.0252 -0.6707 -0.5447
 1568SOL    HW116340   4.687   3.630   0.494  0.6912 -0.3782  0.5404
 1568SOL    HW216341   0.009   3.500   0.460  1.2490 -1.3869  0.2009
 1569SOL     OW16342   1.142   1.834   4.768  0.3616 -0.4952  0.2295
 1569SOL    HW116343   1.072   1.900   4.768  1.2422  0.4420 -0.1831
 1569SOL    HW216344   1.146   1.806   4.677 -0.0966 -2.3139  0.7599
 1570SOL     OW16345   2.899   3.379   6.534  0.3965 -0.4196  0.6306
 1570SOL    HW116346   2.962   3.352   6.600  1.5174  1.3643  0.2841
 1570SOL    HW216347   2.924   3.321   6.462 -0.0261 -0.1803  0.2884
 1571SOL     OW16348   0.387   4.307   2.301  0.1510 -0.6405  0.1402
 1571SOL    HW116349   0.471   4.273   2.332  0.7917 -0.3489 -1.2706
 1571SOL    HW216350   0.401   4.297   2.207 -2.2702 -2.6701 -0.0093
 1572SOL     OW16351   4.413   0.363   7.160 -0.1639  0.1895 -0.0595
 1572SOL    HW116352   4.375   0.308   7.092  1.7588 -0.2417 -0.7852
 1572SOL    HW216353   4.355   0.340   7.233 -0.2997  1.5867  0.2752
 1573SOL     OW16354   4.120   2.105   0.295 -0.4606  0.3188 -0.1392
 1573SOL    HW116355   4.066   2.171   0.252 -0.4745  2.1012  2.5316
 1573SOL    HW216356   4.069   2.096   0.376 -0.0139  1.9778  0.3419
 1574SOL     OW16357   3.553   3.588   5.465 -0.2680  0.1138 -0.3344
 1574SOL    HW116358   3.581   3.679   5.455  1.1876 -0.1973  0.7686
 1574SOL    HW216359   3.580   3.556   5.379 -2.6114  0.9537 -1.3603
 1575SOL     OW16360   3.142   0.291   4.887  0.2366  0.4992 -0.0546
 1575SOL    HW116361   3.066   0.265   4.939  1.0865 -0.4256  0.7330
 1575SOL    HW216362   3.162   0.380   4.918 -3.6302  1.2656  0.2376
 1576SOL     OW16363   4.557   0.338   4.547 -0.4912 -0.2048  0.2434
 1576SOL    HW116364   4.562   0.405   4.479 -1.7050 -1.7924 -1.4008
 1576SOL    HW216365   4.505   0.379   4.616 -1.9913 -2.8907  0.6937
 1577SOL     OW16366   0.160   4.150  12.761 -0.0541 -0.2886 -0.6603
 1577SOL    HW116367   0.193   4.068  12.800 -0.1855 -0.0958 -0.1466
 1577SOL    HW216368   0.079   4.153  12.812  1.0983 -0.6372  1.1971
 1578SOL     OW16369   4.595   0.053  17.233 -0.3491  0.6066  0.1895
 1578SOL    HW116370   4.638   0.044  17.148  0.2517  0.4063  0.5145
 1578SOL    HW216371   4.536   4.716  17.241  0.5659 -0.3616 -2.0167
 1579SOL     OW16372   3.275   3.327  12.690 -0.7828 -0.2622 -0.0896
 1579SOL    HW116373   3.333   3.379  12.635  1.3592 -2.1725  0.3642
 1579SOL    HW216374   3.341   3.284  12.744 -1.6121 -1.5366 -0.0607
 1580SOL     OW16375   0.701   4.707   4.684  0.5465 -0.0826  0.3398
 1580SOL    HW116376   0.693   4.681   4.592  1.1002  0.8848  0.0283
 1580SOL    HW216377   0.668   4.625   4.722 -1.0262 -0.0175 -0.8775
 1581SOL     OW16378   3.455   2.223   9.508 -0.0386 -0.7195  0.3567
 1581SOL    HW116379   3.535   2.261   9.473 -0.5636 -0.3230 -0.4054
 1581SOL    HW216380   3.412   2.301   9.542  1.4070  0.9242 -1.5778
 1582SOL     OW16381   2.253   0.981   0.905 -0.1986 -0.2832 -0.2664
 1582SOL    HW116382   2.163   1.000   0.931  0.7218  0.1173  2.6169
 1582SOL    HW216383   2.254   0.969   0.810  0.1012 -2.0040 -0.0523
 1583SOL     OW16384   4.406   3.695  11.300 -0.3628 -0.1467  0.6645
 1583SOL    HW116385   4.330   3.741  11.265 -0.3833 -0.3846  0.3940
 1583SOL    HW216386   4.446   3.761  11.357 -1.5872 -1.2531  2.7956
 1584SOL     OW16387   3.362   3.198   4.972  0.0583  0.3623 -0.1822
 1584SOL    HW116388   3.343   3.291   4.960  2.1511  0.4637 -2.6700
 1584SOL    HW216389   3.423   3.179   4.901  0.5418 -1.0415  0.6085
 1585SOL     OW16390   0.384   1.023   6.829 -0.7860  0.0098  0.2888
 1585SOL    HW116391   0.398   1.105   6.781 -0.1170 -0.2093  0.1098
 1585SOL    HW216392   0.423   1.042   6.914 -1.6578 -0.7033  0.8561
 1586SOL     OW16393   1.881   3.262   9.263 -0.8572  0.4512 -0.0119
 1586SOL    HW116394   1.798   3.214   9.261  1.3035 -3.2500 -0.8583
 1586SOL    HW216395   1.944   3.190   9.259  0.7073  1.8583 -0.4652
 1587SOL     OW16396   0.949   0.465  13.015  0.0097  0.1818  0.1091
 1587SOL    HW116397   0.929   0.460  13.108 -0.9506 -0.7921 -0.1512
 1587SOL    HW216398   0.921   0.555  12.996 -1.3603  0.0105  1.3181
 1588SOL     OW16399   0.813   4.366   7.633 -0.1146 -1.0370 -0.4085
 1588SOL    HW116400   0.725   4.398   7.612  0.4295  0.2139 -0.7427
 1588SOL    HW216401   0.813   4.374   7.729  2.1653  1.2939 -0.6161
 1589SOL     OW16402   1.677   2.075   3.665 -0.1673  0.9103 -0.6226
 1589SOL    HW116403   1.695   2.137   3.735 -2.1155  0.8932 -0.1057
 1589SOL    HW216404   1.699   1.989   3.701  3.4600  2.6348  1.3026
 1590SOL     OW16405   0.102   3.197   3.486 -0.0733 -0.2620 -0.0240
 1590SOL    HW116406   0.021   3.230   3.448  0.2371 -0.7015 -1.0595
 1590SOL    HW216407   0.081   3.106   3.466 -2.3508  0.4716 -0.9744
 1591SOL     OW16408   2.907   4.315  10.281 -0.4332 -0.7244 -0.1550
 1591SOL    HW116409   2.824   4.363  10.291  0.1526  0.0562  1.0039
 1591SOL    HW216410   2.922   4.330  10.188  2.7960 -1.6517  0.2006
 1592SOL     OW16411   0.504   0.258   5.911  0.6028  0.1440 -0.0017
 1592SOL    HW116412   0.547   0.185   5.954  0.9706  0.4275  0.1139
 1592SOL    HW216413   0.417   0.253   5.950  1.0276 -2.3279  0.6437
 1593SOL     OW16414   2.120   2.225  17.388  0.2704  0.2318 -0.4220
 1593SOL    HW116415   2.130   2.278  17.467  2.0415 -1.5723  0.5673
 1593SOL    HW216416   2.028   2.196  17.396  0.3349  0.9483  2.9652
 1594SOL     OW16417   2.065   2.520  13.626  0.0656 -0.0853  0.2233
 1594SOL    HW116418   2.054   2.546  13.718 -2.4221  2.1810 -0.7140
 1594SOL    HW216419   2.141   2.575  13.607  0.7280 -1.2561 -0.4739
 1595SOL     OW16420   3.555   0.167   7.930  0.1464  0.3261  0.1400
 1595SOL    HW116421   3.594   0.194   8.014  1.1385 -0.1050 -0.1835
 1595SOL    HW216422   3.511   0.246   7.899 -0.7443 -0.0803  0.3847
 1596SOL     OW16423   4.399   0.735  11.738  0.3743  0.1453  0.2447
 1596SOL    HW116424   4.447   0.672  11.685  1.4024  0.6488  0.5718
 1596SOL    HW216425   4.379   0.686  11.818 -1.1342 -1.4493 -1.1152
 1597SOL     OW16426   4.142   4.256  17.503 -0.6814 -0.2720  0.2970
 1597SOL    HW116427   4.133   4.182  17.564 -0.9925 -0.7589 -0.3494
 1597SOL    HW216428   4.054   4.294  17.503 -0.9595 -0.9167 -2.2880
 1598SOL     OW16429   3.739   3.841  12.918 -0.4232  0.0519  0.0910
 1598SOL    HW116430   3.692   3.787  12.854 -3.4123  0.4281  1.9783
 1598SOL    HW216431   3.771   3.911  12.860  0.4391 -0.0735  0.4172
 1599SOL     OW16432   0.599   3.669   4.386  0.1965 -0.3629  0.2222
 1599SOL    HW116433   0.650   3.632   4.314  1.6412  1.6252  0.2445
 1599SOL    HW216434   0.667   3.710   4.440 -1.0655 -1.9004  2.9895
 1600SOL     OW16435   2.813   1.141  15.759  0.3416  0.4134  1.0288
 1600SOL    HW116436   2.867   1.123  15.682  0.5347  0.2987  1.1911
 1600SOL    HW216437   2.882   1.145  15.825 -0.2363 -1.8823  1.7584
 1601SOL     OW16438   0.635   1.025  12.906 -0.4415 -0.2290  0.7807
 1601SOL    HW116439   0.636   0.956  12.839  3.6756  2.5821 -2.0310
 1601SOL    HW216440   0.715   0.997  12.950  1.1498  0.7958 -1.4690
 1602SOL     OW16441   3.139   0.507   9.556  0.0079  0.3545  0.1334
 1602SOL    HW116442   3.138   0.596   9.590  3.2786  0.4430 -0.0306
 1602SOL    HW216443   3.233   0.491   9.559 -0.0686  0.1923  1.6600
 1603SOL     OW16444   4.420   0.432   6.722  0.5570  0.3274 -0.2127
 1603SOL    HW116445   4.463   0.517   6.730 -0.0284  0.7158 -1.1975
 1603SOL    HW216446   4.331   0.464   6.709  0.6100  0.5850  0.0712
 1604SOL     OW16447   2.912   0.491   5.566 -0.0492  0.0593  0.2593
 1604SOL    HW116448   2.979   0.557   5.547 -0.8895  1.0325  0.7012
 1604SOL    HW216449   2.845   0.540   5.613 -1.0884 -0.6850 -0.4675
 1605SOL     OW16450   2.608   2.785   1.420  0.0205  0.1793  0.0196
 1605SOL    HW116451   2.588   2.719   1.486 -1.8457 -1.0970 -1.8218
 1605SOL    HW216452   2.525   2.799   1.374  0.0009  0.7404  0.2203
 1606SOL     OW16453   2.765   4.165   9.373 -0.2339  0.7556 -0.4089
 1606SOL    HW116454   2.839   4.111   9.345 -2.4339 -3.0097  0.9529
 1606SOL    HW216455   2.699   4.132   9.312 -1.1550  0.3785  0.7933
 1607SOL     OW16456   1.590   4.393  16.517 -0.2637  0.1839 -0.1216
 1607SOL    HW116457   1.513   4.375  16.463 -1.6858 -1.1017  2.3376
 1607SOL    HW216458   1.657   4.389  16.448  0.2110 -4.2999  0.5954
 1608SOL     OW16459   1.962   0.537   7.677  0.4374 -0.5124  0.4794
 1608SOL    HW116460   1.947   0.629   7.656 -2.5803 -1.2286 -0.4787
 1608SOL    HW216461   1.893   0.510   7.737 -1.7585  0.2152 -1.7183
 1609SOL     OW16462   3.854   0.927  11.326 -0.0028 -0.0271  0.3663
 1609SOL    HW116463   3.827   0.904  11.237 -2.2069  0.8767  0.8047
 1609SOL    HW216464   3.948   0.923  11.307 -0.2953  0.3664 -1.1497
 1610SOL     OW16465   1.325   4.561   5.290 -0.4277  0.0063 -0.0310
 1610SOL    HW116466   1.288   4.649   5.296 -1.2361 -0.3446  0.1416
 1610SOL    HW216467   1.418   4.578   5.305 -0.4915 -0.1799  0.5932
 1611SOL     OW16468   4.562   4.132  16.933 -0.0114 -0.3520  0.2564
 1611SOL    HW116469   4.646   4.132  16.886 -0.5887 -1.8748 -0.7864
 1611SOL    HW216470   4.519   4.193  16.873 -0.0123 -0.5652  0.0387
 1612SOL     OW16471   2.596   4.537   9.380 -0.2016  0.5587  0.4123
 1612SOL    HW116472   2.557   4.619   9.411 -0.6312  0.6382 -0.3406
 1612SOL    HW216473   2.605   4.487   9.461  1.8066 -1.4407 -1.0546
 1613SOL     OW16474   3.186   1.748   8.394 -0.4379  0.3636 -0.2138
 1613SOL    HW116475   3.216   1.837   8.411  1.3651 -0.3888  0.5011
 1613SOL    HW216476   3.220   1.710   8.474  1.0054 -0.3968 -1.1946
 1614SOL     OW16477   1.602   0.222   5.080  0.0553  0.7737 -0.6340
 1614SOL    HW116478   1.521   0.190   5.118  0.5726  0.1912 -0.0196
 1614SOL    HW216479   1.639   0.276   5.150  0.8324  0.5194 -0.8449
 1615SOL     OW16480   3.580   2.339   2.907  0.0318 -0.0863  0.7807
 1615SOL    HW116481   3.593   2.405   2.975  1.3848 -1.9680  2.3714
 1615SOL    HW216482   3.643   2.356   2.837 -0.0298 -2.7663  0.0550
 1616SOL     OW16483   0.975   1.231   4.590 -0.3497 -0.0914  0.8108
 1616SOL    HW116484   1.063   1.264   4.607 -0.5952 -0.1600  2.1834
 1616SOL    HW216485   0.972   1.142   4.627  0.0807  0.9304  3.2670
 1617SOL     OW16486   2.062   1.380   8.466  0.2580  0.2843 -0.5277
 1617SOL    HW116487   2.031   1.459   8.421  0.1259  1.0759  0.9478
 1617SOL    HW216488   2.155   1.377   8.444  1.1880  0.5710  3.3517
 1618SOL     OW16489   2.504   1.951   1.250 -0.1487  0.2774 -0.1101
 1618SOL    HW116490   2.582   1.999   1.222 -0.1757  0.3555 -0.0543
 1618SOL    HW216491   2.536   1.861   1.257  0.5023  0.5203  0.0812
 1619SOL     OW16492   4.404   4.592   7.209 -0.9087  0.4500  0.5714
 1619SOL    HW116493   4.323   4.624   7.249 -1.2173 -2.7633  2.4596
 1619SOL    HW216494   4.402   4.497   7.218  0.8979  0.4701  1.2957
 1620SOL     OW16495   4.705   2.871  12.819 -0.2312  0.2079 -0.0305
 1620SOL    HW116496   0.028   2.817  12.768  1.7098  0.9042  1.5556
 1620SOL    HW216497   4.727   2.953  12.777 -2.8144  1.0206  0.1931
 1621SOL     OW16498   4.710   3.823  12.733  0.5912 -0.5874 -0.0510
 1621SOL    HW116499   0.026   3.822  12.813 -2.7165 -1.1424  2.1540
 1621SOL    HW216500   0.032   3.866  12.671  0.3868 -0.1039  0.0938
 1622SOL     OW16501   4.022   4.566  14.935  0.2968 -0.4867  0.0616
 1622SOL    HW116502   4.001   4.539  14.845 -1.9829  1.1311  0.0900
 1622SOL    HW216503   4.029   4.661  14.927  2.1688 -0.5137  1.4468
 1623SOL     OW16504   3.504   4.034   8.327 -0.0263  0.3651  0.1554
 1623SOL    HW116505   3.532   3.981   8.401  0.0859  0.5216  0.2247
 1623SOL    HW216506   3.584   4.081   8.305  0.3675 -0.4448 -0.1203
 1624SOL     OW16507   1.305   2.298  13.564 -0.2183  0.2121 -0.1507
 1624SOL    HW116508   1.347   2.239  13.501 -0.7088 -0.5112  0.2101
 1624SOL    HW216509   1.319   2.387  13.532 -0.9164  0.7558  1.0574
 1625SOL     OW16510   1.317   0.410   9.661  0.3568 -0.2543  0.3441
 1625SOL    HW116511   1.246   0.460   9.621  0.5070 -0.5556 -0.2855
 1625SOL    HW216512   1.389   0.427   9.601 -2.3407 -0.6984 -2.9828
 1626SOL     OW16513   0.464   4.268   4.566 -0.0459 -0.7625  0.2526
 1626SOL    HW116514   0.437   4.188   4.612  2.3842 -2.6975 -1.6886
 1626SOL    HW216515   0.518   4.230   4.497  2.9637  2.4424  0.8950
 1627SOL     OW16516   1.738   2.894  14.353 -0.4821  0.1222 -0.1499
 1627SOL    HW116517   1.703   2.815  14.312  2.0009  0.8151 -3.6376
 1627SOL    HW216518   1.685   2.957  14.306 -1.3161  1.1566  2.1852
 1628SOL     OW16519   0.373   0.396   4.837  0.6037  0.0102 -0.5987
 1628SOL    HW116520   0.459   0.358   4.817 -0.7942 -2.3573 -2.1755
 1628SOL    HW216521   0.321   0.333   4.787  0.4053 -0.2993 -0.0027
 1629SOL     OW16522   2.071   4.429   2.536  0.0740 -0.3269 -0.2149
 1629SOL    HW116523   2.005   4.366   2.565 -0.4813  0.0559 -0.6410
 1629SOL    HW216524   2.078   4.499   2.601 -1.0211 -0.7953  0.4099
 1630SOL     OW16525   1.101   3.654   1.123 -0.1562  0.0116 -0.4730
 1630SOL    HW116526   1.169   3.648   1.189 -0.3945 -0.8041 -0.3004
 1630SOL    HW216527   1.043   3.713   1.172  0.2568  2.0308 -2.4154
 1631SOL     OW16528   0.040   0.930  10.861  0.1884 -0.2176  0.2683
 1631SOL    HW116529   0.032   0.963  10.950  0.8614  0.0540  0.2308
 1631SOL    HW216530   0.012   1.007  10.812 -1.8790 -1.1614 -0.0255
 1632SOL     OW16531   0.285   4.250  10.344  0.3912 -0.3364  0.1818
 1632SOL    HW116532   0.318   4.197  10.417  0.4814 -1.5775 -0.7560
 1632SOL    HW216533   0.369   4.273  10.304  0.7786  3.3782  3.1406
 1633SOL     OW16534   3.218   2.603  11.107 -0.6495  0.5780 -0.5199
 1633SOL    HW116535   3.197   2.643  11.022 -1.5003  0.2137 -0.4777
 1633SOL    HW216536   3.307   2.633  11.129 -1.4786  1.7356  1.2689
 1634SOL     OW16537   0.587   1.287   9.138  0.0627  0.5314 -0.6240
 1634SOL    HW116538   0.504   1.335   9.134 -0.1816  0.2536  1.1267
 1634SOL    HW216539   0.654   1.351   9.114  0.5916 -0.0523 -0.7079
 1635SOL     OW16540   0.406   0.064   0.131 -0.1867 -0.2520  0.6169
 1635SOL    HW116541   0.453   0.035   0.209  0.1125  0.0862  0.5602
 1635SOL    HW216542   0.321   0.024   0.149  0.8672 -2.6162  0.3952
 1636SOL     OW16543   3.888   3.755   5.839  0.1491 -0.0127 -0.2311
 1636SOL    HW116544   3.897   3.772   5.745 -1.1009 -0.6643 -0.4683
 1636SOL    HW216545   3.799   3.720   5.836 -0.2700  0.7744  2.8090
 1637SOL     OW16546   0.912   3.870   8.537 -0.1883  0.2879 -0.3840
 1637SOL    HW116547   0.953   3.815   8.471  1.9717  1.4723 -0.0287
 1637SOL    HW216548   0.921   3.814   8.615  1.3343 -0.2729 -0.9647
 1638SOL     OW16549   3.368   1.999  16.534 -0.1083 -0.3680 -0.4354
 1638SOL    HW116550   3.298   1.990  16.470 -0.5709 -2.3691  0.3683
 1638SOL    HW216551   3.320   2.003  16.616  2.1112  3.7205  0.6556
 1639SOL     OW16552   0.544   1.731  16.249  0.3757 -0.7691 -0.6882
 1639SOL    HW116553   0.457   1.766  16.270  2.0399  2.4858  0.6892
 1639SOL    HW216554   0.606   1.771  16.310 -0.7022  1.3762 -0.9772
 1640SOL     OW16555   1.508   3.607   3.279 -0.0183  0.3481 -0.1446
 1640SOL    HW116556   1.445   3.543   3.310  0.5558 -0.2125 -0.1307
 1640SOL    HW216557   1.457   3.667   3.224 -0.6743 -0.6344 -0.6087
 1641SOL     OW16558   2.760   2.845  15.349 -0.1619  0.6653 -0.0629
 1641SOL    HW116559   2.853   2.864  15.337  0.5372 -1.4140  2.1436
 1641SOL    HW216560   2.757   2.754  15.376  0.5820  0.1140 -1.8244
 1642SOL     OW16561   3.565   0.110   8.595 -0.2744 -0.3090 -0.5311
 1642SOL    HW116562   3.553   0.058   8.675 -2.9943 -0.0529 -0.7646
 1642SOL    HW216563   3.481   0.155   8.589 -0.0889 -0.1845 -2.2067
 1643SOL     OW16564   2.462   1.450   4.737 -0.6639 -0.9651 -0.1245
 1643SOL    HW116565   2.505   1.369   4.764 -0.1965 -0.7746 -0.3014
 1643SOL    HW216566   2.379   1.440   4.784 -1.3736  1.2784 -0.9363
 1644SOL     OW16567   2.277   0.813   7.750  0.5732  0.4061 -0.0004
 1644SOL    HW116568   2.335   0.882   7.783 -1.1587  1.0228  1.7728
 1644SOL    HW216569   2.241   0.778   7.831  0.8323  2.3259  0.9436
 1645SOL     OW16570   1.319   3.994   4.892  0.1581 -0.2993  0.1633
 1645SOL    HW116571   1.313   3.957   4.980  0.0773  1.2817  0.8401
 1645SOL    HW216572   1.244   3.947   4.855  0.0837 -0.4633  0.5179
 1646SOL     OW16573   0.696   2.091   3.094 -0.3421 -0.1585 -0.1294
 1646SOL    HW116574   0.722   2.012   3.047 -1.1655  0.8813 -2.2891
 1646SOL    HW216575   0.694   2.155   3.023 -0.9187  0.1452  0.1650
 1647SOL     OW16576   0.783   0.222   7.581 -0.2671  0.0888 -0.1665
 1647SOL    HW116577   0.842   0.256   7.649 -0.4349 -1.6793  0.8559
 1647SOL    HW216578   0.704   0.264   7.615  0.6632  1.5962  0.1736
 1648SOL     OW16579   0.486   0.428  13.522 -0.3355  0.2036 -0.0451
 1648SOL    HW116580   0.397   0.426  13.487 -0.4364 -2.5964  0.3964
 1648SOL    HW216581   0.466   0.436  13.616  0.6383 -0.4980  0.2205
 1649SOL     OW16582   2.103   0.022   2.364  0.0591  0.3652 -0.2424
 1649SOL    HW116583   2.125   4.669   2.341  0.4392  0.3837  0.0482
 1649SOL    HW216584   2.182   0.075   2.356  1.2418 -1.7107 -2.4211
 1650SOL     OW16585   2.978   4.734  16.955 -0.4513  0.1869  0.1774
 1650SOL    HW116586   2.911   4.728  16.887 -2.4072  1.0849  2.0086
 1650SOL    HW216587   3.049   4.690  16.908 -0.9668  0.2996 -0.6846
 1651SOL     OW16588   2.298   2.133   4.478 -0.5584 -0.2506  0.4057
 1651SOL    HW116589   2.341   2.053   4.448 -1.6291  0.7225 -3.6986
 1651SOL    HW216590   2.290   2.112   4.571  1.8547  1.1919  0.9395
 1652SOL     OW16591   1.696   0.020   3.519  0.1216 -0.2049  0.1796
 1652SOL    HW116592   1.763   0.080   3.487 -0.1940  0.7935  1.3574
 1652SOL    HW216593   1.751   4.680   3.524 -2.5441 -2.2063 -1.3687
 1653SOL     OW16594   2.325   3.220   4.180  0.9520  0.2678  0.4209
 1653SOL    HW116595   2.356   3.137   4.217 -0.4444 -1.6180 -2.5826
 1653SOL    HW216596   2.333   3.268   4.262  1.2870  0.5557  0.2234
 1654SOL     OW16597   0.355   4.435   4.227  0.1030 -0.8188  0.1676
 1654SOL    HW116598   0.354   4.349   4.186 -1.2216 -0.6995 -0.0598
 1654SOL    HW216599   0.426   4.474   4.176 -0.9550  0.1756 -0.5411
 1655SOL     OW16600   1.953   4.448  10.665  0.3563 -0.2053  0.4594
 1655SOL    HW116601   1.940   4.505  10.589  5.6452 -1.1289 -1.1348
 1655SOL    HW216602   1.928   4.365  10.624 -0.1178 -0.3874  1.1101
 1656SOL     OW16603   4.627   3.792  15.833  0.2277  0.0730  0.2962
 1656SOL    HW116604   4.600   3.798  15.924 -0.5045  0.0796  0.0751
 1656SOL    HW216605   4.669   3.706  15.833 -0.5122 -0.2713  2.5623
 1657SOL     OW16606   1.147   1.295  12.353  0.2235  0.1223  0.0353
 1657SOL    HW116607   1.186   1.277  12.439 -0.9130  0.9289  0.7260
 1657SOL    HW216608   1.120   1.387  12.357 -2.5750 -0.7855  1.7079
 1658SOL     OW16609   3.367   2.300   7.534  0.3966 -0.5956  0.5378
 1658SOL    HW116610   3.276   2.330   7.535  0.6699  0.2751 -0.5857
 1658SOL    HW216611   3.393   2.331   7.620 -1.4232  0.6798  0.6256
 1659SOL     OW16612   2.785   0.246   8.443  0.6055  0.2830 -0.4322
 1659SOL    HW116613   2.778   0.289   8.529 -4.9182 -0.1252 -0.6801
 1659SOL    HW216614   2.854   0.182   8.459 -0.4150 -1.2192 -1.9887
 1660SOL     OW16615   4.171   0.418   1.421  0.5943  0.2168  0.4272
 1660SOL    HW116616   4.263   0.442   1.430  0.8076 -1.5096  3.1574
 1660SOL    HW216617   4.145   0.431   1.330 -0.2307 -0.2192  0.5970
 1661SOL     OW16618   3.286   0.909  10.583  0.2807  0.3386  0.3472
 1661SOL    HW116619   3.331   0.931  10.665 -0.0143  0.4259  0.4864
 1661SOL    HW216620   3.196   0.936  10.598 -0.4488 -1.7774 -0.1824
 1662SOL     OW16621   3.337   4.452  17.014  0.0996  0.0875  0.2275
 1662SOL    HW116622   3.318   4.540  17.046  1.0847 -0.6545  2.8645
 1662SOL    HW216623   3.254   4.420  16.979  0.8471 -0.9779 -0.5637
 1663SOL     OW16624   2.306   1.446   6.820 -0.4579 -0.6199 -0.0485
 1663SOL    HW116625   2.229   1.474   6.770  0.8338  0.2784 -1.5209
 1663SOL    HW216626   2.334   1.364   6.780  0.9432 -0.8793  1.4448
 1664SOL     OW16627   1.900   0.649   3.750 -0.4298 -0.2119 -0.1754
 1664SOL    HW116628   1.901   0.555   3.736 -1.8492 -0.1128 -0.9218
 1664SOL    HW216629   1.979   0.671   3.700  0.2263  0.0801  1.0010
 1665SOL     OW16630   0.856   1.076   6.385 -0.4870 -0.2514 -0.1395
 1665SOL    HW116631   0.822   1.078   6.296  1.9868  0.0358 -1.0668
 1665SOL    HW216632   0.774   1.070   6.434 -0.8332 -0.5657 -0.7650
 1666SOL     OW16633   1.896   0.604   9.223  0.1565 -0.0507  0.0746
 1666SOL    HW116634   1.863   0.687   9.256  0.8466 -0.7096  2.4267
 1666SOL    HW216635   1.971   0.636   9.174 -0.7782  0.6647 -0.8950
 1667SOL     OW16636   2.625   3.842   1.512 -0.1011  0.2401 -0.5807
 1667SOL    HW116637   2.570   3.806   1.442  1.2839  3.0971 -3.1557
 1667SOL    HW216638   2.671   3.770   1.555 -1.3832 -1.0396 -1.3237
 1668SOL     OW16639   0.874   4.623   5.200 -0.2311 -0.4165  0.6853
 1668SOL    HW116640   0.787   4.588   5.215  0.4964 -0.8112  3.8424
 1668SOL    HW216641   0.870   4.683   5.274  0.0846  1.6556 -0.9521
 1669SOL     OW16642   2.632   2.023   4.546  0.2171 -0.5391  0.3898
 1669SOL    HW116643   2.653   2.023   4.639 -1.6487  1.5585  0.8308
 1669SOL    HW216644   2.632   1.930   4.522  0.2940 -0.1587 -1.0611
 1670SOL     OW16645   1.429   4.680   3.487 -0.2346  0.0680 -0.2734
 1670SOL    HW116646   1.449   4.587   3.475  1.4541  0.4611 -0.4979
 1670SOL    HW216647   1.515   4.723   3.485 -0.0012 -0.3953 -0.2720
 1671SOL     OW16648   3.900   0.093   9.265 -0.0411  0.7554  0.0833
 1671SOL    HW116649   3.899   0.125   9.174 -0.4324  0.4496 -0.0193
 1671SOL    HW216650   3.820   0.041   9.270  2.6580 -3.2405  1.3507
 1672SOL     OW16651   1.475   4.138   3.784  0.0441 -0.2935 -0.1314
 1672SOL    HW116652   1.512   4.215   3.827 -0.1081  0.4567 -1.3759
 1672SOL    HW216653   1.528   4.119   3.706 -0.2774  0.0459 -0.4276
 1673SOL     OW16654   1.353   2.329  11.963 -0.0947 -0.4386  0.4224
 1673SOL    HW116655   1.439   2.368  11.948 -0.1705 -0.1268  0.8025
 1673SOL    HW216656   1.378   2.238  11.977  2.9657  0.1450 -1.3598
 1674SOL     OW16657   2.403   0.135   0.247  0.5347  0.0249 -0.0644
 1674SOL    HW116658   2.411   0.200   0.177 -0.0661  0.3277  0.1399
 1674SOL    HW216659   2.314   0.104   0.229  0.0275  2.8985 -2.6961
 1675SOL     OW16660   0.160   4.170   7.733  0.2418  0.0850 -0.1989
 1675SOL    HW116661   0.167   4.248   7.789 -2.3644  0.4688 -0.4073
 1675SOL    HW216662   0.072   4.186   7.697  1.0738  0.9004 -1.8701
 1676SOL     OW16663   4.357   4.300   7.197 -0.1656 -0.9544  0.2582
 1676SOL    HW116664   4.274   4.312   7.243  0.1868  1.1151  0.3638
 1676SOL    HW216665   4.387   4.218   7.236 -1.6624 -2.2061 -1.2416
 1677SOL     OW16666   2.507   2.734   9.599 -0.3042  0.2619  0.1710
 1677SOL    HW116667   2.466   2.648   9.603 -0.3461  0.2306 -0.9371
 1677SOL    HW216668   2.480   2.761   9.511 -1.9304 -1.3849  0.1622
 1678SOL     OW16669   3.896   4.391   3.988 -0.5450  0.3763 -0.2843
 1678SOL    HW116670   3.917   4.299   3.975 -0.6269  0.5343 -1.6089
 1678SOL    HW216671   3.808   4.403   3.953 -0.8083 -0.0824  0.2409
 1679SOL     OW16672   4.633   2.385   1.595 -0.3530  0.2194 -0.6441
 1679SOL    HW116673   4.596   2.319   1.653 -0.5258  1.4543  0.6438
 1679SOL    HW216674   4.717   2.409   1.633 -0.3151  1.6997 -1.6390
 1680SOL     OW16675   4.063   2.192  16.648 -0.1123 -0.0749  0.4149
 1680SOL    HW116676   4.129   2.134  16.688  0.9621  0.5088 -0.4975
 1680SOL    HW216677   4.017   2.211  16.730  0.7746 -0.9102  1.1219
 1681SOL     OW16678   1.583   4.343   8.519  0.3427 -0.2916  0.6688
 1681SOL    HW116679   1.539   4.270   8.476 -0.2956 -0.1958  1.1638
 1681SOL    HW216680   1.521   4.413   8.498 -1.4475 -2.6656 -1.8846
 1682SOL     OW16681   0.320   2.196   7.206 -0.3928 -0.0419 -0.3515
 1682SOL    HW116682   0.371   2.253   7.264  0.7052 -1.3192 -0.0745
 1682SOL    HW216683   0.227   2.216   7.219 -0.3194  0.2135 -0.2167
 1683SOL     OW16684   1.604   3.593   7.165  0.0192  0.0145 -0.0608
 1683SOL    HW116685   1.624   3.574   7.257  0.2467  1.7549  0.2359
 1683SOL    HW216686   1.532   3.530   7.157  1.8864 -2.0357 -0.8355
 1684SOL     OW16687   0.400   0.768   6.921 -0.2063 -0.0749  0.0982
 1684SOL    HW116688   0.481   0.733   6.885  0.6247  2.0150 -0.0889
 1684SOL    HW216689   0.394   0.857   6.885 -0.8691  0.1321  0.7223
 1685SOL     OW16690   3.115   2.481   2.243  0.5076  0.1479 -0.0075
 1685SOL    HW116691   3.192   2.524   2.280  0.8840  0.7228 -1.4519
 1685SOL    HW216692   3.139   2.391   2.261  0.7230  0.0563 -0.7607
 1686SOL     OW16693   4.405   3.218   3.660 -0.1039  0.5339 -0.4605
 1686SOL    HW116694   4.373   3.130   3.639  2.1560 -0.8357  1.8455
 1686SOL    HW216695   4.446   3.236   3.576 -0.9701 -0.2170 -1.0571
 1687SOL     OW16696   3.257   2.400  13.159 -0.0833 -0.3515 -0.6368
 1687SOL    HW116697   3.334   2.361  13.118  0.4384 -2.6011  2.4972
 1687SOL    HW216698   3.251   2.486  13.118 -0.8798 -0.2343 -0.2743
 1688SOL     OW16699   1.794   0.137   2.567 -0.0914  0.5509  0.2318
 1688SOL    HW116700   1.880   0.180   2.568 -0.8371  2.0882 -2.1756
 1688SOL    HW216701   1.798   0.088   2.485  0.2740  0.9867 -0.0125
 1689SOL     OW16702   3.223   0.143  10.257  0.6736  0.0932 -0.2519
 1689SOL    HW116703   3.164   0.171  10.187 -1.1796 -0.8975  0.9170
 1689SOL    HW216704   3.200   0.050  10.249 -1.8264  0.8274 -1.3372
 1690SOL     OW16705   3.652   1.942  11.274 -0.0807 -0.1293 -0.1737
 1690SOL    HW116706   3.605   1.914  11.353  0.3618  0.1924  0.2098
 1690SOL    HW216707   3.685   1.862  11.233  0.3002 -0.0798  0.0377
 1691SOL     OW16708   2.804   4.384  14.486 -0.2377  0.4747  0.4715
 1691SOL    HW116709   2.748   4.337  14.548  0.9239 -0.5670  0.7392
 1691SOL    HW216710   2.789   4.476  14.505  1.1130  0.4250  1.7222
 1692SOL     OW16711   4.507   4.061   4.365  0.3519 -0.0870 -0.0222
 1692SOL    HW116712   4.434   4.007   4.335 -0.9243  1.9182 -0.4927
 1692SOL    HW216713   4.575   4.059   4.298 -2.3290 -1.4164 -2.6826
 1693SOL     OW16714   0.488   4.488  12.981 -0.0755  0.2682 -0.1171
 1693SOL    HW116715   0.426   4.463  12.913  0.7838 -0.4521 -0.6213
 1693SOL    HW216716   0.564   4.522  12.933 -1.3658  2.3322 -0.7325
 1694SOL     OW16717   3.289   1.747   4.609 -0.4222 -0.4098  0.3104
 1694SOL    HW116718   3.361   1.700   4.566 -0.0246  0.2610  0.2493
 1694SOL    HW216719   3.264   1.680   4.673 -0.9370 -1.9039 -1.4820
 1695SOL     OW16720   1.064   1.974  11.382  0.2527 -0.1813 -0.7110
 1695SOL    HW116721   1.055   1.944  11.292  1.2102 -1.4159 -0.3972
 1695SOL    HW216722   1.133   1.915  11.411  0.7973  1.5239  1.4032
 1696SOL     OW16723   3.870   4.572   5.084 -0.3068 -0.5256  0.1019
 1696SOL    HW116724   3.882   4.486   5.123  1.8285 -0.5508 -0.6087
 1696SOL    HW216725   3.781   4.566   5.050  0.1231 -2.0635 -0.7299
 1697SOL     OW16726   4.449   2.076   1.496  0.0224  0.8037 -0.2329
 1697SOL    HW116727   4.435   2.089   1.402  1.6376  0.4270 -0.5411
 1697SOL    HW216728   4.545   2.072   1.503 -0.0801  0.4118  0.9269
 1698SOL     OW16729   1.402   3.712   3.886 -0.2259 -0.4603 -0.5121
 1698SOL    HW116730   1.415   3.678   3.975  1.3771  2.3646  0.3239
 1698SOL    HW216731   1.455   3.792   3.884  0.1757 -0.7391 -0.9327
 1699SOL     OW16732   2.592   2.516   2.626 -0.0872  0.0984  0.1684
 1699SOL    HW116733   2.644   2.586   2.666 -2.1131  0.1251  2.7471
 1699SOL    HW216734   2.621   2.455   2.694  0.5777  0.7082  0.4412
 1700SOL     OW16735   4.646   0.403   6.527  0.6225 -0.4991 -0.0379
 1700SOL    HW116736   4.611   0.413   6.616  1.4113  1.4191  0.0578
 1700SOL    HW216737   4.605   0.473   6.476  1.7584  0.5642  0.5137
 1701SOL     OW16738   2.810   4.418  10.041 -0.0566 -0.3455  0.2069
 1701SOL    HW116739   2.853   4.488   9.992 -0.4639  0.0082  0.3446
 1701SOL    HW216740   2.738   4.471  10.076 -0.5103 -0.8808  0.1024
 1702SOL     OW16741   0.754   1.075   9.041 -0.1124  0.4709  0.0385
 1702SOL    HW116742   0.836   1.122   9.058  1.1657 -1.1171 -1.8362
 1702SOL    HW216743   0.688   1.126   9.089  0.3876  0.6738  0.5156
 1703SOL     OW16744   3.718   4.464   5.873  0.0668 -0.7063 -0.3759
 1703SOL    HW116745   3.773   4.391   5.846  0.8489 -0.8225  1.5580
 1703SOL    HW216746   3.666   4.473   5.793  0.1165  1.0631 -0.2030
 1704SOL     OW16747   0.060   4.009   0.701  0.5043  0.5795  0.3409
 1704SOL    HW116748   4.713   3.987   0.741  2.4391 -2.8777  2.5300
 1704SOL    HW216749   0.049   4.056   0.618 -0.6749  0.1325  0.2436
 1705SOL     OW16750   3.446   3.285   0.224  0.0843 -0.2839 -0.4627
 1705SOL    HW116751   3.508   3.354   0.201 -0.0911 -0.2175 -0.7431
 1705SOL    HW216752   3.366   3.301   0.174  0.2795 -3.1217 -1.7055
 1706SOL     OW16753   0.167   2.652  15.816 -0.0026  0.3882  0.4081
 1706SOL    HW116754   0.085   2.694  15.842  0.2192  2.7133 -2.7396
 1706SOL    HW216755   0.219   2.727  15.789  0.8050 -0.1718  0.3910
 1707SOL     OW16756   2.181   1.211   1.868 -0.4523 -0.0293  0.5033
 1707SOL    HW116757   2.109   1.243   1.815 -0.4670  0.8109  1.0364
 1707SOL    HW216758   2.148   1.133   1.913  2.2754 -0.8409  1.1095
 1708SOL     OW16759   0.684   2.332   8.616  0.0758  0.0902 -0.4927
 1708SOL    HW116760   0.667   2.416   8.658  0.7872  0.0910 -0.2109
 1708SOL    HW216761   0.630   2.333   8.537  2.0027  0.5930 -1.8199
 1709SOL     OW16762   4.722   3.813  16.823  0.5931  0.8826  0.5163
 1709SOL    HW116763   0.025   3.851  16.901  1.3328 -1.0420  1.0603
 1709SOL    HW216764   4.666   3.742  16.855  0.3647  1.0713  0.5370
 1710SOL     OW16765   1.496   2.301   7.492 -0.1889 -0.1893 -0.8381
 1710SOL    HW116766   1.467   2.328   7.579  2.1925  0.8782 -0.3919
 1710SOL    HW216767   1.542   2.222   7.520 -0.9493  0.5515  2.4519
 1711SOL     OW16768   3.889   2.305   6.328 -0.0217  0.1930  0.1447
 1711SOL    HW116769   3.798   2.320   6.301  0.1623  0.1329 -0.5218
 1711SOL    HW216770   3.887   2.210   6.341  0.6965  0.0927 -0.5233
 1712SOL     OW16771   3.484   0.962   8.215 -0.0685  0.4832 -0.0660
 1712SOL    HW116772   3.552   1.029   8.223 -0.0005  0.6687 -2.4623
 1712SOL    HW216773   3.492   0.950   8.310 -0.1765  2.0505  0.1439
 1713SOL     OW16774   3.879   1.002   2.406 -0.1312  0.2543 -0.2371
 1713SOL    HW116775   3.826   0.965   2.478  1.1254  1.5452  1.3491
 1713SOL    HW216776   3.887   1.092   2.438 -0.6843 -0.0383  0.7439
 1714SOL     OW16777   1.661   4.670   6.339  0.5322  0.1484  0.2350
 1714SOL    HW116778   1.628   0.016   6.373 -3.1805 -1.7860  1.3902
 1714SOL    HW216779   1.607   4.618   6.399  1.4401 -2.0792 -0.8879
 1715SOL     OW16780   2.909   1.749   6.731  0.4959  0.0492 -0.1454
 1715SOL    HW116781   2.893   1.656   6.749  0.9694  0.1172  0.6271
 1715SOL    HW216782   2.990   1.737   6.682 -1.0986  0.6963 -2.8914
 1716SOL     OW16783   3.652   3.501   1.653  0.4200 -0.6748  0.2953
 1716SOL    HW116784   3.733   3.526   1.698  0.2028 -0.1696  0.4058
 1716SOL    HW216785   3.651   3.541   1.566 -1.0034 -1.7583 -0.1793
 1717SOL     OW16786   3.011   3.416   4.754  0.1460 -0.4225 -0.2981
 1717SOL    HW116787   3.022   3.477   4.827  0.5721 -0.8141 -0.0325
 1717SOL    HW216788   2.926   3.382   4.779  0.7940 -2.1271 -0.4044
 1718SOL     OW16789   2.811   1.857   2.802  0.5713  0.0515  0.0113
 1718SOL    HW116790   2.847   1.856   2.891 -1.2920  2.1114  0.7860
 1718SOL    HW216791   2.779   1.947   2.795 -3.0427 -1.0663  2.2599
 1719SOL     OW16792   1.584   3.797   0.462  0.2572  0.6477  0.4069
 1719SOL    HW116793   1.668   3.774   0.422 -0.9464 -1.2858 -1.0523
 1719SOL    HW216794   1.615   3.818   0.550  0.2735  1.0347  0.3079
 1720SOL     OW16795   3.368   2.425   1.039 -0.1478  0.1045 -0.0483
 1720SOL    HW116796   3.451   2.471   1.045  0.0653 -0.3797  0.7140
 1720SOL    HW216797   3.306   2.498   1.048  1.1914  1.2277 -0.0221
 1721SOL     OW16798   0.323   1.238   7.921 -0.5545 -0.0145 -0.5483
 1721SOL    HW116799   0.347   1.217   7.831  3.2837  0.1183  0.4516
 1721SOL    HW216800   0.386   1.191   7.975 -0.4730  1.6993  0.8519
 1722SOL     OW16801   0.082   2.605  12.130 -0.3294  0.4978  0.1571
 1722SOL    HW116802   0.024   2.679  12.145 -0.6912  0.5648 -1.6516
 1722SOL    HW216803   0.058   2.568  12.045  1.2890 -0.2820  0.0411
 1723SOL     OW16804   2.118   0.441   0.398  0.5431  0.6589 -0.1154
 1723SOL    HW116805   2.126   0.507   0.467 -1.5580 -0.1565  0.8851
 1723SOL    HW216806   2.194   0.384   0.414  0.5810  1.3629  2.2418
 1724SOL     OW16807   1.837   0.665  17.679 -0.0558 -0.0867 -0.6045
 1724SOL    HW116808   1.820   0.628   0.019  2.4553  1.1358  0.3797
 1724SOL    HW216809   1.775   0.625  17.618 -0.5294 -0.8900  0.4072
 1725SOL     OW16810   3.062   0.794  14.879 -0.6835 -0.4770  0.0113
 1725SOL    HW116811   3.072   0.723  14.815  0.7722  0.3475 -0.6638
 1725SOL    HW216812   2.984   0.838  14.846  0.7234  1.1460 -1.1427
 1726SOL     OW16813   1.050   3.712   5.670 -0.1344 -0.2054  0.4251
 1726SOL    HW116814   1.125   3.746   5.720  0.3400  1.1922 -1.2599
 1726SOL    HW216815   1.081   3.692   5.582 -2.0374  1.7811 -0.6855
 1727SOL     OW16816   4.161   1.863  10.782  0.1567  0.6961 -0.7755
 1727SOL    HW116817   4.073   1.833  10.806  0.6632  0.9057  1.3309
 1727SOL    HW216818   4.172   1.953  10.811  1.9458  0.9470 -2.2089
 1728SOL     OW16819   2.857   0.921  14.748 -0.2605  0.0942 -0.7529
 1728SOL    HW116820   2.800   0.998  14.747  0.9791  1.0347  0.4360
 1728SOL    HW216821   2.803   0.846  14.725 -0.2078  0.3431 -1.6990
 1729SOL     OW16822   4.653   3.445   2.224  0.5221  0.2050 -0.2580
 1729SOL    HW116823   4.593   3.435   2.150  2.2376 -2.8211 -1.2574
 1729SOL    HW216824   4.700   3.526   2.204  2.0879 -0.1827  1.8140
 1730SOL     OW16825   4.012   0.135   7.645  0.2253 -0.1828 -0.5800
 1730SOL    HW116826   3.928   0.159   7.685  0.0505 -0.5545 -0.7249
 1730SOL    HW216827   4.026   0.206   7.582  0.2968  1.8108  1.6974
 1731SOL     OW16828   0.894   1.003  15.850  0.7604 -0.0716 -0.2749
 1731SOL    HW116829   0.878   0.930  15.790 -0.4445  0.0481 -0.0979
 1731SOL    HW216830   0.968   0.965  15.897  1.0277  1.0436  0.2144
 1732SOL     OW16831   2.263   0.547   2.398 -0.4661  0.3189  0.3908
 1732SOL    HW116832   2.179   0.562   2.353 -0.9891 -1.1062  0.9010
 1732SOL    HW216833   2.230   0.554   2.487  1.4119  0.4112  1.0772
 1733SOL     OW16834   1.216   1.056   5.774  0.0354 -0.5977  0.2507
 1733SOL    HW116835   1.182   0.981   5.724 -2.4805  0.8288 -0.1575
 1733SOL    HW216836   1.249   1.109   5.701  2.1865  0.9238  2.3345
 1734SOL     OW16837   4.220   3.820   8.211 -0.0932  0.1124  0.4634
 1734SOL    HW116838   4.279   3.810   8.137 -0.9254 -1.0387 -0.0458
 1734SOL    HW216839   4.279   3.821   8.286  1.0927  0.9447 -0.4784
 1735SOL     OW16840   1.643   4.113  13.473 -0.2629  0.0109  0.6011
 1735SOL    HW116841   1.595   4.132  13.554  1.3169 -0.3728  1.6333
 1735SOL    HW216842   1.734   4.124  13.502 -0.7420  1.9267  1.4279
 1736SOL     OW16843   0.843   0.724   4.746  0.1999 -1.0230  0.2345
 1736SOL    HW116844   0.928   0.739   4.704 -0.6209  0.3718 -0.9208
 1736SOL    HW216845   0.863   0.737   4.838  0.3358  1.8622 -0.2043
 1737SOL     OW16846   4.131   3.880  17.636 -0.1351 -0.3401 -0.6145
 1737SOL    HW116847   4.196   3.936  17.679  1.2127 -1.1831 -1.5312
 1737SOL    HW216848   4.152   3.899  17.545  1.2117  0.3661 -0.1687
 1738SOL     OW16849   0.669   2.019  10.635 -0.2608  0.1281  0.3024
 1738SOL    HW116850   0.700   2.026  10.545 -0.9032  2.8259  0.3131
 1738SOL    HW216851   0.725   2.072  10.692  0.8692  1.1452 -1.7461
 1739SOL     OW16852   3.862   3.970   2.632 -0.1508  0.6994  0.3238
 1739SOL    HW116853   3.933   3.929   2.681  1.3130  2.5704 -0.2197
 1739SOL    HW216854   3.842   4.048   2.684  0.7488 -0.2077  1.9990
 1740SOL     OW16855   2.747   1.809  14.081 -0.3239  0.5866  0.2005
 1740SOL    HW116856   2.802   1.886  14.071 -0.9125  1.2240  2.0681
 1740SOL    HW216857   2.709   1.829  14.166  0.2192 -1.0011  0.8104
 1741SOL     OW16858   0.380   0.640   9.942  0.2059 -0.4843 -0.8543
 1741SOL    HW116859   0.441   0.713   9.930 -1.2949  1.0295  0.8013
 1741SOL    HW216860   0.438   0.570   9.911  2.6411  0.5397  1.4091
 1742SOL     OW16861   1.025   1.126  10.426 -0.3397  0.0510  0.4600
 1742SOL    HW116862   1.085   1.153  10.356 -1.1910  1.4089  0.2370
 1742SOL    HW216863   1.084   1.092  10.493  2.1906  2.0964 -0.7029
 1743SOL     OW16864   3.716   1.180   6.500 -0.0072  0.4523  0.0682
 1743SOL    HW116865   3.700   1.188   6.406 -0.2016 -1.1251 -0.0342
 1743SOL    HW216866   3.797   1.230   6.505  0.8422 -0.9006 -0.3757
 1744SOL     OW16867   2.245   2.180   7.000  0.3750 -0.4435  0.0051
 1744SOL    HW116868   2.213   2.127   7.074  0.5176 -1.7508 -0.8571
 1744SOL    HW216869   2.340   2.168   7.004  0.1854 -1.2302  2.4438
 1745SOL     OW16870   3.183   3.559   5.645 -0.2213  0.3454  0.1643
 1745SOL    HW116871   3.101   3.542   5.691 -0.4448  0.6120 -0.1345
 1745SOL    HW216872   3.198   3.471   5.611 -0.2455  0.2167  0.4898
 1746SOL     OW16873   0.414   1.270   4.573  0.2532  0.2655  0.0876
 1746SOL    HW116874   0.446   1.185   4.544 -0.5933 -0.6647  1.8413
 1746SOL    HW216875   0.496   1.319   4.584  0.4649  0.2197 -1.2941
 1747SOL     OW16876   2.810   3.977   1.332  0.3707 -0.2672  0.4188
 1747SOL    HW116877   2.793   3.927   1.412 -0.7053  0.2627  0.5315
 1747SOL    HW216878   2.789   3.915   1.262 -2.9615  0.6025  0.6305
 1748SOL     OW16879   1.444   1.085   2.320  0.2814  0.3222  0.2038
 1748SOL    HW116880   1.433   1.103   2.226  0.7289  0.2087  0.1296
 1748SOL    HW216881   1.421   1.170   2.356 -0.1207 -0.1099  0.9637
 1749SOL     OW16882   0.501   1.664   8.699  0.1036 -0.2386 -0.0234
 1749SOL    HW116883   0.563   1.710   8.755 -1.4214  1.1030  0.5626
 1749SOL    HW216884   0.433   1.643   8.764 -0.7393  0.0479 -0.8167
 1750SOL     OW16885   0.387   0.466   5.359  0.2928 -0.2526  0.7040
 1750SOL    HW116886   0.365   0.539   5.301 -0.6130  0.3472  1.8106
 1750SOL    HW216887   0.482   0.472   5.360  0.1964  1.4898 -0.6623
 1751SOL     OW16888   2.946   3.443   0.144 -0.6255  0.1885  0.1029
 1751SOL    HW116889   2.933   3.373   0.208  2.9721  0.1411  0.8242
 1751SOL    HW216890   3.042   3.446   0.146 -0.5887 -0.2564 -1.2256
 1752SOL     OW16891   4.456   3.260   2.959 -0.0545 -0.3510 -0.0925
 1752SOL    HW116892   4.439   3.167   2.951 -1.4192  0.0818 -2.2696
 1752SOL    HW216893   4.545   3.269   2.925  0.9413  1.5706  3.0704
 1753SOL     OW16894   3.056   1.552  13.250  0.4121 -0.0720  0.4607
 1753SOL    HW116895   3.142   1.516  13.233  0.7628 -0.2805  2.6417
 1753SOL    HW216896   3.061   1.556  13.346 -0.5779  0.5196  0.5014
 1754SOL     OW16897   1.086   1.797   9.979 -0.2269  0.2150  0.1870
 1754SOL    HW116898   1.092   1.711  10.021 -1.7069  1.5636  3.1232
 1754SOL    HW216899   1.161   1.808   9.921 -0.3098 -2.2176 -0.3832
 1755SOL     OW16900   0.026   2.734   3.231 -0.8487 -0.4284  0.4690
 1755SOL    HW116901   0.054   2.800   3.168  0.7539 -0.0533  1.5876
 1755SOL    HW216902   0.084   2.658   3.229  1.3883  1.3273 -0.8991
 1756SOL     OW16903   4.077   3.262   0.784 -0.0954 -0.1235  0.2070
 1756SOL    HW116904   4.009   3.270   0.850  0.1245 -0.2958  0.4521
 1756SOL    HW216905   4.020   3.284   0.710 -0.2784 -1.1585  0.0306
 1757SOL     OW16906   4.442   2.599  15.234 -0.4466 -0.1707 -0.0442
 1757SOL    HW116907   4.506   2.622  15.301  1.0043 -0.7185 -1.2323
 1757SOL    HW216908   4.486   2.572  15.154 -2.1912 -0.5706 -0.8696
 1758SOL     OW16909   4.499   3.452   5.834 -0.9053 -0.4356  0.2875
 1758SOL    HW116910   4.502   3.472   5.927  0.1347 -1.2758  0.4354
 1758SOL    HW216911   4.552   3.521   5.794 -0.4419 -0.5612  0.6771
 1759SOL     OW16912   2.317   0.152   6.613  0.1439 -0.0508  0.0129
 1759SOL    HW116913   2.319   0.245   6.590  0.4925 -0.0097  0.2024
 1759SOL    HW216914   2.372   0.117   6.543  0.3235 -0.1318  0.1924
 1760SOL     OW16915   4.046   0.114   4.656  0.4690 -0.3324  0.4095
 1760SOL    HW116916   4.035   0.071   4.741 -1.8979 -0.6799 -0.0826
 1760SOL    HW216917   3.982   0.184   4.654 -0.7020 -1.3197  3.1450
 1761SOL     OW16918   1.490   3.844   3.062 -0.3323  0.0310 -0.4699
 1761SOL    HW116919   1.503   3.938   3.057  2.9878 -0.5966 -3.3675
 1761SOL    HW216920   1.432   3.835   3.138 -0.8655 -2.2665 -1.1433
 1762SOL     OW16921   3.899   4.699   8.201  0.0970 -0.0550 -0.9458
 1762SOL    HW116922   3.904   0.051   8.235  1.2582  0.4483 -2.4200
 1762SOL    HW216923   3.968   4.706   8.135  0.8946  0.7830 -0.0172
 1763SOL     OW16924   0.535   2.695   0.089  0.3183 -0.0046  0.0674
 1763SOL    HW116925   0.584   2.693   0.171  0.2641  1.2827  0.1352
 1763SOL    HW216926   0.460   2.750   0.111  0.6258  0.8103 -0.9201
 1764SOL     OW16927   2.908   3.231  17.653  0.0074  0.4309  0.1361
 1764SOL    HW116928   2.881   3.311  17.698 -0.6840  0.3420 -0.1271
 1764SOL    HW216929   2.903   3.158  17.715 -1.9612  0.9806  0.6182
 1765SOL     OW16930   2.010   1.251  10.021 -0.0311 -0.4089 -0.0912
 1765SOL    HW116931   1.936   1.252  10.082 -0.0731 -0.7448 -0.1391
 1765SOL    HW216932   2.085   1.259  10.081 -0.8949 -1.6409  1.1500
 1766SOL     OW16933   0.491   2.671   8.359  0.0926 -0.0940 -0.0206
 1766SOL    HW116934   0.412   2.715   8.329 -1.1702 -1.1331  1.8168
 1766SOL    HW216935   0.465   2.589   8.401 -0.3974 -0.2543 -0.6472
 1767SOL     OW16936   1.601   1.751  14.713 -0.4687  0.1042 -0.4736
 1767SOL    HW116937   1.516   1.777  14.679 -0.4937  0.3527 -0.2171
 1767SOL    HW216938   1.646   1.836  14.713  0.3732 -0.3461 -0.3100
 1768SOL     OW16939   0.854   4.035   6.283  0.2886  0.1002 -0.2552
 1768SOL    HW116940   0.877   4.025   6.375  1.4246  0.7727 -0.4588
 1768SOL    HW216941   0.806   3.955   6.262  1.1673 -0.5336  0.1657
 1769SOL     OW16942   2.237   1.113   2.158  0.1960  0.0527  0.0378
 1769SOL    HW116943   2.198   1.031   2.126 -0.0270  1.0926 -2.4169
 1769SOL    HW216944   2.282   1.087   2.238  1.4018  1.5394 -0.1758
 1770SOL     OW16945   2.300   1.343   7.851 -0.6139  0.2437 -0.5545
 1770SOL    HW116946   2.335   1.275   7.793  4.0914  1.8644  0.3871
 1770SOL    HW216947   2.379   1.353   7.903  0.0536 -2.6443 -0.9989
 1771SOL     OW16948   2.591   2.692   7.250 -0.2862  0.3363 -0.2490
 1771SOL    HW116949   2.535   2.650   7.186  2.4407  2.6801 -4.1521
 1771SOL    HW216950   2.546   2.661   7.329  0.3243  2.5970  0.9847
 1772SOL     OW16951   1.284   3.574   9.112 -0.1019  1.0927  0.2983
 1772SOL    HW116952   1.302   3.618   9.195 -0.8367  0.1979  0.9374
 1772SOL    HW216953   1.188   3.574   9.119 -0.2391 -0.1020 -1.6720
 1773SOL     OW16954   0.742   3.735  15.787 -0.0654  0.6428  0.2497
 1773SOL    HW116955   0.698   3.678  15.724  2.6407  1.9308 -2.8315
 1773SOL    HW216956   0.826   3.689  15.787  1.1764  2.8976  3.1644
 1774SOL     OW16957   0.409   0.531   7.507  0.7153  0.2540  0.6051
 1774SOL    HW116958   0.434   0.600   7.446 -0.5920 -0.4323 -0.6832
 1774SOL    HW216959   0.375   0.585   7.578  1.2204  0.5870  0.5911
 1775SOL     OW16960   3.987   0.240   8.330 -0.1336  0.3431  0.5222
 1775SOL    HW116961   4.060   0.223   8.390 -1.1192 -1.8564  1.0853
 1775SOL    HW216962   3.916   0.269   8.386  1.6355  0.5230  2.6992
 1776SOL     OW16963   2.607   1.656   4.888  0.2592  0.6691  0.0259
 1776SOL    HW116964   2.622   1.588   4.952  0.7523  0.2533 -0.5334
 1776SOL    HW216965   2.578   1.600   4.816 -0.7681  0.9362  0.2331
 1777SOL     OW16966   0.841   2.898  15.190 -0.7994 -0.1248 -0.0756
 1777SOL    HW116967   0.825   2.885  15.284  1.1769  1.5868  0.5185
 1777SOL    HW216968   0.785   2.828  15.157 -1.0964 -0.5186  1.2448
 1778SOL     OW16969   0.567   2.279   5.475 -1.1490 -0.0404 -0.4292
 1778SOL    HW116970   0.621   2.257   5.398 -1.1603  1.4302 -0.8509
 1778SOL    HW216971   0.604   2.367   5.482 -3.6736  0.9840 -0.0755
 1779SOL     OW16972   1.130   2.193   2.080 -0.2589 -0.6246 -0.4082
 1779SOL    HW116973   1.110   2.181   2.173 -0.3471 -0.0496 -0.3481
 1779SOL    HW216974   1.065   2.257   2.051  0.7539  0.1382 -1.0029
 1780SOL     OW16975   4.553   3.258   3.420  0.4129  0.2324 -0.3918
 1780SOL    HW116976   4.544   3.198   3.345  1.4794 -1.2370  0.6599
 1780SOL    HW216977   4.524   3.338   3.376  0.5900  0.7876  0.5172
 1781SOL     OW16978   2.556   1.716  10.821  0.0246 -0.4259  0.1866
 1781SOL    HW116979   2.651   1.710  10.815  0.1391  2.1528 -0.7287
 1781SOL    HW216980   2.535   1.694  10.912 -0.5018 -3.7153 -0.7414
 1782SOL     OW16981   0.031   3.184   0.688 -0.3070 -0.4723  0.1602
 1782SOL    HW116982   0.006   3.146   0.604  2.0562 -2.6694  0.4536
 1782SOL    HW216983   4.686   3.184   0.737 -0.2448 -0.8153  0.2648
 1783SOL     OW16984   4.273   0.983   8.536  0.2697  0.1009 -0.1315
 1783SOL    HW116985   4.231   1.012   8.617 -1.2876  1.4823 -1.4384
 1783SOL    HW216986   4.321   1.061   8.510  0.9054  0.2489  1.4961
 1784SOL     OW16987   3.338   0.583   2.417  0.0990 -0.3494 -0.1985
 1784SOL    HW116988   3.323   0.581   2.511  1.6583  2.0412  0.0972
 1784SOL    HW216989   3.275   0.519   2.384  1.2541 -2.8302  2.3955
 1785SOL     OW16990   2.984   2.647   4.802 -0.3096 -0.0779 -0.1075
 1785SOL    HW116991   2.977   2.566   4.854  0.9817 -1.0898 -1.5208
 1785SOL    HW216992   2.900   2.639   4.756 -0.0730  0.8276 -0.6852
 1786SOL     OW16993   1.535   4.174   8.290 -0.2382  0.1700 -0.4511
 1786SOL    HW116994   1.474   4.103   8.310  1.4533 -1.0231  0.5179
 1786SOL    HW216995   1.483   4.236   8.239  0.9358  0.4270 -1.3572
 1787SOL     OW16996   1.364   4.374   7.116 -0.3077 -0.3311 -0.0940
 1787SOL    HW116997   1.327   4.305   7.061  0.1090 -1.7633  1.4407
 1787SOL    HW216998   1.456   4.354   7.098 -0.7654 -1.6757 -0.9390
 1788SOL     OW16999   2.458   4.304   7.251  0.5465 -0.6741 -0.5117
 1788SOL    HW117000   2.377   4.354   7.265  0.3191 -1.7417  1.9379
 1788SOL    HW217001   2.440   4.230   7.309 -0.2566 -0.6253 -0.6911
 1789SOL     OW17002   4.171   0.959   6.001  0.1477  0.7388  0.1667
 1789SOL    HW117003   4.198   1.050   6.016 -1.2896  1.1554  0.3003
 1789SOL    HW217004   4.209   0.903   6.067  0.9996 -0.3102 -1.2205
 1790SOL     OW17005   2.454   4.135  12.316  0.3943  0.0524 -0.5921
 1790SOL    HW117006   2.371   4.126  12.363  1.3877 -0.9411  0.9516
 1790SOL    HW217007   2.464   4.230  12.310 -0.3679  0.3957  3.8575
 1791SOL     OW17008   4.653   0.544   8.118  0.0919  0.1802 -0.0598
 1791SOL    HW117009   4.699   0.608   8.172 -0.4536 -0.1868  0.8323
 1791SOL    HW217010   4.692   0.467   8.161 -1.1449 -0.7190 -0.5501
 1792SOL     OW17011   3.269   1.697   1.598  0.3300  0.7719 -0.3449
 1792SOL    HW117012   3.317   1.676   1.518  0.8726  3.6969 -0.7849
 1792SOL    HW217013   3.228   1.614   1.623 -0.9582  2.0595  1.7322
 1793SOL     OW17014   0.757   3.459  15.981  0.2383 -0.3655 -0.1197
 1793SOL    HW117015   0.808   3.399  16.036  3.2334  1.1542 -1.3113
 1793SOL    HW217016   0.781   3.437  15.892 -1.2645  0.5476 -0.7510
 1794SOL     OW17017   3.141   4.612   2.017 -0.7789  0.3903  0.6075
 1794SOL    HW117018   3.220   4.578   2.060 -2.6953 -2.0221  2.2004
 1794SOL    HW217019   3.076   4.554   2.058  0.5264 -0.8074  0.9874
 1795SOL     OW17020   2.830   1.057   1.036 -0.1602  0.0408  0.0026
 1795SOL    HW117021   2.738   1.053   1.009 -0.5026 -0.4381  1.2066
 1795SOL    HW217022   2.878   0.993   0.983 -1.9675 -0.5176 -0.9389
 1796SOL     OW17023   3.803   0.522  13.767  0.2617 -0.5347  0.1687
 1796SOL    HW117024   3.771   0.595  13.714 -1.0651 -1.0489  0.2506
 1796SOL    HW217025   3.812   0.561  13.854 -1.5627 -1.8932  0.9690
 1797SOL     OW17026   3.681   3.876   6.627  0.0641 -0.6229 -0.1730
 1797SOL    HW117027   3.742   3.890   6.554 -1.1140  0.7908 -0.8967
 1797SOL    HW217028   3.690   3.965   6.661 -2.3579 -0.0223 -1.0689
 1798SOL     OW17029   1.461   3.867   7.477  0.4391  0.7190 -0.2990
 1798SOL    HW117030   1.538   3.835   7.431 -0.5156 -0.3976 -1.1015
 1798SOL    HW217031   1.464   3.830   7.566 -0.4367  1.0614 -0.1280
 1799SOL     OW17032   3.838   1.594   6.976  0.2828 -0.1965  0.1037
 1799SOL    HW117033   3.755   1.607   7.023  1.0888 -1.5014  1.8750
 1799SOL    HW217034   3.872   1.512   7.010  0.1104 -0.6670 -0.8654
 1800SOL     OW17035   0.421   1.443   2.359  0.3864  0.9652  0.0407
 1800SOL    HW117036   0.493   1.435   2.297 -0.0779  1.4066 -0.5545
 1800SOL    HW217037   0.460   1.499   2.426 -1.3313  0.8914  1.1154
 1801SOL     OW17038   1.256   0.435  11.103  0.0475 -0.7128 -0.5050
 1801SOL    HW117039   1.321   0.499  11.076 -0.2726 -0.1584  0.0202
 1801SOL    HW217040   1.192   0.501  11.130  1.3691 -0.2296  1.4074
 1802SOL     OW17041   2.891   1.414   5.239  0.0028 -0.0284 -0.2903
 1802SOL    HW117042   2.884   1.374   5.152 -2.0950 -2.1763  0.8889
 1802SOL    HW217043   2.952   1.350   5.277  0.0661  1.5854  2.3260
 1803SOL     OW17044   2.996   0.030  10.043 -0.2189 -0.4587  0.7376
 1803SOL    HW117045   3.025   4.717   9.967 -1.9789  1.4402 -1.1928
 1803SOL    HW217046   2.907   0.058  10.020  0.7709  1.2396 -1.0409
 1804SOL     OW17047   3.837   3.998   1.257 -0.3781  0.5211 -0.2665
 1804SOL    HW117048   3.870   3.911   1.276 -2.2421 -0.2965 -0.7512
 1804SOL    HW217049   3.758   3.966   1.213  1.7085 -1.2759 -2.7333
 1805SOL     OW17050   3.395   3.196   7.027 -0.3943 -0.4041 -0.0902
 1805SOL    HW117051   3.371   3.288   7.017  1.7127 -0.0843 -2.2450
 1805SOL    HW217052   3.462   3.205   7.095 -1.9140  0.5058  1.2617
 1806SOL     OW17053   3.834   0.268  11.839 -0.7400 -0.3082 -0.0650
 1806SOL    HW117054   3.850   0.348  11.790  1.1525 -0.2070  0.7255
 1806SOL    HW217055   3.912   0.214  11.824 -1.1450 -0.8580 -0.2044
 1807SOL     OW17056   1.998   2.659  14.914 -0.0116 -0.0635 -0.1875
 1807SOL    HW117057   1.971   2.621  14.998  0.8948 -0.4716 -0.0809
 1807SOL    HW217058   1.951   2.741  14.904  0.5015  0.5602  2.6232
 1808SOL     OW17059   2.050   3.798   3.265 -0.1142  0.2279  0.0358
 1808SOL    HW117060   2.089   3.711   3.272 -1.6616 -0.6384 -2.3154
 1808SOL    HW217061   2.058   3.832   3.355  1.9996 -0.8285  0.2611
 1809SOL     OW17062   2.567   4.312   2.706  0.2456 -0.0714 -0.7386
 1809SOL    HW117063   2.594   4.254   2.635  2.6555  0.1209  0.0213
 1809SOL    HW217064   2.489   4.351   2.667  0.3091  1.1553  0.3230
 1810SOL     OW17065   4.262   1.156   3.846  0.1863  0.2862 -0.0993
 1810SOL    HW117066   4.316   1.189   3.774 -0.8166 -1.7865 -1.7508
 1810SOL    HW217067   4.316   1.085   3.883  1.1452  0.9039 -0.2968
 1811SOL     OW17068   4.564   1.099   5.711 -0.2403  0.0000  0.2131
 1811SOL    HW117069   4.582   1.191   5.733 -1.2434  0.2353  0.0870
 1811SOL    HW217070   4.622   1.084   5.637 -1.3341 -1.7568 -0.2717
 1812SOL     OW17071   2.663   0.051  15.668  0.0150 -0.6591  0.2666
 1812SOL    HW117072   2.710   0.027  15.588 -1.3712 -0.0401 -0.7334
 1812SOL    HW217073   2.574   0.068  15.636 -0.1260 -2.9953 -0.5450
 1813SOL     OW17074   3.391   4.287   8.695 -0.3417  0.4494  0.0434
 1813SOL    HW117075   3.300   4.315   8.706 -0.7990 -0.6571 -0.9783
 1813SOL    HW217076   3.419   4.343   8.622 -1.3289  1.5929  0.5459
 1814SOL     OW17077   2.793   2.754   7.778 -0.4630  0.8496 -0.0058
 1814SOL    HW117078   2.729   2.683   7.777  0.5686 -0.0905  1.0969
 1814SOL    HW217079   2.757   2.825   7.724 -1.5796 -0.7149 -1.3034
 1815SOL     OW17080   0.411   0.867  12.072 -0.5758  0.1152  0.7003
 1815SOL    HW117081   0.486   0.812  12.049 -1.4847 -1.2756  1.0559
 1815SOL    HW217082   0.341   0.804  12.058 -1.3399  0.9073  0.9877
 1816SOL     OW17083   3.138   2.316   3.186  0.5049 -0.2046  0.0899
 1816SOL    HW117084   3.154   2.356   3.271 -1.1865 -0.8727  0.7203
 1816SOL    HW217085   3.215   2.261   3.169  1.0273  0.2317  1.0438
 1817SOL     OW17086   0.032   1.581   8.573 -0.0089  0.7748 -0.1326
 1817SOL    HW117087   0.072   1.614   8.653  2.8522 -1.3711 -0.6548
 1817SOL    HW217088   4.702   1.647   8.560 -0.8052 -0.1214 -0.5868
 1818SOL     OW17089   0.017   0.619   8.893  0.4120 -0.8392 -0.1505
 1818SOL    HW117090   4.699   0.657   8.961  0.8000  0.1135 -0.3615
 1818SOL    HW217091   4.719   0.670   8.820 -2.1093 -0.2596  1.4970
 1819SOL     OW17092   0.888   3.966   5.668 -0.2304  0.2174  0.1519
 1819SOL    HW117093   0.891   3.994   5.759 -0.1154  3.3058 -0.7916
 1819SOL    HW217094   0.952   3.895   5.659 -1.6136 -0.6130 -3.1898
 1820SOL     OW17095   1.080   4.135   5.317 -0.6037  0.0586  0.3664
 1820SOL    HW117096   1.061   4.215   5.269 -1.7868 -0.4424  0.0118
 1820SOL    HW217097   1.153   4.171   5.367 -0.7637  1.1868 -0.2150
 1821SOL     OW17098   1.433   1.864   2.014 -0.0878  1.3117  0.1878
 1821SOL    HW117099   1.399   1.944   2.055 -1.5949  2.5063 -3.4434
 1821SOL    HW217100   1.524   1.884   1.991  0.8102 -0.0290  2.5606
 1822SOL     OW17101   4.220   3.838   3.476  1.0045  0.1317 -0.5200
 1822SOL    HW117102   4.256   3.764   3.526 -2.6542  0.4649  2.5981
 1822SOL    HW217103   4.274   3.841   3.397 -1.3968  0.4704 -2.1602
 1823SOL     OW17104   1.259   2.829  10.468 -0.0684  0.3618 -0.0864
 1823SOL    HW117105   1.247   2.735  10.452 -2.1476  0.8897 -1.7662
 1823SOL    HW217106   1.192   2.851  10.403 -2.0837  2.3705  2.6630
 1824SOL     OW17107   0.936   3.952   9.011 -0.0201 -0.1063 -0.1222
 1824SOL    HW117108   0.962   4.044   9.019 -0.7685  0.0392  0.6718
 1824SOL    HW217109   0.984   3.908   9.081 -1.4568  0.1985  1.0586
 1825SOL     OW17110   0.655   3.591   9.925 -0.1404  0.0659 -0.0812
 1825SOL    HW117111   0.682   3.607   9.834  0.5260  0.5475  0.1984
 1825SOL    HW217112   0.681   3.677   9.959 -2.3596  0.1870  1.2605
 1826SOL     OW17113   0.027   1.827   3.816  0.0243  0.4444 -0.0397
 1826SOL    HW117114   4.710   1.751   3.837 -0.8300  0.6411 -1.5115
 1826SOL    HW217115   4.699   1.887   3.780 -0.9182 -0.5501  0.0149
 1827SOL     OW17116   4.534   3.132   8.013  0.7754  0.0004  0.1916
 1827SOL    HW117117   4.460   3.191   8.032  1.9950  1.0239  1.7728
 1827SOL    HW217118   4.603   3.183   8.055  0.0641  3.2398 -2.5490
 1828SOL     OW17119   0.262   3.404   7.956 -0.9080  0.5206 -0.0111
 1828SOL    HW117120   0.329   3.394   8.022 -0.6737  1.2956 -0.1336
 1828SOL    HW217121   0.293   3.354   7.880 -1.5746  0.4887 -0.2718
 1829SOL     OW17122   0.950   4.375   1.506  0.3423  0.3089 -0.4960
 1829SOL    HW117123   0.950   4.316   1.431 -0.6844 -0.6892  0.2976
 1829SOL    HW217124   0.914   4.334   1.584  1.6613  1.4617  0.7270
 1830SOL     OW17125   1.309   4.725  11.278 -0.2202 -0.3796 -0.1101
 1830SOL    HW117126   1.231   0.040  11.299 -0.4856 -1.0259  0.4990
 1830SOL    HW217127   1.344   4.710  11.365  0.0100  1.7665  0.1500
 1831SOL     OW17128   0.237   3.365   2.390  0.4927 -0.4214  0.5453
 1831SOL    HW117129   0.181   3.416   2.448 -3.1748 -2.6620 -1.0567
 1831SOL    HW217130   0.322   3.401   2.416 -0.1811  2.4963 -1.2698
 1832SOL     OW17131   4.700   4.538   7.942 -0.0158  0.3380  0.5042
 1832SOL    HW117132   4.652   4.549   7.860 -1.0489  3.0656  1.4560
 1832SOL    HW217133   4.722   4.627   7.972 -1.1793  1.2368 -1.3003
 1833SOL     OW17134   0.282   2.650   3.535 -0.1492  0.0568 -0.0843
 1833SOL    HW117135   0.197   2.619   3.505 -0.6121  0.1048  1.2079
 1833SOL    HW217136   0.313   2.560   3.550 -0.7348 -0.0673  0.3356
 1834SOL     OW17137   3.921   0.534  17.261 -0.3785  0.2567 -0.2641
 1834SOL    HW117138   3.889   0.510  17.174 -1.6419 -0.3458  0.3617
 1834SOL    HW217139   4.015   0.528  17.244 -0.4714  0.6337 -0.9327
 1835SOL     OW17140   1.365   1.980   0.728 -0.0413  0.4919  0.1875
 1835SOL    HW117141   1.405   2.055   0.686 -0.8387  1.0050  0.3453
 1835SOL    HW217142   1.310   2.022   0.794  0.2276  1.0777  0.0338
 1836SOL     OW17143   2.897   4.538   2.787 -0.3410  0.0407  0.3009
 1836SOL    HW117144   2.888   4.577   2.700  0.5695  0.9721  0.6254
 1836SOL    HW217145   2.989   4.555   2.807 -0.4883 -1.6243  2.4132
 1837SOL     OW17146   2.452   1.996   6.294  0.7328  0.1253  0.1145
 1837SOL    HW117147   2.405   2.066   6.249  1.0053  0.1381 -0.1556
 1837SOL    HW217148   2.420   1.916   6.253  1.4112  0.9248 -1.9850
 1838SOL     OW17149   2.977   0.715   9.099  0.0098  0.3277 -0.2900
 1838SOL    HW117150   2.995   0.740   9.009  0.7429 -0.0915 -0.2625
 1838SOL    HW217151   2.894   0.758   9.120  0.2695 -0.2937  2.0154
 1839SOL     OW17152   3.362   2.707   7.995  0.2552 -0.0978  0.4777
 1839SOL    HW117153   3.447   2.742   7.969  0.4424 -1.6953 -1.0558
 1839SOL    HW217154   3.308   2.781   7.969 -0.3801 -1.4156 -1.9426
 1840SOL     OW17155   0.392   4.236   4.030  0.0201  0.2267  0.2275
 1840SOL    HW117156   0.451   4.249   3.956 -2.6210 -0.2967 -1.9704
 1840SOL    HW217157   0.331   4.178   3.984  0.3181 -0.5349  0.7998
 1841SOL     OW17158   1.833   1.048   2.157  0.3029 -0.3237  0.0006
 1841SOL    HW117159   1.800   1.130   2.194 -1.2898 -0.8631 -0.1963
 1841SOL    HW217160   1.761   0.991   2.186 -0.0450  0.0222 -0.1766
 1842SOL     OW17161   2.724   1.472   0.802 -0.3690  0.6535 -0.6378
 1842SOL    HW117162   2.713   1.378   0.786  1.4581  0.2460  0.4806
 1842SOL    HW217163   2.785   1.457   0.874 -1.0579 -0.8092 -0.3631
 1843SOL     OW17164   0.282   0.884   8.307 -0.4254  0.1287 -0.1274
 1843SOL    HW117165   0.303   0.892   8.400 -0.1349 -0.0897 -0.1745
 1843SOL    HW217166   0.252   0.975   8.301  0.8495  0.6073  0.8636
 1844SOL     OW17167   3.813   4.152   3.709  0.5598 -0.1538 -0.0057
 1844SOL    HW117168   3.798   4.100   3.788  1.5612  1.3407  1.1510
 1844SOL    HW217169   3.869   4.087   3.667  0.2360 -0.0623 -0.5746
 1845SOL     OW17170   3.555   3.406  17.107 -0.0107 -0.0934 -0.0144
 1845SOL    HW117171   3.626   3.409  17.171 -0.2950 -0.4287  0.3143
 1845SOL    HW217172   3.482   3.439  17.160 -0.0202 -0.0146 -0.0757
 1846SOL     OW17173   3.697   4.577   6.460  0.7155  1.1281 -0.1618
 1846SOL    HW117174   3.778   4.616   6.494  0.7271  0.1420  0.9407
 1846SOL    HW217175   3.677   4.513   6.529  1.4559  0.5905 -0.4430
 1847SOL     OW17176   1.108   0.442   6.628 -0.3454  0.1589  0.0025
 1847SOL    HW117177   1.074   0.376   6.689 -0.3463  1.0730  0.9930
 1847SOL    HW217178   1.203   0.435   6.624 -0.5761 -2.7724 -0.9139
 1848SOL     OW17179   3.233   4.596   4.559  0.1406 -0.7494 -0.2604
 1848SOL    HW117180   3.155   4.558   4.518  0.8964 -1.1821 -1.3053
 1848SOL    HW217181   3.260   4.547   4.636  0.6993  0.2107  0.1428
 1849SOL     OW17182   2.751   3.957   7.468 -0.3157 -0.3727 -0.3030
 1849SOL    HW117183   2.746   3.963   7.373 -1.7682  1.2309 -0.1238
 1849SOL    HW217184   2.845   3.972   7.480 -0.6793  1.6429  0.0625
 1850SOL     OW17185   4.712   0.809  11.759  0.4735  0.5791  0.0707
 1850SOL    HW117186   0.067   0.833  11.765  0.4303  0.1978  2.2177
 1850SOL    HW217187   4.698   0.780  11.669 -0.3614 -1.2464  0.7999
 1851SOL     OW17188   3.826   0.363   6.826 -0.2020 -0.3333 -0.2479
 1851SOL    HW117189   3.811   0.438   6.883 -2.9531  0.4656 -2.0514
 1851SOL    HW217190   3.790   0.293   6.880  3.0857 -2.9148 -1.4129
 1852SOL     OW17191   1.820   3.758   9.365  0.1971  0.0865  0.3853
 1852SOL    HW117192   1.889   3.821   9.386  1.3066 -0.4857 -1.5194
 1852SOL    HW217193   1.855   3.719   9.285  0.2444  1.4910 -0.2800
 1853SOL     OW17194   2.653   3.054   6.708  0.2042 -0.3354 -0.0526
 1853SOL    HW117195   2.718   3.031   6.642 -0.9522  0.6057 -1.5237
 1853SOL    HW217196   2.638   3.147   6.690  0.7973 -0.4123 -0.9200
 1854SOL     OW17197   0.634   3.593  15.601 -0.3033 -0.7864  0.0016
 1854SOL    HW117198   0.640   3.612  15.507 -0.8617 -0.4300  0.0391
 1854SOL    HW217199   0.563   3.531  15.584 -1.5198  0.8201 -0.7280
 1855SOL     OW17200   0.794   3.953   3.096 -0.4841 -0.3219 -0.1460
 1855SOL    HW117201   0.818   3.918   3.010 -1.0507  0.5468 -0.6608
 1855SOL    HW217202   0.729   4.013   3.060 -0.7981  0.0826  1.0955
 1856SOL     OW17203   2.703   0.157   2.423  0.1935  0.0458  0.1309
 1856SOL    HW117204   2.750   0.105   2.487 -0.2019 -1.7458 -1.0419
 1856SOL    HW217205   2.679   0.081   2.371  1.8571 -2.1330  2.6001
 1857SOL     OW17206   2.707   0.619   4.731  0.1748  0.1076 -0.1309
 1857SOL    HW117207   2.647   0.578   4.669  0.2167 -0.2914  0.0936
 1857SOL    HW217208   2.746   0.687   4.676 -1.0020  0.5578 -0.4001
 1858SOL     OW17209   1.864   1.391   4.044  0.1509  0.3909 -0.4116
 1858SOL    HW117210   1.889   1.450   3.973  3.4253  0.8097  1.0995
 1858SOL    HW217211   1.813   1.452   4.097 -0.0279  0.1881 -0.3508
 1859SOL     OW17212   4.036   1.302   7.489 -0.5173 -0.3595  0.0685
 1859SOL    HW117213   3.944   1.304   7.461 -0.6793  0.6432  0.6884
 1859SOL    HW217214   4.051   1.208   7.477  0.3305 -0.1721 -0.3592
 1860SOL     OW17215   1.692   3.821  13.462  0.3197  0.3062  0.1821
 1860SOL    HW117216   1.673   3.914  13.472  1.5896  0.4245  1.6122
 1860SOL    HW217217   1.732   3.810  13.376 -2.0719  1.3218 -1.0260
 1861SOL     OW17218   0.372   2.488   8.758 -0.0374  0.0583  0.6542
 1861SOL    HW117219   0.364   2.412   8.816 -0.5691 -0.6229 -0.2864
 1861SOL    HW217220   0.283   2.522   8.752 -0.1264 -0.0766  1.2438
 1862SOL     OW17221   4.002   4.097   7.342 -0.0136 -0.3703 -0.0042
 1862SOL    HW117222   4.044   4.036   7.403  0.7062 -0.4097 -0.5411
 1862SOL    HW217223   3.934   4.140   7.393 -0.4685  0.1936 -1.0717
 1863SOL     OW17224   0.439   2.584   7.099 -0.3146  0.0090  0.2736
 1863SOL    HW117225   0.414   2.546   7.015  0.4075 -2.8154  1.3476
 1863SOL    HW217226   0.444   2.678   7.083 -0.9123 -0.5063 -2.8505
 1864SOL     OW17227   0.062   3.270   6.373 -0.8317 -0.0932  0.3875
 1864SOL    HW117228   0.051   3.281   6.467 -0.7183 -0.0129  0.3923
 1864SOL    HW217229   0.022   3.184   6.357  1.6829 -1.5744  1.8892
 1865SOL     OW17230   3.630   4.215   1.808 -0.0857  0.4815  0.7489
 1865SOL    HW117231   3.575   4.185   1.881 -2.7543 -0.7454 -1.7703
 1865SOL    HW217232   3.624   4.139   1.750 -0.5419  1.6145 -0.6614
 1866SOL     OW17233   1.614   2.678   7.132  0.2673 -0.6900  0.2501
 1866SOL    HW117234   1.608   2.620   7.056 -0.9862 -0.3461  0.0770
 1866SOL    HW217235   1.606   2.615   7.203  1.7091 -2.6253 -1.3011
 1867SOL     OW17236   2.404   2.184   5.710 -0.0041 -0.1423 -0.0765
 1867SOL    HW117237   2.376   2.274   5.690 -2.0531 -0.2937  2.1366
 1867SOL    HW217238   2.351   2.175   5.789 -1.0073  0.1856 -0.6997
 1868SOL     OW17239   1.127   0.914  15.986 -0.1506 -0.3650  0.8065
 1868SOL    HW117240   1.195   0.966  16.028  0.1728 -1.3670  1.5353
 1868SOL    HW217241   1.171   0.844  15.938 -2.0820 -0.6381 -0.5835
 1869SOL     OW17242   4.315   3.636   4.409 -0.0298  0.7469  0.5509
 1869SOL    HW117243   4.385   3.696   4.437  0.2300  1.0830 -0.8472
 1869SOL    HW217244   4.289   3.604   4.495 -0.5085 -1.5581 -0.4666
 1870SOL     OW17245   0.883   3.136   5.948 -0.4909  0.1859 -0.0009
 1870SOL    HW117246   0.941   3.065   5.974  1.5482  1.6209 -0.6487
 1870SOL    HW217247   0.850   3.109   5.862 -0.2629 -0.1318  0.0118
 1871SOL     OW17248   3.774   0.106   4.047  0.7254  0.0461 -0.3010
 1871SOL    HW117249   3.749   0.027   4.095 -2.3478 -0.5101 -2.7882
 1871SOL    HW217250   3.819   0.160   4.112  0.8971  0.3196 -0.6479
 1872SOL     OW17251   0.623   4.408   7.241  0.5021  0.5254  0.4912
 1872SOL    HW117252   0.578   4.467   7.302 -1.8748 -1.3018  0.5094
 1872SOL    HW217253   0.623   4.466   7.165  2.0492 -1.0479 -0.7081
 1873SOL     OW17254   1.473   0.781  12.408 -0.4097  0.0714  0.8237
 1873SOL    HW117255   1.471   0.746  12.497 -0.2140  0.1459  0.8590
 1873SOL    HW217256   1.552   0.836  12.403  0.7742 -1.9083 -2.0591
 1874SOL     OW17257   0.676   1.787   8.478  0.0227 -0.2970 -0.6465
 1874SOL    HW117258   0.628   1.749   8.552 -1.7796 -0.0334 -1.6671
 1874SOL    HW217259   0.759   1.800   8.523  1.0124 -1.2228 -2.2018
 1875SOL     OW17260   1.965   1.981   2.463  0.1095 -0.1774 -0.0557
 1875SOL    HW117261   2.032   2.004   2.528 -2.5502  0.2428  2.5499
 1875SOL    HW217262   2.016   1.985   2.382 -1.6742 -0.2203 -1.1838
 1876SOL     OW17263   3.843   4.721   1.286  0.1711 -0.4138  0.4601
 1876SOL    HW117264   3.876   4.676   1.209  1.2572 -0.1442  0.7648
 1876SOL    HW217265   3.775   0.043   1.253  0.7341  2.2282  4.0358
 1877SOL     OW17266   1.145   4.315   9.299 -0.2777 -0.1561 -0.8845
 1877SOL    HW117267   1.179   4.403   9.278 -1.2963  0.3140 -0.5475
 1877SOL    HW217268   1.223   4.274   9.337 -1.1124 -1.1827 -0.2888
 1878SOL     OW17269   0.976   1.110   8.315 -0.6717  0.0735 -1.4294
 1878SOL    HW117270   1.049   1.142   8.260  1.0697 -3.5351 -1.1983
 1878SOL    HW217271   1.025   1.042   8.360 -1.2047  0.7727  0.1967
 1879SOL     OW17272   1.052   0.860  17.208 -0.5382 -0.2400 -0.5211
 1879SOL    HW117273   0.968   0.815  17.205 -0.7454  0.0778  0.3296
 1879SOL    HW217274   1.092   0.815  17.135  0.7667 -1.9054  1.2273
 1880SOL     OW17275   2.522   2.117   3.813 -0.1572 -0.1145  0.2558
 1880SOL    HW117276   2.480   2.033   3.833 -1.6951  0.5234 -0.2877
 1880SOL    HW217277   2.613   2.107   3.841  0.2605  0.3124 -0.9505
 1881SOL     OW17278   3.180   0.269   3.857 -0.1281  0.2474  0.0387
 1881SOL    HW117279   3.217   0.254   3.770  0.7422  2.3811  0.0438
 1881SOL    HW217280   3.202   0.358   3.883 -1.0695  0.2779  0.7423
 1882SOL     OW17281   4.562   1.680   8.057 -0.0916  0.1640  0.3911
 1882SOL    HW117282   4.641   1.643   8.018  0.8551  1.9086  0.6869
 1882SOL    HW217283   4.496   1.623   8.017  1.1758  0.1485 -1.6782
 1883SOL     OW17284   3.415   0.140   6.985 -0.3071 -0.8250  0.3067
 1883SOL    HW117285   3.340   0.168   7.037  1.8404  1.3841  2.2198
 1883SOL    HW217286   3.399   0.184   6.902  1.3738  1.1277  1.0225
 1884SOL     OW17287   1.219   4.194   9.019 -0.1811 -0.4630  0.4748
 1884SOL    HW117288   1.220   4.279   8.974 -1.6901  0.6425  2.5144
 1884SOL    HW217289   1.132   4.196   9.060  0.3784 -0.9709  1.6866
 1885SOL     OW17290   3.923   2.301   4.445  0.3205 -0.1019  0.0299
 1885SOL    HW117291   4.000   2.246   4.461  0.1046 -0.6237 -0.7299
 1885SOL    HW217292   3.949   2.349   4.367  1.3362 -0.4046  0.1759
 1886SOL     OW17293   1.874   2.057   6.958 -0.4137  0.4090  0.3441
 1886SOL    HW117294   1.795   2.082   7.007  0.4565  0.2491  1.8299
 1886SOL    HW217295   1.910   2.143   6.937  0.4045 -0.0894 -0.2645
 1887SOL     OW17296   1.253   2.691   4.519 -0.1398  0.4517  0.0914
 1887SOL    HW117297   1.201   2.628   4.469 -0.4685 -0.7293  1.9294
 1887SOL    HW217298   1.182   2.744   4.554 -1.5809 -1.3045 -0.1618
 1888SOL     OW17299   3.708   2.794   5.969 -0.1143  0.0127  0.7514
 1888SOL    HW117300   3.660   2.853   5.910  0.2442 -0.6822 -0.2538
 1888SOL    HW217301   3.726   2.856   6.039 -0.9428 -0.1192  1.0804
 1889SOL     OW17302   4.128   0.291  11.732 -0.3030  0.2758  0.9241
 1889SOL    HW117303   4.079   0.372  11.740 -0.9349  0.0691 -0.7241
 1889SOL    HW217304   4.201   0.317  11.676 -1.6502 -1.0941 -1.4642
 1890SOL     OW17305   2.054   3.599   3.888 -0.9266 -0.1088 -0.3935
 1890SOL    HW117306   2.028   3.636   3.804 -2.7672 -2.8921 -1.0915
 1890SOL    HW217307   2.107   3.673   3.916  3.1534 -2.8755 -0.8609
 1891SOL     OW17308   4.245   4.385  17.282 -0.0281  0.1206  0.4995
 1891SOL    HW117309   4.236   4.351  17.371 -0.4984 -1.6238 -0.2136
 1891SOL    HW217310   4.157   4.423  17.275  0.3244  0.7347 -0.6400
 1892SOL     OW17311   1.569   0.435   5.881  0.1655  0.4132  0.2565
 1892SOL    HW117312   1.638   0.409   5.820 -0.3458  3.3280 -1.5745
 1892SOL    HW217313   1.513   0.486   5.822 -1.3573 -0.3330  1.0674
 1893SOL     OW17314   3.451   3.439  13.724 -0.1341  0.0623  0.2280
 1893SOL    HW117315   3.440   3.531  13.698  1.7365  0.0996 -0.3879
 1893SOL    HW217316   3.543   3.444  13.747 -0.1054  0.6222  0.0084
 1894SOL     OW17317   1.554   3.991   9.339 -0.0310 -0.0137  0.1376
 1894SOL    HW117318   1.530   3.981   9.247  0.5919  0.0683 -0.0295
 1894SOL    HW217319   1.648   3.978   9.346 -0.2123  0.6727  3.9561
 1895SOL     OW17320   2.663   4.046   4.258  0.0585 -0.0234 -0.5276
 1895SOL    HW117321   2.704   3.960   4.269  0.0911  0.2345  1.3703
 1895SOL    HW217322   2.580   4.037   4.211 -0.2769  0.1943  0.0290
 1896SOL     OW17323   1.177   0.244   4.267 -0.4736 -0.1363  0.0581
 1896SOL    HW117324   1.264   0.202   4.267 -1.4895 -2.2468 -0.2523
 1896SOL    HW217325   1.182   0.303   4.192  2.3315 -1.8243 -1.1085
 1897SOL     OW17326   1.256   1.271   7.545  0.4606 -0.2640 -0.1657
 1897SOL    HW117327   1.308   1.222   7.609  0.2325  0.4382  0.5703
 1897SOL    HW217328   1.219   1.335   7.606 -1.0492 -1.5371  0.2480
 1898SOL     OW17329   1.814   0.198  11.107  0.5085  0.6811 -0.1939
 1898SOL    HW117330   1.731   0.244  11.088  0.4098  0.0790 -1.2616
 1898SOL    HW217331   1.793   0.106  11.123 -0.0636  0.8612  0.1073
 1899SOL     OW17332   1.025   2.183  16.839  0.5509 -0.0166 -0.4575
 1899SOL    HW117333   1.044   2.141  16.755 -1.7257 -0.9539 -0.5005
 1899SOL    HW217334   1.101   2.237  16.861  0.3485  0.5237 -1.0621
 1900SOL     OW17335   3.165   2.754   7.696 -0.3364  0.3977 -0.0420
 1900SOL    HW117336   3.161   2.793   7.783 -0.1200  0.1214  0.0918
 1900SOL    HW217337   3.138   2.664   7.716 -2.8901  1.2468  0.3893
 1901SOL     OW17338   1.373   0.938  12.199 -0.3043  0.2081  0.8698
 1901SOL    HW117339   1.409   0.865  12.249  0.3692 -0.6137 -0.7923
 1901SOL    HW217340   1.341   0.905  12.114 -0.7767 -0.6760  1.3930
 1902SOL     OW17341   4.594   1.684   8.334  0.7495  0.1208 -0.3570
 1902SOL    HW117342   4.570   1.598   8.368 -1.2868  0.3699 -1.1763
 1902SOL    HW217343   4.559   1.686   8.245  0.2181 -0.8045 -0.1631
 1903SOL     OW17344   2.587   0.686  10.407  0.5253  0.3788  0.0655
 1903SOL    HW117345   2.568   0.775  10.378  1.3157  0.0105 -1.5952
 1903SOL    HW217346   2.672   0.692  10.450  0.5428 -0.4770  0.1601
 1904SOL     OW17347   2.187   2.644   1.978  0.3808 -0.0201 -0.1079
 1904SOL    HW117348   2.220   2.554   1.988 -0.5334 -0.4343 -0.8152
 1904SOL    HW217349   2.252   2.673   1.913 -0.0126  0.6477 -0.1956
 1905SOL     OW17350   2.364   3.569   4.819 -0.0527  0.0340 -0.2169
 1905SOL    HW117351   2.416   3.589   4.741  0.2616 -0.6150 -0.1704
 1905SOL    HW217352   2.358   3.474   4.812 -0.7650  0.2184 -2.0444
 1906SOL     OW17353   1.510   1.410  17.223  0.0576 -0.0081  0.3170
 1906SOL    HW117354   1.530   1.466  17.147  1.5965 -0.6177  0.2630
 1906SOL    HW217355   1.600   1.395  17.251  0.3082  2.2371  0.7536
 1907SOL     OW17356   3.111   4.524  14.623 -0.0059  0.2585  0.2162
 1907SOL    HW117357   3.155   4.525  14.708 -0.7833 -0.4082  0.6371
 1907SOL    HW217358   3.136   4.438  14.590  0.8481  0.3877  0.5463
 1908SOL     OW17359   4.396   1.902  15.984  0.2888  0.2278  0.0140
 1908SOL    HW117360   4.363   1.989  16.008 -0.3662 -0.2461  0.8554
 1908SOL    HW217361   4.324   1.839  15.995  1.0322 -0.5156  0.6032
 1909SOL     OW17362   4.591   1.541   2.845 -0.3419 -0.7031 -0.6504
 1909SOL    HW117363   4.682   1.537   2.818  0.1743 -0.5435  1.0343
 1909SOL    HW217364   4.537   1.518   2.770 -1.4963  0.7117 -0.2653
 1910SOL     OW17365   2.706   1.568   6.089  0.1024 -0.1421 -0.0597
 1910SOL    HW117366   2.752   1.499   6.042  0.4117  0.6147 -0.8610
 1910SOL    HW217367   2.761   1.596   6.161  2.9882  0.3630 -2.4784
 1911SOL     OW17368   4.517   2.568   1.440  0.7229 -0.5208  0.1073
 1911SOL    HW117369   4.541   2.497   1.500 -2.1582 -2.3977 -0.9238
 1911SOL    HW217370   4.427   2.579   1.471  0.4677 -2.0282 -0.1071
 1912SOL     OW17371   3.634   1.277   3.546 -1.0338 -0.3525  0.2867
 1912SOL    HW117372   3.674   1.190   3.550  0.2701  0.2576  0.5711
 1912SOL    HW217373   3.545   1.259   3.576  0.2158 -2.1813  2.9493
 1913SOL     OW17374   0.046   1.352   7.802  0.3160 -0.2985  0.0408
 1913SOL    HW117375   0.112   1.396   7.748  0.4861 -0.5142  0.0691
 1913SOL    HW217376   0.079   1.364   7.891  0.2051  0.8281 -0.0732
 1914SOL     OW17377   3.124   4.486   4.268 -0.0246 -0.2707 -0.7444
 1914SOL    HW117378   3.057   4.467   4.203 -0.4327 -2.9334  0.4509
 1914SOL    HW217379   3.081   4.556   4.319 -1.7613 -1.6635 -0.3071
 1915SOL     OW17380   1.834   3.632   5.655  0.5910  0.4430  0.5136
 1915SOL    HW117381   1.826   3.558   5.716 -0.3772  1.0856  1.1758
 1915SOL    HW217382   1.916   3.611   5.611 -1.6234 -3.2560 -1.8944
 1916SOL     OW17383   1.077   3.465  11.556 -0.1199  0.1512  0.0897
 1916SOL    HW117384   1.161   3.436  11.589 -0.2829 -1.4089 -0.8085
 1916SOL    HW217385   1.017   3.418  11.614  0.2788  0.9324  1.1230
 1917SOL     OW17386   4.666   1.041  12.200 -0.2700  0.1305 -0.0816
 1917SOL    HW117387   4.601   0.994  12.253 -0.5099  0.1647 -0.3490
 1917SOL    HW217388   4.608   1.075  12.132  1.8484  1.8598 -1.0078
 1918SOL     OW17389   4.491   2.110   6.134  0.2121 -0.7744 -0.4577
 1918SOL    HW117390   4.473   2.172   6.204 -0.3105 -0.1846 -1.1188
 1918SOL    HW217391   4.425   2.134   6.069  0.3076 -1.6941 -0.8956
 1919SOL     OW17392   1.463   2.971   3.650 -0.1248 -0.2227 -0.5344
 1919SOL    HW117393   1.477   3.064   3.667 -0.2724 -0.0415 -1.3933
 1919SOL    HW217394   1.381   2.956   3.698  2.2994 -0.8332  3.4708
 1920SOL     OW17395   2.980   1.471   4.290  0.3393 -0.2036  0.4644
 1920SOL    HW117396   2.976   1.446   4.383 -0.0681  0.3662  0.5970
 1920SOL    HW217397   3.045   1.541   4.295  0.7273 -0.5367  0.0348
 1921SOL     OW17398   2.053   0.527   6.260 -0.4707 -0.5953  0.0301
 1921SOL    HW117399   2.123   0.515   6.323  0.6523 -0.7547 -1.2556
 1921SOL    HW217400   2.019   0.613   6.284  0.9084 -0.3949  1.2221
 1922SOL     OW17401   4.050   2.910   3.841  0.2722  0.1445 -0.1980
 1922SOL    HW117402   4.062   2.873   3.928 -1.4226  2.2494  0.9443
 1922SOL    HW217403   4.062   2.835   3.784 -0.4446 -1.1979  1.3994
 1923SOL     OW17404   0.881   0.841   7.750 -0.4698  0.6866  0.3751
 1923SOL    HW117405   0.915   0.930   7.748  1.7796 -0.2073 -1.7939
 1923SOL    HW217406   0.899   0.821   7.842 -0.2614 -3.1979 -0.4872
 1924SOL     OW17407   0.474   3.198  17.718 -0.7919 -0.2151 -0.5775
 1924SOL    HW117408   0.492   3.151  17.637  1.3692  0.3667 -0.4244
 1924SOL    HW217409   0.457   3.288  17.691  0.2529  0.1451 -0.0359
 1925SOL     OW17410   0.020   0.136   0.969 -0.3897 -0.4239 -0.2228
 1925SOL    HW117411   0.090   0.071   0.956  0.0108 -0.7487  3.7124
 1925SOL    HW217412   4.692   0.084   1.017  1.1833 -0.5359  1.7654
 1926SOL     OW17413   4.541   3.313   7.666 -0.5449  0.5837  0.1607
 1926SOL    HW117414   4.627   3.335   7.702 -0.7528  0.8846  0.4603
 1926SOL    HW217415   4.545   3.219   7.688  0.3773  1.1719  2.5335
 1927SOL     OW17416   4.708   4.335   5.757 -0.3900 -0.3449  0.2102
 1927SOL    HW117417   4.638   4.382   5.711  1.2676  0.7658 -1.2204
 1927SOL    HW217418   0.029   4.333   5.680  1.6652 -2.3075  1.8124
 1928SOL     OW17419   0.868   4.668   3.166  0.2162 -0.3964  0.2785
 1928SOL    HW117420   0.815   4.590   3.182 -1.8602  0.5774 -1.7528
 1928SOL    HW217421   0.963   4.651   3.168  0.5836  1.5370 -0.5961
 1929SOL     OW17422   0.947   0.260  11.842 -0.4310  0.3898 -0.6900
 1929SOL    HW117423   0.891   0.244  11.918 -0.8356  0.0124 -1.0623
 1929SOL    HW217424   0.935   0.173  11.804 -2.3597  1.3788 -2.3498
 1930SOL     OW17425   2.205   0.412   6.939 -0.5396  0.0330 -0.6923
 1930SOL    HW117426   2.221   0.478   7.006  1.2108 -1.1614  0.0656
 1930SOL    HW217427   2.122   0.438   6.899 -1.8699 -2.5383  0.4326
 1931SOL     OW17428   1.426   3.459   8.634 -0.6240 -0.6174 -0.6125
 1931SOL    HW117429   1.380   3.485   8.714 -1.1160  0.5691 -1.2705
 1931SOL    HW217430   1.490   3.528   8.615 -0.0504 -1.4434 -1.6389
 1932SOL     OW17431   1.497   1.777   9.615 -0.3036 -0.3141 -0.0493
 1932SOL    HW117432   1.475   1.764   9.523 -2.3190 -1.1839  0.5464
 1932SOL    HW217433   1.575   1.722   9.628  1.1675  1.5377 -1.1652
 1933SOL     OW17434   0.732   4.191  12.837 -0.0440 -0.2898  1.0343
 1933SOL    HW117435   0.727   4.277  12.795 -0.4988 -0.2691  1.1265
 1933SOL    HW217436   0.826   4.183  12.850  0.3642  0.6553 -1.3700
 1934SOL     OW17437   3.098   3.889  10.201  0.3258 -0.3385  0.0754
 1934SOL    HW117438   3.009   3.879  10.232 -0.6022  2.9102 -1.4786
 1934SOL    HW217439   3.126   3.969  10.245  0.3963  1.0158 -2.3894
 1935SOL     OW17440   3.411   1.993   0.268 -0.0290 -0.3549 -0.1738
 1935SOL    HW117441   3.405   1.940   0.347 -1.5080  2.2525  1.4778
 1935SOL    HW217442   3.384   1.932   0.200  0.4586  1.2474 -1.8124
 1936SOL     OW17443   4.631   0.837   3.065 -0.0252  0.1225 -0.5316
 1936SOL    HW117444   4.592   0.923   3.049 -0.8347  0.1964  1.8382
 1936SOL    HW217445   4.680   0.831   2.983  0.3784 -1.2169 -0.2002
 1937SOL     OW17446   1.850   1.550   6.004 -0.1851 -0.0916  0.0817
 1937SOL    HW117447   1.780   1.611   6.027  0.4106  0.8227 -0.5541
 1937SOL    HW217448   1.797   1.482   5.962 -0.4601  1.0442 -1.4018
 1938SOL     OW17449   3.471   2.336   0.684 -0.0431  0.7197  0.3365
 1938SOL    HW117450   3.446   2.333   0.777 -2.0672 -0.2596 -0.2389
 1938SOL    HW217451   3.559   2.300   0.692 -0.9935 -1.5429  0.5530
 1939SOL     OW17452   0.851   2.224  10.712 -0.3064  0.1820 -0.0509
 1939SOL    HW117453   0.929   2.275  10.688 -0.6647  0.3961 -0.7673
 1939SOL    HW217454   0.888   2.152  10.763  0.9842 -0.3214 -1.6702
 1940SOL     OW17455   0.694   4.079  10.995 -0.5056  0.2699 -0.2077
 1940SOL    HW117456   0.639   4.005  10.967  1.1796 -0.7108 -0.9332
 1940SOL    HW217457   0.699   4.132  10.916 -1.7674 -0.6516 -0.9221
 1941SOL     OW17458   4.352   2.129   1.961 -0.0690 -0.2393 -0.2565
 1941SOL    HW117459   4.421   2.174   1.911 -0.2902  1.2265  0.7845
 1941SOL    HW217460   4.401   2.082   2.028 -1.5638 -0.6918  0.5102
 1942SOL     OW17461   4.613   2.597  12.906 -0.3313 -0.3001  0.2986
 1942SOL    HW117462   4.647   2.594  12.995  0.5315 -3.4874 -0.1390
 1942SOL    HW217463   4.694   2.579  12.857 -1.2160 -1.7652 -0.6616
 1943SOL     OW17464   0.889   3.422  13.878 -0.1743 -0.6142 -0.2687
 1943SOL    HW117465   0.878   3.340  13.927 -2.4095  0.0537  0.3522
 1943SOL    HW217466   0.907   3.383  13.793 -0.5542  1.1838 -1.1673
 1944SOL     OW17467   3.502   3.852   5.423 -0.5885  0.6166 -0.3442
 1944SOL    HW117468   3.459   3.932   5.394 -1.5691  0.7760  1.6128
 1944SOL    HW217469   3.558   3.886   5.493  2.0135  0.2768 -2.2555
 1945SOL     OW17470   3.411   1.003   4.382 -0.3537 -0.3866  0.0520
 1945SOL    HW117471   3.320   0.974   4.393 -0.1199 -0.8063  0.8721
 1945SOL    HW217472   3.455   0.927   4.344 -0.6553 -0.9155  0.7483
 1946SOL     OW17473   3.405   0.136   5.252  0.9112 -0.3903  0.4466
 1946SOL    HW117474   3.404   0.097   5.339  0.3716 -1.5800 -0.1015
 1946SOL    HW217475   3.328   0.100   5.208 -0.2454  2.0548  0.4566
 1947SOL     OW17476   4.385   3.554   7.408 -0.1926 -0.0250 -0.3338
 1947SOL    HW117477   4.449   3.616   7.441 -3.2843  2.2859  1.3175
 1947SOL    HW217478   4.439   3.491   7.360  2.6597  0.3746  2.3916
 1948SOL     OW17479   3.129   1.637  13.798  0.0481  0.3456 -0.4911
 1948SOL    HW117480   3.115   1.730  13.812  0.9277  0.3147  0.6879
 1948SOL    HW217481   3.045   1.592  13.804  0.4220 -0.1126  1.3914
 1949SOL     OW17482   3.056   4.658  10.902 -0.3391  0.1203  0.1261
 1949SOL    HW117483   3.095   4.703  10.977 -2.4719  1.3264  0.5005
 1949SOL    HW217484   3.132   4.650  10.843 -1.2769  0.0420 -1.0744
 1950SOL     OW17485   2.167   2.948  16.764 -0.4571 -0.2715 -0.1850
 1950SOL    HW117486   2.107   2.905  16.824 -0.4047  1.0403  0.8054
 1950SOL    HW217487   2.134   2.937  16.675 -1.5825  2.0079 -0.0321
 1951SOL     OW17488   0.206   3.885   3.683 -0.1172 -0.0315  0.3950
 1951SOL    HW117489   0.210   3.793   3.708  0.0571  0.1859  1.1696
 1951SOL    HW217490   0.116   3.881   3.652  0.4597  0.3161 -1.3477
 1952SOL     OW17491   4.488   4.709   0.688 -0.2708 -0.2285  0.1390
 1952SOL    HW117492   4.440   4.629   0.708 -0.5145  0.0228  0.5461
 1952SOL    HW217493   4.434   0.041   0.724  0.6764  0.2139  0.7138
 1953SOL     OW17494   0.111   4.389  17.063  0.4226  0.2559 -0.2882
 1953SOL    HW117495   0.084   4.462  17.007 -1.0580  0.5670  0.8228
 1953SOL    HW217496   0.154   4.435  17.136 -0.8286  3.4586 -1.5655
 1954SOL     OW17497   3.583   4.204   8.850  0.2283 -0.0415  0.2030
 1954SOL    HW117498   3.506   4.239   8.804  1.2211  1.9870  0.0686
 1954SOL    HW217499   3.540   4.196   8.935  0.0596 -0.8217  0.0462
 1955SOL     OW17500   3.565   3.996  17.712 -0.0235  0.4783 -0.0291
 1955SOL    HW117501   3.487   4.029   0.011 -1.3423 -0.5553 -1.5344
 1955SOL    HW217502   3.590   3.915   0.010  0.6187 -0.1937 -1.5916
 1956SOL     OW17503   3.822   0.199   2.806  0.0479 -0.6164 -0.0932
 1956SOL    HW117504   3.916   0.216   2.817 -0.1577 -0.2597  1.1186
 1956SOL    HW217505   3.797   0.264   2.740  0.5985  0.0059  0.3202
 1957SOL     OW17506   1.532   3.013  13.715 -0.2297 -0.4370 -0.3441
 1957SOL    HW117507   1.576   3.002  13.631  0.7694 -2.0133  0.3723
 1957SOL    HW217508   1.458   2.955  13.698 -0.2230  0.0077 -1.8634
 1958SOL     OW17509   2.434   4.131   6.707  0.1066  0.5728  0.4216
 1958SOL    HW117510   2.506   4.169   6.656 -0.9362 -0.7432 -2.0654
 1958SOL    HW217511   2.391   4.202   6.754  2.2966  1.7922  0.5987
 1959SOL     OW17512   1.848   2.855  13.995  0.8672  0.1300 -0.0689
 1959SOL    HW117513   1.882   2.809  13.919  0.9793 -2.3261  1.4641
 1959SOL    HW217514   1.841   2.944  13.962 -0.5932  0.7458  1.8876
 1960SOL     OW17515   1.236   2.377   1.290 -0.6095  0.1536 -0.6658
 1960SOL    HW117516   1.177   2.310   1.258  1.0824 -1.9020  0.4728
 1960SOL    HW217517   1.234   2.363   1.385  2.7767 -0.3773 -0.6390
 1961SOL     OW17518   4.664   1.956  14.605 -0.5034 -0.3273 -0.0462
 1961SOL    HW117519   4.672   1.880  14.662  3.3683 -0.5987 -0.9778
 1961SOL    HW217520   4.625   1.926  14.523 -0.8618 -1.2290  0.4546
 1962SOL     OW17521   2.138   4.451  10.435 -0.2610 -0.2800  0.1774
 1962SOL    HW117522   2.107   4.426  10.348 -0.7333  0.7154  0.0612
 1962SOL    HW217523   2.203   4.517  10.411  1.5080 -1.7355  0.8912
 1963SOL     OW17524   1.722   1.477   8.267  0.2156 -0.5780 -0.4206
 1963SOL    HW117525   1.770   1.518   8.195 -1.8981  0.2851 -1.3420
 1963SOL    HW217526   1.715   1.386   8.236  0.9012 -0.1877 -1.7238
 1964SOL     OW17527   2.806   4.360   8.943 -0.4906 -0.1371 -0.2012
 1964SOL    HW117528   2.831   4.268   8.940  2.1310  0.6888 -3.8543
 1964SOL    HW217529   2.743   4.363   9.015  1.0468  3.2574  1.0434
 1965SOL     OW17530   0.431   2.225   4.552 -0.6107 -0.4157  0.3316
 1965SOL    HW117531   0.513   2.198   4.592 -0.1922  0.0111 -0.2468
 1965SOL    HW217532   0.381   2.244   4.632 -2.6778  0.5732 -1.1667
 1966SOL     OW17533   3.210   2.484  13.565  0.0591 -0.3504  0.2029
 1966SOL    HW117534   3.242   2.574  13.579 -2.9014  0.8416 -0.6307
 1966SOL    HW217535   3.215   2.440  13.650  2.7924 -0.2097  0.1085
 1967SOL     OW17536   1.917   1.613   2.104  0.1371  0.0229  0.3931
 1967SOL    HW117537   1.860   1.671   2.154 -2.9782 -2.3510 -0.3645
 1967SOL    HW217538   1.901   1.639   2.013 -1.0078  0.5571  0.7510
 1968SOL     OW17539   3.409   4.217   0.836 -0.2494 -0.0285 -0.1819
 1968SOL    HW117540   3.466   4.141   0.847 -2.1098 -1.8655 -3.1267
 1968SOL    HW217541   3.476   4.283   0.856 -0.5034  0.6593 -1.5497
 1969SOL     OW17542   1.444   2.911   7.138 -0.4585 -0.4217 -0.3223
 1969SOL    HW117543   1.487   2.826   7.152 -0.4706 -0.0691  1.8538
 1969SOL    HW217544   1.378   2.885   7.073 -0.1291  0.4602 -1.0136
 1970SOL     OW17545   4.489   3.614   1.178  0.0667  0.4828  0.5442
 1970SOL    HW117546   4.438   3.694   1.190  0.9139  1.3178 -1.5627
 1970SOL    HW217547   4.574   3.648   1.150  0.4709  0.8434  2.1779
 1971SOL     OW17548   2.260   4.235   9.464  0.2884 -0.0075  0.3840
 1971SOL    HW117549   2.180   4.229   9.411 -0.8126  0.0964  2.0415
 1971SOL    HW217550   2.263   4.328   9.489  0.6810  0.6281 -2.0090
 1972SOL     OW17551   2.970   2.763   2.208 -0.6887 -0.4763  0.1827
 1972SOL    HW117552   3.049   2.763   2.155  0.2650 -0.9020  1.5915
 1972SOL    HW217553   2.944   2.674   2.185  0.4142 -0.4587 -1.1228
 1973SOL     OW17554   3.547   1.299  10.193  0.1291 -0.3688  0.0831
 1973SOL    HW117555   3.487   1.288  10.267 -0.5332 -0.7321 -0.5085
 1973SOL    HW217556   3.602   1.366  10.232 -0.1115 -1.2029  1.8617
 1974SOL     OW17557   3.885   4.052   3.314 -0.4111  0.5670 -0.0392
 1974SOL    HW117558   3.894   4.146   3.327  0.4145  0.4439  0.2901
 1974SOL    HW217559   3.888   4.014   3.402 -0.1731  0.5987 -0.0343
 1975SOL     OW17560   1.475   1.601   0.273  0.2223  0.4539  0.3950
 1975SOL    HW117561   1.526   1.534   0.319  1.7864  0.6627 -1.0185
 1975SOL    HW217562   1.404   1.620   0.335  0.9381  1.0028  1.0529
 1976SOL     OW17563   0.918   0.973   6.700  0.4888 -0.0728 -0.0368
 1976SOL    HW117564   0.854   1.009   6.639  0.3788 -1.7790 -0.9215
 1976SOL    HW217565   0.860   0.925   6.760  0.7724  1.9336  1.8438
 1977SOL     OW17566   3.658   0.926   1.512 -0.3011 -0.3018  0.0273
 1977SOL    HW117567   3.731   0.938   1.573  0.7456 -2.3733 -0.8237
 1977SOL    HW217568   3.678   0.997   1.450  2.0201 -2.1423 -1.3394
 1978SOL     OW17569   3.658   0.492   7.311  0.2598  0.4495 -0.2789
 1978SOL    HW117570   3.658   0.400   7.338  0.9762  1.2902  2.5639
 1978SOL    HW217571   3.745   0.515   7.344  0.0640  1.6012 -0.5763
 1979SOL     OW17572   0.108   2.362   6.820 -0.5873 -0.7082  0.4033
 1979SOL    HW117573   0.142   2.385   6.733  0.8735 -0.8656  0.9379
 1979SOL    HW217574   0.121   2.268   6.812 -2.3912 -0.8928 -0.3066
 1980SOL     OW17575   1.165   1.221   6.009  0.3094 -0.3159 -0.1415
 1980SOL    HW117576   1.175   1.204   5.915  0.3759  0.3543 -0.2569
 1980SOL    HW217577   1.255   1.211   6.038  0.5602 -0.6881 -1.0390
 1981SOL     OW17578   1.642   1.837   8.627 -0.4289  0.2684  0.2616
 1981SOL    HW117579   1.547   1.824   8.619 -0.5406  1.1020  0.1901
 1981SOL    HW217580   1.682   1.761   8.585 -0.5780 -0.6506  1.8104
 1982SOL     OW17581   2.323   3.302   9.240  0.1995 -0.5483  0.3551
 1982SOL    HW117582   2.278   3.228   9.198  1.2968 -1.7502  1.3259
 1982SOL    HW217583   2.405   3.259   9.261  0.2442 -1.3448 -1.3828
 1983SOL     OW17584   2.292   0.223   7.513 -0.0981  0.1582 -0.3917
 1983SOL    HW117585   2.324   0.257   7.597 -0.3206  1.1514 -0.7121
 1983SOL    HW217586   2.226   0.158   7.539  1.6294 -1.7399 -0.7053
 1984SOL     OW17587   2.359   1.830   5.592  0.5184 -0.0355  0.0419
 1984SOL    HW117588   2.417   1.855   5.664  0.2686 -0.5595  0.4194
 1984SOL    HW217589   2.410   1.857   5.516 -0.5249  0.9739 -0.2938
 1985SOL     OW17590   2.788   3.853   5.377 -0.1819  0.7779 -0.0939
 1985SOL    HW117591   2.843   3.786   5.417 -0.2275  1.7478  1.5710
 1985SOL    HW217592   2.727   3.800   5.325  0.9672  0.4704 -1.1192
 1986SOL     OW17593   2.032   0.299   4.618  0.6185  0.6170 -0.6079
 1986SOL    HW117594   2.024   0.248   4.698  2.8444  0.5431 -0.4198
 1986SOL    HW217595   1.954   0.354   4.626  1.6535  1.8340  1.2593
 1987SOL     OW17596   0.166   2.139   8.903 -0.4650 -0.8119 -0.1777
 1987SOL    HW117597   0.171   2.223   8.949 -2.0600 -0.4814 -0.6179
 1987SOL    HW217598   0.228   2.093   8.960  3.1995  2.4692 -1.4851
 1988SOL     OW17599   0.429   2.477  17.694  0.0257  0.2797 -0.5057
 1988SOL    HW117600   0.366   2.542  17.662  1.3090  0.8394 -1.8927
 1988SOL    HW217601   0.470   2.529   0.016 -1.3546  2.0626 -1.0375
 1989SOL     OW17602   4.405   0.138   7.827 -0.2947 -0.3435 -0.4129
 1989SOL    HW117603   4.491   0.153   7.787 -0.5872 -0.5119 -1.0999
 1989SOL    HW217604   4.425   0.186   7.907 -2.4863  2.5001 -1.6004
 1990SOL     OW17605   2.036   4.162  10.462  0.5126  0.1489 -0.7582
 1990SOL    HW117606   1.951   4.198  10.436  0.8089  1.4316  0.0682
 1990SOL    HW217607   2.093   4.239  10.466  0.4547  0.2436 -1.7692
 1991SOL     OW17608   2.804   0.249   5.460  0.0934 -0.2223  0.1419
 1991SOL    HW117609   2.862   0.323   5.441  0.9894 -1.5240 -2.1626
 1991SOL    HW217610   2.741   0.304   5.507 -1.1640 -1.0168 -0.6142
 1992SOL     OW17611   2.632   1.208   7.918 -0.5326 -0.3874 -0.5107
 1992SOL    HW117612   2.711   1.202   7.973 -0.4981  3.2499 -0.1551
 1992SOL    HW217613   2.666   1.268   7.851 -0.6550  0.6652  0.3623
 1993SOL     OW17614   4.201   0.461  16.778 -1.0737 -0.2437  0.0691
 1993SOL    HW117615   4.238   0.442  16.864  1.6413  2.4092 -0.5487
 1993SOL    HW217616   4.226   0.394  16.714 -0.5049  1.5880 -1.6214
 1994SOL     OW17617   1.867   2.380   1.085  0.3265  0.2160 -0.7149
 1994SOL    HW117618   1.956   2.394   1.117 -0.5684 -1.2400  2.4276
 1994SOL    HW217619   1.845   2.292   1.115  0.3427 -0.2462 -2.0314
 1995SOL     OW17620   1.807   2.722   2.854 -0.1760  0.0435  0.5703
 1995SOL    HW117621   1.766   2.637   2.838 -0.7291  0.3485  0.3822
 1995SOL    HW217622   1.898   2.693   2.842  0.1287  1.1766  0.1941
 1996SOL     OW17623   2.963   1.225   8.502 -0.4022  0.1482 -0.0830
 1996SOL    HW117624   2.954   1.311   8.461 -0.3941 -0.3779 -1.1904
 1996SOL    HW217625   3.052   1.247   8.531 -1.4470  1.6979  1.9003
 1997SOL     OW17626   3.289   2.088   5.839  0.1730  0.1341  0.0137
 1997SOL    HW117627   3.209   2.127   5.805 -1.5164 -1.1496  2.4649
 1997SOL    HW217628   3.340   2.080   5.759  1.3784 -0.2718  0.8279
 1998SOL     OW17629   0.541   4.609   4.952 -0.4829  0.0572 -0.2942
 1998SOL    HW117630   0.600   4.584   5.023 -0.9440 -1.0979 -0.3281
 1998SOL    HW217631   0.577   4.548   4.888 -0.7824  0.3221 -0.7144
 1999SOL     OW17632   2.878   0.443   6.377  0.1983  0.0595 -0.0658
 1999SOL    HW117633   2.903   0.427   6.468  2.2169  1.0272 -0.4648
 1999SOL    HW217634   2.889   0.351   6.353 -0.1427 -0.1572  0.6079
 2000SOL     OW17635   1.109   1.731   5.079  0.4674 -0.4959 -0.1516
 2000SOL    HW117636   1.111   1.660   5.143 -0.3548 -0.0657  0.3439
 2000SOL    HW217637   1.097   1.686   4.995 -0.5652  0.1022 -0.3204
 2001SOL     OW17638   0.144   1.372  10.786 -0.2576 -0.1410 -0.5713
 2001SOL    HW117639   0.199   1.383  10.863 -1.1991 -0.4884  0.1502
 2001SOL    HW217640   0.200   1.405  10.716  0.1704  0.4011  0.0243
 2002SOL     OW17641   2.359   0.580   1.729 -0.5583  0.1243  0.4267
 2002SOL    HW117642   2.399   0.567   1.815 -0.0140  1.7005  0.4247
 2002SOL    HW217643   2.329   0.670   1.745  0.8778  1.1412 -2.5138
 2003SOL     OW17644   3.767   1.789   9.415  0.1377 -0.1546  0.6887
 2003SOL    HW117645   3.768   1.705   9.461  1.0423  0.0418  1.0264
 2003SOL    HW217646   3.726   1.841   9.484 -2.9134  0.2296 -1.4154
 2004SOL     OW17647   0.424   1.307   1.351 -0.1715  0.1520  0.2386
 2004SOL    HW117648   0.453   1.350   1.431 -0.5400 -1.8230  1.4376
 2004SOL    HW217649   0.395   1.222   1.384 -1.5001  0.4557 -0.1562
 2005SOL     OW17650   3.233   1.047   7.593  0.2249  0.6089 -0.2150
 2005SOL    HW117651   3.260   1.021   7.681 -1.8150 -0.5491  0.0458
 2005SOL    HW217652   3.264   0.969   7.549  0.4141 -0.0896  1.1522
 2006SOL     OW17653   1.211   3.922   0.093 -0.1745  0.0762  0.5057
 2006SOL    HW117654   1.268   3.989   0.055  0.1188  0.3096  1.3511
 2006SOL    HW217655   1.171   3.885   0.014  0.7613  0.4209 -0.1308
 2007SOL     OW17656   4.153   3.180   6.829  0.0121  0.2351  0.1877
 2007SOL    HW117657   4.238   3.192   6.787 -1.3714 -1.2891 -3.0597
 2007SOL    HW217658   4.091   3.160   6.759  0.5535 -0.1458 -0.1822
 2008SOL     OW17659   3.386   0.378   5.405 -0.9003  0.0880 -0.6802
 2008SOL    HW117660   3.393   0.329   5.324 -0.2607  1.9456 -1.7550
 2008SOL    HW217661   3.354   0.454   5.357 -1.2571 -1.0404 -2.2270
 2009SOL     OW17662   0.990   1.618  13.535  0.4085  0.8367  0.3921
 2009SOL    HW117663   1.024   1.639  13.622  1.4824  2.3288 -0.3809
 2009SOL    HW217664   1.008   1.527  13.514  0.4254  0.3189  2.5768
 2010SOL     OW17665   4.191   2.784   3.162  0.0191  0.2115 -0.5832
 2010SOL    HW117666   4.234   2.857   3.207 -0.6349 -0.2794  0.8328
 2010SOL    HW217667   4.116   2.765   3.219 -0.7132  2.9340 -0.6591
 2011SOL     OW17668   4.630   0.064   2.592 -0.1683 -0.0545  0.2287
 2011SOL    HW117669   4.702   0.120   2.564 -0.1414  0.8137  1.9785
 2011SOL    HW217670   4.639   0.081   2.686  0.9458 -1.3388  0.3548
 2012SOL     OW17671   3.379   0.020   2.215 -0.1235  0.5323  0.5820
 2012SOL    HW117672   3.412   4.735   2.128 -1.5294  0.3829  0.0800
 2012SOL    HW217673   3.436   0.095   2.231  0.5318  0.3985 -1.1841
 2013SOL     OW17674   0.740   2.603   0.396 -0.0379 -0.0078 -0.9349
 2013SOL    HW117675   0.725   2.574   0.486  1.3074  2.0341 -0.0563
 2013SOL    HW217676   0.700   2.690   0.396 -2.1041 -0.9596  0.0785
 2014SOL     OW17677   2.793   0.227  14.855 -0.1673  0.2294 -0.0308
 2014SOL    HW117678   2.810   0.133  14.844 -1.6043 -0.1186  0.6776
 2014SOL    HW217679   2.699   0.221  14.870 -0.1955 -2.2741 -1.1921
 2015SOL     OW17680   1.561   2.554   3.058  0.9560 -0.4910  0.4038
 2015SOL    HW117681   1.609   2.557   2.975 -1.8407 -1.2097 -1.2209
 2015SOL    HW217682   1.608   2.613   3.117  1.1264  0.2172 -0.4366
 2016SOL     OW17683   0.676   4.511   0.874  0.2632  0.0271 -0.1654
 2016SOL    HW117684   0.643   4.430   0.913  1.0418  0.3241  1.0880
 2016SOL    HW217685   0.614   4.581   0.893 -0.7736 -1.1518  0.7142
 2017SOL     OW17686   1.022   2.759   1.763  0.3404  0.2125  0.3286
 2017SOL    HW117687   0.967   2.776   1.840 -0.1568  0.0946 -0.0009
 2017SOL    HW217688   1.067   2.679   1.792  2.0947  0.8048 -0.8106
 2018SOL     OW17689   0.646   0.675   6.793 -0.7171  0.4006 -0.0824
 2018SOL    HW117690   0.652   0.663   6.698  2.1597 -0.9719  0.2880
 2018SOL    HW217691   0.718   0.619   6.821 -1.5424 -1.2850 -1.3212
 2019SOL     OW17692   3.656   1.242   9.500  0.3153 -0.2153 -0.2179
 2019SOL    HW117693   3.749   1.238   9.520  0.4828 -2.7717 -1.4917
 2019SOL    HW217694   3.614   1.164   9.536 -0.4747  0.7114  0.8572
 2020SOL     OW17695   1.202   0.229   7.192 -0.3494  0.5584 -0.5921
 2020SOL    HW117696   1.277   0.225   7.252 -1.3658  0.7157  0.7064
 2020SOL    HW217697   1.210   0.141   7.155  0.2484  0.4812 -0.2885
 2021SOL     OW17698   2.924   0.399  15.243  0.0828  0.1874 -0.0880
 2021SOL    HW117699   3.010   0.358  15.252 -0.2661 -0.4185  0.5023
 2021SOL    HW217700   2.927   0.434  15.154 -0.7761  2.5614  0.8221
 2022SOL     OW17701   0.548   3.382   6.264 -0.0415  0.0613  0.3017
 2022SOL    HW117702   0.567   3.295   6.228  2.5888  0.0741  1.5693
 2022SOL    HW217703   0.638   3.404   6.290 -0.0776 -1.1270  1.4443
 2023SOL     OW17704   3.224   0.615   3.421  0.4653 -0.1404  0.5286
 2023SOL    HW117705   3.254   0.615   3.330 -0.5128  1.1379  0.2133
 2023SOL    HW217706   3.221   0.522   3.446 -1.8501  0.1812  1.4625
 2024SOL     OW17707   0.096   1.693   4.939 -0.8174 -0.3097  0.4366
 2024SOL    HW117708   0.119   1.689   4.846 -3.7145 -1.7419 -0.2171
 2024SOL    HW217709   0.074   1.786   4.948 -0.0219  0.2422 -3.0478
 2025SOL     OW17710   1.755   2.188   9.213 -0.7761 -0.9782 -0.7551
 2025SOL    HW117711   1.741   2.265   9.159 -2.0950 -1.2656 -0.8084
 2025SOL    HW217712   1.671   2.184   9.259 -1.3969 -0.6616 -1.8728
 2026SOL     OW17713   1.814   4.525   5.886 -0.3587  0.4066 -0.3746
 2026SOL    HW117714   1.879   4.520   5.956 -1.4554  1.2442  0.7038
 2026SOL    HW217715   1.729   4.507   5.926  0.0719 -1.0548 -0.1171
 2027SOL     OW17716   1.643   1.596   3.767  0.3203  0.5389  0.1750
 2027SOL    HW117717   1.568   1.626   3.819  0.1205  1.5130 -0.6858
 2027SOL    HW217718   1.589   1.545   3.707  0.9574 -0.3733  0.3786
 2028SOL     OW17719   3.496   2.350   7.267  0.1508 -0.2496  0.2077
 2028SOL    HW117720   3.478   2.313   7.354 -2.0314 -0.1461 -0.2170
 2028SOL    HW217721   3.533   2.436   7.291  0.1327 -0.5996  1.4807
 2029SOL     OW17722   0.914   2.207   8.601 -0.6399 -0.0659 -0.0628
 2029SOL    HW117723   0.889   2.140   8.665 -1.5454  2.5473  2.3228
 2029SOL    HW217724   0.828   2.248   8.588 -1.5529 -2.2480 -0.9621
 2030SOL     OW17725   4.115   3.733   5.488  0.0968  0.2786  0.0895
 2030SOL    HW117726   4.032   3.684   5.495 -1.5519  3.1100  0.5154
 2030SOL    HW217727   4.101   3.804   5.551  1.4966  2.7469 -2.3596
 2031SOL     OW17728   2.538   4.513   6.607 -0.2025 -0.4838  0.2212
 2031SOL    HW117729   2.622   4.518   6.653 -0.2811  2.9430  0.0374
 2031SOL    HW217730   2.557   4.491   6.516  2.3199 -1.9330  1.1009
 2032SOL     OW17731   2.234   2.544   1.364  0.2748  0.2905  0.3115
 2032SOL    HW117732   2.145   2.573   1.345  0.3285  1.4404  1.8203
 2032SOL    HW217733   2.217   2.450   1.361  0.5095  0.1751  3.1596
 2033SOL     OW17734   1.070   2.499  12.467 -0.3174 -0.3936 -0.2028
 2033SOL    HW117735   1.119   2.543  12.536  0.3822  0.2316 -1.0992
 2033SOL    HW217736   1.026   2.572  12.424  0.9813  0.4418 -0.0986
 2034SOL     OW17737   2.737   3.410  10.517 -0.3354  0.0233  0.1028
 2034SOL    HW117738   2.684   3.437  10.442  0.1894  0.6233 -0.0612
 2034SOL    HW217739   2.798   3.484  10.526 -2.1842  1.3000  2.0105
 2035SOL     OW17740   1.850   0.743   4.076  0.0801  0.1814 -0.2292
 2035SOL    HW117741   1.886   0.689   4.146  0.4057 -2.1277 -2.1859
 2035SOL    HW217742   1.776   0.690   4.047 -0.8238  1.6844 -0.6683
 2036SOL     OW17743   1.694   3.308   4.916  0.6735  0.0004  0.7759
 2036SOL    HW117744   1.779   3.351   4.902 -0.8602  3.4803  2.3212
 2036SOL    HW217745   1.721   3.219   4.941 -0.8545 -0.5115  0.5923
 2037SOL     OW17746   1.921   2.646   5.418 -0.2485 -0.3436 -0.3782
 2037SOL    HW117747   1.958   2.719   5.368 -3.1438  0.9120 -0.7302
 2037SOL    HW217748   1.915   2.580   5.348  0.0622 -0.6343 -0.1264
 2038SOL     OW17749   3.031   0.125   4.612 -0.3329 -0.2095  0.1076
 2038SOL    HW117750   2.994   0.210   4.585 -0.1158  0.1453  0.9347
 2038SOL    HW217751   3.002   0.130   4.703 -0.9017  1.2708 -0.1460
 2039SOL     OW17752   1.925   0.580  14.470 -0.2744 -0.5700 -0.3701
 2039SOL    HW117753   1.965   0.503  14.427 -0.5575 -1.9428  1.8482
 2039SOL    HW217754   1.850   0.597  14.413  1.4551  1.2531 -2.1169
 2040SOL     OW17755   2.831   3.040   3.572 -0.0129  0.1605  0.0566
 2040SOL    HW117756   2.885   3.109   3.533  0.6523 -0.6963 -0.5537
 2040SOL    HW217757   2.820   3.082   3.657  2.5967  0.1177  0.3922
 2041SOL     OW17758   2.749   1.048  17.207 -0.8969 -0.3887 -0.2124
 2041SOL    HW117759   2.840   1.018  17.197 -0.3180  1.2850  0.1101
 2041SOL    HW217760   2.706   0.989  17.145  2.8974 -0.7067 -2.5295
 2042SOL     OW17761   0.544   0.225  10.225 -0.8693  0.0354 -0.4011
 2042SOL    HW117762   0.506   0.287  10.287  1.1654  0.9885 -0.0727
 2042SOL    HW217763   0.463   0.187  10.193 -1.8371 -0.2370  2.4266
 2043SOL     OW17764   3.818   4.007  12.703  0.4686 -0.2037  0.1176
 2043SOL    HW117765   3.881   4.072  12.671  0.5678 -0.1095  0.4975
 2043SOL    HW217766   3.756   4.015  12.631  1.8590  1.7785 -0.8635
 2044SOL     OW17767   3.564   1.236  10.731 -0.1102  0.2777  0.6431
 2044SOL    HW117768   3.646   1.248  10.778  0.9453  0.1518 -1.1805
 2044SOL    HW217769   3.557   1.324  10.694  1.2452 -0.4497 -1.3450
 2045SOL     OW17770   2.775   3.797  11.265  0.3176 -0.3470  0.5949
 2045SOL    HW117771   2.688   3.834  11.247  0.2564 -1.2054 -0.8332
 2045SOL    HW217772   2.763   3.766  11.354 -1.2307 -0.3441  0.3842
 2046SOL     OW17773   3.874   1.944   7.977  0.0618 -0.0706  0.1792
 2046SOL    HW117774   3.891   1.884   8.050 -0.7512  0.5322  0.8606
 2046SOL    HW217775   3.822   2.010   8.024  0.1621 -0.4363  0.8094
 2047SOL     OW17776   3.271   4.551   9.010 -0.1098 -0.0560 -0.3387
 2047SOL    HW117777   3.262   4.499   9.090 -1.1206 -0.5237 -0.7585
 2047SOL    HW217778   3.202   4.510   8.958 -0.5946 -0.6548  0.7776
 2048SOL     OW17779   3.139   1.524   3.307 -0.4224  0.1329  0.0419
 2048SOL    HW117780   3.135   1.522   3.211 -1.2538 -1.6060  0.1005
 2048SOL    HW217781   3.155   1.618   3.316  0.1894  0.1534 -1.2677
 2049SOL     OW17782   0.371   2.088  10.844  0.0278  0.5825 -0.0316
 2049SOL    HW117783   0.293   2.138  10.867  1.0445  2.5181 -0.7632
 2049SOL    HW217784   0.387   2.145  10.769 -1.2765 -0.0008 -0.7575
 2050SOL     OW17785   4.553   4.452  12.571  0.2242 -0.3333  0.5521
 2050SOL    HW117786   4.521   4.386  12.510  1.1878 -0.2800 -0.0090
 2050SOL    HW217787   4.535   4.405  12.653  1.5443 -1.2315  0.3257
 2051SOL     OW17788   2.259   0.496   3.846  0.1643 -0.0258  0.1117
 2051SOL    HW117789   2.284   0.495   3.939  1.7189  0.1258 -0.3017
 2051SOL    HW217790   2.346   0.468   3.816  0.5204 -1.3696  2.4095
 2052SOL     OW17791   2.551   3.892   6.823  0.3898  0.2546  0.2643
 2052SOL    HW117792   2.516   3.974   6.788  0.1835  0.5397  1.1519
 2052SOL    HW217793   2.547   3.834   6.746  0.0912 -3.0638  2.7795
 2053SOL     OW17794   3.955   1.790   7.769 -0.3166 -0.4323 -0.5383
 2053SOL    HW117795   3.878   1.788   7.712 -0.8278  1.2793  0.0777
 2053SOL    HW217796   3.926   1.861   7.826  0.8139 -0.7023  0.3766
 2054SOL     OW17797   1.699   4.110   1.533  0.1312  0.7538  0.4519
 2054SOL    HW117798   1.784   4.093   1.492  0.3749 -0.0487  1.2914
 2054SOL    HW217799   1.707   4.061   1.615  1.9372  1.1475  0.4941
 2055SOL     OW17800   2.845   1.608   7.463  0.2162  0.2077  0.3386
 2055SOL    HW117801   2.851   1.522   7.423 -0.2734 -0.6235  2.0475
 2055SOL    HW217802   2.909   1.596   7.532  3.0052  0.6125 -2.1916
 2056SOL     OW17803   4.384   0.668   7.156 -0.1716  0.1000  0.6327
 2056SOL    HW117804   4.424   0.581   7.163  0.2106  0.2433  0.2517
 2056SOL    HW217805   4.458   0.726   7.139  0.5154 -1.1080 -0.4420
 2057SOL     OW17806   3.918   0.403   5.894  0.1222 -0.1092 -0.3358
 2057SOL    HW117807   4.013   0.397   5.884  0.3866  0.1565  1.9068
 2057SOL    HW217808   3.908   0.340   5.966  0.0130  1.1300  0.7374
 2058SOL     OW17809   4.280   3.367   7.082 -0.0837 -0.8510  0.4804
 2058SOL    HW117810   4.212   3.410   7.133 -0.6695  0.4198 -1.3700
 2058SOL    HW217811   4.269   3.412   6.998  1.9318  1.3326  1.3636
 2059SOL     OW17812   2.995   1.723  14.714  0.2356 -0.9205 -0.3367
 2059SOL    HW117813   2.983   1.803  14.663 -0.8510 -0.7915  0.1238
 2059SOL    HW217814   2.911   1.680  14.695  0.1237  0.3649 -2.7121
 2060SOL     OW17815   3.857   0.443   9.379  0.2029  0.5439 -0.0286
 2060SOL    HW117816   3.924   0.418   9.314 -0.1128 -4.0596  1.3703
 2060SOL    HW217817   3.777   0.436   9.326  0.8851 -2.3628 -0.6838
 2061SOL     OW17818   1.672   0.934   4.803  0.1200 -0.0543  0.1821
 2061SOL    HW117819   1.726   0.860   4.776 -0.9108 -0.2200 -1.4550
 2061SOL    HW217820   1.732   1.006   4.782  2.3939 -1.0821  3.1083
 2062SOL     OW17821   4.691   1.269   6.669 -0.3112 -0.0319 -0.7249
 2062SOL    HW117822   4.596   1.266   6.669 -0.2753 -0.8406 -4.0576
 2062SOL    HW217823   4.719   1.254   6.578  2.2925  0.9074 -0.0700
 2063SOL     OW17824   4.377   1.877  15.330 -0.2602 -0.0921  0.4142
 2063SOL    HW117825   4.442   1.818  15.368 -2.4822 -1.4886  2.0112
 2063SOL    HW217826   4.440   1.944  15.301  0.2878 -0.4685  0.7313
 2064SOL     OW17827   0.265   2.832   8.250 -0.5734  0.2184 -0.1914
 2064SOL    HW117828   0.182   2.873   8.226  0.2088  1.7580 -0.2497
 2064SOL    HW217829   0.305   2.820   8.164 -0.0309  1.9313 -0.1665
 2065SOL     OW17830   2.166   3.402   3.022  0.1336  0.1041  0.2562
 2065SOL    HW117831   2.254   3.371   3.001 -0.3714 -0.3007 -1.3131
 2065SOL    HW217832   2.141   3.378   3.111 -0.1812  1.6372  0.5850
 2066SOL     OW17833   1.778   3.382   7.104 -0.2564  0.2544  0.8386
 2066SOL    HW117834   1.739   3.467   7.123  2.5091  1.5505  0.7365
 2066SOL    HW217835   1.768   3.382   7.009  0.2128  1.0230  0.7884
 2067SOL     OW17836   0.390   3.751  15.551 -0.0454  0.5583 -0.0624
 2067SOL    HW117837   0.346   3.674  15.515  2.5402 -1.1646  0.4722
 2067SOL    HW217838   0.481   3.736  15.528 -0.2031 -0.3337 -0.1030
 2068SOL     OW17839   4.292   2.801  13.719 -0.9320 -0.3965  0.0942
 2068SOL    HW117840   4.386   2.818  13.728 -0.7276 -1.0077 -0.8517
 2068SOL    HW217841   4.271   2.859  13.646  0.0808  0.8643  0.8098
 2069SOL     OW17842   1.791   4.546   7.825  0.2208 -0.3573 -0.3250
 2069SOL    HW117843   1.742   4.629   7.821 -0.1420 -0.5698 -0.3390
 2069SOL    HW217844   1.762   4.520   7.912 -1.9226  1.0019 -0.6055
 2070SOL     OW17845   2.871   1.847   4.324  0.3537  0.0264 -0.3404
 2070SOL    HW117846   2.841   1.790   4.395  2.8852 -0.5327  0.3154
 2070SOL    HW217847   2.940   1.886   4.379  1.1254  1.6729 -2.4984
 2071SOL     OW17848   0.524   2.898   2.308  0.1249  0.1749 -0.5620
 2071SOL    HW117849   0.442   2.905   2.357 -0.2921 -0.4157 -1.1716
 2071SOL    HW217850   0.555   2.989   2.304 -0.9486  0.4501 -2.5703
 2072SOL     OW17851   0.636   2.141  13.431 -0.5445  0.3387 -0.7325
 2072SOL    HW117852   0.719   2.188  13.424 -0.7655  1.0839  1.6090
 2072SOL    HW217853   0.616   2.106  13.344 -1.6959 -0.2011 -0.2556
 2073SOL     OW17854   0.037   1.280  12.242  0.0194  0.5963 -0.2008
 2073SOL    HW117855   4.702   1.341  12.255 -0.4291  0.0533 -0.1329
 2073SOL    HW217856   4.723   1.199  12.241 -0.8730  1.1696 -2.1300
 2074SOL     OW17857   0.183   0.893  16.362  0.1589  0.5727 -0.2222
 2074SOL    HW117858   0.258   0.852  16.404 -0.4422  0.6342  0.9045
 2074SOL    HW217859   0.154   0.966  16.417 -2.2423 -1.0377  0.6266
 2075SOL     OW17860   3.810   0.115  15.267 -0.1534 -0.3844 -0.0571
 2075SOL    HW117861   3.791   0.024  15.292 -2.9205  0.0297 -0.6928
 2075SOL    HW217862   3.870   0.151  15.333 -2.2814 -0.2242  1.7661
 2076SOL     OW17863   1.888   3.947   5.009  0.7248  0.4182  0.0656
 2076SOL    HW117864   1.837   3.953   4.928 -0.4669 -1.1691  0.7103
 2076SOL    HW217865   1.944   4.022   4.988 -0.9933  1.6812  0.0349
 2077SOL     OW17866   0.462   2.857   8.072  0.1077  0.5008  0.1996
 2077SOL    HW117867   0.473   2.881   7.980  0.8670  1.5165  0.5528
 2077SOL    HW217868   0.534   2.795   8.087  0.3461  0.2368 -2.1181
 2078SOL     OW17869   0.732   2.856   4.760  0.6050  0.0984 -0.2158
 2078SOL    HW117870   0.699   2.769   4.739 -0.8055  1.4318 -3.5850
 2078SOL    HW217871   0.677   2.876   4.836 -1.0625 -0.6563 -1.2066
 2079SOL     OW17872   1.499   4.510   2.122 -0.0395 -0.3045 -0.0555
 2079SOL    HW117873   1.571   4.476   2.069 -0.1235 -1.2627  0.4489
 2079SOL    HW217874   1.475   4.593   2.081 -0.0762 -1.0688 -1.5843
 2080SOL     OW17875   1.063   0.418  12.235 -0.7349 -0.4974  0.0160
 2080SOL    HW117876   1.154   0.427  12.264 -0.9312  2.7326 -0.4299
 2080SOL    HW217877   1.042   0.509  12.213  1.5196 -0.3864 -1.6111
 2081SOL     OW17878   2.458   1.986   4.120 -0.4673 -0.1983  0.5621
 2081SOL    HW117879   2.390   1.957   4.181 -0.5342  1.2759  1.1917
 2081SOL    HW217880   2.463   2.081   4.130 -2.3883 -0.0591  0.2316
 2082SOL     OW17881   0.249   4.381  12.863  0.0238 -0.2067 -0.1750
 2082SOL    HW117882   0.205   4.306  12.823 -1.2039  0.2654  0.2696
 2082SOL    HW217883   0.178   4.444  12.851 -0.3357 -0.3311  1.2860
 2083SOL     OW17884   0.370   2.378   2.216  0.3858  0.1390 -0.2758
 2083SOL    HW117885   0.451   2.327   2.225 -0.4332 -0.7223  2.3109
 2083SOL    HW217886   0.400   2.433   2.145 -1.0084 -0.9662 -1.7232
 2084SOL     OW17887   0.599   0.060   9.450  0.0378 -0.5048  0.0872
 2084SOL    HW117888   0.621   0.062   9.544 -1.0013  0.5124  0.2963
 2084SOL    HW217889   0.579   0.153   9.458 -1.7790 -0.9170  0.2645
 2085SOL     OW17890   1.395   3.049   6.383  0.0043  0.0560 -0.4132
 2085SOL    HW117891   1.488   3.048   6.403  0.1032  0.7372 -0.8590
 2085SOL    HW217892   1.355   3.052   6.470  1.8814  1.2682  0.4055
 2086SOL     OW17893   0.809   1.962  11.494  0.0499 -0.3356 -0.3429
 2086SOL    HW117894   0.874   2.007  11.441  0.8640 -1.2042 -0.0880
 2086SOL    HW217895   0.867   1.904  11.544 -1.1721 -0.3913  1.0218
 2087SOL     OW17896   4.020   2.164   7.039  0.0123 -0.3138  0.1216
 2087SOL    HW117897   3.948   2.133   7.094 -1.2662  0.6041 -1.0287
 2087SOL    HW217898   4.082   2.092   7.049  1.2277  0.8985  1.3817
 2088SOL     OW17899   1.836   4.291   7.519  0.0461  0.2197 -0.1025
 2088SOL    HW117900   1.851   4.238   7.598  1.2708  1.1723  0.2974
 2088SOL    HW217901   1.827   4.222   7.453 -1.6886 -0.0528  0.4183
 2089SOL     OW17902   0.119   1.585   6.182  0.0265 -0.1659  0.0387
 2089SOL    HW117903   0.196   1.565   6.128 -0.3937 -0.1294 -0.5699
 2089SOL    HW217904   0.059   1.625   6.119  2.3774  0.4499 -1.8150
 2090SOL     OW17905   1.152   2.057  15.723 -0.3512 -0.0543 -0.3932
 2090SOL    HW117906   1.093   1.991  15.687  1.0150 -0.0275 -2.6911
 2090SOL    HW217907   1.241   2.027  15.705  0.7553  1.6625  2.2470
 2091SOL     OW17908   2.368   1.966  14.718 -0.0905 -0.0284 -0.6418
 2091SOL    HW117909   2.377   1.991  14.810 -0.2620  0.3626 -0.7283
 2091SOL    HW217910   2.290   2.017  14.693 -0.6731 -0.1722  0.8677
 2092SOL     OW17911   0.723   2.205  11.023 -0.1828 -0.2677 -0.3831
 2092SOL    HW117912   0.799   2.207  10.964  0.2496  2.9041  0.2834
 2092SOL    HW217913   0.703   2.296  11.041 -0.1641 -0.8086  2.3161
 2093SOL     OW17914   3.058   3.002   3.188 -0.2813 -0.3922 -0.2633
 2093SOL    HW117915   3.026   3.085   3.153  1.0483 -0.9149 -2.6924
 2093SOL    HW217916   2.978   2.950   3.196 -1.4597  1.8877  2.5590
 2094SOL     OW17917   2.536   0.581   1.500 -0.0782 -0.2240 -0.3987
 2094SOL    HW117918   2.484   0.615   1.572 -1.7421 -4.7703  0.5351
 2094SOL    HW217919   2.594   0.520   1.546 -0.0873 -0.5887 -0.8693
 2095SOL     OW17920   4.569   4.212   0.965  0.6481  0.1426  0.3889
 2095SOL    HW117921   4.494   4.220   0.906  1.3267  2.2500 -0.1934
 2095SOL    HW217922   4.596   4.121   0.951  2.1268  0.5109  0.7921
 2096SOL     OW17923   0.070   1.209   2.530  0.1981  0.0357  0.1679
 2096SOL    HW117924   0.136   1.174   2.472 -0.6302 -1.0196 -0.1399
 2096SOL    HW217925   0.064   1.301   2.504  2.2089  0.2298  0.4399
 2097SOL     OW17926   0.585   0.142  13.592 -0.1131 -0.2049 -0.0398
 2097SOL    HW117927   0.524   0.157  13.519  1.6843 -0.0082 -1.5090
 2097SOL    HW217928   0.574   0.228  13.633 -3.1629 -0.2604 -0.7743
 2098SOL     OW17929   4.071   0.038   8.009 -0.0894  0.5303 -0.2803
 2098SOL    HW117930   3.994   0.042   7.951 -1.1997  0.2220  1.1742
 2098SOL    HW217931   4.134   4.726   7.956  0.0716 -0.0101  0.4189
 2099SOL     OW17932   1.970   1.310  11.428 -0.1287 -0.2165 -0.0194
 2099SOL    HW117933   1.936   1.393  11.461  0.1284 -0.0097 -0.2747
 2099SOL    HW217934   2.044   1.334  11.373 -1.2951  3.0394 -0.1584
 2100SOL     OW17935   0.457   3.563   3.622  0.0110  0.0913 -0.0114
 2100SOL    HW117936   0.391   3.551   3.554  1.6940  0.5398 -1.7183
 2100SOL    HW217937   0.400   3.597   3.691 -0.1434  1.4461 -0.8074
 2101SOL     OW17938   0.912   1.260   7.539 -0.0083 -0.1473  0.0224
 2101SOL    HW117939   0.947   1.201   7.473 -0.5492  0.6905 -1.0027
 2101SOL    HW217940   0.915   1.338   7.483 -0.5979  1.8018  2.6662
 2102SOL     OW17941   1.892   1.220   7.302  0.0603 -0.0390 -0.0569
 2102SOL    HW117942   1.951   1.166   7.355 -0.9276 -0.1232  0.9709
 2102SOL    HW217943   1.823   1.155   7.286  0.3206 -0.5712  0.9770
 2103SOL     OW17944   2.687   1.285   4.036  0.0748  0.0313 -0.4768
 2103SOL    HW117945   2.726   1.345   3.972 -1.4378 -0.0224 -1.4568
 2103SOL    HW217946   2.648   1.350   4.094 -3.0447 -1.7269 -0.5834
 2104SOL     OW17947   1.068   3.475   7.270 -0.0148  0.0527 -0.3553
 2104SOL    HW117948   1.036   3.561   7.243  1.0022  0.4762 -0.1961
 2104SOL    HW217949   1.091   3.494   7.361  1.7077 -0.9734 -0.5708
 2105SOL     OW17950   3.767   2.984  15.434  0.8433  0.3070  0.4579
 2105SOL    HW117951   3.784   2.964  15.526 -0.5278 -5.7348 -0.6404
 2105SOL    HW217952   3.762   3.080  15.433 -2.2063  0.1722  1.7900
 2106SOL     OW17953   0.135   0.197   9.330 -0.7947  0.3465 -0.0836
 2106SOL    HW117954   0.100   0.142   9.260 -3.0344 -0.7596  1.8988
 2106SOL    HW217955   0.139   0.278   9.280 -0.3881 -0.7577 -1.8502
 2107SOL     OW17956   1.864   3.557   9.647 -0.1897  0.3619 -0.3713
 2107SOL    HW117957   1.890   3.649   9.650  0.3835  0.1727  0.3057
 2107SOL    HW217958   1.904   3.537   9.563 -1.4587  3.3925 -1.7215
 2108SOL     OW17959   3.380   0.546  17.449 -0.1091 -0.5641 -0.1862
 2108SOL    HW117960   3.359   0.476  17.511  1.5989 -3.9822 -3.4285
 2108SOL    HW217961   3.476   0.543  17.453 -0.0373  0.9441 -0.7172
 2109SOL     OW17962   0.734   1.469   8.954 -0.1541  0.3359 -0.3660
 2109SOL    HW117963   0.824   1.436   8.946  0.5882  2.8957 -2.5899
 2109SOL    HW217964   0.693   1.429   8.877  0.3522  1.1704 -1.0617
 2110SOL     OW17965   3.863   2.641   5.411 -0.3882  0.4025  0.0281
 2110SOL    HW117966   3.942   2.696   5.412  0.6605 -1.0951 -0.3833
 2110SOL    HW217967   3.890   2.564   5.361 -1.4389  0.4515 -0.6196
 2111SOL     OW17968   4.133   0.928   2.397 -0.4065  0.2555 -0.3130
 2111SOL    HW117969   4.042   0.952   2.414 -0.7478 -1.2330 -0.0811
 2111SOL    HW217970   4.158   0.978   2.319 -0.9662 -0.6000 -1.0471
 2112SOL     OW17971   1.085   2.971   5.746  0.0789  0.3438 -0.5736
 2112SOL    HW117972   1.056   2.947   5.834 -0.6140 -0.4537 -1.0208
 2112SOL    HW217973   1.151   2.908   5.718  1.1260  1.3070 -0.2611
 2113SOL     OW17974   3.560   1.755   7.545  0.4844 -0.2169  0.4183
 2113SOL    HW117975   3.589   1.830   7.598 -0.0817  0.4112 -0.1639
 2113SOL    HW217976   3.466   1.775   7.545  0.7582  1.0284 -2.0137
 2114SOL     OW17977   1.805   0.869   8.638 -0.4865  0.0500 -0.5263
 2114SOL    HW117978   1.835   0.860   8.729 -2.3854  1.9196  0.2856
 2114SOL    HW217979   1.870   0.928   8.599 -0.5551  0.3896 -0.1353
 2115SOL     OW17980   0.638   4.065   6.021 -0.4162 -0.4000 -0.2672
 2115SOL    HW117981   0.645   3.978   5.981  0.3607 -1.2964  1.8640
 2115SOL    HW217982   0.589   4.117   5.957 -0.1712 -2.1440 -1.8694
 2116SOL     OW17983   0.274   1.979   8.138 -0.1355 -0.6098  0.2252
 2116SOL    HW117984   0.222   2.053   8.169 -1.3485 -0.6175 -1.8774
 2116SOL    HW217985   0.338   1.965   8.208  0.1648 -0.4808 -0.0252
 2117SOL     OW17986   4.253   1.788   7.513  0.0200 -0.6070 -0.5640
 2117SOL    HW117987   4.242   1.749   7.600 -0.8703 -1.6287 -1.1350
 2117SOL    HW217988   4.193   1.862   7.524  2.0570  1.2507 -1.9575
 2118SOL     OW17989   2.394   2.614   2.987 -0.3618  0.5577  0.2194
 2118SOL    HW117990   2.373   2.544   2.926  1.5658 -1.9191  2.3937
 2118SOL    HW217991   2.359   2.693   2.947 -1.4703  0.0994  0.2779
 2119SOL     OW17992   0.144   0.400   3.650 -0.0112 -0.3066 -0.0239
 2119SOL    HW117993   0.183   0.475   3.695 -0.3864  0.7854 -1.5258
 2119SOL    HW217994   0.183   0.420   3.565  0.3510 -1.0641 -0.0350
 2120SOL     OW17995   2.488   0.966  11.210 -0.1076  0.4359  0.4629
 2120SOL    HW117996   2.407   0.955  11.259  1.1318 -0.9631  2.2134
 2120SOL    HW217997   2.533   1.036  11.258 -0.9870  0.6166  1.0140
 2121SOL     OW17998   1.074   1.269  11.008  0.2803 -0.1178  0.1038
 2121SOL    HW117999   1.010   1.322  10.959 -0.3754 -1.7683 -0.8526
 2121SOL    HW218000   1.057   1.288  11.100 -1.2839  1.8503 -0.5828
 2122SOL     OW18001   1.510   2.716   2.730 -0.2142 -0.1731  0.3625
 2122SOL    HW118002   1.526   2.789   2.671 -1.3870 -0.5038 -0.3601
 2122SOL    HW218003   1.573   2.743   2.797  1.5736  0.6776 -1.6925
 2123SOL     OW18004   4.169   1.749  16.018  0.0696 -0.1788 -0.0664
 2123SOL    HW118005   4.113   1.821  15.989  1.8330  1.1423 -0.2116
 2123SOL    HW218006   4.102   1.689  16.051  1.5579 -1.4187  0.7502
 2124SOL     OW18007   2.468   0.946   5.580  0.2063  0.2645  0.2087
 2124SOL    HW118008   2.411   1.024   5.583  0.8534  0.7967 -1.1923
 2124SOL    HW218009   2.553   0.984   5.558  0.8227 -0.6742  0.9909
 2125SOL     OW18010   4.638   2.949   0.389 -0.3795  0.3090  0.1257
 2125SOL    HW118011   4.701   2.963   0.318 -0.0714 -1.6875 -0.0039
 2125SOL    HW218012   4.697   2.903   0.448  1.2311  1.2245 -0.7663
 2126SOL     OW18013   1.253   4.607   6.693  0.0588  0.2142 -0.0419
 2126SOL    HW118014   1.304   4.633   6.616  1.4540  1.4349  1.2932
 2126SOL    HW218015   1.181   4.670   6.689 -1.7603 -1.8074  0.6063
 2127SOL     OW18016   1.959   3.654   9.165  0.0692 -0.3329  0.6257
 2127SOL    HW118017   1.907   3.681   9.089  1.3636 -0.5460 -0.3270
 2127SOL    HW218018   2.044   3.617   9.141 -0.3099 -0.8654  0.1206
 2128SOL     OW18019   1.375   3.851   8.817  0.5687  0.3738  0.3968
 2128SOL    HW118020   1.288   3.885   8.794  0.4263 -1.0108 -1.1020
 2128SOL    HW218021   1.365   3.853   8.912 -1.3595  1.1400  0.1836
 2129SOL     OW18022   4.399   4.429   3.395 -0.0423  0.1284  0.4464
 2129SOL    HW118023   4.365   4.371   3.327  0.6513 -1.1573  1.1966
 2129SOL    HW218024   4.438   4.367   3.457 -1.7352 -2.1200 -0.7671
 2130SOL     OW18025   0.915   2.356  17.737  0.0983  0.4873 -0.3587
 2130SOL    HW118026   0.827   2.317  17.742  0.3925 -0.1007  0.2540
 2130SOL    HW218027   0.916   2.406   0.072 -1.6027  0.3543 -0.2437
 2131SOL     OW18028   1.250   0.648   9.394 -0.1959  0.0587  0.1522
 2131SOL    HW118029   1.174   0.696   9.426 -1.2752 -0.9610 -0.8570
 2131SOL    HW218030   1.322   0.708   9.412  0.1117 -0.2735  0.0485
 2132SOL     OW18031   0.634   4.173   7.792 -0.3984 -0.6016 -0.1488
 2132SOL    HW118032   0.675   4.239   7.848 -0.5540  0.6800 -1.5566
 2132SOL    HW218033   0.636   4.096   7.848  1.0728 -1.1777 -0.9981
 2133SOL     OW18034   1.394   1.119   2.038 -0.3278 -0.8353 -0.4925
 2133SOL    HW118035   1.365   1.164   1.958 -0.3846 -1.1752 -0.6646
 2133SOL    HW218036   1.482   1.157   2.041 -0.0017 -1.7358  1.0507
 2134SOL     OW18037   3.809   1.449  15.483 -0.1158  0.3578 -0.3072
 2134SOL    HW118038   3.752   1.406  15.419  1.5010 -2.2519  0.0036
 2134SOL    HW218039   3.791   1.542  15.473 -0.4344  0.4602  1.2760
 2135SOL     OW18040   3.712   1.238  15.616 -0.5355 -0.1548  0.1682
 2135SOL    HW118041   3.754   1.321  15.592  0.0656 -0.3557  0.5278
 2135SOL    HW218042   3.784   1.191  15.657 -0.6936 -0.6197 -0.0949
 2136SOL     OW18043   2.485   1.184  11.557  0.0342 -0.1784  0.5592
 2136SOL    HW118044   2.454   1.273  11.569  1.0652  0.3445 -0.6623
 2136SOL    HW218045   2.432   1.147  11.486 -0.8845  1.1062  0.5852
 2137SOL     OW18046   1.728   2.684   1.421  0.1724 -0.1188 -0.4574
 2137SOL    HW118047   1.649   2.641   1.452 -0.1433  0.5694 -0.3152
 2137SOL    HW218048   1.698   2.699   1.331  0.1256 -0.5683 -0.5193
 2138SOL     OW18049   3.186   4.614   1.042 -0.1678  0.3394 -0.1115
 2138SOL    HW118050   3.177   4.676   1.114  1.6851  0.3888  0.0860
 2138SOL    HW218051   3.162   4.541   1.100  0.3682  0.6114  0.4595
 2139SOL     OW18052   4.354   3.491   5.626  0.4945  0.2108 -0.4428
 2139SOL    HW118053   4.260   3.498   5.641  0.7323  0.2112  1.0337
 2139SOL    HW218054   4.395   3.468   5.709  1.7834 -0.6349 -1.3141
 2140SOL     OW18055   4.137   0.082  16.864  0.1909 -0.4373  0.0991
 2140SOL    HW118056   4.091   0.142  16.923  0.1746 -0.3282 -0.0224
 2140SOL    HW218057   4.127   0.002  16.915  0.1974 -0.7131 -0.3358
 2141SOL     OW18058   0.440   4.576  17.659 -0.1987 -0.1035  0.0222
 2141SOL    HW118059   0.518   4.581  17.714 -0.3266  1.6168  0.0404
 2141SOL    HW218060   0.403   4.664  17.664 -0.8900 -0.2414 -2.7485
 2142SOL     OW18061   3.188   4.163   7.300  0.2792 -0.0873  0.1172
 2142SOL    HW118062   3.102   4.166   7.258  1.1323 -1.1383 -1.6890
 2142SOL    HW218063   3.244   4.202   7.233  0.7844 -0.6800  0.1935
 2143SOL     OW18064   3.860   2.137  16.122  0.8581 -0.2648  0.0688
 2143SOL    HW118065   3.776   2.155  16.079  1.2822  0.6000 -0.4027
 2143SOL    HW218066   3.841   2.198  16.193 -3.9146 -0.5611 -0.9337
 2144SOL     OW18067   1.575   1.020   7.946  0.3699 -0.1663  0.3559
 2144SOL    HW118068   1.558   0.969   7.867  0.0163 -1.1975  1.0904
 2144SOL    HW218069   1.661   1.047   7.914  0.9948 -1.7297  0.6802
 2145SOL     OW18070   2.685   1.683   6.519 -0.4947  0.1528 -0.2728
 2145SOL    HW118071   2.591   1.696   6.511 -0.2492  1.3645 -1.2645
 2145SOL    HW218072   2.699   1.728   6.602  2.2513 -2.9489  0.9605
 2146SOL     OW18073   3.304   2.860  15.406 -0.1545  0.1962  0.1308
 2146SOL    HW118074   3.288   2.788  15.467 -1.8703  0.2701 -0.2185
 2146SOL    HW218075   3.341   2.925  15.464  1.7517 -1.2341  0.5043
 2147SOL     OW18076   1.239   4.443   8.921 -0.0898  0.4864 -0.0010
 2147SOL    HW118077   1.301   4.491   8.867 -0.0125  1.8261  1.2730
 2147SOL    HW218078   1.168   4.508   8.923 -0.7238 -0.2056 -0.0813
 2148SOL     OW18079   4.372   3.846   1.158 -0.2018  0.4151  0.1875
 2148SOL    HW118080   4.282   3.874   1.139  0.2200  2.1773  0.7788
 2148SOL    HW218081   4.394   3.905   1.230  2.1923  1.5246 -1.4458
 2149SOL     OW18082   0.376   2.898  15.319 -0.1484 -0.0460 -0.8797
 2149SOL    HW118083   0.433   2.855  15.255  1.7887  0.8071  0.2414
 2149SOL    HW218084   0.441   2.953  15.363 -0.5721 -1.1770  1.1983
 2150SOL     OW18085   4.343   2.184   5.910  1.0268 -0.3010  1.1545
 2150SOL    HW118086   4.262   2.234   5.916 -0.0470 -2.0474  1.2052
 2150SOL    HW218087   4.316   2.126   5.839  2.2612  0.7577 -0.1976
 2151SOL     OW18088   3.310   4.560   0.378 -0.4458  0.4395  0.4829
 2151SOL    HW118089   3.336   4.649   0.354 -0.1561  0.2279  0.0061
 2151SOL    HW218090   3.216   4.564   0.358 -0.1171  0.1077 -1.1977
 2152SOL     OW18091   0.087   1.465   2.722 -0.2061  0.4343  0.0545
 2152SOL    HW118092   0.055   1.482   2.633  1.4764 -0.4830 -0.7178
 2152SOL    HW218093   0.169   1.423   2.699 -0.2001  1.1033 -1.1422
 2153SOL     OW18094   2.166   3.348   5.084 -0.0374 -0.3164  0.1439
 2153SOL    HW118095   2.216   3.427   5.101  0.5870 -0.0502 -2.9533
 2153SOL    HW218096   2.100   3.370   5.019 -0.5864  2.9214  1.7953
 2154SOL     OW18097   0.302   0.575   9.346 -0.0223  0.2395 -0.1189
 2154SOL    HW118098   0.225   0.540   9.302 -0.6372 -1.0784  1.9818
 2154SOL    HW218099   0.257   0.646   9.393  1.3730 -0.2075  1.8976
 2155SOL     OW18100   1.533   4.424   3.456  0.1138  0.6119 -0.2269
 2155SOL    HW118101   1.623   4.397   3.475  0.1677  0.1846 -1.0934
 2155SOL    HW218102   1.511   4.365   3.384  1.3692 -0.1553  0.0115
 2156SOL     OW18103   0.829   4.185   7.405 -0.1380 -0.2006 -0.3103
 2156SOL    HW118104   0.753   4.227   7.366  1.2237  3.7180  1.2944
 2156SOL    HW218105   0.809   4.202   7.497  0.4965  2.8800 -0.7415
 2157SOL     OW18106   4.606   3.820   2.694  0.1356 -0.0059 -0.1492
 2157SOL    HW118107   4.631   3.732   2.723  0.9792  0.2330 -0.1687
 2157SOL    HW218108   4.666   3.839   2.623 -0.3131  0.9108 -0.2776
 2158SOL     OW18109   1.932   1.690   2.842 -0.4420  0.3574 -0.5676
 2158SOL    HW118110   1.935   1.658   2.752 -0.3099  1.7499 -1.0682
 2158SOL    HW218111   1.968   1.616   2.889 -4.5177 -2.5513 -2.0943
 2159SOL     OW18112   0.786   0.151   7.991 -0.3166  0.5249 -0.0839
 2159SOL    HW118113   0.820   0.213   8.056 -1.1670  1.2019 -0.2925
 2159SOL    HW218114   0.869   0.112   7.964 -1.7871 -1.7157 -1.3041
 2160SOL     OW18115   1.357   2.468   2.883 -0.3337  0.4736  0.4297
 2160SOL    HW118116   1.392   2.452   2.796 -1.8987  1.4769 -0.3748
 2160SOL    HW218117   1.441   2.471   2.929  0.0830  0.8541 -0.3700
 2161SOL     OW18118   2.156   3.789   4.577 -0.2559 -0.0623  0.0943
 2161SOL    HW118119   2.139   3.880   4.554  1.1031  0.1546 -0.0425
 2161SOL    HW218120   2.247   3.782   4.547 -0.5025 -1.8519 -0.2612
 2162SOL     OW18121   2.193   1.630   3.846 -0.1803 -0.3743  0.0668
 2162SOL    HW118122   2.207   1.536   3.861  0.7101 -0.8001 -3.4312
 2162SOL    HW218123   2.098   1.630   3.836 -0.0022 -2.4758 -1.8397
 2163SOL     OW18124   0.782   1.772   2.523  0.0467  0.4536  0.5014
 2163SOL    HW118125   0.840   1.773   2.600  0.0873  0.5376  0.4698
 2163SOL    HW218126   0.817   1.693   2.482  0.3933  1.4623 -1.1161
 2164SOL     OW18127   4.352   4.337   4.116 -0.0044  0.4817  0.1198
 2164SOL    HW118128   4.262   4.304   4.117 -0.6207  2.2022  0.4761
 2164SOL    HW218129   4.400   4.287   4.182 -0.2360  0.7464  0.4827
 2165SOL     OW18130   3.190   0.059   1.260 -0.0519  0.0791 -0.0468
 2165SOL    HW118131   3.126   0.128   1.244 -0.1083  0.2770  1.0414
 2165SOL    HW218132   3.161   0.024   1.344 -0.9577  1.6958  0.3058
 2166SOL     OW18133   1.899   1.901   6.458 -0.0555  1.2778 -0.4929
 2166SOL    HW118134   1.954   1.871   6.530  0.8351  1.6142 -1.0401
 2166SOL    HW218135   1.883   1.990   6.488 -0.3080  0.9588  0.3166
 2167SOL     OW18136   1.978   4.202   9.823 -0.0024  0.0362 -0.3068
 2167SOL    HW118137   2.058   4.167   9.782 -0.1552 -1.0366  0.3052
 2167SOL    HW218138   2.007   4.191   9.913 -2.0024 -0.1813  0.2892
 2168SOL     OW18139   4.234   0.996   7.123 -0.1948 -0.0633 -0.1590
 2168SOL    HW118140   4.324   1.002   7.156 -0.9411  0.8136  1.7379
 2168SOL    HW218141   4.249   0.974   7.031 -0.3022 -2.2838  0.3666
 2169SOL     OW18142   0.139   3.194  10.729  0.1526  0.4765 -0.3587
 2169SOL    HW118143   0.226   3.234  10.736 -0.4801  1.5160  1.5707
 2169SOL    HW218144   0.097   3.251  10.664 -0.5732 -0.9411 -1.1453
 2170SOL     OW18145   2.420   1.146   4.175  1.0883 -0.1738 -0.2124
 2170SOL    HW118146   2.409   1.169   4.083  0.7196  0.3173 -0.0460
 2170SOL    HW218147   2.328   1.142   4.202  0.2771 -0.4336 -2.9868
 2171SOL     OW18148   4.056   1.163  17.141 -0.2612  0.1322 -0.5406
 2171SOL    HW118149   4.031   1.196  17.227  1.0685 -0.2191 -0.0119
 2171SOL    HW218150   4.071   1.246  17.097 -1.8396 -0.0425 -1.3853
 2172SOL     OW18151   3.690   0.485   5.750 -0.1695  0.6977  0.1449
 2172SOL    HW118152   3.771   0.463   5.796  0.9080 -1.4738 -2.7554
 2172SOL    HW218153   3.695   0.413   5.687  0.1410  0.4697  0.4307
 2173SOL     OW18154   3.584   3.276   7.234  0.2289  0.0210  0.1977
 2173SOL    HW118155   3.619   3.319   7.312 -2.7358  1.1702  0.8937
 2173SOL    HW218156   3.653   3.298   7.171 -0.3564 -0.7541 -0.7116
 2174SOL     OW18157   0.458   1.789  15.815  0.2718  0.7316  0.7095
 2174SOL    HW118158   0.528   1.835  15.770  0.0995 -1.0654 -1.4542
 2174SOL    HW218159   0.393   1.858  15.828 -1.3554 -1.2665  3.2976
 2175SOL     OW18160   3.800   0.226   3.583  0.1588  0.0182 -0.4371
 2175SOL    HW118161   3.808   0.161   3.653  1.4667 -0.1520 -0.7459
 2175SOL    HW218162   3.826   0.162   3.516  0.0815  0.1203 -0.5642
 2176SOL     OW18163   1.260   2.628   4.064 -0.1162 -0.2851 -0.3372
 2176SOL    HW118164   1.194   2.613   4.132 -0.2636 -0.4095 -0.5079
 2176SOL    HW218165   1.285   2.718   4.084 -0.7000  0.0381 -1.0470
 2177SOL     OW18166   3.175   3.863   7.262 -0.0650 -0.3840 -0.3053
 2177SOL    HW118167   3.127   3.857   7.179 -0.8940  4.5477 -0.2290
 2177SOL    HW218168   3.222   3.943   7.238 -0.2430  0.7611  3.2240
 2178SOL     OW18169   2.973   0.211   1.149 -0.0845 -0.1093  0.1620
 2178SOL    HW118170   2.911   0.143   1.178 -0.2673 -1.2961 -2.9140
 2178SOL    HW218171   2.912   0.283   1.162 -2.5525 -2.0179 -0.6767
 2179SOL     OW18172   2.618   3.897   8.296  0.1288  0.1832  0.6734
 2179SOL    HW118173   2.707   3.901   8.262 -0.3415  0.6751 -0.4934
 2179SOL    HW218174   2.570   3.918   8.216  0.5973  0.3836  0.4433
 2180SOL     OW18175   0.731   3.594   7.754  0.1872  0.0693 -0.3677
 2180SOL    HW118176   0.706   3.541   7.679  2.2242  2.8350 -2.9757
 2180SOL    HW218177   0.793   3.658   7.721  0.7240  0.3454  1.1403
 2181SOL     OW18178   3.649   2.994   6.516  0.0156  0.0099  0.4252
 2181SOL    HW118179   3.587   3.013   6.586  1.3510 -0.0240  1.6215
 2181SOL    HW218180   3.668   3.080   6.478  0.4391 -1.7658 -3.3955
 2182SOL     OW18181   2.532   4.540   8.243  0.0403 -0.1523 -0.2018
 2182SOL    HW118182   2.621   4.509   8.260  0.3451  1.3912  0.9991
 2182SOL    HW218183   2.494   4.516   8.328  0.3378 -0.3442 -0.1240
 2183SOL     OW18184   2.820   3.298   8.754  0.3633 -0.2398 -0.3778
 2183SOL    HW118185   2.870   3.304   8.835 -1.0432  2.0564  0.2897
 2183SOL    HW218186   2.736   3.320   8.792 -0.1112  0.2599 -1.7238
 2184SOL     OW18187   1.773   2.004   1.699  0.2767 -0.0600  0.1115
 2184SOL    HW118188   1.868   2.006   1.705  0.3360  0.4193 -0.9238
 2184SOL    HW218189   1.744   1.985   1.788  1.2769 -3.2493 -0.2410
 2185SOL     OW18190   2.280   0.500   4.130 -0.5711 -0.2368  0.0317
 2185SOL    HW118191   2.280   0.464   4.219  2.2724 -1.4087 -0.4148
 2185SOL    HW218192   2.253   0.592   4.135 -0.5958 -0.2458  0.0652
 2186SOL     OW18193   1.233   3.892   8.095 -0.1496  0.0655  0.4578
 2186SOL    HW118194   1.215   3.986   8.094  0.9652  0.2806  0.0449
 2186SOL    HW218195   1.153   3.851   8.063 -0.9067  0.3184  2.0234
 2187SOL     OW18196   3.827   0.053   3.783 -0.0836  0.0765 -0.5828
 2187SOL    HW118197   3.831   0.076   3.876 -2.1128 -1.0641 -0.2033
 2187SOL    HW218198   3.891   4.719   3.777  0.4667  0.5691 -0.4249
 2188SOL     OW18199   0.241   0.256   4.641 -0.1843  0.1750  0.0846
 2188SOL    HW118200   0.191   0.336   4.624  1.7137  1.5324  0.9616
 2188SOL    HW218201   0.197   0.186   4.592  1.0612  1.2659 -2.5689
 2189SOL     OW18202   3.039   1.147   4.824 -0.1097  0.1876  0.4268
 2189SOL    HW118203   3.014   1.111   4.739  1.0506 -2.1610  1.0953
 2189SOL    HW218204   3.111   1.093   4.856  0.7923  1.3935  0.4338
 2190SOL     OW18205   2.632   1.937  17.320 -0.1967  0.2369 -0.2644
 2190SOL    HW118206   2.598   2.026  17.316 -0.2171  0.1955 -1.0934
 2190SOL    HW218207   2.559   1.883  17.291  0.9242 -2.4399  1.9264
 2191SOL     OW18208   2.449   2.435   6.675 -0.2965 -0.1351  0.1317
 2191SOL    HW118209   2.468   2.350   6.635  1.0474 -0.2886  1.1110
 2191SOL    HW218210   2.355   2.436   6.693 -0.6000 -1.4947 -1.3355
 2192SOL     OW18211   0.962   3.284   0.992  0.0151  0.5892 -0.1334
 2192SOL    HW118212   0.894   3.324   1.047 -0.5660  2.1963 -1.9950
 2192SOL    HW218213   1.032   3.289   1.057 -0.8236  1.8165  0.6864
 2193SOL     OW18214   0.407   0.822   3.774  0.4360 -0.2755 -0.3465
 2193SOL    HW118215   0.373   0.740   3.739  2.8758 -1.0124 -0.9908
 2193SOL    HW218216   0.469   0.782   3.834  1.2033  1.1875 -0.1664
 2194SOL     OW18217   1.212   4.343   4.593  0.1424 -0.4880  0.5908
 2194SOL    HW118218   1.226   4.408   4.663 -2.2592  0.2379  0.3913
 2194SOL    HW218219   1.158   4.277   4.635 -1.1293 -0.3767 -0.8777
 2195SOL     OW18220   1.087   4.101   5.858 -0.0625  0.1129  0.6441
 2195SOL    HW118221   1.050   4.189   5.846 -2.2482 -0.6933  1.3814
 2195SOL    HW218222   1.154   4.094   5.790  4.3223 -0.0896  4.9515
 2196SOL     OW18223   3.372   4.286   3.703 -0.3223 -0.3581  0.0828
 2196SOL    HW118224   3.399   4.259   3.791  1.1091 -1.3991 -0.6759
 2196SOL    HW218225   3.337   4.209   3.658 -0.1835 -0.5974  0.3756
 2197SOL     OW18226   3.544   1.359   7.187 -0.7636 -0.1126 -0.1613
 2197SOL    HW118227   3.548   1.380   7.280 -0.1822  0.0216 -0.2145
 2197SOL    HW218228   3.575   1.442   7.152 -0.2827 -0.2047  0.0422
 2198SOL     OW18229   0.759   4.721   6.921  0.0927  0.1895 -0.0767
 2198SOL    HW118230   0.760   0.064   6.973 -0.9140  1.4587 -1.9840
 2198SOL    HW218231   0.707   4.658   6.971 -0.7140  1.5872  0.8435
 2199SOL     OW18232   4.279   1.480  17.043  0.2868  0.1150 -0.7353
 2199SOL    HW118233   4.212   1.488  17.110 -0.3838 -0.1031 -1.3684
 2199SOL    HW218234   4.297   1.386  17.039  0.3436  0.0342  1.4822
 2200SOL     OW18235   2.096   2.182   9.985 -0.1269 -0.3342  0.3181
 2200SOL    HW118236   2.088   2.208  10.077 -1.7404  1.7568 -0.4042
 2200SOL    HW218237   2.094   2.265   9.938 -2.1222  0.7579  2.2958
 2201SOL     OW18238   3.853   2.751  13.728 -0.1631 -0.0427 -0.6884
 2201SOL    HW118239   3.888   2.691  13.794 -3.5237 -3.4079 -1.9883
 2201SOL    HW218240   3.930   2.752  13.670 -0.3746 -1.6741 -0.9952
 2202SOL     OW18241   1.630   3.184   2.092 -0.4003  0.2998  0.0686
 2202SOL    HW118242   1.725   3.175   2.090 -0.6759 -2.1870 -1.2046
 2202SOL    HW218243   1.624   3.279   2.095  0.6773  0.3569  0.4484
 2203SOL     OW18244   4.192   1.405   7.245 -0.0244 -0.0983  0.3040
 2203SOL    HW118245   4.209   1.497   7.266 -2.6460  0.6389 -0.8202
 2203SOL    HW218246   4.138   1.379   7.320 -0.3438 -0.7422 -0.1485
 2204SOL     OW18247   1.124   1.898   9.045 -0.0141  0.0970  0.2688
 2204SOL    HW118248   1.209   1.864   9.075 -0.4964 -0.5340  0.9051
 2204SOL    HW218249   1.097   1.832   8.981  1.1294 -0.0519 -0.0643
 2205SOL     OW18250   3.981   3.226   6.324 -0.5259  0.7279 -0.3716
 2205SOL    HW118251   4.043   3.158   6.350 -0.1935 -0.1330 -3.4460
 2205SOL    HW218252   3.987   3.216   6.229 -2.7906 -0.2684 -0.4283
 2206SOL     OW18253   1.012   2.384  10.981  0.2152 -0.3253  0.3492
 2206SOL    HW118254   1.007   2.371  10.886  3.4749 -0.2058  0.1623
 2206SOL    HW218255   1.031   2.478  10.989 -1.7276 -0.0522  1.7630
 2207SOL     OW18256   3.724   3.195   1.281 -0.8740  0.1906 -0.1888
 2207SOL    HW118257   3.687   3.108   1.268 -0.4507 -0.2434  1.5574
 2207SOL    HW218258   3.696   3.224   1.367  0.2139  0.6758  0.0082
 2208SOL     OW18259   2.968   1.863   6.317 -0.0582  0.0867  0.1030
 2208SOL    HW118260   2.890   1.919   6.314  0.0635  0.2183 -0.5473
 2208SOL    HW218261   3.008   1.896   6.398  0.3984 -0.6117  0.1575
 2209SOL     OW18262   0.388   1.944   6.145  0.0244 -0.1508  0.2235
 2209SOL    HW118263   0.314   1.898   6.184 -0.2716  1.3637  1.4366
 2209SOL    HW218264   0.343   1.974   6.066 -0.6130  0.7947  0.9563
 2210SOL     OW18265   3.303   4.512   4.864  0.1727  0.2237  0.0478
 2210SOL    HW118266   3.340   4.538   4.949  0.1289  1.4738 -0.3200
 2210SOL    HW218267   3.327   4.420   4.853  1.9199  0.7612 -0.6403
 2211SOL     OW18268   1.310   0.283   8.880  0.3695  0.0708  0.0849
 2211SOL    HW118269   1.274   0.235   8.954 -0.3695  0.9927  0.3127
 2211SOL    HW218270   1.403   0.282   8.902  0.5909  1.0454 -0.7950
 2212SOL     OW18271   4.337   2.066   7.759  0.6943  0.0225 -0.0555
 2212SOL    HW118272   4.405   2.133   7.746  0.4942 -0.1210 -1.8114
 2212SOL    HW218273   4.361   2.031   7.845  1.6460  0.6526 -0.0582
 2213SOL     OW18274   1.368   0.461   6.714 -0.5015 -0.0268  0.4146
 2213SOL    HW118275   1.441   0.414   6.672  0.1305  0.6397  0.7751
 2213SOL    HW218276   1.398   0.547   6.684  1.3157 -0.7052  0.2752
 2214SOL     OW18277   3.619   2.950   1.256  0.2621  0.1869  0.3282
 2214SOL    HW118278   3.596   2.916   1.343 -1.4163 -0.7263 -0.4676
 2214SOL    HW218279   3.669   2.880   1.214 -1.5225 -0.5624 -0.5893
 2215SOL     OW18280   0.946   1.763  10.850 -0.1528 -0.2154 -0.0798
 2215SOL    HW118281   0.936   1.702  10.778 -2.5419  1.0191 -0.8159
 2215SOL    HW218282   0.928   1.705  10.924  0.9835 -0.5248 -0.0524
 2216SOL     OW18283   0.767   1.684   7.348 -0.4771  0.1751 -0.2313
 2216SOL    HW118284   0.823   1.667   7.272  0.9044 -2.5705  1.3854
 2216SOL    HW218285   0.821   1.752   7.388  1.4063 -1.2438 -0.3491
 2217SOL     OW18286   4.099   2.779   6.660  0.0074  0.0396  0.9180
 2217SOL    HW118287   4.126   2.846   6.597 -2.3554  0.0108 -0.1184
 2217SOL    HW218288   4.005   2.795   6.663  0.2187  1.1967  1.7731
 2218SOL     OW18289   3.270   1.066   4.984  0.3353 -0.2641 -0.2836
 2218SOL    HW118290   3.363   1.085   4.972  0.8566 -1.1888  2.3140
 2218SOL    HW218291   3.251   1.111   5.066 -1.0073  0.6934 -1.1141
 2219SOL     OW18292   3.735   4.570   3.094  0.1148  0.2214  0.3451
 2219SOL    HW118293   3.686   4.586   3.174  0.8325 -2.2947  1.2740
 2219SOL    HW218294   3.825   4.553   3.122  0.1734  2.8477  1.7555
 2220SOL     OW18295   1.324   0.577   3.713 -0.2393  0.1837  0.4064
 2220SOL    HW118296   1.280   0.629   3.646 -0.4026  0.1106  0.4570
 2220SOL    HW218297   1.389   0.642   3.741 -1.1721  1.4663 -0.3689
 2221SOL     OW18298   1.893   4.435  15.935 -0.3571 -0.1130 -0.6759
 2221SOL    HW118299   1.964   4.500  15.933  0.4483 -0.9756 -0.4983
 2221SOL    HW218300   1.837   4.487  15.992  1.0016  2.7322 -1.9275
 2222SOL     OW18301   4.607   4.576   3.869  0.5495 -0.7994  0.2431
 2222SOL    HW118302   4.604   4.606   3.778 -0.9176 -0.8635  0.2750
 2222SOL    HW218303   4.518   4.548   3.891  0.2751  0.7794  1.1399
 2223SOL     OW18304   0.401   2.989   8.822 -0.3041  0.0519 -0.0671
 2223SOL    HW118305   0.478   3.003   8.768  0.8312  3.7127  2.4941
 2223SOL    HW218306   0.333   2.956   8.763  1.2721  1.1031 -2.4469
 2224SOL     OW18307   0.162   2.912   1.166  0.2285 -0.0877  0.2678
 2224SOL    HW118308   0.130   2.942   1.081 -0.9245 -2.7066 -0.2041
 2224SOL    HW218309   0.108   2.835   1.179  2.0084 -1.4655 -0.4632
 2225SOL     OW18310   3.274   4.480   2.631 -0.0860  0.2475 -0.1516
 2225SOL    HW118311   3.352   4.440   2.669 -1.3867 -0.5221  1.7233
 2225SOL    HW218312   3.214   4.476   2.706  1.1018  0.7157  0.8150
 2226SOL     OW18313   2.680   0.059  16.920  0.5388  0.3181 -0.1032
 2226SOL    HW118314   2.681   4.707  16.954 -2.4476  1.4507  2.9625
 2226SOL    HW218315   2.592   0.054  16.882  0.4227  1.7381  0.0109
 2227SOL     OW18316   4.504   1.507   6.923  0.2632  0.4504 -0.1801
 2227SOL    HW118317   4.478   1.449   6.852  0.6129  1.1719 -0.8956
 2227SOL    HW218318   4.593   1.521   6.890 -0.8379  1.4984 -2.7131
 2228SOL     OW18319   0.481   1.021   4.479  0.3240  0.0498 -0.0783
 2228SOL    HW118320   0.537   0.988   4.408  0.8694  1.5179 -0.3357
 2228SOL    HW218321   0.502   0.968   4.557 -1.8699 -0.4831  0.1387
 2229SOL     OW18322   1.350   2.982   5.165  0.2439  0.4606  0.1388
 2229SOL    HW118323   1.379   2.938   5.085  0.6072  1.6712 -0.3801
 2229SOL    HW218324   1.432   3.011   5.203  0.8171  0.4284 -1.0858
 2230SOL     OW18325   0.813   1.307   3.968 -0.1659  0.1564  0.3493
 2230SOL    HW118326   0.894   1.262   3.991 -0.4568 -0.5624 -0.0114
 2230SOL    HW218327   0.751   1.303   4.041 -1.6689  3.3973 -0.7705
 2231SOL     OW18328   0.647   2.792  17.609 -0.2283  0.0316  0.0917
 2231SOL    HW118329   0.725   2.740  17.588  0.4745  1.7329 -1.5755
 2231SOL    HW218330   0.612   2.746  17.685 -1.7142  0.1145 -0.5403
 2232SOL     OW18331   2.392   2.280  16.475  0.1239  0.4624 -0.0704
 2232SOL    HW118332   2.352   2.199  16.506 -1.7502  1.1206 -0.7640
 2232SOL    HW218333   2.405   2.266  16.381  1.4951  0.8032  0.0652
 2233SOL     OW18334   3.809   4.106   4.010 -0.3547 -0.7004  0.6389
 2233SOL    HW118335   3.716   4.095   3.989  0.2494 -2.2588 -1.2356
 2233SOL    HW218336   3.816   4.049   4.086 -1.9760  0.0582  1.3533
 2234SOL     OW18337   2.034   3.418   7.560 -0.0742 -0.2069  0.1182
 2234SOL    HW118338   1.984   3.461   7.491 -0.2593  0.6874  0.8037
 2234SOL    HW218339   2.049   3.482   7.630 -4.9882  1.0438  0.0423
 2235SOL     OW18340   0.752   2.270   6.732  0.1243  0.1794 -0.6199
 2235SOL    HW118341   0.828   2.269   6.791  1.1010 -1.5791 -1.9104
 2235SOL    HW218342   0.762   2.182   6.695 -0.3196  0.3206 -1.0716
 2236SOL     OW18343   3.677   1.723   9.117  0.2178 -0.6453  0.0654
 2236SOL    HW118344   3.695   1.632   9.095 -1.9996 -1.6072  2.1432
 2236SOL    HW218345   3.711   1.743   9.205 -2.4793  0.0439  0.9477
 2237SOL     OW18346   3.994   1.640  14.102  0.8104  0.4067  0.0503
 2237SOL    HW118347   3.986   1.649  14.197  2.8134 -0.5953  0.3115
 2237SOL    HW218348   3.986   1.728  14.065 -0.1246  0.6571  0.8325
 2238SOL     OW18349   3.180   2.958  10.156 -0.4757  0.1871 -0.0004
 2238SOL    HW118350   3.211   2.996  10.238  0.1954  1.7092 -0.9678
 2238SOL    HW218351   3.151   3.033  10.104 -1.9360 -0.4052 -0.0460
 2239SOL     OW18352   4.093   0.396   7.147 -0.1377  0.0233  0.0992
 2239SOL    HW118353   4.128   0.344   7.074 -2.0336  1.6575 -1.9815
 2239SOL    HW218354   4.007   0.354   7.155  0.1504 -0.5549  0.1741
 2240SOL     OW18355   0.788   2.753  14.800 -0.1443  0.2821 -0.7958
 2240SOL    HW118356   0.794   2.715  14.712 -1.6577  1.5914 -1.4745
 2240SOL    HW218357   0.877   2.777  14.826 -0.3539 -0.3461  0.5207
 2241SOL     OW18358   0.742   0.148   3.864 -0.3153 -0.1828  0.2862
 2241SOL    HW118359   0.731   0.086   3.792 -0.1175 -2.4864  2.2664
 2241SOL    HW218360   0.652   0.174   3.885 -1.1675 -1.7684 -1.4236
 2242SOL     OW18361   4.341   3.760   8.614 -0.5804  0.7462 -0.2815
 2242SOL    HW118362   4.336   3.690   8.549 -2.1649 -0.6130  1.2948
 2242SOL    HW218363   4.249   3.768   8.638 -0.2895  0.6535  0.8586
 2243SOL     OW18364   4.028   4.595   6.263  0.6460  0.1870 -0.6745
 2243SOL    HW118365   4.013   4.628   6.351  2.6431 -2.5417  0.7086
 2243SOL    HW218366   4.116   4.632   6.254  0.6562  0.3290  0.0011
 2244SOL     OW18367   2.642   0.779   7.693  0.5206 -0.0076  0.7507
 2244SOL    HW118368   2.710   0.829   7.738  1.4439 -0.6096  0.0168
 2244SOL    HW218369   2.690   0.716   7.640  1.9602  1.3472  0.4665
 2245SOL     OW18370   4.164   1.350   4.004  0.2223 -0.1546 -0.2788
 2245SOL    HW118371   4.209   1.290   3.945 -1.0078 -1.4920  0.1573
 2245SOL    HW218372   4.129   1.293   4.072  0.8532 -0.0687  0.1130
 2246SOL     OW18373   2.153   3.027   3.034 -0.6940 -0.2121 -0.0331
 2246SOL    HW118374   2.213   3.070   3.095  0.4849  1.4971 -2.3917
 2246SOL    HW218375   2.077   3.019   3.091  0.2323 -0.7120  1.1355
 2247SOL     OW18376   3.881   1.604   8.576 -0.3837 -0.4222 -0.0678
 2247SOL    HW118377   3.806   1.580   8.630  1.8976  1.3151  3.8160
 2247SOL    HW218378   3.894   1.699   8.575  1.5957 -0.6712  0.5554
 2248SOL     OW18379   2.971   1.418   4.538  0.3160 -0.3442  0.2894
 2248SOL    HW118380   2.930   1.505   4.540 -0.4874 -0.6665 -2.5835
 2248SOL    HW218381   3.036   1.426   4.608  1.2249  1.8791 -0.8165
 2249SOL     OW18382   1.820   1.255   6.331 -0.0125  0.5906 -0.3495
 2249SOL    HW118383   1.731   1.264   6.297  0.3570  0.4261 -1.3412
 2249SOL    HW218384   1.860   1.338   6.305 -0.2795  1.1649  1.0404
 2250SOL     OW18385   4.594   3.610   1.558  0.3391  0.4764  0.0485
 2250SOL    HW118386   4.575   3.690   1.509  0.1140  0.0926 -0.4888
 2250SOL    HW218387   4.528   3.550   1.523  0.6145 -0.5274  1.2937
 2251SOL     OW18388   4.018   4.151  16.546 -0.2631 -0.1178 -0.1416
 2251SOL    HW118389   4.076   4.091  16.593  1.5612 -0.2104 -2.5388
 2251SOL    HW218390   4.045   4.120  16.460  1.9136  0.3765  0.3521
 2252SOL     OW18391   2.174   2.307   8.507  0.4689  0.1812 -0.6078
 2252SOL    HW118392   2.192   2.217   8.477  0.5534  0.2218 -0.6779
 2252SOL    HW218393   2.169   2.297   8.602  1.2666  1.8957 -0.3968
 2253SOL     OW18394   0.572   0.759   8.364 -0.4958  0.4345 -0.2954
 2253SOL    HW118395   0.511   0.820   8.404  2.0285 -0.1363  4.3876
 2253SOL    HW218396   0.644   0.821   8.353  1.3045 -1.6387 -0.0233
 2254SOL     OW18397   4.559   4.114   0.527  0.0155  0.2966  0.4516
 2254SOL    HW118398   4.526   4.055   0.594  1.3328  0.1250  0.9368
 2254SOL    HW218399   4.585   4.048   0.463  0.3559  0.0111  0.8942
 2255SOL     OW18400   1.360   3.877   7.760 -0.4085 -0.7349 -0.2322
 2255SOL    HW118401   1.344   3.814   7.831  0.0323 -2.1430 -1.3793
 2255SOL    HW218402   1.283   3.867   7.704 -1.6527 -0.7117  1.4355
 2256SOL     OW18403   2.643   0.692   2.957 -0.0553  0.2611 -0.3175
 2256SOL    HW118404   2.650   0.694   3.052  1.5251 -1.4866 -0.4213
 2256SOL    HW218405   2.723   0.644   2.936  1.7038  3.1314 -0.1803
 2257SOL     OW18406   4.431   4.043   4.616  0.2828 -0.1462  0.9406
 2257SOL    HW118407   4.464   4.119   4.664 -0.2597  0.9544 -0.4407
 2257SOL    HW218408   4.507   4.014   4.567 -0.0250 -0.0606  0.4206
 2258SOL     OW18409   4.704   0.950   5.325  0.3297  0.4569  0.3720
 2258SOL    HW118410   0.056   0.966   5.358  0.2566  1.1451  0.2414
 2258SOL    HW218411   4.676   1.037   5.296 -3.0087 -1.8104 -3.1003
 2259SOL     OW18412   1.107   4.180  13.967 -0.8045  0.5903  0.3945
 2259SOL    HW118413   1.017   4.198  13.994 -0.6237  1.8287  0.1839
 2259SOL    HW218414   1.101   4.085  13.955 -0.4902  0.7445 -1.0293
 2260SOL     OW18415   3.803   1.676   3.610 -0.1141 -0.2550 -0.0613
 2260SOL    HW118416   3.854   1.700   3.532  1.5726 -0.7792  0.8826
 2260SOL    HW218417   3.725   1.644   3.564 -0.1991 -0.9821  0.6057
 2261SOL     OW18418   1.788   0.270   5.801 -0.3018  0.1248  0.0615
 2261SOL    HW118419   1.861   0.225   5.760  0.8036  1.8952  0.1078
 2261SOL    HW218420   1.734   0.204   5.844  1.3463  0.2515  2.2935
 2262SOL     OW18421   0.313   2.871   5.554 -0.5234 -0.5283 -0.2890
 2262SOL    HW118422   0.237   2.926   5.571 -0.1417 -0.4245  1.1130
 2262SOL    HW218423   0.361   2.946   5.519 -1.0699 -0.4749 -0.9245
 2263SOL     OW18424   0.088   4.531  10.352 -0.2581  0.1346 -0.3552
 2263SOL    HW118425   0.142   4.471  10.402  1.7386 -0.1101 -2.7986
 2263SOL    HW218426   0.018   4.471  10.326 -0.0050  1.3221 -3.8230
 2264SOL     OW18427   3.528   3.291  17.622  0.2566  0.7757  0.1173
 2264SOL    HW118428   3.585   3.219  17.596  2.6060  1.8648  2.3314
 2264SOL    HW218429   3.473   3.254  17.691  0.7889 -0.3308 -0.0663
 2265SOL     OW18430   3.002   1.146  15.573  0.6974  0.0719  0.2093
 2265SOL    HW118431   3.076   1.090  15.595 -0.9176 -1.6805  1.2634
 2265SOL    HW218432   3.017   1.149  15.479  0.5384 -2.2218  0.1007
 2266SOL     OW18433   4.383   1.196   8.105  0.0341  0.6532 -0.2258
 2266SOL    HW118434   4.296   1.158   8.106  0.5255 -0.3654  2.1434
 2266SOL    HW218435   4.380   1.246   8.023 -1.0100  1.1817  0.1463
 2267SOL     OW18436   0.535   0.723  16.974  0.2811 -0.2786 -0.3542
 2267SOL    HW118437   0.516   0.773  16.895  1.9711  1.5453  0.3771
 2267SOL    HW218438   0.525   0.635  16.936  2.9406 -1.3725  1.4222
 2268SOL     OW18439   4.409   3.124   8.801 -0.8979  0.5716  0.2403
 2268SOL    HW118440   4.502   3.106   8.790 -0.9413  0.3831  0.1735
 2268SOL    HW218441   4.406   3.213   8.768 -0.3558  0.5703  0.1839
 2269SOL     OW18442   2.946   1.302   9.188 -0.2990  0.2899  0.7904
 2269SOL    HW118443   2.902   1.379   9.224  0.0881  0.6441  0.5135
 2269SOL    HW218444   3.014   1.345   9.136 -1.0053 -0.1993 -0.5504
 2270SOL     OW18445   2.827   3.291   7.402  0.4311  0.2096 -0.2784
 2270SOL    HW118446   2.759   3.255   7.345  0.0753  0.9661 -0.3402
 2270SOL    HW218447   2.785   3.279   7.487 -2.6481  3.9472 -1.2880
 2271SOL     OW18448   3.200   2.740   4.673  0.0468 -0.6348  0.2952
 2271SOL    HW118449   3.267   2.703   4.731  1.0370 -0.3080 -0.6413
 2271SOL    HW218450   3.121   2.697   4.707 -0.5113  0.1030 -0.0976
 2272SOL     OW18451   0.617   0.275   4.782  0.2948  0.1766 -0.3479
 2272SOL    HW118452   0.655   0.198   4.741  0.4966  0.2662 -0.3324
 2272SOL    HW218453   0.641   0.352   4.731  1.5896 -0.2537 -0.3803
 2273SOL     OW18454   4.690   4.687   1.933 -0.0491  0.6184 -0.3499
 2273SOL    HW118455   4.598   4.662   1.940 -0.1404  0.6046 -1.4865
 2273SOL    HW218456   4.694   0.021   1.869 -0.0628  1.0155  0.0967
 2274SOL     OW18457   0.061   4.083   3.058  0.0385 -0.5017 -0.2528
 2274SOL    HW118458   0.135   4.048   3.009  1.1188  1.1426  0.2109
 2274SOL    HW218459   4.728   4.049   3.003 -0.8475  1.9059 -0.6070
 2275SOL     OW18460   3.672   3.286  10.524  0.1516  0.1085  0.5032
 2275SOL    HW118461   3.704   3.202  10.491 -0.6544 -0.5413  1.3886
 2275SOL    HW218462   3.748   3.344  10.527  1.0640 -1.2188  2.8380
 2276SOL     OW18463   0.141   3.147   1.955 -0.1002 -0.3119 -0.3575
 2276SOL    HW118464   0.165   3.239   1.946  0.3092 -0.3160  0.6338
 2276SOL    HW218465   0.184   3.133   2.040 -0.2588 -0.2359 -0.2645
 2277SOL     OW18466   2.172   3.150   4.602  0.4858 -0.3637  0.2291
 2277SOL    HW118467   2.199   3.140   4.693 -0.3662  0.0323  0.5333
 2277SOL    HW218468   2.107   3.217   4.622  1.0043 -0.8069  3.4840
 2278SOL     OW18469   1.099   3.856  14.695 -0.0193  0.1947 -0.4155
 2278SOL    HW118470   1.036   3.784  14.696  1.2318 -0.9148  0.2439
 2278SOL    HW218471   1.150   3.845  14.776 -1.7232 -2.0444  0.3581
 2279SOL     OW18472   1.241   2.741  12.146 -0.0569 -0.0154 -0.1633
 2279SOL    HW118473   1.287   2.757  12.064 -0.1314 -1.6016 -0.5183
 2279SOL    HW218474   1.221   2.648  12.145  1.2499 -0.3059 -0.2055
 2280SOL     OW18475   2.668   0.641  13.068  0.1486  0.4983  0.2731
 2280SOL    HW118476   2.758   0.614  13.050 -0.0492 -1.1533  1.7313
 2280SOL    HW218477   2.642   0.669  12.980 -1.1377 -0.0436  0.4723
 2281SOL     OW18478   2.660   4.603  15.875 -0.0708  0.3884 -0.3117
 2281SOL    HW118479   2.716   4.643  15.942 -0.6422  1.5526 -0.5350
 2281SOL    HW218480   2.646   4.671  15.809  1.7866  2.2660  1.2606
 2282SOL     OW18481   4.267   2.844   2.024  0.0404 -0.3042 -0.2238
 2282SOL    HW118482   4.339   2.836   1.961  1.1281  0.1597  0.9656
 2282SOL    HW218483   4.293   2.924   2.070  0.5624 -1.3240  1.2364
 2283SOL     OW18484   0.408   3.686   4.784 -0.5026 -0.2529  0.1593
 2283SOL    HW118485   0.373   3.658   4.869 -1.8903 -2.2681 -1.0760
 2283SOL    HW218486   0.362   3.629   4.723 -1.3571 -0.6245  1.1429
 2284SOL     OW18487   0.977   1.899   3.001 -0.0469 -0.6156  0.4298
 2284SOL    HW118488   1.034   1.962   2.958 -0.7978 -0.1592  0.1111
 2284SOL    HW218489   1.027   1.817   2.996 -0.0580 -0.6260  0.4977
 2285SOL     OW18490   2.487   1.652  11.096  0.0625  0.9501 -0.3080
 2285SOL    HW118491   2.458   1.626  11.184  0.5237  1.8169  0.1016
 2285SOL    HW218492   2.543   1.728  11.113  0.3263  0.8599 -0.7971
 2286SOL     OW18493   3.999   2.964   7.278  0.2731 -0.2750 -0.6219
 2286SOL    HW118494   4.081   2.919   7.259 -0.4658 -1.4430 -1.0370
 2286SOL    HW218495   4.010   3.021   7.201 -2.0537 -0.9678 -1.4844
 2287SOL     OW18496   3.172   4.030  17.080  0.2681 -0.3846  0.0306
 2287SOL    HW118497   3.233   3.961  17.108 -0.4721 -1.2686 -0.5197
 2287SOL    HW218498   3.160   4.077  17.162 -0.7142  3.6431 -2.4226
 2288SOL     OW18499   1.429   0.148   5.729 -0.2170 -0.4402 -0.2650
 2288SOL    HW118500   1.346   0.178   5.690  0.2938 -0.7853 -1.6397
 2288SOL    HW218501   1.491   0.176   5.661  0.1217 -1.1631 -0.2532
 2289SOL     OW18502   3.902   3.459  12.584  0.3730  0.4991  0.1342
 2289SOL    HW118503   3.943   3.439  12.499 -0.6234 -0.1984 -0.1804
 2289SOL    HW218504   3.905   3.373  12.626 -0.1405  0.9334  1.0498
 2290SOL     OW18505   2.377   2.658   2.534 -0.2492 -0.5736 -0.2285
 2290SOL    HW118506   2.454   2.613   2.567 -1.1378 -1.6503  0.3530
 2290SOL    HW218507   2.303   2.615   2.577 -1.8774 -0.5579 -3.0389
 2291SOL     OW18508   0.939   4.253   8.997  0.1916  0.8754 -0.4982
 2291SOL    HW118509   0.849   4.285   9.008 -0.7528 -2.3519  1.1530
 2291SOL    HW218510   0.956   4.300   8.915  0.6826  0.0765 -0.8535
 2292SOL     OW18511   0.263   1.221   4.023 -0.3497 -0.0436 -0.0930
 2292SOL    HW118512   0.286   1.295   3.967  1.1309 -1.5943 -1.5556
 2292SOL    HW218513   0.188   1.192   3.972  1.0946  0.4919 -2.5281
 2293SOL     OW18514   4.685   2.953  15.426  0.4674  0.3772  0.5360
 2293SOL    HW118515   4.718   3.028  15.376  0.4074 -1.2783 -2.0037
 2293SOL    HW218516   4.589   2.958  15.420  0.3597 -1.4175  0.5500
 2294SOL     OW18517   3.983   4.469   3.109 -0.1495  0.5085  0.3783
 2294SOL    HW118518   4.076   4.485   3.097 -0.0936  1.3132  1.9147
 2294SOL    HW218519   3.987   4.404   3.179  0.5119 -1.1522 -1.1943
 2295SOL     OW18520   0.721   4.504   5.651  0.3734  0.1238 -0.3836
 2295SOL    HW118521   0.797   4.560   5.668  0.3712 -0.1457  0.5231
 2295SOL    HW218522   0.659   4.575   5.633  1.8328  1.8712  1.4508
 2296SOL     OW18523   2.035   1.451   6.703  0.0408 -0.3703 -0.7400
 2296SOL    HW118524   1.956   1.505   6.703  0.6898  0.5828 -0.7359
 2296SOL    HW218525   2.000   1.366   6.676  0.8912 -0.1666 -2.4779
 2297SOL     OW18526   0.698   1.911   7.000  0.5412  0.4702  0.4664
 2297SOL    HW118527   0.675   1.989   6.949 -1.2053 -0.2320  0.1721
 2297SOL    HW218528   0.734   1.948   7.080  1.0162  1.0441 -0.0131
 2298SOL     OW18529   1.682   4.233   4.933 -0.0793 -0.1934 -0.7927
 2298SOL    HW118530   1.589   4.240   4.911 -0.7994  1.6677  2.7096
 2298SOL    HW218531   1.664   4.165   4.998  0.3756  1.0948  0.6950
 2299SOL     OW18532   2.197   0.569   2.663  0.5238 -0.0652 -0.2038
 2299SOL    HW118533   2.125   0.612   2.707 -0.1502  0.6775 -2.0145
 2299SOL    HW218534   2.268   0.572   2.727 -0.5504  0.8496  0.9387
 2300SOL     OW18535   1.024   3.624   9.049  0.2028  0.0862 -0.0068
 2300SOL    HW118536   0.985   3.618   8.962 -1.3481  1.6258  0.5740
 2300SOL    HW218537   0.937   3.618   9.090  0.2176  0.1540  0.0344
 2301SOL     OW18538   3.378   0.889   1.527  0.5730  0.1971 -0.3710
 2301SOL    HW118539   3.375   0.903   1.622  0.3134 -1.1674 -0.1778
 2301SOL    HW218540   3.470   0.901   1.505  0.7733 -0.3549  0.1652
 2302SOL     OW18541   0.322   2.096   7.917  0.0902 -0.0124  0.5055
 2302SOL    HW118542   0.302   2.189   7.927  0.9272  0.3092 -0.7407
 2302SOL    HW218543   0.327   2.054   8.003  0.1007 -1.7042 -0.3117
 2303SOL     OW18544   0.476   4.171  14.493 -0.0336  0.4008  0.0055
 2303SOL    HW118545   0.553   4.118  14.511  1.3576  1.8214 -1.7809
 2303SOL    HW218546   0.486   4.241  14.557  0.8605  0.4805 -0.2252
 2304SOL     OW18547   3.552   2.160  16.405 -0.7790  0.1945  0.6294
 2304SOL    HW118548   3.502   2.122  16.477  0.2802  2.7215  2.6884
 2304SOL    HW218549   3.614   2.087  16.398 -0.0863  0.9810 -1.4122
 2305SOL     OW18550   4.558   0.084   5.879  0.3689 -0.4442  0.1413
 2305SOL    HW118551   4.547   0.006   5.933 -1.1282 -0.2672  0.1134
 2305SOL    HW218552   4.609   0.042   5.810  0.6586  0.7980 -0.4027
 2306SOL     OW18553   3.713   2.064  15.408  0.0074  0.0970 -0.1114
 2306SOL    HW118554   3.729   1.995  15.472 -1.2391  0.2259  0.3432
 2306SOL    HW218555   3.789   2.057  15.351  2.8651  0.9391  3.6081
 2307SOL     OW18556   2.332   1.078   4.880 -0.3216 -0.4887 -0.0226
 2307SOL    HW118557   2.263   1.033   4.928  1.1113 -2.1398  0.4721
 2307SOL    HW218558   2.373   1.004   4.836  1.7180  2.3914 -2.9880
 2308SOL     OW18559   0.855   4.718   4.083  0.3461  0.7742  0.1144
 2308SOL    HW118560   0.841   0.055   4.024  0.4173  0.3259 -0.4707
 2308SOL    HW218561   0.868   0.021   4.169  2.3071 -0.0090  0.1709
 2309SOL     OW18562   4.303   4.487   8.091 -0.0854 -0.1295  0.3832
 2309SOL    HW118563   4.211   4.468   8.106 -0.0799  0.7328  1.5333
 2309SOL    HW218564   4.296   4.523   8.003 -0.1091 -0.0886  0.4016
 2310SOL     OW18565   0.285   2.302   8.344  0.5041 -0.3984  0.0117
 2310SOL    HW118566   0.258   2.277   8.256  0.6940  1.3262 -0.5417
 2310SOL    HW218567   0.227   2.378   8.345  2.2430  0.9641 -1.6114
 2311SOL     OW18568   1.280   0.871  13.557  0.5141 -0.9457  0.5201
 2311SOL    HW118569   1.350   0.843  13.498 -0.3304 -1.3573 -0.2883
 2311SOL    HW218570   1.212   0.891  13.492  1.6479  0.8950 -0.1107
 2312SOL     OW18571   1.235   4.537   4.776  0.6141 -0.1026 -0.4628
 2312SOL    HW118572   1.246   4.522   4.869 -1.4530 -0.3064 -0.2510
 2312SOL    HW218573   1.309   4.591   4.748  0.7327  0.0731  0.2023
 2313SOL     OW18574   2.497   2.639   5.560 -0.2501 -0.6171  0.0806
 2313SOL    HW118575   2.453   2.698   5.621 -0.8315  0.8019 -1.7308
 2313SOL    HW218576   2.585   2.637   5.600  0.0543 -1.7218 -0.6466
 2314SOL     OW18577   0.353   2.314   4.843 -0.9710 -0.1825 -0.6607
 2314SOL    HW118578   0.302   2.233   4.846  0.6733 -0.9947  4.7239
 2314SOL    HW218579   0.396   2.318   4.929 -2.2066 -0.8607 -0.0191
 2315SOL     OW18580   1.658   0.628   3.455  0.0394  0.1283  0.1740
 2315SOL    HW118581   1.681   0.706   3.506 -0.8049  2.0076 -2.3534
 2315SOL    HW218582   1.608   0.579   3.521  0.4276  0.1374  0.4755
 2316SOL     OW18583   3.309   4.211   6.680  0.1223 -0.1697 -0.0712
 2316SOL    HW118584   3.388   4.263   6.694 -0.5896  1.4395 -2.0707
 2316SOL    HW218585   3.269   4.252   6.604 -2.1550  1.4116  1.9909
 2317SOL     OW18586   1.983   3.212   3.507 -0.1607  0.3248  0.5133
 2317SOL    HW118587   2.010   3.260   3.585  2.1522  0.4058 -0.3425
 2317SOL    HW218588   1.993   3.280   3.441  0.3009  0.8309  1.1036
 2318SOL     OW18589   3.458   0.895   5.686  0.6792  0.1773 -0.3425
 2318SOL    HW118590   3.462   0.817   5.631 -1.3451  0.7861 -1.3519
 2318SOL    HW218591   3.543   0.894   5.729  1.1537 -0.7525 -1.3097
 2319SOL     OW18592   3.227   3.497   0.076  0.3085  0.4292 -0.2433
 2319SOL    HW118593   3.179   3.577   0.054  0.3586  0.2849 -0.8682
 2319SOL    HW218594   3.301   3.537   0.123  0.5739  0.1309 -0.4133
 2320SOL     OW18595   1.485   2.141   9.382 -0.4578  0.3035  0.2141
 2320SOL    HW118596   1.413   2.184   9.335 -0.8107  0.6803  1.1055
 2320SOL    HW218597   1.492   2.060   9.331 -2.0845  0.4221 -0.1775
 2321SOL     OW18598   3.421   4.217  13.948 -0.0267  0.5293  0.4360
 2321SOL    HW118599   3.365   4.187  13.876  1.5714 -0.5494 -0.3640
 2321SOL    HW218600   3.438   4.308  13.924  0.7295  0.3759  0.3984
 2322SOL     OW18601   2.994   2.010  14.309  0.2483 -0.0800 -0.1262
 2322SOL    HW118602   3.002   1.917  14.287 -1.6754 -0.1918 -0.3638
 2322SOL    HW218603   3.078   2.050  14.286  0.6112 -2.0831 -2.3210
 2323SOL     OW18604   2.373   1.365   0.658  0.0564 -0.1963  0.5044
 2323SOL    HW118605   2.361   1.388   0.566 -0.2001  2.1767  1.1283
 2323SOL    HW218606   2.423   1.284   0.653  2.2076  1.0848  1.1655
 2324SOL     OW18607   3.756   0.986   7.639 -0.0400  0.1184 -0.1696
 2324SOL    HW118608   3.749   1.001   7.544  0.6669  2.4983  0.1644
 2324SOL    HW218609   3.839   0.938   7.642 -0.2272 -0.1088  1.3562
 2325SOL     OW18610   2.997   1.387   6.213 -0.6694 -0.3391  0.1089
 2325SOL    HW118611   3.078   1.375   6.263  0.1858 -2.0080 -1.6752
 2325SOL    HW218612   2.964   1.467   6.255 -2.2107 -1.1344  0.4061
 2326SOL     OW18613   3.907   3.557   1.831 -0.1557  0.2190 -0.2923
 2326SOL    HW118614   3.981   3.519   1.785  0.0383 -0.1247  0.2993
 2326SOL    HW218615   3.952   3.622   1.886 -0.8897  1.7537 -1.4883
 2327SOL     OW18616   4.431   0.570   2.125 -0.9293 -0.0770  0.1759
 2327SOL    HW118617   4.426   0.650   2.073  1.3999  1.3749  2.1857
 2327SOL    HW218618   4.389   0.593   2.208 -0.2152  0.0896  0.4923
 2328SOL     OW18619   2.478   3.869   7.498  0.4123  0.0940 -0.3900
 2328SOL    HW118620   2.424   3.850   7.574 -0.8349  2.9911 -0.5525
 2328SOL    HW218621   2.567   3.865   7.534 -0.7486 -0.7056  2.4242
 2329SOL     OW18622   2.465   0.337   7.122 -0.1987  0.2331 -0.1223
 2329SOL    HW118623   2.383   0.377   7.096 -0.4147  0.6560  1.2028
 2329SOL    HW218624   2.503   0.309   7.039 -0.7139 -1.0732  0.0873
 2330SOL     OW18625   0.176   1.996  14.706  0.1147  0.7127 -0.0945
 2330SOL    HW118626   0.108   1.970  14.644  0.8743 -0.4349 -0.4500
 2330SOL    HW218627   0.123   2.015  14.783 -1.2459 -0.7386 -0.6634
 2331SOL     OW18628   2.545   3.814   0.083  0.1971  0.2397 -0.2983
 2331SOL    HW118629   2.636   3.833   0.058 -0.2915  2.9581  0.0237
 2331SOL    HW218630   2.527   3.879   0.151 -0.6222  1.9206 -2.1218
 2332SOL     OW18631   1.415   0.392   7.769  0.0614  0.3053 -0.1998
 2332SOL    HW118632   1.400   0.471   7.717 -3.6934 -0.1341  0.2447
 2332SOL    HW218633   1.329   0.382   7.809  0.0899 -1.1444 -0.4873
 2333SOL     OW18634   2.031   1.409  11.098  0.1083 -0.4331  0.3068
 2333SOL    HW118635   2.104   1.363  11.138  0.7325 -1.2702 -1.8156
 2333SOL    HW218636   1.964   1.341  11.097  2.5630 -2.8168 -0.6356
 2334SOL     OW18637   0.980   1.376   8.436 -0.7518  0.2854 -0.1479
 2334SOL    HW118638   0.914   1.367   8.504  0.4695  0.2346  1.0268
 2334SOL    HW218639   0.973   1.291   8.393  1.9400  0.7790 -1.6254
 2335SOL     OW18640   2.791   0.926   8.015  0.4576 -0.5979 -0.0919
 2335SOL    HW118641   2.845   0.888   7.946  0.9210  0.1932 -0.1757
 2335SOL    HW218642   2.718   0.866   8.005  0.2740 -0.6916  1.9175
 2336SOL     OW18643   1.569   3.717   8.987 -0.1495  0.7377  0.5037
 2336SOL    HW118644   1.502   3.717   8.919 -1.1223 -2.3071  1.4388
 2336SOL    HW218645   1.559   3.805   9.023 -0.3448  0.8302  0.2262
 2337SOL     OW18646   0.379   4.584   7.856  0.0810  0.0999  0.5554
 2337SOL    HW118647   0.450   4.566   7.917 -0.6421 -0.8687  1.1115
 2337SOL    HW218648   0.438   4.636   7.800  0.4220  3.4575  3.9983
 2338SOL     OW18649   0.999   3.241   9.045  0.0823  0.1027  0.0488
 2338SOL    HW118650   0.990   3.303   9.117  2.6146  0.4533  0.0595
 2338SOL    HW218651   1.050   3.172   9.088  0.1191 -0.3438 -0.7022
 2339SOL     OW18652   1.222   0.014  10.529 -0.3707 -0.5218 -0.2804
 2339SOL    HW118653   1.193   4.664  10.555  0.1577 -0.4451  0.5739
 2339SOL    HW218654   1.300   0.034  10.581  1.7780  0.5396 -3.8787
 2340SOL     OW18655   3.214   0.222  10.838 -0.3114  0.0811  0.2746
 2340SOL    HW118656   3.220   0.305  10.791  2.5989  0.0305  0.5697
 2340SOL    HW218657   3.131   0.181  10.813 -0.2359  0.7760 -1.0953
 2341SOL     OW18658   2.743   1.811   9.825  0.2042 -0.2292 -0.0031
 2341SOL    HW118659   2.674   1.864   9.864 -0.1681 -2.7934  2.8616
 2341SOL    HW218660   2.797   1.805   9.904 -1.1359 -0.0945  0.9326
 2342SOL     OW18661   2.998   2.494  14.516  0.0573  0.1096  0.9778
 2342SOL    HW118662   3.043   2.547  14.450 -2.8363 -1.6394 -2.3971
 2342SOL    HW218663   2.919   2.491  14.463  0.8930 -0.1950 -0.2349
 2343SOL     OW18664   2.258   3.735   5.493 -0.0035 -0.0010 -0.4423
 2343SOL    HW118665   2.228   3.731   5.584 -0.5230  0.4091 -0.6006
 2343SOL    HW218666   2.265   3.645   5.460 -0.4699  0.3820 -1.5790
 2344SOL     OW18667   1.991   3.477   9.420 -0.6937 -0.1926  0.5400
 2344SOL    HW118668   2.001   3.543   9.351 -0.3782 -0.9365 -0.1157
 2344SOL    HW218669   1.964   3.401   9.368  1.5510 -0.5427 -0.1340
 2345SOL     OW18670   1.729   1.797   1.544 -0.1787 -0.1631 -0.2640
 2345SOL    HW118671   1.740   1.880   1.589  0.6443 -0.4289  0.0299
 2345SOL    HW218672   1.655   1.823   1.489  0.0192 -1.4704 -1.1637
 2346SOL     OW18673   4.226   4.179  12.146 -0.0700 -0.3948  0.0875
 2346SOL    HW118674   4.268   4.156  12.229 -0.0004  1.1287  0.4734
 2346SOL    HW218675   4.268   4.260  12.118 -1.4286  1.1079  2.3141
 2347SOL     OW18676   0.351   1.388   9.087 -0.1984  0.0531 -0.2008
 2347SOL    HW118677   0.280   1.402   9.149 -1.8097 -1.7474 -1.6512
 2347SOL    HW218678   0.313   1.376   9.000 -1.9344  0.0904  0.5608
 2348SOL     OW18679   1.977   1.855  11.292  0.4653 -0.4923 -0.1555
 2348SOL    HW118680   2.013   1.914  11.225  0.9663 -0.7325 -0.1009
 2348SOL    HW218681   1.893   1.899  11.307  0.5108 -0.1136 -0.9662
 2349SOL     OW18682   0.360   4.716   7.575  0.5458 -1.3864  0.6433
 2349SOL    HW118683   0.415   4.704   7.497 -0.8012  2.0343 -0.8032
 2349SOL    HW218684   0.426   0.025   7.627 -1.8769  1.8534  0.8240
 2350SOL     OW18685   3.720   1.518   9.503  0.2459 -0.1174 -0.2719
 2350SOL    HW118686   3.653   1.534   9.569  1.0452 -1.0527  0.7691
 2350SOL    HW218687   3.702   1.425   9.491 -2.4191  0.4633 -0.7131
 2351SOL     OW18688   2.450   1.026   7.833  0.0034  0.0447  0.5700
 2351SOL    HW118689   2.442   1.060   7.744  1.1609 -0.1177  0.4075
 2351SOL    HW218690   2.514   1.086   7.870 -1.6635  0.8655  2.1377
 2352SOL     OW18691   3.275   0.845   7.397  0.1565 -0.7301  0.0497
 2352SOL    HW118692   3.313   0.768   7.355 -0.3963 -0.2952 -1.2327
 2352SOL    HW218693   3.198   0.852   7.341 -0.8817 -0.3202  1.5519
 2353SOL     OW18694   4.399   4.328   0.546 -0.5256 -0.0304 -0.2427
 2353SOL    HW118695   4.468   4.266   0.521  0.3335  0.9358 -0.2580
 2353SOL    HW218696   4.426   4.349   0.636  2.2423  0.6426 -1.2412
 2354SOL     OW18697   0.451   1.737   9.166  0.1443  0.1130  0.4270
 2354SOL    HW118698   0.359   1.737   9.191 -0.0673 -1.2841 -0.3867
 2354SOL    HW218699   0.494   1.748   9.251  0.9223 -0.2212  0.0744
 2355SOL     OW18700   2.315   0.934   6.734 -0.2054  0.2930  0.6190
 2355SOL    HW118701   2.307   0.850   6.690  1.0595  1.9433 -2.7671
 2355SOL    HW218702   2.330   0.917   6.827 -0.9219 -2.3214  0.2449
 2356SOL     OW18703   4.348   2.248   6.316 -0.8193 -0.3857  0.7676
 2356SOL    HW118704   4.263   2.275   6.281 -0.0519  1.6233  0.4787
 2356SOL    HW218705   4.361   2.317   6.381 -1.8521 -2.1314  2.8197
 2357SOL     OW18706   1.677   4.105   6.506  0.4370 -0.1159  0.3422
 2357SOL    HW118707   1.701   4.193   6.476 -0.5117 -0.5840 -1.8119
 2357SOL    HW218708   1.652   4.061   6.424  1.5189  0.0216 -0.0625
 2358SOL     OW18709   1.088   3.520   3.733  0.1279 -0.9921 -0.4566
 2358SOL    HW118710   1.138   3.444   3.703  0.3513 -0.9221 -0.2653
 2358SOL    HW218711   1.000   3.497   3.706 -0.0770 -1.8520  0.9139
 2359SOL     OW18712   3.792   2.527   6.000  0.2238 -0.3534 -0.0510
 2359SOL    HW118713   3.762   2.618   5.992 -1.9239 -1.1057 -0.5029
 2359SOL    HW218714   3.830   2.543   6.086 -0.4117  0.2012  0.1324
 2360SOL     OW18715   0.049   2.040   7.703  0.5346 -0.3687 -0.4929
 2360SOL    HW118716   4.709   2.011   7.654  0.2206  0.9926 -0.8023
 2360SOL    HW218717   0.058   1.969   7.766  1.6603  1.0320  0.9269
 2361SOL     OW18718   0.335   1.866   2.446 -0.1443  0.5132 -0.0265
 2361SOL    HW118719   0.252   1.837   2.484 -0.4209  1.4857  0.1105
 2361SOL    HW218720   0.360   1.939   2.502  0.2971 -0.0474  0.4944
 2362SOL     OW18721   1.059   3.392   8.807  0.0230  0.1275 -0.0325
 2362SOL    HW118722   1.022   3.345   8.882  0.4754  0.6255  0.4997
 2362SOL    HW218723   0.993   3.369   8.742 -0.9109 -2.0125  1.6787
 2363SOL     OW18724   0.472   1.762   4.122  0.4152  0.4441 -0.1595
 2363SOL    HW118725   0.535   1.809   4.178  2.3977 -2.7021  0.2916
 2363SOL    HW218726   0.498   1.785   4.033 -1.2631  0.6901 -0.5811
 2364SOL     OW18727   0.208   3.989   4.764  0.1182 -0.2815  0.6596
 2364SOL    HW118728   0.200   3.957   4.854 -3.7078  0.5656  0.5913
 2364SOL    HW218729   0.192   4.083   4.771  0.5759 -0.1559  0.0326
 2365SOL     OW18730   0.906   1.784   2.209  0.0914 -0.1448 -0.0381
 2365SOL    HW118731   0.872   1.865   2.247 -0.8260  0.1360 -1.4804
 2365SOL    HW218732   0.819   1.757   2.180 -0.5047  0.4940  1.1495
 2366SOL     OW18733   2.857   1.616   6.305  0.3579  0.0215 -0.0234
 2366SOL    HW118734   2.819   1.614   6.392 -0.3154 -1.4601 -0.3510
 2366SOL    HW218735   2.902   1.700   6.299 -0.6834  0.5350 -0.6707
 2367SOL     OW18736   3.034   0.678  11.959 -0.3768 -0.1674  0.3235
 2367SOL    HW118737   2.974   0.700  11.887 -0.0358 -1.3292 -0.3101
 2367SOL    HW218738   3.064   0.590  11.937 -2.6806 -1.8695  4.0880
 2368SOL     OW18739   1.309   1.577   4.506  0.4095  0.1033  0.2857
 2368SOL    HW118740   1.357   1.654   4.536  2.7033 -0.3774 -2.1027
 2368SOL    HW218741   1.363   1.523   4.448  2.4211 -0.5476  2.8139
 2369SOL     OW18742   2.356   3.689   7.036  1.0294  0.3756  0.2546
 2369SOL    HW118743   2.414   3.679   7.112  0.9588  1.5088  0.4536
 2369SOL    HW218744   2.376   3.779   7.010 -2.5427  0.5995 -1.5599
 2370SOL     OW18745   0.006   0.842   6.253 -0.1696  0.1063 -0.3729
 2370SOL    HW118746   0.037   0.863   6.341  1.4158  0.7745 -1.0951
 2370SOL    HW218747   4.673   0.908   6.255 -2.5860 -2.4667  0.2517
 2371SOL     OW18748   2.358   3.799   5.829  0.1651  0.1336  0.6607
 2371SOL    HW118749   2.268   3.768   5.821  0.7306 -1.1740 -0.7045
 2371SOL    HW218750   2.396   3.756   5.906 -1.6793 -0.6244  1.1322
 2372SOL     OW18751   3.393   4.434   1.832 -0.5818 -0.2174  0.6765
 2372SOL    HW118752   3.331   4.367   1.862 -0.2692 -0.4612  0.7783
 2372SOL    HW218753   3.451   4.448   1.906 -0.1865  1.4407  0.0372
 2373SOL     OW18754   2.752   3.887   4.973 -0.0415  0.3842  0.0751
 2373SOL    HW118755   2.674   3.831   4.968  1.8243 -2.3389  1.4660
 2373SOL    HW218756   2.818   3.821   4.955 -1.3044 -1.1594  1.0841
 2374SOL     OW18757   0.469   1.202  11.039 -0.7697  0.6268 -0.2939
 2374SOL    HW118758   0.432   1.118  11.012 -0.1204  0.7643 -1.5742
 2374SOL    HW218759   0.416   1.258  10.982 -0.8150  0.6229 -0.2563
 2375SOL     OW18760   2.591   3.154   1.487  0.5779  0.4990  0.1453
 2375SOL    HW118761   2.499   3.138   1.468  0.8410 -0.2584 -0.4978
 2375SOL    HW218762   2.574   3.246   1.508  1.6366  0.8132 -0.3596
 2376SOL     OW18763   3.537   0.515   2.235  0.4402 -0.1270 -0.1525
 2376SOL    HW118764   3.495   0.550   2.314 -0.3077 -1.7214  0.1588
 2376SOL    HW218765   3.629   0.501   2.261 -0.3575 -4.0716  0.4866
 2377SOL     OW18766   2.872   3.364  11.010 -0.4740  0.2482  0.8556
 2377SOL    HW118767   2.903   3.399  11.093  1.1375 -0.0448  0.3764
 2377SOL    HW218768   2.830   3.445  10.980  0.7380  0.3251 -0.6264
 2378SOL     OW18769   4.236   2.071   1.685  0.1131 -0.6163  0.0054
 2378SOL    HW118770   4.250   2.022   1.766 -0.8750  0.6028  0.8984
 2378SOL    HW218771   4.319   2.068   1.637 -0.3093  0.7142 -0.7820
 2379SOL     OW18772   0.491   3.910   2.738  0.1167  0.0079 -0.0375
 2379SOL    HW118773   0.549   3.981   2.765 -0.5787  0.9930 -1.1484
 2379SOL    HW218774   0.431   3.951   2.675  0.3033  1.1445  0.5212
 2380SOL     OW18775   2.704   1.052   5.609 -0.2193 -0.0212  0.1813
 2380SOL    HW118776   2.780   1.019   5.658  0.3875 -0.4558 -1.0700
 2380SOL    HW218777   2.672   1.111   5.678  1.3443 -1.5111  2.1970
 2381SOL     OW18778   2.093   2.750   5.211  0.0946 -0.0766 -1.4902
 2381SOL    HW118779   2.176   2.735   5.255  0.3208 -0.2191 -1.9711
 2381SOL    HW218780   2.078   2.843   5.228 -2.5703 -0.6388 -0.6765
 2382SOL     OW18781   4.735   3.134   5.990  0.1009  0.1819 -0.3766
 2382SOL    HW118782   0.080   3.183   6.000  0.7746 -0.7636 -1.2436
 2382SOL    HW218783   0.031   3.051   6.025 -2.1371 -0.6654 -0.2795
 2383SOL     OW18784   2.825   1.683   3.155  0.2797 -0.1030 -0.1863
 2383SOL    HW118785   2.864   1.770   3.170 -0.1893 -0.2643  1.9141
 2383SOL    HW218786   2.898   1.644   3.108 -0.9311  0.3760 -2.4532
 2384SOL     OW18787   0.591   3.916   8.652  0.2891 -0.3730 -0.2770
 2384SOL    HW118788   0.655   3.874   8.710  2.5414  1.4161 -1.4697
 2384SOL    HW218789   0.632   3.887   8.571 -0.5551  0.3868 -0.9779
 2385SOL     OW18790   2.098   3.049   7.410 -0.1482  0.1210 -0.4109
 2385SOL    HW118791   2.127   3.049   7.319 -2.0935  0.8190 -1.0347
 2385SOL    HW218792   2.004   3.066   7.413  0.1999  1.9505 -0.3078
 2386SOL     OW18793   3.362   1.354   3.379  0.5201 -0.0114 -0.0895
 2386SOL    HW118794   3.303   1.404   3.323 -0.3766 -1.1320 -0.1356
 2386SOL    HW218795   3.415   1.298   3.322  0.9062  0.4710 -0.2001
 2387SOL     OW18796   3.487   1.011   9.104 -0.5008  0.2841 -0.2366
 2387SOL    HW118797   3.433   0.969   9.171  0.1192 -1.2445 -0.7054
 2387SOL    HW218798   3.431   1.081   9.071 -1.5587 -0.1960  0.5605
 2388SOL     OW18799   0.025   2.048  14.908  0.1087 -0.5602  0.5661
 2388SOL    HW118800   4.668   2.060  14.902  0.0452 -0.7533  1.1213
 2388SOL    HW218801   0.040   2.066  15.001 -1.2248 -2.7341  1.2125
 2389SOL     OW18802   1.420   2.230   6.940  0.0633  0.1705  0.4311
 2389SOL    HW118803   1.481   2.193   7.004 -0.4411 -1.9165 -0.2943
 2389SOL    HW218804   1.444   2.173   6.866 -2.0424  0.5954 -0.5629
 2390SOL     OW18805   1.748   2.474   7.694 -0.0169  0.4167  0.2665
 2390SOL    HW118806   1.765   2.447   7.784  2.2678 -0.9991 -0.5903
 2390SOL    HW218807   1.832   2.457   7.653  0.1077 -0.9696  1.0858
 2391SOL     OW18808   4.726   1.141  17.468 -0.4805 -0.2718 -0.0321
 2391SOL    HW118809   0.066   1.186  17.436 -1.0922  0.0943 -0.9949
 2391SOL    HW218810   0.023   1.087  17.539  0.0135 -0.3111 -0.3015
 2392SOL     OW18811   4.170   4.723   9.390 -0.3916  0.9659  0.1157
 2392SOL    HW118812   4.099   0.047   9.374 -1.4092  0.4525  2.6823
 2392SOL    HW218813   4.142   4.691   9.476 -0.1102  0.6632  0.0947
 2393SOL     OW18814   2.959   1.659   1.377  0.3178  0.8909 -0.3096
 2393SOL    HW118815   2.891   1.698   1.431 -0.3508  0.0938 -0.5750
 2393SOL    HW218816   2.960   1.571   1.414 -0.9443  0.9433 -0.1714
 2394SOL     OW18817   4.263   3.874  12.087 -0.1180  0.1262 -0.1461
 2394SOL    HW118818   4.329   3.847  12.151 -0.7247 -0.6418  0.1603
 2394SOL    HW218819   4.200   3.921  12.142  0.4914  2.4524 -1.4578
 2395SOL     OW18820   4.292   2.882  10.786  0.4464 -0.3158  0.1079
 2395SOL    HW118821   4.309   2.976  10.781 -1.0313  0.1532  3.9657
 2395SOL    HW218822   4.202   2.877  10.754  0.7095 -0.8840 -0.5503
 2396SOL     OW18823   0.956   3.045   6.808 -0.0445 -0.3767 -0.6211
 2396SOL    HW118824   0.913   2.965   6.779 -0.8451  0.0885 -0.7329
 2396SOL    HW218825   0.953   3.095   6.726 -3.1970  1.5663  0.6716
 2397SOL     OW18826   3.429   2.109   1.780 -0.2448  0.0602 -0.1579
 2397SOL    HW118827   3.341   2.092   1.812  0.1324  0.0092  0.8355
 2397SOL    HW218828   3.477   2.039   1.824  0.6286  1.2035  0.7117
 2398SOL     OW18829   3.565   3.865   8.544  0.1827 -0.0939  0.1245
 2398SOL    HW118830   3.524   3.780   8.529  0.8854 -0.2313 -1.0828
 2398SOL    HW218831   3.534   3.884   8.632 -2.9137  1.7260 -1.3787
 2399SOL     OW18832   0.048   1.661  10.760 -0.1913 -0.0670  0.1009
 2399SOL    HW118833   0.000   1.611  10.827 -0.9555  2.0179  1.1031
 2399SOL    HW218834   0.094   1.735  10.799  0.8773 -0.4706 -0.4060
 2400SOL     OW18835   0.380   4.266   6.046 -0.0871  0.1032  0.3078
 2400SOL    HW118836   0.416   4.242   5.960 -1.3022  0.5124 -0.3262
 2400SOL    HW218837   0.322   4.192   6.066 -1.1989  1.1721  1.0063
 2401SOL     OW18838   2.755   4.590   1.616 -0.0820 -0.4462 -0.0135
 2401SOL    HW118839   2.674   4.555   1.577 -0.5549  0.7595 -0.1148
 2401SOL    HW218840   2.784   4.648   1.545  0.9481  0.1187  0.8640
 2402SOL     OW18841   4.729   3.298   5.225 -0.3068 -0.1298 -0.0820
 2402SOL    HW118842   0.077   3.301   5.269  0.1217 -0.0175 -0.9165
 2402SOL    HW218843   4.712   3.389   5.199  0.2982 -0.3408 -1.1874
 2403SOL     OW18844   3.905   4.713   8.579 -0.3035 -0.3581  0.2064
 2403SOL    HW118845   3.921   0.065   8.548 -0.5036 -1.1931 -2.3047
 2403SOL    HW218846   3.973   4.664   8.533 -0.8476 -0.9169  0.0035
 2404SOL     OW18847   4.709   1.492   2.480 -0.2084  0.0202  0.0751
 2404SOL    HW118848   4.701   1.587   2.476 -0.0111  0.0083 -0.7128
 2404SOL    HW218849   0.018   1.491   2.396  0.6287  0.4882  0.5343
 2405SOL     OW18850   3.707   2.610  16.983  0.2673  0.2465  0.2306
 2405SOL    HW118851   3.731   2.700  17.004 -2.1795  1.2793 -1.3539
 2405SOL    HW218852   3.622   2.600  17.026  0.5068  0.2003  0.6858
 2406SOL     OW18853   1.306   3.359  17.527 -0.4375  0.0882  0.3785
 2406SOL    HW118854   1.265   3.337  17.443 -0.7050  0.1512  0.4930
 2406SOL    HW218855   1.261   3.313  17.598 -2.4245  0.7165 -0.4719
 2407SOL     OW18856   3.785   2.721  13.991 -0.1222 -0.0346  0.1338
 2407SOL    HW118857   3.863   2.666  13.991  0.1941  0.4025  0.9653
 2407SOL    HW218858   3.759   2.725  14.083 -1.0601 -0.1235 -0.1345
 2408SOL     OW18859   2.216   3.825   3.857  0.3925  0.1359  0.0572
 2408SOL    HW118860   2.182   3.912   3.881 -0.7271 -0.0290 -0.9614
 2408SOL    HW218861   2.259   3.841   3.773  0.1046  0.6110  0.0013
 2409SOL     OW18862   2.786   3.965  15.453  0.0538  0.2511 -0.2355
 2409SOL    HW118863   2.848   4.034  15.428  1.5865 -1.2163 -0.4822
 2409SOL    HW218864   2.706   4.017  15.459 -0.6338 -0.7240 -1.0463
 2410SOL     OW18865   4.079   1.863   0.841  0.3629  0.0149  0.7465
 2410SOL    HW118866   4.172   1.887   0.843  0.3526  0.2059 -1.7452
 2410SOL    HW218867   4.047   1.850   0.931  0.3872 -0.4995  0.6854
 2411SOL     OW18868   4.391   3.077   7.246  0.5944  0.2255 -0.2012
 2411SOL    HW118869   4.322   3.016   7.221  0.6980  0.6341 -1.4647
 2411SOL    HW218870   4.343   3.160   7.243 -0.0131 -0.0384  2.2202
 2412SOL     OW18871   2.710   3.686   9.540 -0.3969 -0.3826 -0.4136
 2412SOL    HW118872   2.720   3.646   9.453  1.0444 -2.3584  0.6550
 2412SOL    HW218873   2.629   3.637   9.558 -0.8390  0.3076 -0.5435
 2413SOL     OW18874   1.933   2.401   9.533 -0.4009 -0.0002  0.5897
 2413SOL    HW118875   1.845   2.394   9.497 -1.5711  1.3476  3.2067
 2413SOL    HW218876   1.989   2.379   9.458 -0.0049  0.3927  0.7744
 2414SOL     OW18877   0.167   2.468  11.706 -0.3204 -0.6060  0.2124
 2414SOL    HW118878   0.207   2.488  11.790 -0.7086  0.1278  0.2184
 2414SOL    HW218879   0.248   2.453  11.657 -0.9481 -0.8955 -0.7567
 2415SOL     OW18880   1.090   1.519   2.697 -0.0989  0.0167 -0.7143
 2415SOL    HW118881   1.180   1.486   2.692  1.0639  3.2510 -1.0806
 2415SOL    HW218882   1.096   1.591   2.760 -0.0266  1.1168 -1.9726
 2416SOL     OW18883   1.796   0.542  16.221  0.2468  0.0896  0.0981
 2416SOL    HW118884   1.814   0.608  16.154 -0.5271 -0.5239 -0.7124
 2416SOL    HW218885   1.729   0.487  16.181  1.6465 -2.1712  0.9052
 2417SOL     OW18886   3.604   0.393   3.687  0.1329 -0.0984  0.2661
 2417SOL    HW118887   3.691   0.359   3.664 -0.5497 -0.8278 -1.1956
 2417SOL    HW218888   3.592   0.357   3.775 -0.9697 -1.0072 -0.2633
 2418SOL     OW18889   3.806   2.202   7.248  0.1090 -0.3453  0.2242
 2418SOL    HW118890   3.851   2.204   7.332 -0.7413 -0.1402  0.6736
 2418SOL    HW218891   3.785   2.296   7.248  1.1907 -0.0933  1.3875
 2419SOL     OW18892   1.976   2.742   7.475 -0.1402  0.2318  0.2963
 2419SOL    HW118893   1.969   2.804   7.402 -1.5859  1.1603  1.2273
 2419SOL    HW218894   1.969   2.797   7.553  1.6978 -1.2696  1.5043
 2420SOL     OW18895   1.375   0.116   7.394  0.6008  0.2285 -0.3071
 2420SOL    HW118896   1.422   0.195   7.418  0.5284 -1.0365  3.9513
 2420SOL    HW218897   1.407   0.048   7.454 -1.3936  0.1185  0.6345
 2421SOL     OW18898   4.032   2.197   7.918 -0.7052  0.1734  0.9900
 2421SOL    HW118899   4.087   2.120   7.924  1.2524  1.4803 -0.2110
 2421SOL    HW218900   3.970   2.171   7.850  0.3579 -2.2465  0.9524
 2422SOL     OW18901   4.292   4.648   1.079  0.1691  0.0397  0.4167
 2422SOL    HW118902   4.349   4.724   1.088  1.9192 -1.0210 -1.6596
 2422SOL    HW218903   4.204   4.684   1.087  0.2736  1.0751 -3.0053
 2423SOL     OW18904   0.953   1.860   3.284  0.8541  0.1483  0.0728
 2423SOL    HW118905   0.987   1.907   3.207 -1.7479 -2.2076 -2.5121
 2423SOL    HW218906   1.016   1.790   3.298  0.2364 -0.8010 -1.8183
 2424SOL     OW18907   3.698   4.384  10.629 -0.1106 -0.1254 -0.3201
 2424SOL    HW118908   3.717   4.436  10.707  0.9249  0.7782 -1.1826
 2424SOL    HW218909   3.611   4.420  10.612  0.8609  1.2639 -2.2437
 2425SOL     OW18910   3.283   3.375   8.088  0.3543  0.5312 -0.4697
 2425SOL    HW118911   3.318   3.426   8.015  0.9245 -1.1588 -1.3693
 2425SOL    HW218912   3.291   3.448   8.149  0.0870 -0.5255  0.8143
 2426SOL     OW18913   2.027   2.454   1.669 -0.7072  0.3772 -0.1807
 2426SOL    HW118914   1.999   2.413   1.752  0.9316 -1.6270 -0.6152
 2426SOL    HW218915   2.054   2.386   1.607 -1.9998  1.2002 -1.6360
 2427SOL     OW18916   0.481   3.780   8.181 -0.1097  0.0297  0.2005
 2427SOL    HW118917   0.410   3.732   8.223 -1.7631  0.8551 -1.6326
 2427SOL    HW218918   0.450   3.777   8.090  2.3286 -0.9454 -0.5835
 2428SOL     OW18919   0.830   1.786  15.046 -0.4662 -0.3316  0.0452
 2428SOL    HW118920   0.884   1.710  15.022  1.0877  0.0334  2.4157
 2428SOL    HW218921   0.766   1.771  14.977 -1.6315 -0.8684  1.2403
 2429SOL     OW18922   2.411   3.048   8.160 -0.4010 -0.5662  0.1796
 2429SOL    HW118923   2.465   3.002   8.096 -0.1445  1.3202 -0.9592
 2429SOL    HW218924   2.433   3.139   8.140  1.1925 -0.9416  0.2383
 2430SOL     OW18925   0.400   3.175   4.240 -0.7639 -0.0147  0.2090
 2430SOL    HW118926   0.336   3.126   4.292  0.5254 -1.2432  0.6475
 2430SOL    HW218927   0.337   3.245   4.222 -2.3409 -0.8451  2.3928
 2431SOL     OW18928   0.713   3.897   4.992  0.2201 -0.0071 -0.4246
 2431SOL    HW118929   0.700   3.952   5.069  0.0202  0.7810 -1.0200
 2431SOL    HW218930   0.695   3.814   5.036 -1.6051  0.3376 -0.5284
 2432SOL     OW18931   0.523   4.170   7.327  0.4615  0.5123  0.5105
 2432SOL    HW118932   0.549   4.232   7.259  0.3013  0.2763  0.2320
 2432SOL    HW218933   0.451   4.221   7.362  1.4516  2.9874 -1.0452
 2433SOL     OW18934   0.552   2.026   3.645  0.2909 -0.3671  0.3648
 2433SOL    HW118935   0.483   2.002   3.707  0.4575  0.2832  0.8020
 2433SOL    HW218936   0.576   2.115   3.668 -1.6516 -0.4683  2.8673
 2434SOL     OW18937   4.061   1.296   6.992  0.6378 -0.5180  0.3639
 2434SOL    HW118938   4.120   1.370   7.007  0.8830 -1.1538  2.4969
 2434SOL    HW218939   4.086   1.226   7.052  0.9076 -0.7640 -0.0394
 2435SOL     OW18940   1.577   1.037   8.656 -0.5087 -0.7179  0.1783
 2435SOL    HW118941   1.634   0.968   8.622  0.1078 -0.5372  0.8388
 2435SOL    HW218942   1.568   1.082   8.573  0.3990 -0.8666  0.0012
 2436SOL     OW18943   2.702   2.496   3.776 -0.4875 -0.1537  0.0342
 2436SOL    HW118944   2.681   2.558   3.845 -1.8623 -0.2257 -0.3215
 2436SOL    HW218945   2.619   2.475   3.734 -0.0567  0.6398 -1.2435
 2437SOL     OW18946   3.995   1.960  15.976  0.0544 -0.1721 -0.2594
 2437SOL    HW118947   4.076   2.010  15.987 -1.0557  1.4133  0.7601
 2437SOL    HW218948   3.931   2.014  16.021 -0.0126 -0.1443 -0.3890
 2438SOL     OW18949   1.200   4.007   4.304 -0.6375 -0.2239 -0.1708
 2438SOL    HW118950   1.169   4.077   4.362 -0.3383 -0.9100  0.8060
 2438SOL    HW218951   1.180   3.934   4.362 -1.5862  0.4733  0.3935
 2439SOL     OW18952   0.942   0.206   9.742  0.8069 -0.1020  0.0140
 2439SOL    HW118953   0.975   0.187   9.654  0.4321 -0.5699 -0.0265
 2439SOL    HW218954   1.018   0.194   9.800  0.1256  0.4203  1.0185
 2440SOL     OW18955   2.124   2.091  16.580  0.2807  0.0652  0.0153
 2440SOL    HW118956   2.098   2.013  16.630 -2.0326  1.1882  0.5828
 2440SOL    HW218957   2.041   2.139  16.575  0.2100  0.1075  1.5249
 2441SOL     OW18958   2.185   1.760   4.097 -0.2954  0.0915  0.6625
 2441SOL    HW118959   2.202   1.727   4.009  1.8231 -0.9604  1.4664
 2441SOL    HW218960   2.185   1.679   4.149  3.4179  0.2643  0.9535
 2442SOL     OW18961   3.781   2.806   7.309 -0.0006 -0.2667 -0.4232
 2442SOL    HW118962   3.785   2.783   7.402 -1.8253  0.8270 -0.0705
 2442SOL    HW218963   3.864   2.852   7.299  0.6612 -0.4816  4.1979
 2443SOL     OW18964   4.010   1.877   3.841 -0.3610  0.3479  0.7091
 2443SOL    HW118965   3.919   1.899   3.819 -1.0953 -2.3308  1.0513
 2443SOL    HW218966   4.060   1.944   3.794  0.7072  0.2610  1.7278
 2444SOL     OW18967   4.293   3.975   1.473 -0.8262 -0.2527 -0.3172
 2444SOL    HW118968   4.300   4.033   1.550 -3.4929  1.1643 -1.1320
 2444SOL    HW218969   4.289   4.039   1.401  1.3236 -1.2709 -1.3319
 2445SOL     OW18970   1.344   2.475   3.869  0.5393  0.0138  0.3823
 2445SOL    HW118971   1.305   2.523   3.942  1.1630  0.5362  0.3700
 2445SOL    HW218972   1.410   2.543   3.858 -0.7340  0.7477 -2.5830
 2446SOL     OW18973   1.125   0.168   4.798 -0.3260 -0.0265 -0.0036
 2446SOL    HW118974   1.036   0.138   4.818 -0.5472 -0.3263 -1.4764
 2446SOL    HW218975   1.146   0.124   4.716 -1.2497 -1.2358  0.3988
 2447SOL     OW18976   0.780   4.368   5.020  0.0681 -0.2630  0.5293
 2447SOL    HW118977   0.838   4.383   4.945 -0.1122  2.4562  0.9600
 2447SOL    HW218978   0.719   4.303   4.985 -1.3382  1.6903 -0.6632
 2448SOL     OW18979   1.887   1.324   7.733  0.9266 -0.1842 -0.4031
 2448SOL    HW118980   1.810   1.343   7.680  0.6316  0.3864  0.2380
 2448SOL    HW218981   1.903   1.416   7.753 -1.7122 -0.1184  1.3184
 2449SOL     OW18982   3.856   0.574   0.163  0.8144 -0.1357  0.1105
 2449SOL    HW118983   3.816   0.498   0.204  0.9396  1.2708  2.8505
 2449SOL    HW218984   3.821   0.577   0.073  4.0996 -0.5571 -1.1905
 2450SOL     OW18985   3.625   3.690   5.765  0.1449  0.1014 -0.1441
 2450SOL    HW118986   3.573   3.761   5.804  1.2164 -0.3349  2.0439
 2450SOL    HW218987   3.562   3.645   5.708 -0.3568  0.4959  0.0919
 2451SOL     OW18988   2.339   0.793  12.908  0.1447  0.2295  0.7778
 2451SOL    HW118989   2.328   0.714  12.961  0.2546  0.2904  0.8913
 2451SOL    HW218990   2.400   0.851  12.954  1.1951  0.7760 -1.2621
 2452SOL     OW18991   3.201   4.615   5.722  0.8600  0.0425  0.3565
 2452SOL    HW118992   3.127   4.643   5.776  0.3688  0.2890 -0.4448
 2452SOL    HW218993   3.268   4.599   5.789  0.7901 -0.3162  0.3364
 2453SOL     OW18994   2.760   4.008   7.813 -0.2146  0.7558 -0.1210
 2453SOL    HW118995   2.764   4.034   7.721  0.1813 -1.4032 -0.7028
 2453SOL    HW218996   2.820   3.933   7.813 -0.6820  0.3830  2.2235
 2454SOL     OW18997   4.573   0.555  11.647  0.5577 -0.7467 -0.2005
 2454SOL    HW118998   4.566   0.464  11.675  1.6187 -0.3580  1.3500
 2454SOL    HW218999   4.621   0.542  11.566  3.9403  4.8916  0.8807
 2455SOL     OW19000   2.882   4.729   3.164 -0.1610  0.2264  0.2086
 2455SOL    HW119001   2.951   4.732   3.231  0.3391 -2.7351 -0.1722
 2455SOL    HW219002   2.826   4.656   3.189 -0.0577  0.2052  0.3780
 2456SOL     OW19003   3.792   3.169   2.821 -0.0382 -0.0284 -0.3119
 2456SOL    HW119004   3.862   3.232   2.804  0.7218 -0.6492  0.4858
 2456SOL    HW219005   3.791   3.125   2.737  0.0301 -0.0209 -0.3164
 2457SOL     OW19006   3.494   2.439   2.040 -0.5846 -0.0766 -0.0911
 2457SOL    HW119007   3.443   2.438   2.121 -0.8858 -3.2669 -0.3242
 2457SOL    HW219008   3.527   2.350   2.036 -0.7453 -0.2220  1.9596
 2458SOL     OW19009   3.123   3.900   8.023 -0.6033 -0.6526  0.3035
 2458SOL    HW119010   3.156   3.927   7.937 -2.1745 -0.2767 -0.1903
 2458SOL    HW219011   3.198   3.860   8.066  0.7002 -0.2244 -1.5785
 2459SOL     OW19012   3.491   0.347   1.772  0.6661  0.1236 -0.0370
 2459SOL    HW119013   3.511   0.276   1.832  0.2573 -1.9801 -2.4117
 2459SOL    HW219014   3.576   0.392   1.768  0.4240  0.5548 -0.3772
 2460SOL     OW19015   3.183   1.772   7.994 -0.6780  0.1339  0.6335
 2460SOL    HW119016   3.216   1.857   8.023 -3.9119  1.6080  0.0122
 2460SOL    HW219017   3.251   1.746   7.932 -0.9439  1.0765 -0.0374
 2461SOL     OW19018   0.354   4.086  10.938 -0.3220 -0.3200 -0.4415
 2461SOL    HW119019   0.301   4.044  11.006 -1.0316 -0.4323 -1.0628
 2461SOL    HW219020   0.422   4.135  10.984  2.5812 -3.6136 -1.2704
 2462SOL     OW19021   3.738   0.932  13.247  0.0746 -0.6784 -0.1038
 2462SOL    HW119022   3.805   0.980  13.198  1.0724  0.3741  2.2831
 2462SOL    HW219023   3.727   0.997  13.316  1.0397  0.1826 -0.7698
 2463SOL     OW19024   4.255   2.789   6.893  0.4101  0.4340  0.0691
 2463SOL    HW119025   4.324   2.730   6.862  3.0898  2.9034  1.3169
 2463SOL    HW219026   4.189   2.794   6.823 -0.9479  1.3364  1.4282
 2464SOL     OW19027   1.453   3.460   7.881  0.2304  0.4375  0.6585
 2464SOL    HW119028   1.448   3.408   7.962  0.4671 -1.3335 -0.4692
 2464SOL    HW219029   1.410   3.542   7.905  1.1231  1.1462 -0.1758
 2465SOL     OW19030   3.952   4.556   5.583 -0.6178  0.5088 -0.3712
 2465SOL    HW119031   3.884   4.598   5.637 -1.1725 -0.6014 -0.2112
 2465SOL    HW219032   3.902   4.538   5.503 -1.6411  0.3431  0.3096
 2466SOL     OW19033   1.058   1.507   4.922  0.3437 -0.0031 -0.3817
 2466SOL    HW119034   1.105   1.463   4.851  1.7686  0.9214 -0.0349
 2466SOL    HW219035   0.967   1.487   4.904  0.9372 -1.6081 -1.6176
 2467SOL     OW19036   1.333   2.997   1.521 -0.2845 -0.0017 -0.1286
 2467SOL    HW119037   1.325   3.082   1.566  2.3561  0.9276 -1.4314
 2467SOL    HW219038   1.348   2.933   1.591  0.0497 -1.5765 -1.6574
 2468SOL     OW19039   1.237   3.784   3.701 -0.4021 -0.0783 -0.1570
 2468SOL    HW119040   1.180   3.707   3.696 -0.4709  0.0200 -0.8332
 2468SOL    HW219041   1.301   3.759   3.768 -1.4855 -0.8746  0.5758
 2469SOL     OW19042   4.001   1.538   3.170 -0.2107 -0.6138 -0.2781
 2469SOL    HW119043   3.975   1.584   3.090 -1.2991 -0.5956  0.0861
 2469SOL    HW219044   3.925   1.485   3.193 -0.2893 -0.5384 -0.3635
 2470SOL     OW19045   4.134   3.721  14.288  0.2188  0.1977 -0.8439
 2470SOL    HW119046   4.075   3.699  14.216 -2.6847 -2.4435  2.3787
 2470SOL    HW219047   4.205   3.657  14.278 -0.2434 -0.2034 -1.5395
 2471SOL     OW19048   1.951   1.540  12.091 -0.1655  0.5373  0.2543
 2471SOL    HW119049   1.930   1.633  12.083 -1.6102  0.4330  2.7272
 2471SOL    HW219050   2.032   1.545  12.143  0.3871  0.7310 -0.6146
 2472SOL     OW19051   4.175   3.331   3.767  0.4705  0.1953  0.1290
 2472SOL    HW119052   4.165   3.408   3.710  0.2700  0.7948  0.9834
 2472SOL    HW219053   4.256   3.288   3.740  1.4964  0.3649  2.9395
 2473SOL     OW19054   1.312   0.914   2.493 -0.5729 -0.1136  0.5232
 2473SOL    HW119055   1.371   0.974   2.449  0.1086 -1.9983 -1.1388
 2473SOL    HW219056   1.358   0.831   2.479 -1.6877 -0.8413  1.2254
 2474SOL     OW19057   2.618   0.007   9.119 -0.7602 -0.5437 -0.3353
 2474SOL    HW119058   2.663   4.730   9.203 -1.8811 -0.3869  0.2818
 2474SOL    HW219059   2.610   0.102   9.117 -1.9379 -0.6768 -1.5216
 2475SOL     OW19060   3.968   2.399   9.818  0.0024 -0.3096 -0.0774
 2475SOL    HW119061   3.937   2.384   9.908 -1.0865  2.0188 -0.0797
 2475SOL    HW219062   4.032   2.328   9.809  0.1488 -0.2509  0.4980
 2476SOL     OW19063   0.647   4.115  17.498 -0.1790  0.8885  0.6686
 2476SOL    HW119064   0.601   4.144  17.577 -1.5679  0.7244 -0.0739
 2476SOL    HW219065   0.723   4.075  17.540 -0.3860 -1.3068 -1.0102
 2477SOL     OW19066   3.828   4.589  15.357 -0.3599 -0.0209 -0.1557
 2477SOL    HW119067   3.892   4.614  15.424 -0.5221 -0.7258  0.2606
 2477SOL    HW219068   3.851   4.496  15.362 -3.1503 -0.6041  1.7802
 2478SOL     OW19069   4.399   3.202  11.974  0.1226 -0.1345  0.1742
 2478SOL    HW119070   4.379   3.109  11.969 -1.1531  0.2312 -1.5014
 2478SOL    HW219071   4.312   3.243  11.968 -0.4287 -1.0682  1.6405
 2479SOL     OW19072   4.596   0.357   1.852 -0.2383 -0.4209 -0.1387
 2479SOL    HW119073   4.518   0.377   1.904  1.6118  0.9739  2.1160
 2479SOL    HW219074   4.645   0.440   1.857 -1.5497  0.2989  0.9325
 2480SOL     OW19075   4.403   3.557  17.583  0.0191 -0.1220  0.4386
 2480SOL    HW119076   4.417   3.489  17.516  4.9315  1.7529 -0.4378
 2480SOL    HW219077   4.317   3.593  17.565  0.2546 -0.3207 -1.0639
 2481SOL     OW19078   1.407   4.282   6.325 -0.1933 -0.0521 -0.2900
 2481SOL    HW119079   1.465   4.318   6.392 -1.5359 -1.9671  1.8932
 2481SOL    HW219080   1.343   4.235   6.378  0.1463 -0.9771 -0.7105
 2482SOL     OW19081   0.088   2.718   7.935 -0.2320 -0.4848  0.5412
 2482SOL    HW119082   0.031   2.677   8.000 -0.2676 -1.6820 -0.2499
 2482SOL    HW219083   0.020   2.761   7.884 -0.2813 -1.4780 -0.2246
 2483SOL     OW19084   1.771   1.702   8.109 -0.0643  0.3504 -0.4758
 2483SOL    HW119085   1.691   1.695   8.057 -2.1848 -2.1791  3.1193
 2483SOL    HW219086   1.835   1.739   8.048 -0.4928  1.9334  0.0428
 2484SOL     OW19087   1.605   2.205  17.069 -0.1312  0.7723 -0.5912
 2484SOL    HW119088   1.551   2.210  16.990 -1.2131  0.8697  0.1467
 2484SOL    HW219089   1.545   2.155  17.125  0.8367  0.8027  0.4768
 2485SOL     OW19090   2.187   0.448   7.905 -0.0972  0.0801 -0.1919
 2485SOL    HW119091   2.219   0.400   7.829  3.2537  0.2365  1.0912
 2485SOL    HW219092   2.094   0.448   7.885  0.4540 -0.3129 -2.7105
 2486SOL     OW19093   3.261   3.783   4.949  0.5535  0.7733 -0.0660
 2486SOL    HW119094   3.299   3.711   4.999 -4.1598 -0.3438  1.9246
 2486SOL    HW219095   3.255   3.849   5.018  3.5401  0.0466  0.8563
 2487SOL     OW19096   0.461   2.028  11.872  0.3491 -0.7517 -0.0067
 2487SOL    HW119097   0.415   1.946  11.891  2.2932 -1.9051 -0.2311
 2487SOL    HW219098   0.416   2.049  11.790  1.9518  1.5351 -0.3142
 2488SOL     OW19099   0.166   3.900  17.054  0.1624  0.3274  0.1866
 2488SOL    HW119100   0.221   3.823  17.070 -2.8970 -2.2322 -1.4106
 2488SOL    HW219101   0.226   3.966  17.020 -1.1079  0.6244 -1.5542
 2489SOL     OW19102   3.109   0.136   2.235  0.2990  0.3430 -0.1475
 2489SOL    HW119103   3.070   0.095   2.312 -0.6061 -1.6552 -1.6502
 2489SOL    HW219104   3.184   0.079   2.218 -1.1411 -1.6200 -0.0692
 2490SOL     OW19105   3.612   3.911   2.969 -0.0250 -0.0771 -0.7051
 2490SOL    HW119106   3.683   3.860   2.929  0.1965  0.8117 -1.4446
 2490SOL    HW219107   3.580   3.846   3.031 -2.5868  2.6731  0.8750
 2491SOL     OW19108   0.503   3.833   5.392 -0.0179 -0.1311 -0.4462
 2491SOL    HW119109   0.560   3.856   5.465  1.2545 -2.0682 -0.7974
 2491SOL    HW219110   0.551   3.882   5.325  0.7823 -2.3365 -1.5150
 2492SOL     OW19111   0.542   4.253  14.218  0.3553 -0.0258 -0.1404
 2492SOL    HW119112   0.564   4.186  14.282  0.1843  0.4478  0.4165
 2492SOL    HW219113   0.559   4.214  14.132  2.0343 -0.2572  0.3005
 2493SOL     OW19114   0.464   1.674   7.855  0.1066 -0.3003  0.6351
 2493SOL    HW119115   0.452   1.604   7.791  1.6857 -1.3777  1.5320
 2493SOL    HW219116   0.402   1.739   7.820 -1.3981 -1.7348  0.6610
 2494SOL     OW19117   0.556   3.218   1.382 -0.0255 -0.2062 -0.8788
 2494SOL    HW119118   0.599   3.164   1.316 -1.5285 -1.7932 -0.5384
 2494SOL    HW219119   0.502   3.157   1.431 -2.6801  1.7567 -1.3565
 2495SOL     OW19120   0.066   0.317   0.321  0.2410  0.4352 -0.8008
 2495SOL    HW119121   0.138   0.371   0.288  0.1921  0.1500 -1.3778
 2495SOL    HW219122   0.104   0.250   0.377  0.2499  0.2581 -1.0230
 2496SOL     OW19123   1.432   2.860   4.135  0.4967  0.5711  0.1172
 2496SOL    HW119124   1.473   2.919   4.072 -2.3346  0.9035 -1.3973
 2496SOL    HW219125   1.420   2.919   4.209  0.6957 -0.2347  0.7968
 2497SOL     OW19126   4.081   1.584   9.187 -0.0021 -0.3060 -1.2969
 2497SOL    HW119127   4.087   1.628   9.103 -0.7382  0.3449 -1.0099
 2497SOL    HW219128   4.003   1.527   9.181  0.5339 -1.3831  1.8295
 2498SOL     OW19129   4.270   1.320   0.572  0.2124 -0.0348 -0.1006
 2498SOL    HW119130   4.227   1.394   0.614 -0.5514  0.0083 -0.9539
 2498SOL    HW219131   4.230   1.337   0.487  2.3546  1.7347 -0.7539
 2499SOL     OW19132   2.429   0.399  13.764  0.3024 -0.2516 -0.4596
 2499SOL    HW119133   2.434   0.451  13.684  0.5494  0.3780 -0.0412
 2499SOL    HW219134   2.440   0.475  13.821  0.4690  0.7390 -1.8202
 2500SOL     OW19135   2.811   2.552   7.470  0.0702  0.5059 -0.2333
 2500SOL    HW119136   2.771   2.578   7.553 -0.2330  2.8885 -1.1334
 2500SOL    HW219137   2.901   2.582   7.470 -0.1980  1.3002 -0.7925
 2501SOL     OW19138   2.806   2.807   3.891  0.1865  0.5187  0.1672
 2501SOL    HW119139   2.721   2.763   3.901  0.0444  0.8431  0.3840
 2501SOL    HW219140   2.802   2.882   3.951  1.9086 -0.6098  1.7270
 2502SOL     OW19141   4.478   2.442   3.730  0.1477 -0.6758 -0.6856
 2502SOL    HW119142   4.457   2.418   3.640  1.8152  0.0689 -1.2593
 2502SOL    HW219143   4.571   2.422   3.725  0.1390 -0.1848 -2.7580
 2503SOL     OW19144   0.218   4.621   2.953  0.1187  0.4041 -0.1648
 2503SOL    HW119145   0.264   4.677   2.891  2.2122 -1.2640 -0.1357
 2503SOL    HW219146   0.254   4.645   3.038  1.8159 -0.0427 -0.7539
 2504SOL     OW19147   3.592   1.754   6.308 -0.9755  0.2280  0.3058
 2504SOL    HW119148   3.643   1.786   6.234 -0.2789  1.1285  1.1826
 2504SOL    HW219149   3.618   1.662   6.311 -2.5517 -0.2343 -0.2978
 2505SOL     OW19150   4.069   3.864   2.752  0.5954  0.5309  0.6222
 2505SOL    HW119151   4.105   3.796   2.809  0.2255 -0.2885 -0.1309
 2505SOL    HW219152   4.146   3.902   2.709 -0.1796  0.4204 -0.8488
 2506SOL     OW19153   4.593   0.897   3.566 -0.3590  0.1509  0.0684
 2506SOL    HW119154   4.628   0.891   3.478 -0.5872 -0.8910  0.0532
 2506SOL    HW219155   4.559   0.808   3.577 -0.1913  0.0980  0.1603
 2507SOL     OW19156   4.594   4.061   7.538  0.1490 -0.1451  0.0242
 2507SOL    HW119157   4.656   4.029   7.472  0.8070 -3.1322  2.0599
 2507SOL    HW219158   4.617   4.152   7.556  0.5079  0.1041 -1.6429
 2508SOL     OW19159   3.905   2.693   7.783 -0.2801  0.2659 -0.6751
 2508SOL    HW119160   3.991   2.702   7.824 -1.4719 -0.5810  2.0565
 2508SOL    HW219161   3.851   2.741   7.846 -0.2975 -3.3612  2.0627
 2509SOL     OW19162   0.721   3.080   8.350  0.3391 -0.4652  0.2813
 2509SOL    HW119163   0.690   3.101   8.262 -1.9737 -1.4182  0.8616
 2509SOL    HW219164   0.815   3.086   8.335  0.0643  1.7990 -0.5077
 2510SOL     OW19165   2.284   0.097   3.336  0.0157  0.4068 -0.1150
 2510SOL    HW119166   2.370   0.117   3.371  1.2497 -1.3249 -2.1728
 2510SOL    HW219167   2.233   0.064   3.410  1.0416 -1.0754 -0.0781
 2511SOL     OW19168   4.651   2.383   6.389  0.2058 -0.3462  0.0909
 2511SOL    HW119169   4.561   2.365   6.418  0.1964  1.7043  1.3625
 2511SOL    HW219170   4.674   2.450   6.453 -0.7605 -0.5978  0.7089
 2512SOL     OW19171   2.067   0.905   8.966  0.2418 -0.2180 -0.3485
 2512SOL    HW119172   2.076   0.962   8.890  1.2367 -0.8810 -0.7289
 2512SOL    HW219173   1.988   0.861   8.934 -0.4580  1.2508 -0.6375
 2513SOL     OW19174   3.258   4.470   4.023  0.3898 -0.1551 -0.1966
 2513SOL    HW119175   3.217   4.389   3.994  1.4880 -1.2128  1.2524
 2513SOL    HW219176   3.220   4.496   4.107 -1.1047  0.7298 -1.1480
 2514SOL     OW19177   1.524   0.394   3.603 -0.1064  1.0409  0.5946
 2514SOL    HW119178   1.452   0.445   3.639 -0.3315  1.0407  0.1490
 2514SOL    HW219179   1.494   0.367   3.516  2.6035 -0.0515 -0.0027
 2515SOL     OW19180   4.731   1.932  12.522 -0.2006  0.0294  0.2009
 2515SOL    HW119181   4.707   1.984  12.445  2.1361  1.5584  0.5080
 2515SOL    HW219182   4.648   1.940  12.568 -0.7598 -0.6229 -0.6913
 2516SOL     OW19183   3.551   1.147   4.572  0.2995  0.2721 -0.4161
 2516SOL    HW119184   3.495   1.110   4.504 -0.1919  1.8502 -0.8693
 2516SOL    HW219185   3.613   1.201   4.523 -1.1754  0.1416 -2.4531
 2517SOL     OW19186   1.640   1.235   3.073  0.1553  0.6837 -0.0806
 2517SOL    HW119187   1.593   1.167   3.120  2.3122 -0.0293  1.0524
 2517SOL    HW219188   1.722   1.189   3.056 -0.7978 -0.5705 -1.2503
 2518SOL     OW19189   4.486   4.024  17.657  0.0791 -0.3081  0.5478
 2518SOL    HW119190   4.524   3.939  17.678 -0.5401 -0.6643  0.2340
 2518SOL    HW219191   4.496   4.023  17.562  0.8970 -2.6893  0.6590
 2519SOL     OW19192   2.501   3.472   5.629 -0.1498  0.2766  0.1956
 2519SOL    HW119193   2.554   3.494   5.552 -2.8635  1.2520 -1.4073
 2519SOL    HW219194   2.470   3.385   5.604 -2.1242  0.6516  1.3281
 2520SOL     OW19195   0.014   3.743  17.375 -0.2094  0.1453  0.0386
 2520SOL    HW119196   0.057   3.825  17.349 -2.8344  2.1461  1.9293
 2520SOL    HW219197   4.713   3.721  17.290 -2.3389  0.9931  0.7752
 2521SOL     OW19198   2.439   2.846   4.583 -0.2688 -0.0976  0.1612
 2521SOL    HW119199   2.369   2.815   4.641 -0.3460  1.5880  0.9756
 2521SOL    HW219200   2.508   2.865   4.646  0.9026  0.3851 -1.2719
 2522SOL     OW19201   0.230   3.370  12.700  0.2617 -0.3899  0.2883
 2522SOL    HW119202   0.159   3.433  12.711 -0.7766 -1.1871 -1.6693
 2522SOL    HW219203   0.184   3.290  12.727 -0.2842 -0.1460  0.0692
 2523SOL     OW19204   3.027   3.917   1.643 -0.2257  0.2066  0.4921
 2523SOL    HW119205   2.974   3.975   1.698  0.7575 -0.4080  2.0689
 2523SOL    HW219206   3.009   3.836   1.691  1.5131 -0.9261 -0.7731
 2524SOL     OW19207   1.877   4.732   2.093  0.0579  0.8653  0.1099
 2524SOL    HW119208   1.875   0.003   1.998  0.0151 -0.0860  0.0296
 2524SOL    HW219209   1.903   0.086   2.104  1.3057  0.5905 -0.6017
 2525SOL     OW19210   1.732   4.477  13.353  0.3610 -0.5658 -0.2446
 2525SOL    HW119211   1.824   4.458  13.372  0.7276  0.2964 -1.1353
 2525SOL    HW219212   1.685   4.437  13.427 -0.2715 -1.6333 -1.2271
 2526SOL     OW19213   0.910   1.826   8.695  0.1299  0.5569 -0.2773
 2526SOL    HW119214   0.993   1.823   8.648 -0.0973  2.4720 -0.7878
 2526SOL    HW219215   0.906   1.738   8.732  1.7386  0.0800 -1.2681
 2527SOL     OW19216   1.021   0.941   5.011 -0.3252  0.3660  0.3333
 2527SOL    HW119217   0.957   0.876   5.041 -0.7039  1.3298  1.6185
 2527SOL    HW219218   1.084   0.914   5.077 -1.0158 -0.6466  0.5683
 2528SOL     OW19219   4.344   2.537   8.366  0.3614 -0.0492  0.0414
 2528SOL    HW119220   4.278   2.471   8.389  0.3594  0.2483  0.9104
 2528SOL    HW219221   4.363   2.534   8.273 -2.1725 -0.8313 -0.4650
 2529SOL     OW19222   3.619   2.419   5.197 -0.1924 -0.0983  0.2947
 2529SOL    HW119223   3.525   2.399   5.195  0.1090 -1.7109  2.0849
 2529SOL    HW219224   3.629   2.466   5.115 -1.3767  2.0623  1.3886
 2530SOL     OW19225   2.069   2.703   7.117 -0.3530  0.3398 -0.1749
 2530SOL    HW119226   1.998   2.738   7.171 -0.9384 -0.5879 -0.3350
 2530SOL    HW219227   2.092   2.624   7.165 -0.3216  0.1894 -0.4377
 2531SOL     OW19228   0.338   4.009  12.365  0.5416 -0.3383  0.1939
 2531SOL    HW119229   0.423   4.020  12.406  1.0583  2.6926 -1.6531
 2531SOL    HW219230   0.299   4.096  12.368 -0.9735 -1.0318  0.4246
 2532SOL     OW19231   0.293   0.087   5.248 -0.1840  0.1841 -0.3782
 2532SOL    HW119232   0.351   0.142   5.195 -0.4370  0.0506 -0.7887
 2532SOL    HW219233   0.235   0.057   5.179  0.0127 -2.5887  0.6335
 2533SOL     OW19234   2.550   3.414   5.171  0.2760  0.5156  0.1984
 2533SOL    HW119235   2.498   3.359   5.230  0.6235  1.4004  1.3292
 2533SOL    HW219236   2.607   3.343   5.140  2.3349  2.5909 -0.7846
 2534SOL     OW19237   2.643   0.164   4.016  0.0070 -0.1109 -0.4253
 2534SOL    HW119238   2.575   0.098   4.030 -1.3725  1.3451 -0.1451
 2534SOL    HW219239   2.716   0.105   3.997 -0.6830 -2.0280  2.9062
 2535SOL     OW19240   0.564   4.258   3.828 -0.5793 -0.0854  0.9906
 2535SOL    HW119241   0.575   4.225   3.739 -1.9709 -0.3580  0.9088
 2535SOL    HW219242   0.651   4.242   3.864  0.9423  0.3602 -2.4777
 2536SOL     OW19243   2.610   3.669  15.958 -0.0223  0.0316  0.0032
 2536SOL    HW119244   2.550   3.662  16.033  1.6260  1.6143  1.4804
 2536SOL    HW219245   2.556   3.707  15.888  1.1125  1.5804 -0.0287
 2537SOL     OW19246   0.407   0.246   7.812  0.1144 -0.2754  0.0478
 2537SOL    HW119247   0.491   0.269   7.772 -1.5776  1.4430 -2.6006
 2537SOL    HW219248   0.395   0.322   7.869  0.4413 -1.8388  2.1806
 2538SOL     OW19249   2.991   0.549   3.691 -0.1381 -0.3906 -0.9759
 2538SOL    HW119250   2.991   0.459   3.723 -0.1921 -0.4346 -1.0969
 2538SOL    HW219251   3.045   0.604   3.747  0.3166 -0.3545 -1.4452
 2539SOL     OW19252   3.612   0.942   1.955 -0.4737 -0.9011 -0.4063
 2539SOL    HW119253   3.696   0.921   1.995 -0.2301  1.7862  0.4512
 2539SOL    HW219254   3.590   0.859   1.911  0.8278 -1.9139  0.8616
 2540SOL     OW19255   0.229   3.131   2.208 -0.3971  0.3298 -0.1198
 2540SOL    HW119256   0.169   3.186   2.258  0.6688  0.8398  0.6022
 2540SOL    HW219257   0.312   3.174   2.230  0.8063 -2.2462  0.3988
 2541SOL     OW19258   1.516   3.125  16.389  0.4179  0.1127  0.3419
 2541SOL    HW119259   1.550   3.172  16.465  2.1533 -3.7476  1.9168
 2541SOL    HW219260   1.424   3.111  16.410  0.2272 -1.7662 -1.6862
 2542SOL     OW19261   0.262   4.375  14.611 -0.2799 -0.0347 -0.3835
 2542SOL    HW119262   0.185   4.431  14.600  1.3094  2.2332  0.0231
 2542SOL    HW219263   0.315   4.413  14.682  1.5208 -2.9834 -0.1089
 2543SOL     OW19264   1.470   1.559   1.776  0.0635 -0.5964  0.1269
 2543SOL    HW119265   1.418   1.559   1.696  0.5312  2.7239 -0.1901
 2543SOL    HW219266   1.558   1.549   1.738 -0.5949 -1.5154 -1.1256
 2544SOL     OW19267   2.888   3.726   3.667  0.0474 -0.0209  0.4249
 2544SOL    HW119268   2.840   3.646   3.649 -1.3031  1.0603 -0.8589
 2544SOL    HW219269   2.926   3.698   3.750 -1.1107 -1.5395  0.4374
 2545SOL     OW19270   4.414   3.580   7.696  0.6229  0.0093  0.0351
 2545SOL    HW119271   4.413   3.548   7.606  2.7115  0.5631 -0.1941
 2545SOL    HW219272   4.497   3.542   7.724 -1.0280 -2.2835  1.7653
 2546SOL     OW19273   2.287   1.729   2.670  0.3972 -0.0557  1.0265
 2546SOL    HW119274   2.242   1.651   2.701 -2.3535  0.9283 -0.4238
 2546SOL    HW219275   2.378   1.703   2.682  0.5355  0.0794  0.2715
 2547SOL     OW19276   4.027   4.567   0.870  0.2042 -0.0863 -0.4921
 2547SOL    HW119277   3.979   4.628   0.925 -0.7665 -0.7696 -0.5695
 2547SOL    HW219278   4.041   4.624   0.794  3.4182 -3.0849 -2.1473
 2548SOL     OW19279   3.757   0.330   3.177 -0.4449 -0.3669 -0.0871
 2548SOL    HW119280   3.732   0.245   3.140 -1.3431 -0.2504  0.2524
 2548SOL    HW219281   3.852   0.326   3.183 -0.5927 -0.3878  2.1484
 2549SOL     OW19282   3.090   4.210  10.894 -0.2992  0.7595  0.7351
 2549SOL    HW119283   3.042   4.175  10.969 -0.2483 -0.1293  0.3526
 2549SOL    HW219284   3.172   4.166  10.912 -0.6562 -0.3706 -0.4106
 2550SOL     OW19285   0.993   3.238   6.616 -0.2088  0.2133  0.4920
 2550SOL    HW119286   0.977   3.228   6.522 -0.2860  1.0288  0.4183
 2550SOL    HW219287   1.010   3.332   6.623 -0.7978  0.3383  0.2165
 2551SOL     OW19288   1.119   3.772   1.621 -0.2816  0.0456  0.3798
 2551SOL    HW119289   1.086   3.795   1.708 -0.5879  0.8451  0.0521
 2551SOL    HW219290   1.110   3.854   1.571 -4.2309 -0.9050 -0.5166
 2552SOL     OW19291   2.733   3.120   6.234 -0.2713 -0.3160 -0.0047
 2552SOL    HW119292   2.723   3.141   6.141  0.1574  0.4205  0.1127
 2552SOL    HW219293   2.667   3.181   6.267  0.0372  0.6175 -1.1134
 2553SOL     OW19294   0.015   3.566  12.603  0.1491  0.0482 -0.7987
 2553SOL    HW119295   4.712   3.642  12.645  0.8520  0.1000 -0.2179
 2553SOL    HW219296   4.666   3.533  12.580  0.1772 -0.4326 -0.1975
 2554SOL     OW19297   1.815   4.341   8.852 -0.4333 -0.6670 -0.3816
 2554SOL    HW119298   1.830   4.266   8.794  0.7319  1.8755 -3.3917
 2554SOL    HW219299   1.862   4.312   8.930 -1.0323 -1.2862 -0.2507
 2555SOL     OW19300   1.366   1.783   5.934 -0.0477  0.1552 -0.2986
 2555SOL    HW119301   1.417   1.805   6.012 -1.6008 -0.1368  0.7941
 2555SOL    HW219302   1.328   1.870   5.918 -0.0404  0.0067 -1.1177
 2556SOL     OW19303   0.621   0.552   8.203 -0.3444  0.0157 -0.1891
 2556SOL    HW119304   0.607   0.621   8.268 -0.5610  0.4219 -0.6651
 2556SOL    HW219305   0.562   0.585   8.135  1.2640 -0.0038 -1.5858
 2557SOL     OW19306   2.820   0.214   7.000  0.2258  0.2912 -0.3072
 2557SOL    HW119307   2.877   0.185   6.929  0.8945 -0.0554  0.3730
 2557SOL    HW219308   2.732   0.216   6.962 -0.9671 -0.1425  2.4605
 2558SOL     OW19309   1.689   3.029   4.486 -0.0875  0.4339  0.4870
 2558SOL    HW119310   1.694   3.124   4.476  2.0461  0.2304 -0.3099
 2558SOL    HW219311   1.595   3.011   4.480  0.1276 -0.4475 -0.1337
 2559SOL     OW19312   3.889   1.121  14.871  0.0307  0.0049  0.6316
 2559SOL    HW119313   3.919   1.211  14.880  0.5217 -0.2781  1.7795
 2559SOL    HW219314   3.854   1.105  14.958  0.7266  0.0676  0.9242
 2560SOL     OW19315   1.296   0.792  15.111  0.1228 -0.4943 -0.1472
 2560SOL    HW119316   1.333   0.704  15.099 -0.3021 -0.5470 -1.1166
 2560SOL    HW219317   1.205   0.769  15.130  0.4342 -1.2364  0.4947
 2561SOL     OW19318   4.421   3.261   1.780  0.0737 -0.0033 -0.2753
 2561SOL    HW119319   4.485   3.238   1.712 -0.0971 -0.9640 -0.1008
 2561SOL    HW219320   4.346   3.203   1.766  1.1981 -1.7420  0.9442
 2562SOL     OW19321   2.711   0.756   9.428  0.0059 -0.3329  0.6599
 2562SOL    HW119322   2.746   0.729   9.343  0.4160 -0.1922  0.7825
 2562SOL    HW219323   2.692   0.679   9.482  2.0588 -1.3474 -0.0731
 2563SOL     OW19324   0.075   2.152  10.034 -0.1801 -0.0811 -0.8041
 2563SOL    HW119325   0.136   2.166  10.107 -1.6717 -1.9730  0.8250
 2563SOL    HW219326   0.060   2.058  10.028 -1.5593  0.1789 -1.4956
 2564SOL     OW19327   4.031   3.812  12.585  0.5208 -0.3902  0.2383
 2564SOL    HW119328   4.003   3.723  12.607  1.6444 -0.6372  0.6397
 2564SOL    HW219329   3.954   3.866  12.604  2.0633  2.0887 -0.4359
 2565SOL     OW19330   2.267   4.666   3.104  0.8310 -0.1696  0.3032
 2565SOL    HW119331   2.356   4.631   3.102  0.1606 -1.9226  1.0783
 2565SOL    HW219332   2.256   4.713   3.187  1.2902  1.3840 -0.5070
 2566SOL     OW19333   1.213   1.141   8.609 -0.2727  0.1803 -0.2045
 2566SOL    HW119334   1.227   1.177   8.521  1.3964 -0.7923 -0.3374
 2566SOL    HW219335   1.229   1.047   8.596 -0.5064  0.0312  0.5960
 2567SOL     OW19336   0.363   3.678  15.894  0.6935 -0.2503  0.3985
 2567SOL    HW119337   0.348   3.647  15.805 -1.9264 -0.8440  1.0458
 2567SOL    HW219338   0.431   3.746  15.889 -1.0446  1.5435  1.0904
 2568SOL     OW19339   3.673   3.604   0.357  0.3124 -0.4968 -0.1823
 2568SOL    HW119340   3.737   3.534   0.340  0.1424  0.0687 -3.2014
 2568SOL    HW219341   3.713   3.650   0.430 -0.7108 -0.2751  0.2231
 2569SOL     OW19342   3.648   3.615   4.022 -0.2277 -0.2846  0.3492
 2569SOL    HW119343   3.710   3.542   4.022 -0.1429 -0.2145 -0.6752
 2569SOL    HW219344   3.643   3.629   4.116 -1.6263  2.3464 -0.1184
 2570SOL     OW19345   2.550   3.535   6.842  0.9174  0.7135 -0.0995
 2570SOL    HW119346   2.612   3.531   6.915 -0.6701  0.1787  1.2120
 2570SOL    HW219347   2.469   3.519   6.890  2.3610 -1.3554  1.6470
 2571SOL     OW19348   3.231   3.560   9.909 -0.2441  0.1003  0.1261
 2571SOL    HW119349   3.231   3.589  10.000 -2.0622 -0.7213  0.3825
 2571SOL    HW219350   3.205   3.641   9.867 -1.3243 -0.4489 -0.2477
 2572SOL     OW19351   1.673   3.333  13.260 -0.0009 -0.0016 -0.4007
 2572SOL    HW119352   1.594   3.281  13.246  1.1145 -2.6921  3.2503
 2572SOL    HW219353   1.681   3.313  13.354 -0.0664 -1.6696 -0.7594
 2573SOL     OW19354   4.121   3.121   7.090  0.4497  0.1184 -0.3490
 2573SOL    HW119355   4.178   3.198   7.085  0.9755 -0.2378  0.1182
 2573SOL    HW219356   4.097   3.115   6.997  0.0249  2.4467 -0.3813
 2574SOL     OW19357   3.607   0.739   1.776 -0.0444  0.3782 -0.1600
 2574SOL    HW119358   3.622   0.799   1.703 -0.5189 -1.0698 -1.4468
 2574SOL    HW219359   3.690   0.692   1.773  0.1727  0.6782  1.3050
 2575SOL     OW19360   2.733   0.347   3.391  0.2651  0.3371  0.0790
 2575SOL    HW119361   2.640   0.358   3.372 -0.1553 -4.1214 -0.4061
 2575SOL    HW219362   2.767   0.307   3.312  1.0831  2.1877 -0.5151
 2576SOL     OW19363   0.431   2.400  11.619 -0.4765  0.4743  0.0211
 2576SOL    HW119364   0.481   2.365  11.692 -1.6905 -1.8231 -0.2501
 2576SOL    HW219365   0.450   2.493  11.633  3.2222 -0.3489  0.2770
 2577SOL     OW19366   4.511   4.118  10.768 -0.0806 -0.0173  0.3668
 2577SOL    HW119367   4.577   4.149  10.831  0.3141 -1.6764  0.7607
 2577SOL    HW219368   4.460   4.197  10.748 -1.3927 -0.9159  0.1899
 2578SOL     OW19369   2.434   1.618   1.773  0.7379 -0.0011 -0.1386
 2578SOL    HW119370   2.367   1.686   1.772 -0.7590 -1.4950 -0.1469
 2578SOL    HW219371   2.383   1.552   1.725 -0.8472 -0.2118  1.8510
 2579SOL     OW19372   0.366   3.276  16.211 -0.0549 -0.5461  0.0602
 2579SOL    HW119373   0.279   3.315  16.197 -0.3903 -1.0175  0.8442
 2579SOL    HW219374   0.402   3.305  16.127  1.7232 -1.7604  0.4008
 2580SOL     OW19375   1.257   2.145   3.515  0.0659 -0.2588  0.1277
 2580SOL    HW119376   1.217   2.183   3.437  2.0517 -0.1270 -0.8212
 2580SOL    HW219377   1.197   2.073   3.535 -0.2285 -0.1811 -0.4843
 2581SOL     OW19378   2.542   2.431   8.208 -0.7929  0.1241 -0.0592
 2581SOL    HW119379   2.475   2.450   8.273 -2.1989  2.3769 -2.1602
 2581SOL    HW219380   2.580   2.360   8.260 -0.5130 -0.0177 -0.4526
 2582SOL     OW19381   4.547   1.728   9.596 -0.3531  0.4927  0.6179
 2582SOL    HW119382   4.572   1.792   9.663 -1.1310 -1.4990  2.7749
 2582SOL    HW219383   4.458   1.704   9.622  0.7976 -1.4017  2.7633
 2583SOL     OW19384   0.255   4.017   3.261 -0.8170 -0.3908 -0.5000
 2583SOL    HW119385   0.159   4.009   3.260 -0.7687 -1.0254  0.3203
 2583SOL    HW219386   0.265   4.086   3.195 -0.3947  1.9459  2.0181
 2584SOL     OW19387   0.380   2.492   5.215  0.5511 -0.0842 -0.1196
 2584SOL    HW119388   0.290   2.503   5.183 -0.0277  0.2420  1.5862
 2584SOL    HW219389   0.354   2.517   5.304 -1.5616 -4.5808  0.5466
 2585SOL     OW19390   1.395   1.193  13.967 -0.5883  0.4031  0.1293
 2585SOL    HW119391   1.338   1.263  13.936 -2.9293 -1.2034  0.7377
 2585SOL    HW219392   1.454   1.174  13.895 -0.5420 -0.7741  0.4714
 2586SOL     OW19393   4.593   0.555   0.501 -0.4286  0.6049 -0.1847
 2586SOL    HW119394   4.591   0.628   0.563 -0.5726  0.4979 -0.0630
 2586SOL    HW219395   4.679   0.568   0.461 -1.2602  1.9490 -1.5448
 2587SOL     OW19396   2.044   4.042   1.867 -0.0552 -0.4530  0.2961
 2587SOL    HW119397   2.057   4.129   1.828  0.0680 -0.7190 -0.2556
 2587SOL    HW219398   2.064   3.995   1.786 -0.1434  0.2787 -0.1493
 2588SOL     OW19399   1.482   3.116   1.306 -0.0104  0.3433  0.1078
 2588SOL    HW119400   1.440   3.051   1.362 -1.5101  0.7919 -0.4887
 2588SOL    HW219401   1.570   3.079   1.296 -0.2450  0.3739 -2.0458
 2589SOL     OW19402   3.801   0.346   8.112 -0.4449 -0.6958 -0.2226
 2589SOL    HW119403   3.882   0.396   8.126 -0.4037 -1.0688  0.8354
 2589SOL    HW219404   3.789   0.311   8.200 -0.4352  1.4894  0.6566
 2590SOL     OW19405   0.671   1.794  11.148  0.4977 -0.1535  0.2954
 2590SOL    HW119406   0.629   1.873  11.112  1.9231 -0.3698 -1.8138
 2590SOL    HW219407   0.707   1.820  11.233 -0.7141  0.6721  0.5621
 2591SOL     OW19408   0.901   0.218   4.247 -0.3460 -0.5576  0.3214
 2591SOL    HW119409   0.935   0.305   4.267 -1.0757 -0.6699  2.0061
 2591SOL    HW219410   0.990   0.183   4.250  0.1671  0.7383  0.5136
 2592SOL     OW19411   1.482   4.666   6.137 -0.4731  0.5199  0.1039
 2592SOL    HW119412   1.567   4.676   6.179 -1.2533 -0.3133  1.8617
 2592SOL    HW219413   1.458   0.019   6.118 -1.6654  0.4494  1.2433
 2593SOL     OW19414   4.171   2.249   6.630 -0.0120  0.1094 -0.2413
 2593SOL    HW119415   4.090   2.234   6.679 -0.3086  0.8120 -0.5164
 2593SOL    HW219416   4.170   2.344   6.620  0.9293  0.1932  0.4013
 2594SOL     OW19417   1.052   2.622   6.081  0.7114 -0.7591 -0.8851
 2594SOL    HW119418   1.135   2.665   6.101  0.0677  0.0318  0.1037
 2594SOL    HW219419   1.053   2.553   6.146 -2.6303  0.7874  0.7943
 2595SOL     OW19420   2.696   2.097   8.980  0.2377  0.1618  0.1466
 2595SOL    HW119421   2.616   2.123   9.026 -1.3897  0.6682 -2.9438
 2595SOL    HW219422   2.684   2.147   8.899 -1.4033  0.1618  0.3908
 2596SOL     OW19423   0.483   4.205   6.983 -0.3008 -0.7517  0.1143
 2596SOL    HW119424   0.466   4.298   7.000  1.0722 -0.2181 -1.3824
 2596SOL    HW219425   0.396   4.168   6.999  0.1555 -1.3569  1.1915
 2597SOL     OW19426   3.071   1.956  12.432  0.1608  0.3845  0.3173
 2597SOL    HW119427   3.137   1.930  12.367 -1.0364  0.6877 -1.0166
 2597SOL    HW219428   3.053   1.872  12.475 -0.7986  0.3112 -0.2248
 2598SOL     OW19429   1.505   4.070   5.526 -0.2991  0.2805 -0.3781
 2598SOL    HW119430   1.526   3.999   5.587 -0.1599  0.0776 -0.6621
 2598SOL    HW219431   1.592   4.110   5.520 -0.3554  0.2350 -1.6007
 2599SOL     OW19432   1.325   1.665   4.198 -0.2661 -0.1395 -0.3859
 2599SOL    HW119433   1.247   1.682   4.251 -0.0143 -0.7733  0.1968
 2599SOL    HW219434   1.366   1.751   4.192  0.5174 -0.2937  2.9439
 2600SOL     OW19435   2.902   3.722  15.902 -0.4674 -0.5341  0.3470
 2600SOL    HW119436   2.812   3.705  15.929 -0.5568 -0.9966 -0.2354
 2600SOL    HW219437   2.887   3.765  15.817 -1.8165  3.1145  2.4339
 2601SOL     OW19438   1.173   2.320  13.194  0.2506  0.0279  0.2095
 2601SOL    HW119439   1.203   2.376  13.267 -2.7079  1.4555  0.3208
 2601SOL    HW219440   1.083   2.304  13.221  0.1340  3.3328  1.8621
 2602SOL     OW19441   3.673   1.881   7.768  0.1107  0.8505 -0.0028
 2602SOL    HW119442   3.690   1.866   7.861 -0.3238  0.5636  0.0335
 2602SOL    HW219443   3.592   1.932   7.760 -1.0746 -1.2262 -1.2989
 2603SOL     OW19444   0.405   3.288   3.826 -0.6219 -0.2083  0.1148
 2603SOL    HW119445   0.448   3.360   3.872 -0.2543  0.2738 -0.9819
 2603SOL    HW219446   0.467   3.272   3.755 -0.2056  0.0654  0.4146
 2604SOL     OW19447   0.686   2.199   8.857 -0.0498 -0.4099  0.6181
 2604SOL    HW119448   0.592   2.195   8.843 -0.0154 -0.1229  0.3263
 2604SOL    HW219449   0.706   2.272   8.798  0.0517 -0.1746  0.9441
 2605SOL     OW19450   1.191   1.124  15.433  0.2052 -0.1566  0.3437
 2605SOL    HW119451   1.180   1.147  15.525 -1.6642 -1.8429  0.5524
 2605SOL    HW219452   1.285   1.105  15.431  0.2371 -0.1803  2.7423
 2606SOL     OW19453   2.062   3.248   2.289 -0.0718  0.0666  0.0591
 2606SOL    HW119454   2.022   3.254   2.375  1.7496  0.3938  0.8772
 2606SOL    HW219455   2.111   3.166   2.284  0.9275  0.6031  1.0595
 2607SOL     OW19456   0.865   2.546   5.275 -0.0076  0.7009  0.0808
 2607SOL    HW119457   0.927   2.483   5.313 -2.5802 -2.0292 -0.2265
 2607SOL    HW219458   0.790   2.540   5.333 -0.1252 -0.0296 -0.1446
 2608SOL     OW19459   2.042   2.097   1.313  0.4555 -0.2743  0.1592
 2608SOL    HW119460   2.097   2.020   1.327  0.6555 -0.1101  0.2705
 2608SOL    HW219461   1.988   2.054   1.247  1.8186 -1.9256  0.1313
 2609SOL     OW19462   4.351   2.526   2.575 -0.2116  0.3547  0.4192
 2609SOL    HW119463   4.328   2.584   2.502 -1.2955  1.0815  1.3343
 2609SOL    HW219464   4.333   2.438   2.542 -0.9370  0.2926  0.9861
 2610SOL     OW19465   3.243   1.256   2.856  0.2005  0.1503 -0.1492
 2610SOL    HW119466   3.248   1.161   2.865  0.1956  0.1311 -0.3527
 2610SOL    HW219467   3.206   1.269   2.769 -2.9290 -0.3593  1.1010
 2611SOL     OW19468   1.826   3.226   3.165  0.0848 -0.7310  0.1297
 2611SOL    HW119469   1.821   3.131   3.153 -2.7281 -0.5864  0.0868
 2611SOL    HW219470   1.734   3.254   3.169  0.4192  0.3125  0.5970
 2612SOL     OW19471   0.806   3.075   9.201 -0.0256  0.0226  0.3965
 2612SOL    HW119472   0.865   3.123   9.143  1.1070 -0.7662  0.9092
 2612SOL    HW219473   0.761   3.017   9.140  0.4625 -0.3180  0.3664
 2613SOL     OW19474   4.660   0.348   7.070  0.7364  0.0280 -0.1957
 2613SOL    HW119475   4.711   0.391   7.138  0.6885  0.5423 -0.4825
 2613SOL    HW219476   4.571   0.356   7.106  1.2069 -1.8090  1.3480
 2614SOL     OW19477   3.144   0.717   7.788 -0.1642 -0.1285 -0.1854
 2614SOL    HW119478   3.214   0.709   7.724  0.5194 -1.8153  0.7676
 2614SOL    HW219479   3.152   0.634   7.835  0.9593  0.7226  1.1263
 2615SOL     OW19480   4.100   0.690   3.465 -0.3190  0.4099  0.0015
 2615SOL    HW119481   4.008   0.669   3.449  0.1458 -2.0532  0.5530
 2615SOL    HW219482   4.127   0.623   3.528 -1.4199 -1.0151 -1.0352
 2616SOL     OW19483   1.834   2.693   6.306 -0.3580  0.9351 -0.7310
 2616SOL    HW119484   1.846   2.757   6.236 -1.0530  1.0653 -0.7385
 2616SOL    HW219485   1.739   2.680   6.306 -0.3657  1.0019  1.4069
 2617SOL     OW19486   1.123   1.721   8.521  0.2469 -0.2883  0.8318
 2617SOL    HW119487   1.217   1.732   8.507  0.2097 -1.6522 -0.4142
 2617SOL    HW219488   1.119   1.663   8.597  1.6729 -0.6970  0.5979
 2618SOL     OW19489   3.322   3.088   7.344  0.2755 -0.1278  0.2499
 2618SOL    HW119490   3.406   3.059   7.308 -0.4225  0.0875 -1.5841
 2618SOL    HW219491   3.358   3.157   7.400 -3.9105 -0.2464  3.0493
 2619SOL     OW19492   4.560   1.726   2.469 -0.0891  0.4217 -0.0339
 2619SOL    HW119493   4.507   1.750   2.545  0.2425  2.4213 -0.4381
 2619SOL    HW219494   4.501   1.742   2.396  0.0133  0.3999 -0.1203
 2620SOL     OW19495   0.586   0.489   2.400  0.2015 -0.0907  0.2184
 2620SOL    HW119496   0.577   0.579   2.369  0.2057  0.5718  2.1737
 2620SOL    HW219497   0.619   0.445   2.322 -1.9922 -0.7494 -0.3442
 2621SOL     OW19498   2.791   2.418   1.303 -0.4864 -0.0301  0.5922
 2621SOL    HW119499   2.821   2.499   1.263 -2.5102 -0.1294 -1.1263
 2621SOL    HW219500   2.861   2.369   1.260 -2.6927 -0.6175 -2.3378
 2622SOL     OW19501   3.589   4.011   3.365  0.0655 -0.1522 -0.2693
 2622SOL    HW119502   3.594   3.935   3.422  0.4612 -0.8251 -1.2012
 2622SOL    HW219503   3.671   3.989   3.322  1.1142 -0.2390  1.7900
 2623SOL     OW19504   0.411   2.192  10.595 -0.6184 -0.0937  0.1155
 2623SOL    HW119505   0.497   2.234  10.591 -1.2509  1.1631 -0.6395
 2623SOL    HW219506   0.376   2.216  10.509  1.5624  1.7420 -0.2523
 2624SOL     OW19507   1.527   0.977   6.840 -0.1192 -0.7504  0.1089
 2624SOL    HW119508   1.581   0.908   6.879  2.6141  1.4633  0.2693
 2624SOL    HW219509   1.470   0.999   6.914 -0.8812 -1.3669 -0.2980
 2625SOL     OW19510   4.189   4.429   2.110 -0.3686 -0.2207  0.3122
 2625SOL    HW119511   4.230   4.505   2.151 -0.0753  0.0819 -0.5522
 2625SOL    HW219512   4.134   4.394   2.180 -0.0500 -0.4610  0.4467
 2626SOL     OW19513   0.110   2.208  11.945  0.3821 -0.1623 -0.1493
 2626SOL    HW119514   0.117   2.172  11.856  1.3661  0.8285 -0.4709
 2626SOL    HW219515   0.037   2.269  11.932 -0.4728 -0.9212  1.1509
 2627SOL     OW19516   2.207   1.730  17.119  0.2419 -0.2886  0.2497
 2627SOL    HW119517   2.216   1.648  17.070 -1.5342  0.2216 -0.9178
 2627SOL    HW219518   2.162   1.783  17.054  2.1268  2.5277  1.2285
 2628SOL     OW19519   0.625   3.625   8.951  0.7055 -0.4024  0.6373
 2628SOL    HW119520   0.640   3.717   8.930 -1.3218 -0.2272 -0.0525
 2628SOL    HW219521   0.690   3.619   9.022  3.2892  2.4264 -1.5058
 2629SOL     OW19522   1.065   2.263   2.598  0.5431  0.5853  0.1278
 2629SOL    HW119523   1.060   2.168   2.592 -0.2970  0.5537  1.3338
 2629SOL    HW219524   1.064   2.281   2.692  0.5998 -2.1822  0.6680
 2630SOL     OW19525   2.057   3.896   9.424  0.0420  0.2244 -0.0874
 2630SOL    HW119526   2.135   3.850   9.393 -0.1436 -0.3344  0.2691
 2630SOL    HW219527   2.060   3.871   9.516  1.1754 -2.8991 -0.9887
 2631SOL     OW19528   0.906   4.505  12.971  0.0896 -0.1853  0.4001
 2631SOL    HW119529   0.851   4.573  12.931 -0.6012  0.4651  2.4893
 2631SOL    HW219530   0.930   4.455  12.893  0.0509 -0.8570  0.8219
 2632SOL     OW19531   0.382   3.175   5.206  0.0574  0.0116 -0.1019
 2632SOL    HW119532   0.316   3.106   5.192  0.9698 -0.2800 -3.1179
 2632SOL    HW219533   0.368   3.237   5.134  0.3770  0.4658  0.2342
 2633SOL     OW19534   2.443   1.666   9.674  0.5605  0.4668  0.2236
 2633SOL    HW119535   2.504   1.707   9.736  1.5173  0.6014 -0.8019
 2633SOL    HW219536   2.453   1.572   9.683 -1.0611  0.3915  1.2047
 2634SOL     OW19537   3.344   3.230   6.315  0.2116 -0.5718  0.2491
 2634SOL    HW119538   3.332   3.264   6.404 -4.8639 -0.2000 -0.5575
 2634SOL    HW219539   3.368   3.141   6.342  0.0151 -0.1712  1.7744
 2635SOL     OW19540   3.593   1.920   1.939 -0.4786  0.1594  0.3389
 2635SOL    HW119541   3.645   1.883   2.011 -1.1209 -0.5982  0.4113
 2635SOL    HW219542   3.566   1.836   1.901  1.3632 -1.1958  2.0176
 2636SOL     OW19543   1.271   3.860   5.785  0.1979  0.3477  0.3202
 2636SOL    HW119544   1.286   3.952   5.765  0.2247  0.6391  1.7359
 2636SOL    HW219545   1.321   3.825   5.711 -1.0455  0.8113 -0.7367
 2637SOL     OW19546   3.959   1.286   6.559 -0.6932  0.0618 -0.4333
 2637SOL    HW119547   4.020   1.285   6.485 -0.2651  1.0834 -0.1081
 2637SOL    HW219548   3.969   1.377   6.587  2.7540 -0.2700 -0.5791
 2638SOL     OW19549   3.690   0.053   9.003  0.1587  0.3601 -0.1310
 2638SOL    HW119550   3.662   0.028   9.091 -1.3712  2.2483 -0.0819
 2638SOL    HW219551   3.688   4.711   8.949  1.2604 -0.2778  0.7548
 2639SOL     OW19552   1.110   4.710   2.752 -0.2140  0.9178  0.0474
 2639SOL    HW119553   1.098   0.047   2.692  0.8948 -1.1925 -2.7949
 2639SOL    HW219554   1.023   4.671   2.758  0.5869 -1.1465 -1.9918
 2640SOL     OW19555   2.917   0.081   8.102 -0.2875  0.6081 -0.8021
 2640SOL    HW119556   2.906   0.079   8.007 -1.1123 -0.6507 -0.6870
 2640SOL    HW219557   3.005   0.047   8.117 -0.1884  1.2310 -0.0039
 2641SOL     OW19558   3.246   2.729   0.843 -0.0991 -0.1968 -0.3267
 2641SOL    HW119559   3.253   2.782   0.764  2.4855  1.0106  0.7071
 2641SOL    HW219560   3.190   2.787   0.895 -1.4740  0.6658 -2.7841
 2642SOL     OW19561   3.531   3.614   7.047  0.3821  0.5048 -0.4079
 2642SOL    HW119562   3.613   3.637   7.002  1.0317 -0.1573  0.4371
 2642SOL    HW219563   3.507   3.699   7.084 -3.1460  0.1772 -1.9345
 2643SOL     OW19564   4.462   1.631   7.691  0.0003 -0.3710 -0.0650
 2643SOL    HW119565   4.371   1.634   7.721 -0.1492 -1.2966 -0.4428
 2643SOL    HW219566   4.462   1.549   7.643 -0.7673 -1.1190  1.2214
 2644SOL     OW19567   1.558   4.073   9.709 -0.2826  0.7656 -0.0247
 2644SOL    HW119568   1.617   4.052   9.637 -0.4236  1.6108 -0.3905
 2644SOL    HW219569   1.603   4.147   9.749  2.2477 -1.4063  1.1165
 2645SOL     OW19570   2.766   3.953   3.525  0.0609  0.1531 -1.1884
 2645SOL    HW119571   2.787   3.863   3.549 -2.6228 -0.4504 -1.0641
 2645SOL    HW219572   2.784   3.958   3.431  1.4210  1.6838 -0.8481
 2646SOL     OW19573   4.215   1.985   9.050  0.1398 -0.5031 -0.1922
 2646SOL    HW119574   4.154   1.911   9.038  1.0856 -1.3228  0.0980
 2646SOL    HW219575   4.222   2.009   8.957  0.9130 -0.5164 -0.1322
 2647SOL     OW19576   0.821   3.728  16.063  0.3073 -0.3178  0.7030
 2647SOL    HW119577   0.836   3.685  15.979  1.0162 -0.1812  0.7570
 2647SOL    HW219578   0.811   3.819  16.035  0.6977  0.4042  2.8696
 2648SOL     OW19579   2.451   1.674   8.300 -0.2701  0.1772  0.0871
 2648SOL    HW119580   2.374   1.664   8.245 -1.0016  4.2707  0.3693
 2648SOL    HW219581   2.400   1.688   8.380 -0.3465  1.0121 -0.1120
 2649SOL     OW19582   3.424   0.319  11.848 -0.5876 -0.5920 -0.7601
 2649SOL    HW119583   3.381   0.392  11.892  0.7145  1.4362 -2.8359
 2649SOL    HW219584   3.440   0.243  11.904  0.7319 -1.8323 -2.7940
 2650SOL     OW19585   1.767   0.531   5.148 -0.3461 -0.7003 -0.2411
 2650SOL    HW119586   1.861   0.516   5.151 -0.3683 -0.9316 -0.6777
 2650SOL    HW219587   1.758   0.611   5.200  2.5838 -1.5805  1.6170
 2651SOL     OW19588   3.374   2.424   4.041 -0.0472 -0.0149 -0.2932
 2651SOL    HW119589   3.284   2.458   4.040  0.3495  0.9559 -2.9661
 2651SOL    HW219590   3.358   2.337   4.005  0.9631 -0.3217 -0.0006
 2652SOL     OW19591   0.134   0.705   7.003  0.4212  0.0411  0.2983
 2652SOL    HW119592   0.229   0.718   6.996  0.4932 -1.2506 -1.1422
 2652SOL    HW219593   0.125   0.615   6.972 -1.3366 -0.4386  2.2032
 2653SOL     OW19594   4.017   2.855  13.286  0.4489  0.3359 -0.4126
 2653SOL    HW119595   4.052   2.793  13.223  2.2256 -0.7461  1.6102
 2653SOL    HW219596   3.940   2.890  13.240  1.5263  0.3881 -2.1612
 2654SOL     OW19597   0.487   0.954   2.662 -0.0899 -0.2420 -0.7118
 2654SOL    HW119598   0.512   1.014   2.592 -3.2801  0.0800 -1.6063
 2654SOL    HW219599   0.532   0.874   2.634 -1.2371 -1.5523  1.2122
 2655SOL     OW19600   2.015   3.245  15.861  0.2762  0.1567 -0.4846
 2655SOL    HW119601   2.018   3.305  15.787 -0.3451  0.9402  0.1210
 2655SOL    HW219602   1.934   3.272  15.905 -0.1705 -0.6424 -0.8161
 2656SOL     OW19603   1.971   1.185   6.560 -0.3869  0.5057  0.5961
 2656SOL    HW119604   2.051   1.173   6.509  0.8889 -0.3481  2.8452
 2656SOL    HW219605   1.913   1.214   6.489  1.3654  4.1251  0.6588
 2657SOL     OW19606   2.413   4.364   3.777 -0.0201 -0.3440 -0.0164
 2657SOL    HW119607   2.462   4.310   3.715  0.6333  0.4350 -0.1787
 2657SOL    HW219608   2.446   4.452   3.758 -2.3013  0.7585  1.1033
 2658SOL     OW19609   1.385   1.518   2.722  0.3547  0.1164  0.3195
 2658SOL    HW119610   1.389   1.449   2.787 -1.9274  1.0081  1.3875
 2658SOL    HW219611   1.468   1.565   2.728  0.4100  0.3485 -2.0530
 2659SOL     OW19612   3.974   0.798   7.026  0.7994 -0.6959 -0.3103
 2659SOL    HW119613   3.954   0.889   7.045 -1.7293 -1.2210 -0.4878
 2659SOL    HW219614   4.022   0.760   7.100  0.4142 -1.7496 -0.5965
 2660SOL     OW19615   0.700   3.734   6.224 -0.5096 -0.4814  0.9756
 2660SOL    HW119616   0.782   3.693   6.250 -0.1025 -0.2825  0.0311
 2660SOL    HW219617   0.661   3.660   6.178 -0.3634  1.1328 -1.8026
 2661SOL     OW19618   1.728   2.510   0.061  1.0883 -0.2181  0.5899
 2661SOL    HW119619   1.801   2.464   0.019  1.6895  0.4945  0.8394
 2661SOL    HW219620   1.698   2.460   0.137 -0.2873 -0.5054 -0.1493
 2662SOL     OW19621   4.669   2.779   4.741 -0.3306  0.3930 -0.1089
 2662SOL    HW119622   4.704   2.854   4.693  3.0959 -2.0509 -1.3644
 2662SOL    HW219623   4.705   2.710   4.686  1.3739  0.3307  1.0802
 2663SOL     OW19624   1.696   2.785   6.860  0.7209  0.4462 -0.4801
 2663SOL    HW119625   1.746   2.866   6.847  0.8939  0.3825 -0.2130
 2663SOL    HW219626   1.756   2.712   6.866  0.0307 -0.1927 -1.3145
 2664SOL     OW19627   4.722   0.705   0.746 -0.3218 -0.0363 -0.2591
 2664SOL    HW119628   0.066   0.655   0.750 -0.1099  0.3465  0.2679
 2664SOL    HW219629   0.004   0.779   0.803  0.4545  0.9698 -1.8540
 2665SOL     OW19630   0.398   4.183   8.113  0.1488  0.0527 -0.1808
 2665SOL    HW119631   0.460   4.112   8.094 -0.4528 -1.3867  3.0711
 2665SOL    HW219632   0.397   4.237   8.035 -1.4536  0.3047  0.0043
 2666SOL     OW19633   2.903   4.458   3.736  0.0349  0.4071 -0.6553
 2666SOL    HW119634   2.893   4.388   3.673 -0.0641 -0.0077 -0.1809
 2666SOL    HW219635   2.997   4.479   3.730  0.4961 -0.3672  3.6145
 2667SOL     OW19636   3.174   1.708  12.416  0.6388 -0.2558  0.6525
 2667SOL    HW119637   3.266   1.690  12.438  1.4313  2.4417 -0.3817
 2667SOL    HW219638   3.124   1.628  12.430 -0.6022  0.2075 -1.0472
 2668SOL     OW19639   0.624   1.084   0.150 -0.3554 -0.0212  0.0407
 2668SOL    HW119640   0.656   1.160   0.101  2.3239 -1.3198 -0.2364
 2668SOL    HW219641   0.695   1.082   0.213  0.7374  2.3781 -1.0973
 2669SOL     OW19642   0.637   2.911  17.091 -0.1075  0.1679  0.5389
 2669SOL    HW119643   0.692   2.949  17.159  1.2220 -0.9290  0.0748
 2669SOL    HW219644   0.575   2.983  17.082  0.8976  0.8077 -1.1654
 2670SOL     OW19645   2.501   1.674   8.740 -0.8299 -0.2538 -0.0438
 2670SOL    HW119646   2.495   1.689   8.834  2.3397  0.3342  0.0792
 2670SOL    HW219647   2.538   1.586   8.730  0.6195  0.3067  0.2856
 2671SOL     OW19648   2.427   4.575   4.485 -0.4282 -0.1099 -0.7772
 2671SOL    HW119649   2.403   4.496   4.534  2.9386  0.2176  1.4135
 2671SOL    HW219650   2.513   4.596   4.523 -0.0618 -1.0198 -1.1053
 2672SOL     OW19651   4.575   4.147   3.821  0.9798  0.1553  0.5454
 2672SOL    HW119652   4.623   4.229   3.832 -1.0147  1.4982 -0.6543
 2672SOL    HW219653   4.581   4.144   3.725 -0.2988  1.5591  0.4225
 2673SOL     OW19654   2.092   4.603  12.496  0.2094  0.4061 -0.0851
 2673SOL    HW119655   2.090   4.673  12.561  2.1732  0.5115 -0.1391
 2673SOL    HW219656   2.002   4.572  12.492  0.5911 -0.5412 -1.2693
 2674SOL     OW19657   3.807   0.890  14.733 -0.0158 -0.4644 -0.8681
 2674SOL    HW119658   3.877   0.825  14.744  1.8614  1.5492 -1.0917
 2674SOL    HW219659   3.846   0.960  14.785 -2.5034  0.8017 -0.7199
 2675SOL     OW19660   3.472   3.058   2.668 -0.7898  0.4857  0.1030
 2675SOL    HW119661   3.418   3.020   2.599 -1.4508 -2.1457  2.0971
 2675SOL    HW219662   3.438   3.010   2.743  0.8838 -2.6431 -1.1574
 2676SOL     OW19663   3.073   1.836   0.170 -0.1419 -0.4785  0.0759
 2676SOL    HW119664   3.048   1.775   0.239 -0.7055  1.0053  1.1786
 2676SOL    HW219665   2.993   1.864   0.126  1.3749  0.2737 -2.2050
 2677SOL     OW19666   3.378   2.885   3.574 -0.1686  0.3481 -0.3247
 2677SOL    HW119667   3.465   2.864   3.608 -0.0425 -1.5721 -1.8614
 2677SOL    HW219668   3.341   2.948   3.636 -0.4335  0.3346 -0.4702
 2678SOL     OW19669   3.395   2.917  10.007  0.0944 -0.2704 -0.7234
 2678SOL    HW119670   3.443   2.932  10.089  1.3684 -1.4124 -1.2584
 2678SOL    HW219671   3.304   2.919  10.035  0.8716  0.9650  1.7139
 2679SOL     OW19672   0.384   0.171   3.342 -0.6093 -0.6507 -0.3529
 2679SOL    HW119673   0.333   0.249   3.361 -0.4689 -0.2633 -1.6104
 2679SOL    HW219674   0.451   0.168   3.411 -1.6655  0.4826  0.7011
 2680SOL     OW19675   2.284   2.751   2.228 -0.5788  0.0507  0.3068
 2680SOL    HW119676   2.284   2.721   2.319  0.3225 -1.6011 -0.2514
 2680SOL    HW219677   2.212   2.694   2.200 -0.0195 -0.8926  0.7793
 2681SOL     OW19678   1.351   2.557   9.374 -0.0835  0.3763  0.1927
 2681SOL    HW119679   1.397   2.562   9.457  1.0561  1.7561 -0.5090
 2681SOL    HW219680   1.324   2.469   9.349  1.8799  0.9280 -3.9843
 2682SOL     OW19681   1.792   2.618  13.286 -0.9641  0.7588 -0.0990
 2682SOL    HW119682   1.878   2.576  13.291 -0.6719  0.8810 -3.8964
 2682SOL    HW219683   1.737   2.540  13.273  0.4658 -0.3190  0.2953
 2683SOL     OW19684   4.285   4.093  12.460  0.3157 -0.2592  0.4499
 2683SOL    HW119685   4.326   4.037  12.526  2.7126  1.3318  0.3045
 2683SOL    HW219686   4.361   4.119  12.408  2.0426 -2.8355  1.6788
 2684SOL     OW19687   2.608   0.986   4.996  0.5797  0.4686  0.0324
 2684SOL    HW119688   2.530   0.951   4.954  0.4949  1.1673 -0.3974
 2684SOL    HW219689   2.658   1.022   4.923  1.1005 -3.2624 -1.4309
 2685SOL     OW19690   0.351   1.821   7.192 -0.7189 -0.7197  0.4890
 2685SOL    HW119691   0.412   1.888   7.224 -0.1990 -0.2310 -1.5053
 2685SOL    HW219692   0.275   1.877   7.179 -0.0272 -0.0978 -0.9124
 2686SOL     OW19693   0.255   4.557   6.029  0.2763  0.2729 -0.0712
 2686SOL    HW119694   0.323   4.490   6.019 -0.0158  0.1879 -1.5222
 2686SOL    HW219695   0.286   4.605   6.106 -1.5439 -0.4307  1.1210
 2687SOL     OW19696   2.322   0.082   3.663  0.1285  0.3276  0.3063
 2687SOL    HW119697   2.245   0.067   3.609  0.9105  2.3473 -1.3859
 2687SOL    HW219698   2.277   0.145   3.720  0.1929  0.9677 -0.3424
 2688SOL     OW19699   1.666   4.489   7.410  0.1126  0.0969 -0.4303
 2688SOL    HW119700   1.727   4.425   7.446 -0.1805  0.0234 -0.0631
 2688SOL    HW219701   1.690   4.489   7.318 -1.5473 -1.9219 -0.8508
 2689SOL     OW19702   2.319   1.335   8.447  0.0224 -0.0816 -0.1463
 2689SOL    HW119703   2.374   1.334   8.369  1.4641 -1.5286  0.8857
 2689SOL    HW219704   2.366   1.272   8.501 -0.6758 -1.1462 -0.7728
 2690SOL     OW19705   0.288   1.053   9.895  0.2193 -0.3143  0.2030
 2690SOL    HW119706   0.267   0.977   9.842 -1.4279 -0.5439  1.2047
 2690SOL    HW219707   0.213   1.053   9.955  0.1624  0.0614  0.1349
 2691SOL     OW19708   3.095   1.734   9.293  0.4193  0.2258  0.2631
 2691SOL    HW119709   3.114   1.717   9.201  0.6823 -0.8626  0.5084
 2691SOL    HW219710   3.184   1.755   9.323 -0.0742  0.9015  1.2345
 2692SOL     OW19711   3.934   2.907   3.074 -0.0714  0.9274  0.0179
 2692SOL    HW119712   3.920   2.877   3.164 -2.6495 -0.4480 -0.8796
 2692SOL    HW219713   3.916   2.824   3.031 -2.0228  1.1835  0.3357
 2693SOL     OW19714   2.970   1.012   6.625 -1.1643 -0.4152  0.2224
 2693SOL    HW119715   2.958   0.993   6.719 -0.7082 -2.1350 -0.0659
 2693SOL    HW219716   2.919   0.942   6.584 -1.3384  0.6614 -1.3985
 2694SOL     OW19717   4.692   3.591   6.768 -0.2797 -0.1012 -0.5953
 2694SOL    HW119718   4.609   3.620   6.805 -1.1038 -1.8477 -1.1141
 2694SOL    HW219719   0.018   3.644   6.818 -1.6006 -2.3421  3.4220
 2695SOL     OW19720   1.180   2.873  15.442  0.4408 -0.3431  0.1854
 2695SOL    HW119721   1.208   2.867  15.534  2.8315 -1.9935 -0.6513
 2695SOL    HW219722   1.190   2.783  15.412 -2.3276 -0.9279  1.0907
 2696SOL     OW19723   3.038   1.702   2.021  0.1469  0.2172 -0.4268
 2696SOL    HW119724   3.051   1.753   1.941 -0.1295  1.0407  0.0570
 2696SOL    HW219725   2.943   1.711   2.022  0.1064 -0.3304  0.4696
 2697SOL     OW19726   3.758   2.591  16.162 -0.6954 -0.0883  0.5999
 2697SOL    HW119727   3.680   2.583  16.106  0.3253 -3.1883 -0.3765
 2697SOL    HW219728   3.827   2.556  16.105 -0.7012  0.0021  0.5377
 2698SOL     OW19729   3.231   0.080  12.230  0.6371 -0.0852 -0.1387
 2698SOL    HW119730   3.316   0.098  12.270  0.3017 -2.0114  1.4720
 2698SOL    HW219731   3.188   0.015  12.286  1.6440 -2.6391 -2.3001
 2699SOL     OW19732   4.300   4.501   0.773 -0.1601 -0.4614  0.6225
 2699SOL    HW119733   4.271   4.523   0.862  2.8775  2.5663  0.8569
 2699SOL    HW219734   4.294   4.406   0.780 -1.4511 -0.3516  1.0089
 2700SOL     OW19735   3.298   1.041   8.635 -0.2266  0.3070 -0.4796
 2700SOL    HW119736   3.293   1.132   8.605 -2.5685  1.0693  2.1913
 2700SOL    HW219737   3.347   1.011   8.559  0.3226  1.0233 -0.4021
 2701SOL     OW19738   0.178   0.068   8.313 -0.2686 -0.0906  0.6681
 2701SOL    HW119739   0.173   4.712   8.332 -1.7769 -0.2614 -0.5184
 2701SOL    HW219740   0.205   0.052   8.222  0.9551 -0.9295  1.1916
 2702SOL     OW19741   4.648   2.595   5.419  0.0243 -0.3004 -0.1472
 2702SOL    HW119742   4.616   2.678   5.383  0.6465 -0.2105 -0.4958
 2702SOL    HW219743   4.570   2.548   5.448 -0.1954 -0.3976 -0.9201
 2703SOL     OW19744   2.505   1.703   0.008 -0.4434  0.0146  0.3769
 2703SOL    HW119745   2.562   1.737   0.077 -0.1295 -2.1432  1.1920
 2703SOL    HW219746   2.498   1.781  17.701  1.3247 -1.3129 -1.7805
 2704SOL     OW19747   1.090   4.136   4.725 -0.3278 -0.4327 -0.1849
 2704SOL    HW119748   1.003   4.172   4.743  0.0537  1.1232 -1.4480
 2704SOL    HW219749   1.067   4.047   4.751  0.8444 -0.7976 -0.3659
 2705SOL     OW19750   4.701   3.783   4.097  0.4925 -0.4600  0.0870
 2705SOL    HW119751   4.667   3.763   4.184 -1.5623  1.4229 -0.2832
 2705SOL    HW219752   0.036   3.844   4.104  2.5104 -2.6924 -1.1522
 2706SOL     OW19753   2.771   4.538   4.502 -0.2656  0.0669  0.2088
 2706SOL    HW119754   2.731   4.556   4.587  1.6039 -0.2731  1.1564
 2706SOL    HW219755   2.719   4.479   4.448 -0.3735 -0.3532  0.7637
 2707SOL     OW19756   1.621   1.881   7.829 -0.5081  0.2774 -0.3788
 2707SOL    HW119757   1.684   1.929   7.882  0.8253 -1.7544 -0.1215
 2707SOL    HW219758   1.550   1.883   7.893  0.3506 -0.8359  0.6103
 2708SOL     OW19759   0.136   3.017   7.054 -0.3855  0.3107 -0.1548
 2708SOL    HW119760   0.178   2.967   7.123  0.0788  1.2143  0.2072
 2708SOL    HW219761   0.058   3.052   7.098 -0.2729 -0.1233  0.3827
 2709SOL     OW19762   2.546   3.075   5.713 -0.0206  0.1147  0.6641
 2709SOL    HW119763   2.453   3.097   5.720 -0.1716 -0.4000  0.3158
 2709SOL    HW219764   2.545   2.986   5.749  0.5714  0.5300  1.6723
 2710SOL     OW19765   3.862   1.330   2.488 -0.1506  0.5210 -0.0376
 2710SOL    HW119766   3.769   1.338   2.471 -0.1464 -0.4472 -0.5125
 2710SOL    HW219767   3.871   1.346   2.582  1.3891 -0.3523 -0.0209
 2711SOL     OW19768   0.908   1.895   8.283  0.5840 -0.0070 -0.0682
 2711SOL    HW119769   0.927   1.802   8.272 -2.6799 -0.5794 -0.5974
 2711SOL    HW219770   0.813   1.897   8.282  0.5722 -0.7387  0.0069
 2712SOL     OW19771   3.412   1.329  10.445  0.9417  0.5981 -0.2157
 2712SOL    HW119772   3.408   1.290  10.533  1.0636 -0.6526 -0.7702
 2712SOL    HW219773   3.351   1.403  10.449  0.8279  0.4021  2.0307
 2713SOL     OW19774   2.637   3.555   7.088  0.2028 -0.2796  0.4993
 2713SOL    HW119775   2.726   3.568   7.056  0.3367  0.5797  1.2122
 2713SOL    HW219776   2.636   3.605   7.170  0.4364 -1.7946  1.4210
 2714SOL     OW19777   2.118   0.901   3.165  0.1248  0.2081 -0.1538
 2714SOL    HW119778   2.186   0.950   3.118 -0.4349  0.7102 -0.4233
 2714SOL    HW219779   2.153   0.909   3.254  0.7054  0.7402 -0.4281
 2715SOL     OW19780   1.163   4.004   7.211 -0.3466  0.4284 -0.7591
 2715SOL    HW119781   1.100   4.072   7.191 -0.0118  0.4813 -1.6084
 2715SOL    HW219782   1.183   4.014   7.304  0.2581 -1.0950 -0.7126
 2716SOL     OW19783   4.726   4.127  12.965  0.0737 -0.3611 -0.2114
 2716SOL    HW119784   4.729   4.058  13.032 -0.0581  0.6571  0.8503
 2716SOL    HW219785   4.634   4.151  12.975  0.4599  1.1783 -0.4089
 2717SOL     OW19786   0.838   1.727   9.771 -0.2858 -1.1814 -0.1405
 2717SOL    HW119787   0.918   1.675   9.770 -0.6541 -1.7060 -1.9481
 2717SOL    HW219788   0.863   1.794   9.835  4.8615 -2.3334 -0.9049
 2718SOL     OW19789   1.205   2.599  14.527 -0.2453 -0.6214  0.5387
 2718SOL    HW119790   1.278   2.563  14.578  0.4922 -0.9057 -0.7244
 2718SOL    HW219791   1.209   2.692  14.546  0.7203 -0.4733 -0.4103
 2719SOL     OW19792   0.089   2.301   3.064 -0.0752  0.2166 -0.1746
 2719SOL    HW119793   0.033   2.379   3.055  0.8287  0.8231 -0.5745
 2719SOL    HW219794   0.133   2.304   2.979 -0.7739  2.1649 -0.4711
 2720SOL     OW19795   3.331   0.980  11.342  0.0614 -0.4538 -0.0656
 2720SOL    HW119796   3.407   1.013  11.391  0.5310 -1.0177 -0.4184
 2720SOL    HW219797   3.366   0.980  11.253  1.5427  0.7252  0.5044
 2721SOL     OW19798   1.520   1.951   1.407 -0.2348  0.8137 -0.0696
 2721SOL    HW119799   1.458   1.988   1.470 -0.4694  1.0901 -0.4617
 2721SOL    HW219800   1.463   1.951   1.330  1.8886  1.7430 -1.6669
 2722SOL     OW19801   1.475   1.383   9.110 -0.1253 -0.4713  0.4562
 2722SOL    HW119802   1.494   1.461   9.057 -1.8413 -0.2867  0.1299
 2722SOL    HW219803   1.499   1.310   9.053 -0.8813 -0.1544 -0.2622
 2723SOL     OW19804   2.442   4.040  15.362 -0.4637  0.4972  0.4830
 2723SOL    HW119805   2.403   4.067  15.445 -0.3636 -0.6873  0.9057
 2723SOL    HW219806   2.491   3.963  15.392 -0.8696  0.0929  0.1030
 2724SOL     OW19807   0.886   2.473   1.156  0.6622 -0.1936  0.3398
 2724SOL    HW119808   0.897   2.408   1.225 -1.0312 -3.1896 -2.2252
 2724SOL    HW219809   0.929   2.547   1.200 -0.1204 -0.3245  1.3112
 2725SOL     OW19810   3.599   1.789   2.693  0.3195  0.3493 -0.6216
 2725SOL    HW119811   3.625   1.867   2.643 -1.2043  1.2363 -0.0025
 2725SOL    HW219812   3.666   1.791   2.762 -0.5839  1.0531  0.2247
 2726SOL     OW19813   0.478   0.777   6.439 -0.7207 -0.0876  0.0990
 2726SOL    HW119814   0.567   0.771   6.404 -0.5546 -0.2382  0.5367
 2726SOL    HW219815   0.444   0.688   6.427  0.0742 -0.3822 -0.0132
 2727SOL     OW19816   3.444   1.608   2.573 -0.4343  0.5371  0.0545
 2727SOL    HW119817   3.460   1.527   2.620  3.6150  0.1516 -1.9609
 2727SOL    HW219818   3.478   1.673   2.634 -0.1615 -1.4791  2.0519
 2728SOL     OW19819   3.893   2.029   6.303 -0.1376  0.0090  0.1446
 2728SOL    HW119820   3.826   1.992   6.245 -0.0517  1.1479 -0.6920
 2728SOL    HW219821   3.907   1.955   6.362  0.3319  0.8045  1.0271
 2729SOL     OW19822   1.840   3.167  14.433  0.1623 -0.4512 -0.0028
 2729SOL    HW119823   1.823   3.253  14.471 -1.6082 -1.9234  2.4764
 2729SOL    HW219824   1.757   3.139  14.394 -0.3416  1.4388 -0.2992
 2730SOL     OW19825   3.767   2.738   5.656  0.1998  0.0507  0.3778
 2730SOL    HW119826   3.812   2.698   5.582  0.2988  0.2693  0.3204
 2730SOL    HW219827   3.826   2.810   5.676  3.1207 -2.0174 -0.8377
 2731SOL     OW19828   2.087   4.692   1.643  0.1868  0.4114  0.1203
 2731SOL    HW119829   2.055   4.640   1.569 -2.0121 -0.6231  1.7732
 2731SOL    HW219830   2.183   4.691   1.643  0.1706 -1.4086 -0.7059
 2732SOL     OW19831   0.716   2.595   1.891  0.1697 -0.2874  0.6619
 2732SOL    HW119832   0.777   2.537   1.845 -0.9751 -1.0911  0.1539
 2732SOL    HW219833   0.763   2.677   1.901  2.4606 -1.3503 -1.2822
 2733SOL     OW19834   4.687   0.735   9.870  0.0814 -0.8169 -0.0452
 2733SOL    HW119835   4.702   0.663   9.809  2.4708  1.9250 -2.6734
 2733SOL    HW219836   0.008   0.701   9.939 -1.2824  0.4238  1.7181
 2734SOL     OW19837   2.355   2.554   3.307  0.4755  0.1040 -0.3207
 2734SOL    HW119838   2.398   2.522   3.228 -2.4537  1.4416 -2.4726
 2734SOL    HW219839   2.414   2.533   3.379  0.7253  1.1568 -0.2185
 2735SOL     OW19840   3.871   0.991   1.672  0.1246 -0.3333  0.1509
 2735SOL    HW119841   3.886   1.069   1.725  0.9130 -0.2284 -0.2360
 2735SOL    HW219842   3.957   0.953   1.655  1.2234  2.0997  0.4132
 2736SOL     OW19843   2.044   1.837  16.941 -0.2093 -0.3323 -0.7136
 2736SOL    HW119844   2.037   1.929  16.968 -1.8806 -0.4471 -0.7410
 2736SOL    HW219845   2.050   1.853  16.846 -1.5746  1.0361 -0.5662
 2737SOL     OW19846   1.067   4.620   9.206  0.2175  0.0730  0.0785
 2737SOL    HW119847   1.038   4.673   9.132 -1.6089 -0.2486  0.5804
 2737SOL    HW219848   1.008   4.546   9.199  0.5712 -0.2132  0.1025
 2738SOL     OW19849   2.385   3.112   6.013 -0.0635 -0.2525 -0.1667
 2738SOL    HW119850   2.328   3.169   6.064  1.0462  1.1913 -0.5667
 2738SOL    HW219851   2.312   3.062   5.976  0.2111  0.6371 -1.8837
 2739SOL     OW19852   0.903   2.581  14.312 -0.0324 -0.0028  0.2556
 2739SOL    HW119853   0.973   2.524  14.281 -0.3318  0.1646 -0.7174
 2739SOL    HW219854   0.872   2.603  14.224  2.7051  1.8878 -0.2311
 2740SOL     OW19855   2.867   3.167   2.918 -0.3345  0.1624 -1.2739
 2740SOL    HW119856   2.792   3.222   2.941  0.3876 -0.0790  1.6738
 2740SOL    HW219857   2.896   3.213   2.839 -1.5343  3.6975  0.3224
 2741SOL     OW19858   1.002   4.380   5.200  0.5109  0.6311 -0.2237
 2741SOL    HW119859   0.963   4.458   5.240 -1.2271 -0.6786  0.6802
 2741SOL    HW219860   0.931   4.367   5.137  0.6106 -1.1469  0.0074
 2742SOL     OW19861   0.055   0.336   8.882  0.3692 -0.4548 -0.3826
 2742SOL    HW119862   0.026   0.428   8.881  1.7519 -0.0092  1.9599
 2742SOL    HW219863   0.145   0.348   8.849  0.9110  1.0560  1.6742
 2743SOL     OW19864   0.159   1.350   7.270 -0.4375 -0.2259 -0.3717
 2743SOL    HW119865   0.104   1.416   7.228  0.0145  0.2262 -0.2568
 2743SOL    HW219866   0.176   1.389   7.355  0.5667  0.6752 -0.9892
 2744SOL     OW19867   0.240   2.997   4.372 -0.6127 -0.7917  0.3556
 2744SOL    HW119868   0.293   2.927   4.410  0.4236 -0.2404 -0.0501
 2744SOL    HW219869   0.208   2.955   4.293 -2.9448  0.9353  0.3907
 2745SOL     OW19870   3.043   4.706   5.414 -0.0757  0.1607  0.0755
 2745SOL    HW119871   3.066   4.706   5.507 -0.1067  0.6025  0.0855
 2745SOL    HW219872   2.966   4.652   5.396  0.6028 -0.6261 -0.4694
 2746SOL     OW19873   0.545   2.060  13.709  0.1602 -0.0515 -0.3252
 2746SOL    HW119874   0.623   2.030  13.661  0.9489 -1.0471  1.5723
 2746SOL    HW219875   0.484   2.015  13.650  1.0164 -0.8921 -0.5975
 2747SOL     OW19876   4.023   4.668   9.630 -0.2495 -0.2610 -0.4522
 2747SOL    HW119877   4.075   4.634   9.703  0.4379 -0.4250 -1.0227
 2747SOL    HW219878   3.951   4.715   9.673  0.3225  0.9200 -0.7682
 2748SOL     OW19879   1.553   1.307  15.789  0.2421  0.0894 -0.7250
 2748SOL    HW119880   1.551   1.398  15.761 -2.3969  1.1578  3.0440
 2748SOL    HW219881   1.603   1.325  15.868  0.4538  0.7834 -1.0166
 2749SOL     OW19882   0.350   3.050   3.984 -0.0541  0.0451  0.1129
 2749SOL    HW119883   0.386   3.100   4.057  0.7188 -1.5271  0.8027
 2749SOL    HW219884   0.385   3.111   3.919 -4.9197  1.4300 -1.2023
 2750SOL     OW19885   4.239   3.511   1.496 -0.4499 -0.1356  0.8622
 2750SOL    HW119886   4.249   3.594   1.542  0.3063  0.8795 -1.1396
 2750SOL    HW219887   4.197   3.461   1.566 -0.9296 -0.8638  0.0595
 2751SOL     OW19888   1.994   0.649   4.475 -1.0503  0.1182 -0.7276
 2751SOL    HW119889   1.936   0.617   4.545 -0.6181  2.9242  0.9322
 2751SOL    HW219890   1.972   0.591   4.402  0.5835  0.6670 -1.6410
 2752SOL     OW19891   0.224   1.930   3.552 -0.3716 -0.3758 -0.1010
 2752SOL    HW119892   0.302   1.908   3.501 -1.1514 -1.6605 -0.7209
 2752SOL    HW219893   0.261   1.974   3.629 -2.6286  0.0066  0.7584
 2753SOL     OW19894   2.754   0.693   2.347  0.3389 -0.4382  0.3317
 2753SOL    HW119895   2.836   0.691   2.397  0.9287  0.7829 -0.5886
 2753SOL    HW219896   2.693   0.634   2.392  0.7786  0.2828  1.8567
 2754SOL     OW19897   1.871   0.268   2.925 -0.3976 -0.1821 -0.6743
 2754SOL    HW119898   1.790   0.288   2.972 -0.3963 -0.6252 -0.4844
 2754SOL    HW219899   1.878   0.350   2.876  1.3367 -0.7280 -1.3370
 2755SOL     OW19900   4.454   1.284  15.121  0.3453  0.4176  0.7527
 2755SOL    HW119901   4.528   1.275  15.181  1.6974  1.8120 -0.7032
 2755SOL    HW219902   4.379   1.309  15.176 -0.1147  0.1636  0.2511
 2756SOL     OW19903   3.434   1.079   3.279 -0.2360 -0.0634 -0.6336
 2756SOL    HW119904   3.430   1.079   3.375  0.6188  0.1221 -0.5967
 2756SOL    HW219905   3.344   1.087   3.246 -0.1089 -1.5903 -1.3137
 2757SOL     OW19906   3.135   4.421   5.293  0.5809 -0.1273  0.5620
 2757SOL    HW119907   3.056   4.381   5.257 -0.6740  2.2994  0.5974
 2757SOL    HW219908   3.119   4.513   5.271 -1.0049 -0.4994  0.1810
 2758SOL     OW19909   0.528   3.723   2.256 -0.6927  0.4854  0.4416
 2758SOL    HW119910   0.528   3.802   2.203 -2.6980  0.1818 -0.0389
 2758SOL    HW219911   0.480   3.661   2.201  3.5049 -1.3209 -1.1513
 2759SOL     OW19912   3.222   1.336  12.958  0.7032 -0.6116 -0.1544
 2759SOL    HW119913   3.248   1.355  12.868  0.0034 -0.4107 -0.3084
 2759SOL    HW219914   3.189   1.247  12.959 -0.2120 -0.2794 -0.7478
 2760SOL     OW19915   1.954   2.523  10.661  0.2605 -0.1782  0.8836
 2760SOL    HW119916   1.901   2.468  10.719 -0.3839 -1.5216 -0.9880
 2760SOL    HW219917   1.907   2.606  10.656  0.6805 -0.1344 -2.2041
 2761SOL     OW19918   2.354   3.229   1.859 -0.1446 -0.1239  0.0586
 2761SOL    HW119919   2.346   3.134   1.861  1.1978 -0.2322  0.5147
 2761SOL    HW219920   2.436   3.240   1.810  1.5790 -0.0698  2.9611
 2762SOL     OW19921   1.086   2.634  10.983  0.0676 -0.2109 -0.5671
 2762SOL    HW119922   1.063   2.716  10.939 -0.7467  0.2958  0.7919
 2762SOL    HW219923   1.182   2.633  10.983  0.0964  1.0611  3.1414
 2763SOL     OW19924   0.114   4.073   9.521  0.4562  0.1297  0.1491
 2763SOL    HW119925   0.024   4.077   9.551  1.1626  2.5412  1.9736
 2763SOL    HW219926   0.111   4.085   9.426  0.9843 -0.6226  0.0316
 2764SOL     OW19927   3.162   3.198  10.027  0.1162  0.4872  0.4604
 2764SOL    HW119928   3.180   3.230   9.939  1.6388 -0.5987  0.3781
 2764SOL    HW219929   3.224   3.247  10.082  0.5860  0.6346 -0.1967
 2765SOL     OW19930   0.795   4.371   7.909  0.7663  0.2065 -0.0781
 2765SOL    HW119931   0.887   4.384   7.932  0.2580  2.1631  0.8054
 2765SOL    HW219932   0.750   4.410   7.984 -0.1814  1.2703 -1.2047
 2766SOL     OW19933   4.646   0.128   7.714 -0.2503 -0.6896 -0.0392
 2766SOL    HW119934   4.636   0.147   7.621 -1.2468  0.8337  0.3857
 2766SOL    HW219935   0.004   0.118   7.716 -0.2018 -1.2147 -4.7177
 2767SOL     OW19936   0.507   1.630  15.117  0.3118  0.2440  0.3159
 2767SOL    HW119937   0.548   1.550  15.084  1.5408  0.8524  0.3739
 2767SOL    HW219938   0.547   1.695  15.060 -1.0105 -0.5710 -1.5476
 2768SOL     OW19939   1.677   1.209   4.518 -0.3848  0.1832 -0.5222
 2768SOL    HW119940   1.622   1.131   4.520  0.3254 -0.3158 -0.1184
 2768SOL    HW219941   1.726   1.198   4.600 -0.9068 -0.9529 -0.3649
 2769SOL     OW19942   2.324   2.861   6.371  0.5968  0.4141  0.5882
 2769SOL    HW119943   2.299   2.781   6.417 -1.3635  0.1363 -0.9858
 2769SOL    HW219944   2.296   2.936   6.424  1.2089 -0.6461  2.4099
 2770SOL     OW19945   4.137   2.742  11.405  0.5179  0.6841 -0.4931
 2770SOL    HW119946   4.056   2.780  11.438 -0.0362 -0.3042 -0.7277
 2770SOL    HW219947   4.125   2.745  11.311  2.5874  0.6753 -0.7634
 2771SOL     OW19948   4.137   2.376   6.193  0.2552 -0.2295 -0.2640
 2771SOL    HW119949   4.052   2.371   6.237  0.8635 -0.1158  0.9248
 2771SOL    HW219950   4.124   2.339   6.106 -0.7627 -1.3089  0.3428
 2772SOL     OW19951   0.813   0.457  11.570 -0.0047  0.1310  0.1822
 2772SOL    HW119952   0.867   0.411  11.635  0.0710  0.8208  0.5973
 2772SOL    HW219953   0.846   0.546  11.582 -0.2823  0.3934 -0.9558
 2773SOL     OW19954   4.065   2.896   8.276 -0.1269  0.7659 -0.0091
 2773SOL    HW119955   4.045   2.807   8.306  1.7283 -0.4589 -2.4794
 2773SOL    HW219956   3.979   2.936   8.264 -0.3166  0.3694  0.0275
 2774SOL     OW19957   0.165   2.496   4.882 -0.2870  0.0468  0.1833
 2774SOL    HW119958   0.226   2.424   4.869 -1.1719 -0.4950 -1.0237
 2774SOL    HW219959   0.132   2.502   4.792 -0.1346  1.6609  0.2414
 2775SOL     OW19960   0.920   4.184   4.200  0.0736  0.0771 -0.2368
 2775SOL    HW119961   0.929   4.137   4.117 -0.8809 -1.2027  0.3741
 2775SOL    HW219962   0.920   4.118   4.269  1.6911  0.3076 -0.0388
 2776SOL     OW19963   2.932   0.928   5.734 -0.1466 -0.0586 -0.5287
 2776SOL    HW119964   2.928   1.011   5.783 -0.5574  0.2832 -1.1501
 2776SOL    HW219965   3.023   0.899   5.728 -0.1760 -0.6201  1.6401
 2777SOL     OW19966   3.736   3.096   3.063 -0.7698  0.2174  0.0704
 2777SOL    HW119967   3.804   3.028   3.069  0.9288  1.9045 -0.2444
 2777SOL    HW219968   3.763   3.133   2.979 -3.3351  3.9906  0.8884
 2778SOL     OW19969   4.215   4.657  13.710  0.2651  0.1575  0.4238
 2778SOL    HW119970   4.266   4.704  13.776  0.9006 -0.9797  0.7558
 2778SOL    HW219971   4.210   4.575  13.760  0.2201 -0.7189 -1.0280
 2779SOL     OW19972   4.101   0.674   2.726  0.0592 -0.4255  0.3316
 2779SOL    HW119973   4.188   0.635   2.712 -1.0634 -2.4529 -1.0232
 2779SOL    HW219974   4.126   0.766   2.722 -1.8357  0.0594 -0.0164
 2780SOL     OW19975   3.926   2.842   3.353 -0.1034 -0.5996 -0.1271
 2780SOL    HW119976   3.878   2.781   3.410 -0.2776 -0.4804 -0.1459
 2780SOL    HW219977   3.909   2.931   3.384  0.0785 -0.5933 -0.0409
 2781SOL     OW19978   3.428   0.708   4.279  0.2732  0.2217  0.2916
 2781SOL    HW119979   3.404   0.621   4.248 -0.7329  0.4025  0.5418
 2781SOL    HW219980   3.510   0.701   4.328  0.2571  0.7611  0.3927
 2782SOL     OW19981   2.151   2.986   4.110 -0.4492 -0.1639 -0.4708
 2782SOL    HW119982   2.175   3.078   4.123  1.7952 -0.6601 -1.0611
 2782SOL    HW219983   2.068   2.993   4.157  1.3471 -0.2008  2.6481
 2783SOL     OW19984   0.929   0.114  13.384 -0.0470 -0.0473  0.4243
 2783SOL    HW119985   0.900   0.024  13.368 -0.8910  0.3810 -0.3985
 2783SOL    HW219986   0.854   0.163  13.352  0.4749 -0.9143 -2.1156
 2784SOL     OW19987   3.842   1.190   0.777 -0.0816 -0.2622 -0.0780
 2784SOL    HW119988   3.775   1.259   0.774 -1.2515 -1.3174  1.6530
 2784SOL    HW219989   3.871   1.201   0.868  0.5203 -1.6928 -0.1045
 2785SOL     OW19990   3.577   1.886  17.719  0.5573  0.4656  0.8138
 2785SOL    HW119991   3.485   1.876  17.744  0.7838  0.9323  1.8221
 2785SOL    HW219992   3.608   1.795  17.727  1.7495  0.9015  1.1021
 2786SOL     OW19993   1.909   2.472   7.432 -0.2325  0.5323  0.3132
 2786SOL    HW119994   1.919   2.565   7.454 -1.0102  0.4862  0.8538
 2786SOL    HW219995   1.840   2.472   7.365 -1.4002 -1.0764  1.5246
 2787SOL     OW19996   0.276   0.695  16.030 -0.0882 -0.1732  0.1897
 2787SOL    HW119997   0.305   0.723  15.943  1.1918 -3.6949 -0.5478
 2787SOL    HW219998   0.197   0.749  16.036  1.1430  1.5676  0.8616
 2788SOL     OW19999   3.935   2.436  14.252 -0.2548 -0.1751  0.2074
 2788SOL    HW120000   3.895   2.372  14.310  0.6753 -0.2796  0.7328
 2788SOL    HW220001   4.006   2.392  14.206  0.7748 -0.1827  1.8387
 2789SOL     OW20002   0.302   0.871   4.234  0.4530  0.5095 -0.6048
 2789SOL    HW120003   0.257   0.844   4.314 -1.5750  1.3116 -1.4859
 2789SOL    HW220004   0.386   0.899   4.270  0.1749  0.9672 -0.3067
 2790SOL     OW20005   0.274   2.070   8.514  0.5178 -0.5406  0.5959
 2790SOL    HW120006   0.341   2.008   8.485  0.1428 -2.3914  3.6872
 2790SOL    HW220007   0.287   2.150   8.464 -0.6000 -0.9335 -0.3387
 2791SOL     OW20008   3.003   2.924   7.176  0.1177  0.3545 -0.1253
 2791SOL    HW120009   2.911   2.900   7.188 -0.0425 -0.3090 -2.7076
 2791SOL    HW220010   3.009   3.013   7.141 -0.2202  0.3461 -0.2030
 2792SOL     OW20011   0.186   3.857  12.212 -0.0272 -0.2663  0.3547
 2792SOL    HW120012   0.253   3.906  12.258 -1.4593  0.4176  1.7261
 2792SOL    HW220013   0.186   3.772  12.258  0.6016  0.2303  1.2729
 2793SOL     OW20014   3.578   2.195   3.648  0.0229  0.0045  0.1464
 2793SOL    HW120015   3.568   2.187   3.553  0.5160 -0.2590  0.1189
 2793SOL    HW220016   3.566   2.290   3.649 -1.4601 -0.1891  0.7186
 2794SOL     OW20017   4.561   2.817   5.333  0.2027 -0.2342 -0.1300
 2794SOL    HW120018   4.652   2.846   5.326  1.3043 -3.1438  2.0987
 2794SOL    HW220019   4.517   2.902   5.335 -0.3348 -0.4982 -0.6191
 2795SOL     OW20020   0.342   4.197   2.042  0.0086 -0.7548 -0.6011
 2795SOL    HW120021   0.318   4.258   1.972  2.3116  2.0972  1.0396
 2795SOL    HW220022   0.258   4.152   2.052 -0.8025  0.6130 -1.3159
 2796SOL     OW20023   1.356   2.131   7.746  0.4805 -0.0992  0.5330
 2796SOL    HW120024   1.416   2.158   7.815  1.7413 -0.9009 -0.2686
 2796SOL    HW220025   1.420   2.090   7.689  1.1222  0.8650  0.5491
 2797SOL     OW20026   3.022   1.564   3.697 -0.3974  0.5511  0.0707
 2797SOL    HW120027   2.969   1.515   3.635 -1.5210 -0.3244  1.7317
 2797SOL    HW220028   3.075   1.492   3.733  1.4195  1.2157 -1.2517
 2798SOL     OW20029   0.594   4.463   7.536  0.3710 -0.2329 -0.0583
 2798SOL    HW120030   0.507   4.430   7.514 -0.7055  0.9893  2.4237
 2798SOL    HW220031   0.580   4.558   7.528 -1.4559 -0.3335  2.0399
 2799SOL     OW20032   3.045   4.230   8.638  0.3085  0.0695 -0.2670
 2799SOL    HW120033   3.107   4.238   8.565  0.0471 -1.7859 -0.6896
 2799SOL    HW220034   2.960   4.220   8.595 -0.7570  0.1822  1.8339
 2800SOL     OW20035   2.690   3.416   8.096 -0.1384  0.4720  0.2462
 2800SOL    HW120036   2.730   3.348   8.042 -0.7671 -0.2164  0.6410
 2800SOL    HW220037   2.666   3.477   8.027  0.7002  0.1920 -0.2972
 2801SOL     OW20038   1.388   3.761   1.710  0.1150 -0.3410 -0.1249
 2801SOL    HW120039   1.377   3.806   1.794 -0.9973  0.1049 -0.5184
 2801SOL    HW220040   1.312   3.788   1.659  0.4213  0.7528 -0.0222
 2802SOL     OW20041   1.009   2.723   0.416 -0.4626 -0.4600  0.4929
 2802SOL    HW120042   0.970   2.803   0.450  1.0501 -0.1315  1.4785
 2802SOL    HW220043   0.929   2.679   0.389 -1.3563  1.4825 -0.0198
 2803SOL     OW20044   0.587   4.535   7.010  0.3656 -0.1462  0.1990
 2803SOL    HW120045   0.508   4.579   7.040  1.0713  1.4085 -0.2254
 2803SOL    HW220046   0.560   4.509   6.922  1.3502  0.5769 -0.3274
 2804SOL     OW20047   2.523   0.696   5.560  0.2645  0.2947 -0.2387
 2804SOL    HW120048   2.472   0.655   5.491 -0.2875  0.7751 -0.1117
 2804SOL    HW220049   2.484   0.783   5.572 -1.4851 -0.4484 -0.5957
 2805SOL     OW20050   0.279   3.437   6.738 -0.2488  0.4473  0.1251
 2805SOL    HW120051   0.334   3.433   6.659  3.6862  0.8880  2.8435
 2805SOL    HW220052   0.195   3.396   6.716  0.8874 -0.7190 -2.0816
 2806SOL     OW20053   3.375   2.214   5.566  0.4500  0.9213  0.0142
 2806SOL    HW120054   3.302   2.213   5.505 -0.4246  2.0520  1.0467
 2806SOL    HW220055   3.451   2.218   5.507 -0.1125 -0.4130 -0.7940
 2807SOL     OW20056   0.473   0.208   7.241 -0.7800  0.1023  0.2744
 2807SOL    HW120057   0.405   0.244   7.299  0.3838  0.0770  1.6677
 2807SOL    HW220058   0.521   0.286   7.216 -0.2524 -1.2130 -2.7564
 2808SOL     OW20059   0.191   3.431   7.331 -0.0954 -1.1232 -0.1490
 2808SOL    HW120060   0.178   3.415   7.238 -1.5740 -1.4593  0.1074
 2808SOL    HW220061   0.151   3.350   7.364 -0.8024 -1.8326 -2.8180
 2809SOL     OW20062   3.256   3.769   6.133 -0.1992 -0.1716  0.2705
 2809SOL    HW120063   3.272   3.715   6.055 -2.5077  1.1858 -1.1556
 2809SOL    HW220064   3.196   3.834   6.096  2.0201  0.8062 -1.5703
 2810SOL     OW20065   1.458   2.617   4.267  0.0116  0.2681 -0.0322
 2810SOL    HW120066   1.400   2.564   4.212  0.7351  0.3785 -0.9055
 2810SOL    HW220067   1.464   2.700   4.219  2.4710 -0.8216 -1.5501
 2811SOL     OW20068   0.690   0.813   3.104  0.1124  0.1505 -0.6112
 2811SOL    HW120069   0.713   0.881   3.040  0.1780 -0.4605 -1.2308
 2811SOL    HW220070   0.663   0.738   3.051 -0.1907  0.3333 -0.7150
 2812SOL     OW20071   2.535   1.770   2.152  0.9240  0.0376 -0.2054
 2812SOL    HW120072   2.554   1.791   2.244  1.4311 -0.8964 -0.1014
 2812SOL    HW220073   2.448   1.734   2.170  0.6155  0.8202 -0.0967
 2813SOL     OW20074   4.692   3.096  10.911 -0.2630  0.5199  0.3402
 2813SOL    HW120075   4.727   3.007  10.899  1.8132  1.5007 -0.8110
 2813SOL    HW220076   0.009   3.148  10.852  0.3351 -1.3415 -0.7471
 2814SOL     OW20077   1.378   3.459   5.639  0.2358  0.9576 -0.0873
 2814SOL    HW120078   1.365   3.549   5.610 -1.5415  0.5752 -0.5004
 2814SOL    HW220079   1.293   3.419   5.623 -0.4830  2.2671  0.4806
 2815SOL     OW20080   1.373   4.699   5.004  0.1143  0.0647  0.1593
 2815SOL    HW120081   1.379   0.006   4.919  1.6564 -1.7477 -0.6649
 2815SOL    HW220082   1.279   4.702   5.019  0.3685 -3.5071  2.6834
 2816SOL     OW20083   0.662   1.388   4.307  0.7038  0.0846 -0.3720
 2816SOL    HW120084   0.696   1.345   4.386  0.1116  2.3970  1.1584
 2816SOL    HW220085   0.619   1.312   4.268  0.7627 -0.4222  0.5390
 2817SOL     OW20086   4.481   2.724   1.765 -0.8487  0.3237 -0.3412
 2817SOL    HW120087   4.453   2.658   1.828  0.5882  0.1990  0.1486
 2817SOL    HW220088   4.570   2.731   1.798 -1.4909  3.4629  0.6533
 2818SOL     OW20089   1.865   0.432  13.462 -0.1768 -0.3923 -0.5555
 2818SOL    HW120090   1.894   0.467  13.378  0.4109 -0.0466 -0.2109
 2818SOL    HW220091   1.924   0.484  13.517 -0.9144  1.6266 -1.6762
 2819SOL     OW20092   2.499   2.133   9.433 -0.0932  0.4089 -0.1583
 2819SOL    HW120093   2.552   2.090   9.366 -0.1243  1.7932 -1.0787
 2819SOL    HW220094   2.433   2.066   9.453 -1.1746  1.5996  0.2996
 2820SOL     OW20095   1.534   0.961  10.511  0.2715 -0.0755  0.0102
 2820SOL    HW120096   1.477   0.996  10.579 -1.2388 -3.1946  0.3447
 2820SOL    HW220097   1.470   0.896  10.483  1.2803 -0.6676 -0.9202
 2821SOL     OW20098   2.469   4.716  16.751  0.3746 -0.0553  0.2112
 2821SOL    HW120099   2.513   4.632  16.741  0.8366  0.4382 -1.8712
 2821SOL    HW220100   2.470   0.022  16.666 -1.9051  0.3806  0.4049
 2822SOL     OW20101   3.012   0.466   5.228  0.3599  0.3961 -0.2381
 2822SOL    HW120102   2.991   0.516   5.307  1.6338 -0.6882  0.7953
 2822SOL    HW220103   2.964   0.524   5.168 -0.2338  0.1874  0.0375
 2823SOL     OW20104   0.847   2.866  15.467  0.5015  0.1174 -0.0624
 2823SOL    HW120105   0.862   2.773  15.451  0.0566  0.1191 -0.4979
 2823SOL    HW220106   0.896   2.878  15.549  0.0368 -1.6679  0.4632
 2824SOL     OW20107   3.449   1.666  12.500 -0.1025  0.6019 -0.0191
 2824SOL    HW120108   3.458   1.609  12.576 -0.7462 -1.4151 -1.4288
 2824SOL    HW220109   3.485   1.616  12.426 -0.0509  0.0175  0.3996
 2825SOL     OW20110   1.274   1.987   3.142 -0.2373  0.7189 -0.1489
 2825SOL    HW120111   1.364   1.965   3.166 -0.4997  1.3144  1.3814
 2825SOL    HW220112   1.268   2.080   3.162 -1.5130  0.9704 -1.7136
 2826SOL     OW20113   3.289   4.119   3.284 -0.4041  0.1895 -0.8754
 2826SOL    HW120114   3.285   4.051   3.352 -0.1188  2.2768  1.2342
 2826SOL    HW220115   3.353   4.183   3.315  1.4918 -2.5519  0.8433
 2827SOL     OW20116   4.056   3.242  15.381 -0.3725 -0.3747 -0.7361
 2827SOL    HW120117   4.004   3.194  15.317 -0.5487  0.6178 -1.3269
 2827SOL    HW220118   3.988   3.275  15.440 -1.5688 -0.8455 -1.8687
 2828SOL     OW20119   1.019   1.057  13.853 -0.0278  0.0344 -0.4636
 2828SOL    HW120120   1.071   1.118  13.800 -2.1414  1.9194 -0.3725
 2828SOL    HW220121   1.007   0.988  13.788  3.1643  0.5062 -1.5848
 2829SOL     OW20122   4.252   3.147  11.177  0.0192  0.1991  0.0955
 2829SOL    HW120123   4.336   3.102  11.177 -0.0727  0.0272  0.2056
 2829SOL    HW220124   4.290   3.234  11.167 -0.5015  0.6711  2.3004
 2830SOL     OW20125   2.714   2.450   1.567  0.2719 -0.1388 -0.1538
 2830SOL    HW120126   2.743   2.429   1.478  1.0366 -1.4815  0.4157
 2830SOL    HW220127   2.771   2.526   1.581 -2.0594  1.6206 -0.1877
 2831SOL     OW20128   1.476   0.442  15.857  0.0764 -0.0047 -0.0795
 2831SOL    HW120129   1.533   0.481  15.791  1.1057 -0.6703  0.4198
 2831SOL    HW220130   1.479   0.352  15.826 -1.4308  0.1635 -0.7104
 2832SOL     OW20131   2.343   0.528   2.003 -0.2108 -0.0372 -0.1440
 2832SOL    HW120132   2.390   0.468   2.062 -2.2022  0.0086  1.4917
 2832SOL    HW220133   2.365   0.613   2.040 -1.5185 -0.5396  1.7739
 2833SOL     OW20134   0.464   1.004   7.394 -0.6178 -0.4437  0.5862
 2833SOL    HW120135   0.393   1.055   7.434 -2.8282 -1.5020 -2.0710
 2833SOL    HW220136   0.537   1.026   7.454 -1.3352  0.7597  1.0293
 2834SOL     OW20137   0.780   2.572   6.974  0.5443  0.5226  0.4499
 2834SOL    HW120138   0.778   2.590   6.880 -0.7598 -1.4079  0.1085
 2834SOL    HW220139   0.814   2.483   6.979  2.0415  0.9413 -2.5139
 2835SOL     OW20140   0.068   1.374  12.524 -0.7441  0.3001 -0.2605
 2835SOL    HW120141   0.074   1.463  12.488 -0.1653  0.1776 -0.4601
 2835SOL    HW220142   4.735   1.333  12.473  1.1793  0.7024 -3.2216
 2836SOL     OW20143   2.670   1.033   8.258 -0.3789 -0.5767 -0.6861
 2836SOL    HW120144   2.643   0.984   8.180 -4.4841  2.6399 -1.2642
 2836SOL    HW220145   2.709   1.105   8.208  1.4604 -1.7152 -0.9014
 2837SOL     OW20146   4.387   3.082   2.037  0.0140  0.3643  0.1757
 2837SOL    HW120147   4.480   3.106   2.040 -0.1224  1.2336 -2.3842
 2837SOL    HW220148   4.369   3.103   2.128 -0.1028 -1.8063  0.6341
 2838SOL     OW20149   1.938   1.870   7.692 -0.4043  0.0246 -0.1058
 2838SOL    HW120150   1.924   1.902   7.781  1.0437 -0.0882  0.1605
 2838SOL    HW220151   1.980   1.952   7.668 -1.9827  1.0524  0.6547
 2839SOL     OW20152   0.863   2.994   2.465  0.0700 -0.0362  0.0687
 2839SOL    HW120153   0.776   3.019   2.496  0.1600 -1.1863  1.2745
 2839SOL    HW220154   0.907   3.003   2.550 -0.7429 -0.8686  0.5817
 2840SOL     OW20155   0.672   2.298   3.590  0.1201  0.1064 -0.6343
 2840SOL    HW120156   0.762   2.264   3.584  0.0947  0.0452 -0.6771
 2840SOL    HW220157   0.636   2.272   3.505 -0.7428  0.8665 -0.4937
 2841SOL     OW20158   1.684   1.363   5.385 -0.1613  0.1023  0.0266
 2841SOL    HW120159   1.762   1.371   5.331 -0.0302 -0.4196  0.1390
 2841SOL    HW220160   1.685   1.273   5.416 -0.9124 -0.0824 -0.4843
 2842SOL     OW20161   2.428   4.208   2.299 -0.2422  0.2857  0.1039
 2842SOL    HW120162   2.347   4.166   2.270 -0.7574  0.5145  1.2082
 2842SOL    HW220163   2.497   4.142   2.301 -0.5143 -0.0318 -1.5919
 2843SOL     OW20164   2.906   1.126   1.615 -0.3620  0.7055  0.0887
 2843SOL    HW120165   2.823   1.128   1.664 -1.2527  1.1418 -1.4308
 2843SOL    HW220166   2.926   1.033   1.620  1.2885  1.1420  1.6233
 2844SOL     OW20167   0.701   1.958   6.699 -0.3449  0.0627  0.0562
 2844SOL    HW120168   0.609   1.940   6.717  0.4329 -3.7328  0.2241
 2844SOL    HW220169   0.692   1.951   6.604 -1.3158  0.8112  0.0923
 2845SOL     OW20170   1.394   3.070   3.973 -0.6978 -0.7810 -0.3187
 2845SOL    HW120171   1.332   3.030   3.912  1.8384 -4.3494 -0.6247
 2845SOL    HW220172   1.367   3.160   3.955  0.0722 -0.3380  0.7384
 2846SOL     OW20173   0.278   4.404   1.875  0.3180 -0.3048  0.3998
 2846SOL    HW120174   0.356   4.414   1.820  0.1953  2.1448  0.6556
 2846SOL    HW220175   0.268   4.494   1.905 -2.0564 -0.4885  0.1833
 2847SOL     OW20176   0.105   0.294   2.305  0.5089  0.1638  0.6943
 2847SOL    HW120177   0.018   0.256   2.289  0.7672  1.0130 -2.6877
 2847SOL    HW220178   0.082   0.356   2.374  1.5702  2.4233 -0.9791
 2848SOL     OW20179   0.770   4.459   3.536  0.0027 -0.5169  0.4271
 2848SOL    HW120180   0.786   4.405   3.458  0.7898  1.0234 -0.4588
 2848SOL    HW220181   0.709   4.402   3.584 -2.2718  0.5353 -1.2408
 2849SOL     OW20182   2.285   2.317  14.308  0.1083 -0.0878  0.4787
 2849SOL    HW120183   2.356   2.372  14.275 -1.0052  0.6354 -0.6672
 2849SOL    HW220184   2.219   2.308  14.240 -0.8649 -0.2437  1.4336
 2850SOL     OW20185   1.862   3.263   2.541 -0.1123  0.1537 -0.8145
 2850SOL    HW120186   1.897   3.238   2.627 -0.0678  2.4267 -0.1795
 2850SOL    HW220187   1.877   3.357   2.542  1.2815 -0.0854  0.2165
 2851SOL     OW20188   3.707   4.585  16.011 -0.6291 -0.5483 -0.2006
 2851SOL    HW120189   3.691   4.498  16.047 -0.5789 -0.9075 -1.0511
 2851SOL    HW220190   3.712   4.646  16.085 -1.0704 -0.8143  0.0431
 2852SOL     OW20191   3.480   4.614   6.867 -0.1959 -0.6406 -0.0933
 2852SOL    HW120192   3.420   4.688   6.857  0.3353 -0.2875 -0.6119
 2852SOL    HW220193   3.422   4.538   6.859 -0.3865 -0.6927  1.9473
 2853SOL     OW20194   4.251   0.108  17.282  0.5476  0.2993 -0.3455
 2853SOL    HW120195   4.218   0.048  17.349  0.6957  0.3531 -0.2263
 2853SOL    HW220196   4.265   0.047  17.210  1.3014 -0.1828  0.2197
 2854SOL     OW20197   1.205   3.581   6.255 -0.2515  0.2239  0.3964
 2854SOL    HW120198   1.184   3.615   6.342 -1.9872 -1.3191  0.6014
 2854SOL    HW220199   1.226   3.488   6.267 -3.6972 -0.5349  0.6841
 2855SOL     OW20200   1.744   4.716   9.301 -0.0009  0.5222 -0.0538
 2855SOL    HW120201   1.820   0.022   9.262 -0.4962  1.8048  0.4164
 2855SOL    HW220202   1.763   4.625   9.278  2.0270  0.6143  1.2111
 2856SOL     OW20203   1.917   2.548  12.845  0.2788 -0.0869 -0.0605
 2856SOL    HW120204   1.835   2.563  12.892  0.0989  0.7815 -0.6564
 2856SOL    HW220205   1.981   2.524  12.912  1.5831 -1.2835 -1.7546
 2857SOL     OW20206   0.159   2.856  17.013 -0.5372 -0.6104  0.2923
 2857SOL    HW120207   0.120   2.821  17.093  0.3336 -1.0874  0.5050
 2857SOL    HW220208   0.196   2.775  16.977 -0.3290 -0.5979  0.4842
 2858SOL     OW20209   0.213   2.416  12.915  0.5558 -0.1262 -0.1041
 2858SOL    HW120210   0.224   2.510  12.903  0.4053 -0.0657  0.2308
 2858SOL    HW220211   0.303   2.382  12.909  0.3832 -0.7170  0.6903
 2859SOL     OW20212   1.727   3.534  15.154 -0.3069  0.2979 -0.0756
 2859SOL    HW120213   1.775   3.575  15.226 -0.2991 -1.2229  0.7822
 2859SOL    HW220214   1.773   3.566  15.077  0.3161 -1.0696 -0.2552
 2860SOL     OW20215   0.723   0.533  15.886  0.0534 -0.1882 -0.0108
 2860SOL    HW120216   0.741   0.619  15.848  0.4936  0.0474  0.7247
 2860SOL    HW220217   0.759   0.549  15.973 -0.1487  0.1678  0.0115
 2861SOL     OW20218   4.104   3.211   3.356 -0.4759  0.8824  0.0431
 2861SOL    HW120219   4.164   3.138   3.345 -2.3154 -0.7795  1.1435
 2861SOL    HW220220   4.055   3.174   3.429  0.1542 -0.5753 -0.2680
 2862SOL     OW20221   4.085   3.391   5.664  0.2944 -0.3943 -0.1377
 2862SOL    HW120222   4.014   3.455   5.662  0.4666 -0.2195 -0.6313
 2862SOL    HW220223   4.088   3.367   5.572  0.3495  1.6560 -0.6791
 2863SOL     OW20224   4.033   2.520   8.593  0.0095 -0.1022 -0.5057
 2863SOL    HW120225   4.079   2.577   8.655 -0.8355 -0.8887  0.8402
 2863SOL    HW220226   3.971   2.470   8.647  0.7657 -0.7673 -0.2464
 2864SOL     OW20227   0.264   1.468   8.058 -0.0813  0.3732 -0.0245
 2864SOL    HW120228   0.313   1.481   8.140 -1.4941  1.8428  0.5948
 2864SOL    HW220229   0.299   1.386   8.023 -0.0467 -0.7025  2.4841
 2865SOL     OW20230   3.994   2.790  14.380 -0.2883  0.2596  0.3289
 2865SOL    HW120231   3.901   2.784  14.404 -0.2167 -1.3728  0.2162
 2865SOL    HW220232   4.026   2.752  14.462 -1.6375  0.8818  1.1469
 2866SOL     OW20233   4.513   3.192   4.328  0.1302  0.5056 -0.2896
 2866SOL    HW120234   4.493   3.099   4.338 -0.1558  0.6232  0.2499
 2866SOL    HW220235   4.429   3.234   4.344  0.2747  0.5836  0.2788
 2867SOL     OW20236   3.268   1.496  11.255  0.0509  0.1793 -0.5740
 2867SOL    HW120237   3.287   1.589  11.242 -1.0669  0.4502 -0.2907
 2867SOL    HW220238   3.195   1.489  11.193 -0.3335  2.5685 -0.4088
 2868SOL     OW20239   3.345   1.787   6.898  0.3356  0.7010 -0.0430
 2868SOL    HW120240   3.427   1.836   6.904  0.3812  0.5861  0.2919
 2868SOL    HW220241   3.303   1.823   6.976 -0.9523  2.5836 -1.5971
 2869SOL     OW20242   3.487   4.118   2.006 -0.0917  1.0231  0.2347
 2869SOL    HW120243   3.484   4.140   2.099 -1.1572  0.4374  0.3464
 2869SOL    HW220244   3.398   4.124   1.969 -0.2080 -1.8069  0.0390
 2870SOL     OW20245   4.471   3.414   0.628 -0.0270  0.2516  0.2496
 2870SOL    HW120246   4.493   3.330   0.588 -2.0748  0.8723 -2.1856
 2870SOL    HW220247   4.553   3.457   0.602 -1.5600  1.3834 -2.6151
 2871SOL     OW20248   1.261   2.570  10.461 -0.4336 -0.0814 -0.4071
 2871SOL    HW120249   1.290   2.496  10.514  0.3331  0.5557  0.0670
 2871SOL    HW220250   1.201   2.528  10.399  0.1825 -0.6730 -0.5973
 2872SOL     OW20251   4.537   0.326   2.174 -0.2035 -0.1462  0.2350
 2872SOL    HW120252   4.516   0.419   2.173 -1.0932 -0.3482 -0.0348
 2872SOL    HW220253   4.449   0.291   2.165 -0.5977  0.9811 -0.2218
 2873SOL     OW20254   1.318   4.060  13.390 -0.0938  0.0780  0.2844
 2873SOL    HW120255   1.361   4.143  13.371 -0.4735  0.8162  2.6548
 2873SOL    HW220256   1.246   4.086  13.446 -0.4794 -2.1227  0.8224
 2874SOL     OW20257   4.690   1.533  17.158 -0.1934  0.4997  0.3992
 2874SOL    HW120258   4.638   1.613  17.164  0.9494  1.2750  0.0694
 2874SOL    HW220259   4.634   1.480  17.102 -0.8022  0.9081  0.6249
 2875SOL     OW20260   1.545   0.348   0.975 -0.0648 -0.0411 -0.8266
 2875SOL    HW120261   1.590   0.307   0.902  0.0425 -1.4117  0.0163
 2875SOL    HW220262   1.454   0.323   0.957 -0.1156 -0.4571  0.0073
 2876SOL     OW20263   4.402   1.135   4.991  0.8035  0.4398  0.5243
 2876SOL    HW120264   4.313   1.148   5.025  0.2731 -3.9181  0.9111
 2876SOL    HW220265   4.383   1.066   4.927  2.4862  0.2812  0.1999
 2877SOL     OW20266   4.090   0.183   1.093 -0.3354 -0.1659 -0.1234
 2877SOL    HW120267   4.180   0.201   1.120 -0.8509 -1.5179  2.4090
 2877SOL    HW220268   4.030   0.246   1.133  0.5960  0.9281 -0.4504
 2878SOL     OW20269   4.622   4.420  11.597  0.1672 -0.1604  0.2773
 2878SOL    HW120270   4.651   4.488  11.536  2.2610 -1.8756 -0.6554
 2878SOL    HW220271   4.690   4.355  11.579  0.3244  0.4969 -1.5360
 2879SOL     OW20272   0.339   3.779  13.749 -0.1281  0.1494  0.1747
 2879SOL    HW120273   0.361   3.710  13.811 -0.4064 -0.0052  0.1046
 2879SOL    HW220274   0.328   3.861  13.797 -0.0447  0.8326 -0.9905
 2880SOL     OW20275   3.799   0.658  14.027  0.2582  0.0414 -0.5480
 2880SOL    HW120276   3.822   0.682  14.117  1.6198 -2.9185 -0.1250
 2880SOL    HW220277   3.730   0.593  14.038 -0.9154  1.0823 -1.7056
 2881SOL     OW20278   2.989   3.619   0.450 -0.7513  0.0403 -0.1563
 2881SOL    HW120279   2.930   3.544   0.460  1.1751 -1.4577 -0.0374
 2881SOL    HW220280   2.938   3.685   0.496 -0.2272  1.1479 -1.1707
 2882SOL     OW20281   2.114   4.716   9.854 -0.3012  0.1211  0.6660
 2882SOL    HW120282   2.072   4.652   9.796 -0.8358  2.6354 -1.7249
 2882SOL    HW220283   2.071   4.702   9.938 -1.2661 -0.3655  0.0961
 2883SOL     OW20284   3.143   3.806   4.029 -0.2313 -0.0661 -0.3750
 2883SOL    HW120285   3.124   3.718   3.998 -2.3530  0.1021  0.4063
 2883SOL    HW220286   3.060   3.846   4.002 -0.3357  0.5236  0.8307
 2884SOL     OW20287   4.693   4.511  17.337 -0.6520 -0.6834 -0.0555
 2884SOL    HW120288   4.642   4.561  17.401 -1.5666 -1.2222 -0.3515
 2884SOL    HW220289   4.649   4.426  17.345  0.0220 -0.9767  0.4932
 2885SOL     OW20290   0.226   0.246   6.047 -0.0055  0.4271  0.6214
 2885SOL    HW120291   0.218   0.221   6.139  0.8925  0.4179  0.7009
 2885SOL    HW220292   0.211   0.167   5.997  1.3493 -0.0489  0.9575
 2886SOL     OW20293   0.690   1.294  15.930 -0.2959 -0.0047  0.8323
 2886SOL    HW120294   0.784   1.307  15.922 -0.3439 -0.2245 -0.1321
 2886SOL    HW220295   0.654   1.375  15.894  0.9765  0.7830  1.3568
 2887SOL     OW20296   3.244   1.040   1.746  0.4889  0.1250  0.0134
 2887SOL    HW120297   3.174   0.994   1.700 -0.7056  2.0375 -0.0958
 2887SOL    HW220298   3.190   1.090   1.808 -0.6609  0.1608 -1.0138
 2888SOL     OW20299   1.105   3.235   8.039  0.2624  1.0249 -0.0775
 2888SOL    HW120300   1.154   3.164   8.081  0.8476  1.2933 -0.3014
 2888SOL    HW220301   1.014   3.220   8.063 -0.4177  0.0974 -3.2468
 2889SOL     OW20302   2.737   0.317   4.555  0.1827  0.3649 -0.4553
 2889SOL    HW120303   2.829   0.343   4.557  0.4393 -0.4844 -1.8997
 2889SOL    HW220304   2.692   0.378   4.497 -0.3025  0.1164 -0.3443
 2890SOL     OW20305   4.349   4.115   2.802 -0.2797 -0.2757  0.2747
 2890SOL    HW120306   4.377   4.199   2.767 -1.4327  0.0253  0.0533
 2890SOL    HW220307   4.288   4.137   2.872 -1.1422 -0.8889 -0.2801
 2891SOL     OW20308   2.610   4.330  15.196  0.3030  0.0761 -0.2666
 2891SOL    HW120309   2.577   4.256  15.146  3.5811 -0.5476 -1.5395
 2891SOL    HW220310   2.625   4.289  15.281 -1.8049 -0.4125 -0.1209
 2892SOL     OW20311   0.957   1.058   3.394 -0.2134  0.7120 -0.6052
 2892SOL    HW120312   0.954   0.988   3.329 -2.9503 -0.3471  0.6497
 2892SOL    HW220313   0.874   1.101   3.373 -0.8481 -1.5520 -2.7355
 2893SOL     OW20314   4.010   1.006  13.507  0.0463  0.6331 -0.2313
 2893SOL    HW120315   3.929   1.026  13.461  0.3465 -0.4776 -1.2538
 2893SOL    HW220316   4.001   0.910  13.503 -3.7651  0.8838  2.9498
 2894SOL     OW20317   3.745   0.584   8.905 -0.2848  0.4501  0.1684
 2894SOL    HW120318   3.755   0.504   8.854 -1.2042 -0.3124  1.1657
 2894SOL    HW220319   3.682   0.546   8.966 -1.4754  1.6409 -0.3273
 2895SOL     OW20320   2.291   0.069  15.378  0.0974 -0.4472 -0.3971
 2895SOL    HW120321   2.293   0.100  15.288  0.9723  0.8132  0.0670
 2895SOL    HW220322   2.212   0.116  15.404  1.5563  1.7585 -0.0087
 2896SOL     OW20323   3.804   1.380   3.300 -0.9681 -0.1221 -0.1742
 2896SOL    HW120324   3.783   1.347   3.388 -2.1361  1.0748 -0.0192
 2896SOL    HW220325   3.788   1.297   3.254 -0.2652 -0.0299 -0.5898
 2897SOL     OW20326   1.884   2.434   5.247 -1.0815  0.0328 -0.2396
 2897SOL    HW120327   1.905   2.344   5.225 -2.8435 -0.7123  1.0927
 2897SOL    HW220328   1.789   2.432   5.238 -1.1789 -0.5869  0.8613
 2898SOL     OW20329   1.454   2.336   1.124 -0.3259 -0.5448  0.3974
 2898SOL    HW120330   1.389   2.344   1.194  0.1204  0.3956  0.6951
 2898SOL    HW220331   1.399   2.328   1.045  1.2964  2.8853 -1.0943
 2899SOL     OW20332   3.439   0.339   0.914  0.0319  0.0655  0.2168
 2899SOL    HW120333   3.398   0.417   0.951 -3.4274 -1.8210  0.3037
 2899SOL    HW220334   3.408   0.270   0.972  0.1696 -0.3911 -0.2553
 2900SOL     OW20335   4.519   2.847   3.314  0.3385  0.1108  0.2165
 2900SOL    HW120336   4.605   2.811   3.292  0.0384 -0.2044 -0.4347
 2900SOL    HW220337   4.465   2.769   3.324  0.1770 -0.1544 -2.8906
 2901SOL     OW20338   1.154   4.184   8.096 -0.4260  0.3019  0.2969
 2901SOL    HW120339   1.230   4.225   8.137 -0.7203 -0.5604  1.7054
 2901SOL    HW220340   1.179   4.174   8.004  0.7211  1.4045  0.4982
 2902SOL     OW20341   2.791   0.327   0.327 -0.1757  0.2834  0.1112
 2902SOL    HW120342   2.736   0.278   0.387  0.2195 -1.3717 -0.8827
 2902SOL    HW220343   2.874   0.331   0.375  1.1389  0.7507 -2.1481
 2903SOL     OW20344   3.793   4.716   2.647  0.0025  0.6823 -0.4001
 2903SOL    HW120345   3.803   0.045   2.716 -1.6826  0.7469 -0.2178
 2903SOL    HW220346   3.803   4.636   2.698  0.2129  0.0748 -1.4012
 2904SOL     OW20347   3.951   3.596   4.475  0.0983 -0.2860  0.5451
 2904SOL    HW120348   3.972   3.640   4.393 -0.0518 -0.4950  0.3952
 2904SOL    HW220349   3.918   3.670   4.526  0.5910  0.8353 -0.7774
 2905SOL     OW20350   0.399   0.706   5.931 -0.5278 -0.4678 -0.3147
 2905SOL    HW120351   0.331   0.648   5.964  0.2148 -1.9094 -1.3252
 2905SOL    HW220352   0.348   0.758   5.868 -1.4908 -1.2253 -0.1676
 2906SOL     OW20353   0.499   3.423   1.533 -0.1446 -0.5309 -0.7409
 2906SOL    HW120354   0.408   3.393   1.536 -0.1591 -0.2129  2.0665
 2906SOL    HW220355   0.533   3.368   1.462  0.8257 -1.7798  0.6783
 2907SOL     OW20356   4.374   4.557  11.797 -0.9704 -0.1428 -0.4593
 2907SOL    HW120357   4.281   4.535  11.785 -1.2250  0.2868  0.7726
 2907SOL    HW220358   4.374   4.584  11.888  0.3864 -1.5166 -0.0564
 2908SOL     OW20359   1.640   4.242  13.149  0.3865 -0.0270 -0.1537
 2908SOL    HW120360   1.713   4.199  13.194 -0.7466 -0.9846  0.7870
 2908SOL    HW220361   1.591   4.297  13.210  1.2623  2.7773 -1.9793
 2909SOL     OW20362   0.483   4.500   3.582  0.2183 -0.1894  0.3174
 2909SOL    HW120363   0.437   4.428   3.538  1.6526 -0.0565 -1.3870
 2909SOL    HW220364   0.462   4.480   3.673 -1.3056 -1.6065 -0.3339
 2910SOL     OW20365   2.231   0.120   9.357 -0.5078  0.6882  0.2670
 2910SOL    HW120366   2.195   0.208   9.349  1.3258  1.3285 -0.7659
 2910SOL    HW220367   2.215   0.097   9.265  2.2985 -0.6980  0.1337
 2911SOL     OW20368   2.539   4.736   2.665 -0.1382 -0.4144 -0.5709
 2911SOL    HW120369   2.477   0.027   2.733  2.1925  1.1851  0.8994
 2911SOL    HW220370   2.614   4.718   2.722  0.3104  1.6236 -0.5066
 2912SOL     OW20371   1.276   0.089   1.511  0.4470 -0.1810 -0.2338
 2912SOL    HW120372   1.210   0.033   1.472 -0.1630  1.0347 -0.9534
 2912SOL    HW220373   1.299   0.152   1.442 -0.9492 -0.2962 -0.8110
 2913SOL     OW20374   3.852   3.724   1.348 -0.3049 -0.1446  0.3266
 2913SOL    HW120375   3.791   3.657   1.318 -0.3054  0.0278 -0.0552
 2913SOL    HW220376   3.937   3.684   1.329 -0.4786 -0.3868  0.0602
 2914SOL     OW20377   3.888   0.892   1.990 -0.0671  0.1127  0.1456
 2914SOL    HW120378   3.973   0.933   1.976 -0.5761  0.6418 -1.4197
 2914SOL    HW220379   3.870   0.865   1.899  3.0874  0.0243 -0.4532
 2915SOL     OW20380   1.167   4.185   8.435 -0.1792 -0.1216 -0.4093
 2915SOL    HW120381   1.219   4.123   8.384 -3.3716 -1.9307 -1.4250
 2915SOL    HW220382   1.201   4.166   8.523 -0.5772 -0.5072 -0.3378
 2916SOL     OW20383   3.436   3.077   9.755 -0.1062 -0.2850  0.4157
 2916SOL    HW120384   3.515   3.048   9.710 -0.3910  0.2073 -0.4130
 2916SOL    HW220385   3.431   3.006   9.819 -0.4944  1.3938  2.2349
 2917SOL     OW20386   1.004   1.330   9.367 -0.1686  0.0858  0.3430
 2917SOL    HW120387   1.042   1.264   9.309  0.8439 -0.3640  1.5420
 2917SOL    HW220388   1.024   1.415   9.327 -0.6757  0.1705  0.2626
 2918SOL     OW20389   4.670   1.728   3.168  0.3238 -0.4838 -0.3665
 2918SOL    HW120390   4.696   1.636   3.168  0.0285 -0.5661 -0.0128
 2918SOL    HW220391   0.015   1.771   3.190  0.7799 -0.2563 -2.4855
 2919SOL     OW20392   0.398   3.138   3.443  0.2384  0.4215 -0.6546
 2919SOL    HW120393   0.316   3.168   3.480 -0.7940 -0.3826 -2.2959
 2919SOL    HW220394   0.396   3.043   3.455 -2.0775  0.6002  0.2678
 2920SOL     OW20395   0.174   0.762   5.773 -0.4494  0.4297  0.2437
 2920SOL    HW120396   0.091   0.758   5.725  0.9428  1.4482 -2.2526
 2920SOL    HW220397   0.226   0.689   5.738 -2.0102 -0.6482  0.1677
 2921SOL     OW20398   0.501   4.546   8.992  0.3232  0.2874 -0.9803
 2921SOL    HW120399   0.434   4.538   9.060  0.3828  0.0015 -0.9533
 2921SOL    HW220400   0.450   4.533   8.912  1.1881 -1.6935 -1.2120
 2922SOL     OW20401   4.402   1.484   4.641 -0.1261 -0.2440  0.1367
 2922SOL    HW120402   4.470   1.519   4.583 -0.2431 -0.2369  0.0043
 2922SOL    HW220403   4.331   1.478   4.576  0.9216  0.0137 -1.0339
 2923SOL     OW20404   0.133   3.234   3.869 -0.3206  0.0062  0.0653
 2923SOL    HW120405   0.229   3.233   3.859 -0.4886  1.9200 -1.5982
 2923SOL    HW220406   0.121   3.298   3.799 -0.8277 -0.2019 -0.0337
 2924SOL     OW20407   3.526   2.884   7.370  0.7323 -0.3602 -0.3195
 2924SOL    HW120408   3.616   2.858   7.349  0.2283  0.4970 -3.5141
 2924SOL    HW220409   3.526   2.875   7.465 -0.5281  2.3732 -0.0624
 2925SOL     OW20410   4.522   1.775   8.911  0.7325  0.1165  0.0401
 2925SOL    HW120411   4.483   1.722   8.841  1.1785 -0.8275  0.5065
 2925SOL    HW220412   4.496   1.862   8.882  1.3790  0.8419  1.6474
 2926SOL     OW20413   1.551   4.278   4.650 -0.6923  0.0950  0.2128
 2926SOL    HW120414   1.481   4.285   4.715 -1.5242  0.4087 -0.7182
 2926SOL    HW220415   1.528   4.192   4.615 -0.3157  0.5992 -1.2436
 2927SOL     OW20416   1.447   4.291  11.311 -0.7709  0.2084 -0.1207
 2927SOL    HW120417   1.483   4.230  11.375  0.2970  0.4263 -0.5082
 2927SOL    HW220418   1.365   4.247  11.289 -0.4399 -1.0396  1.1518
 2928SOL     OW20419   2.797   0.824   6.500 -0.0558  0.3502  0.2190
 2928SOL    HW120420   2.825   0.823   6.408  0.1101 -1.2214  0.2932
 2928SOL    HW220421   2.706   0.851   6.484  0.4578 -0.9223 -4.8792
 2929SOL     OW20422   2.250   2.109   8.160  0.1180  0.6367  0.0966
 2929SOL    HW120423   2.274   2.089   8.250 -1.9495 -0.9748  0.2771
 2929SOL    HW220424   2.338   2.123   8.125  0.5031  0.7975  1.1173
 2930SOL     OW20425   4.568   3.872   5.430  0.1252  0.1870  0.5842
 2930SOL    HW120426   4.639   3.836   5.376 -0.4043 -0.9789  0.6650
 2930SOL    HW220427   4.511   3.795   5.426 -0.1579  0.4739 -1.1010
 2931SOL     OW20428   4.089   2.050   4.958  0.0351 -0.3297  0.4944
 2931SOL    HW120429   4.181   2.039   4.934 -0.3166 -0.4892 -0.7658
 2931SOL    HW220430   4.063   2.014   4.873  2.6687 -0.9850 -0.0635
 2932SOL     OW20431   3.822   0.218  15.023  0.2038  0.5829  0.5420
 2932SOL    HW120432   3.806   0.183  15.110 -0.8675 -0.7990 -0.2063
 2932SOL    HW220433   3.888   0.156  14.990  0.4722  1.3800 -0.4400
 2933SOL     OW20434   3.071   0.442   4.296  0.4243 -0.4486 -0.3556
 2933SOL    HW120435   3.024   0.523   4.319  1.0959  0.0392 -0.6881
 2933SOL    HW220436   3.004   0.389   4.254 -0.4996 -0.8563  1.6171
 2934SOL     OW20437   1.228   1.173   3.347 -0.4823  0.2732  0.6569
 2934SOL    HW120438   1.245   1.212   3.433 -1.0905  0.8409  0.5221
 2934SOL    HW220439   1.134   1.155   3.359 -0.9419  2.4769  0.4556
 2935SOL     OW20440   1.332   2.580  16.920 -0.2312 -0.2107  0.3045
 2935SOL    HW120441   1.320   2.673  16.901 -0.9859 -0.8928 -2.4710
 2935SOL    HW220442   1.418   2.571  16.962 -0.6678 -1.8752  0.8621
 2936SOL     OW20443   1.056   2.931   8.837 -0.8834 -0.4179 -0.6415
 2936SOL    HW120444   1.110   2.913   8.760  0.0130 -0.1385 -0.0734
 2936SOL    HW220445   1.095   2.865   8.895 -1.3052 -0.4070 -0.3427
 2937SOL     OW20446   0.242   3.731  10.755  0.1027 -0.0298 -0.1072
 2937SOL    HW120447   0.216   3.756  10.666 -0.2427 -0.0904 -0.0225
 2937SOL    HW220448   0.269   3.813  10.795 -0.1906  0.2359 -0.4485
 2938SOL     OW20449   3.977   1.179   4.620 -0.1553 -0.0388 -0.3211
 2938SOL    HW120450   4.068   1.150   4.624  0.3865  2.1131  2.7470
 2938SOL    HW220451   3.978   1.256   4.563 -1.3956 -0.9615 -1.5989
 2939SOL     OW20452   4.258   1.873   3.414 -0.6339 -0.0930  0.4624
 2939SOL    HW120453   4.302   1.933   3.354 -2.6222 -0.1647 -1.0820
 2939SOL    HW220454   4.275   1.790   3.368 -0.1431 -0.3790  1.1533
 2940SOL     OW20455   0.512   4.390   6.738 -0.2611  0.4422 -0.6184
 2940SOL    HW120456   0.527   4.390   6.644 -0.0613  0.2272 -0.5863
 2940SOL    HW220457   0.577   4.323   6.759 -0.8474  0.5891  1.7637
 2941SOL     OW20458   4.327   1.097   7.578 -0.3460  0.2501 -0.2665
 2941SOL    HW120459   4.262   1.062   7.518 -1.5951  1.0285  0.6423
 2941SOL    HW220460   4.347   1.026   7.639 -2.0507 -1.7857 -2.0747
 2942SOL     OW20461   2.415   1.188   7.628  0.0744 -1.1039  0.0986
 2942SOL    HW120462   2.480   1.257   7.619  0.4812 -1.5790 -0.6442
 2942SOL    HW220463   2.350   1.215   7.564 -0.8688  1.4528  2.1738
 2943SOL     OW20464   4.131   0.269   9.484  0.1712 -0.6612  0.1217
 2943SOL    HW120465   4.122   0.344   9.543  0.2921 -0.4202 -0.1683
 2943SOL    HW220466   4.206   0.226   9.524 -1.5328 -0.7395  3.2663
 2944SOL     OW20467   4.370   0.470   2.959  0.4926 -0.1647 -0.2924
 2944SOL    HW120468   4.378   0.486   3.053 -1.3168 -3.7786  0.5125
 2944SOL    HW220469   4.342   0.378   2.966 -0.4857  0.0637 -1.1862
 2945SOL     OW20470   3.380   4.475   7.479 -0.1398  0.5749  0.0626
 2945SOL    HW120471   3.464   4.490   7.522 -0.3592  2.5515 -0.2032
 2945SOL    HW220472   3.381   4.546   7.415  0.2045 -0.2031 -0.7977
 2946SOL     OW20473   1.334   3.046  17.624 -0.8301 -0.2541 -0.2030
 2946SOL    HW120474   1.335   3.067  17.531 -0.4142 -0.6863 -0.3017
 2946SOL    HW220475   1.333   2.950  17.624 -1.1397 -0.2492 -1.8145
 2947SOL     OW20476   1.980   1.160  13.488  0.2930 -0.4765 -0.1501
 2947SOL    HW120477   2.062   1.112  13.496  0.8345  0.7281  1.4249
 2947SOL    HW220478   2.007   1.229  13.548 -1.1992 -0.0434  0.0285
 2948SOL     OW20479   0.785   4.658  13.178  0.0586  0.6042  0.0435
 2948SOL    HW120480   0.767   4.609  13.258  1.0639  1.8871  1.0527
 2948SOL    HW220481   0.809   4.591  13.114  0.9145  2.4205 -1.5252
 2949SOL     OW20482   4.453   2.985   4.556  0.0893 -0.0953  0.2323
 2949SOL    HW120483   4.416   2.935   4.483  0.8463 -0.6628  0.2427
 2949SOL    HW220484   4.546   2.989   4.534  0.3328  1.8043  1.5469
 2950SOL     OW20485   2.102   1.844   6.651 -0.0699 -0.2517  0.1232
 2950SOL    HW120486   2.072   1.811   6.735  4.5992 -1.4121  1.2997
 2950SOL    HW220487   2.128   1.933   6.677 -3.1679  0.9484 -0.8565
 2951SOL     OW20488   0.190   0.095  10.485 -0.1596 -0.3463  0.4741
 2951SOL    HW120489   0.144   0.018  10.518 -1.6424  0.0085 -0.7911
 2951SOL    HW220490   0.269   0.057  10.445 -0.2587  0.8053 -0.8257
 2952SOL     OW20491   2.774   2.545  14.287 -0.4072  0.5642  0.4141
 2952SOL    HW120492   2.678   2.551  14.294 -0.4206  1.2026 -0.2808
 2952SOL    HW220493   2.787   2.458  14.249  0.6744  1.4918 -1.3580
 2953SOL     OW20494   1.084   2.094   7.412  0.1514 -0.8859  0.2658
 2953SOL    HW120495   1.164   2.074   7.362  0.2675 -0.3102  0.2233
 2953SOL    HW220496   1.024   2.142   7.355  2.1686  1.0678 -0.2383
 2954SOL     OW20497   1.376   2.490   3.532 -0.3425 -0.2369  0.1248
 2954SOL    HW120498   1.413   2.402   3.538  1.5098  0.6437  1.4278
 2954SOL    HW220499   1.336   2.481   3.445  0.4811  3.9787 -0.6934
 2955SOL     OW20500   3.235   1.297   8.528  0.2072 -0.7213 -0.3313
 2955SOL    HW120501   3.300   1.302   8.458 -1.8702 -2.4669 -2.3596
 2955SOL    HW220502   3.236   1.391   8.547  3.5234 -0.8761  0.2803
 2956SOL     OW20503   3.458   1.534  15.585 -0.0179 -0.0872 -0.1999
 2956SOL    HW120504   3.439   1.489  15.502  2.3214 -2.6082  0.6070
 2956SOL    HW220505   3.375   1.569  15.617 -0.4521 -1.2127 -0.0993
 2957SOL     OW20506   4.684   1.682   4.650  0.3441  0.4644  0.2110
 2957SOL    HW120507   4.707   1.614   4.587 -0.6621 -0.5052  0.8954
 2957SOL    HW220508   4.589   1.688   4.640 -0.0704 -4.2225  1.2473
 2958SOL     OW20509   0.810   1.291   9.572 -0.2669  0.0613 -0.2877
 2958SOL    HW120510   0.879   1.348   9.539 -2.5407  1.5441 -2.4712
 2958SOL    HW220511   0.792   1.235   9.496 -3.0890 -0.9392  1.1154
 2959SOL     OW20512   3.083   1.782   2.269  0.3561  0.3096 -0.6367
 2959SOL    HW120513   3.093   1.749   2.179 -2.7325 -2.6525  0.0941
 2959SOL    HW220514   3.134   1.720   2.321  0.6635  0.0499 -1.2379
 2960SOL     OW20515   0.845   1.616  13.941 -0.4199 -0.7031  0.6803
 2960SOL    HW120516   0.786   1.634  14.014 -2.1169  0.7364 -1.0847
 2960SOL    HW220517   0.780   1.613  13.871 -0.8529  2.3491  0.9690
 2961SOL     OW20518   1.887   0.414   0.868  0.0157 -0.1154  0.2340
 2961SOL    HW120519   1.914   0.369   0.787  0.2208  2.9374 -1.4024
 2961SOL    HW220520   1.844   0.486   0.822  2.0573  2.4910  2.4726
 2962SOL     OW20521   4.234   1.503   5.006 -0.0797  0.5024  0.3650
 2962SOL    HW120522   4.264   1.593   5.010  1.1930  0.0500  0.8793
 2962SOL    HW220523   4.164   1.494   5.071  0.2232 -1.1125  0.4656
 2963SOL     OW20524   1.859   2.161   5.425  0.9189  0.2294  0.5495
 2963SOL    HW120525   1.817   2.217   5.360  0.6486  0.3494  0.8317
 2963SOL    HW220526   1.897   2.235   5.472 -1.4647  1.5641  0.3697
 2964SOL     OW20527   1.846   0.362   6.312 -0.7494  0.0391  0.5267
 2964SOL    HW120528   1.907   0.429   6.278  0.4030 -0.3676  1.8121
 2964SOL    HW220529   1.770   0.365   6.254 -0.0477  1.0889 -0.3426
 2965SOL     OW20530   0.180   2.012  10.535  0.3030  0.0310 -0.7077
 2965SOL    HW120531   0.157   1.920  10.547  1.5357 -0.2341 -0.3559
 2965SOL    HW220532   0.273   1.990  10.537  0.0040 -0.9199  2.8191
 2966SOL     OW20533   0.374   2.449   1.831  0.2381 -0.2192  0.0710
 2966SOL    HW120534   0.290   2.444   1.878  0.9591 -0.4884  1.3331
 2966SOL    HW220535   0.377   2.521   1.768 -1.1516 -0.2361 -0.0149
 2967SOL     OW20536   2.362   4.113   7.704 -0.4296  0.4187 -0.7183
 2967SOL    HW120537   2.308   4.191   7.699  0.2757  0.8977 -0.9226
 2967SOL    HW220538   2.412   4.127   7.623  2.0786 -0.0944  0.7261
 2968SOL     OW20539   1.212   4.190   6.965 -0.1373 -0.0487  0.2978
 2968SOL    HW120540   1.184   4.132   6.894  2.6473  2.6877 -3.0971
 2968SOL    HW220541   1.201   4.128   7.037 -1.8294  0.3049  0.3459
 2969SOL     OW20542   3.382   2.069   7.413 -0.0139  0.0932  0.6426
 2969SOL    HW120543   3.302   2.066   7.360 -0.9273  0.2592  2.0007
 2969SOL    HW220544   3.374   2.159   7.444 -0.3572  0.7370 -1.2961
 2970SOL     OW20545   1.077   2.159  11.105  0.2509  0.4903  0.1991
 2970SOL    HW120546   1.162   2.192  11.134 -0.2542  2.5999 -0.6634
 2970SOL    HW220547   1.050   2.244  11.069 -1.3370 -0.3751 -0.6325
 2971SOL     OW20548   1.058   2.747   3.781  0.0867 -0.2327  0.2170
 2971SOL    HW120549   0.994   2.700   3.835 -0.7408 -1.1310 -1.5398
 2971SOL    HW220550   1.100   2.666   3.750 -0.3992 -1.4798  2.8621
 2972SOL     OW20551   2.643   0.783  17.138 -0.1249  0.1846 -0.3042
 2972SOL    HW120552   2.723   0.733  17.121 -2.1216 -2.5742 -1.5473
 2972SOL    HW220553   2.599   0.771  17.054  1.1028 -1.6795 -0.6768
 2973SOL     OW20554   3.378   3.923  11.675 -0.6674 -0.3031 -0.1326
 2973SOL    HW120555   3.320   3.852  11.647  0.0555 -0.4724 -1.1529
 2973SOL    HW220556   3.364   3.900  11.767  1.3932 -0.9614  0.0235
 2974SOL     OW20557   0.963   0.421   6.102  0.3639 -0.6352  0.0997
 2974SOL    HW120558   0.945   0.347   6.044 -0.1699 -0.0198 -0.5329
 2974SOL    HW220559   0.917   0.388   6.179  1.0479  0.7085  1.0721
 2975SOL     OW20560   0.337   0.481  14.634 -0.2287 -0.5334  0.0430
 2975SOL    HW120561   0.390   0.441  14.703 -0.1103 -0.9795 -0.3063
 2975SOL    HW220562   0.399   0.491  14.562 -2.1509 -2.4131 -1.8573
 2976SOL     OW20563   1.169   3.095   4.690  0.6082  0.2271  0.1550
 2976SOL    HW120564   1.124   3.143   4.760 -1.4403  0.2508 -1.1660
 2976SOL    HW220565   1.261   3.097   4.715  0.4963 -1.5279  0.7138
 2977SOL     OW20566   0.751   0.861   7.507 -0.4428 -0.3346  0.1268
 2977SOL    HW120567   0.749   0.956   7.491 -0.7788 -0.5379 -1.0370
 2977SOL    HW220568   0.767   0.849   7.601  0.6956 -0.4638 -0.0886
 2978SOL     OW20569   0.679   1.774   2.093  0.0756 -0.4159 -0.1624
 2978SOL    HW120570   0.624   1.695   2.094  1.0349 -1.0948 -0.7406
 2978SOL    HW220571   0.681   1.791   1.999 -2.9436  1.7160  0.1446
 2979SOL     OW20572   2.603   1.974   3.004  0.1151  0.3044 -0.0959
 2979SOL    HW120573   2.620   1.969   3.098  0.5696 -2.5918 -0.3378
 2979SOL    HW220574   2.689   1.954   2.968 -0.8174 -0.9462 -1.6140
 2980SOL     OW20575   1.166   0.084   4.528  0.0718 -0.1437  0.8940
 2980SOL    HW120576   1.132   0.117   4.444  1.4940 -3.0844 -0.8071
 2980SOL    HW220577   1.244   0.035   4.502  0.5108  1.1706 -0.2998
 2981SOL     OW20578   1.130   2.659   2.457  0.6793 -0.1909  0.2829
 2981SOL    HW120579   1.180   2.732   2.421 -3.0222  3.4057  2.4400
 2981SOL    HW220580   1.037   2.682   2.456  1.1710  1.7827  0.8930
 2982SOL     OW20581   1.422   1.718   9.288  0.1499  0.1233 -0.1203
 2982SOL    HW120582   1.341   1.726   9.338 -1.1106  2.6805 -2.5607
 2982SOL    HW220583   1.401   1.753   9.201  0.1335 -2.8363 -1.3155
 2983SOL     OW20584   1.278   1.093   1.571 -0.8100  0.5925 -0.3389
 2983SOL    HW120585   1.252   1.000   1.569 -1.7386  0.8068  1.2280
 2983SOL    HW220586   1.197   1.123   1.613 -0.8064 -0.2697  0.3030
 2984SOL     OW20587   0.746   3.976   6.730  0.4030 -0.1875 -0.2534
 2984SOL    HW120588   0.685   3.905   6.747  1.5525 -0.9409  0.6902
 2984SOL    HW220589   0.699   4.058   6.744  1.8867  0.4659  0.9151
 2985SOL     OW20590   2.436   0.578   5.009 -0.3625  0.7099  0.0271
 2985SOL    HW120591   2.512   0.596   4.955 -0.7617  0.3501 -0.6527
 2985SOL    HW220592   2.470   0.556   5.096 -1.3129  1.9719  0.7219
 2986SOL     OW20593   4.251   1.764   3.708 -0.1715 -0.0443 -0.0111
 2986SOL    HW120594   4.197   1.799   3.779 -1.3526 -0.8884 -0.4900
 2986SOL    HW220595   4.257   1.846   3.658 -0.2799  0.3824  0.6786
 2987SOL     OW20596   4.480   2.885   6.643  0.6961  0.1084  0.2410
 2987SOL    HW120597   4.515   2.893   6.732 -0.5973 -0.6024  0.8127
 2987SOL    HW220598   4.496   2.792   6.628  0.3921  0.1696 -0.4709
 2988SOL     OW20599   1.820   0.874   6.264 -0.7628 -0.1668  0.5645
 2988SOL    HW120600   1.735   0.860   6.221 -1.4053 -0.0969  1.8042
 2988SOL    HW220601   1.792   0.875   6.356 -3.5637  0.2598 -0.3103
 2989SOL     OW20602   2.282   4.356   6.760  0.1955  0.0531  0.1146
 2989SOL    HW120603   2.310   4.357   6.852  0.2941 -0.7341  0.0928
 2989SOL    HW220604   2.304   4.442   6.726  0.4679 -0.2096 -0.3658
 2990SOL     OW20605   4.537   0.366   7.592  0.1884 -0.2524 -0.1951
 2990SOL    HW120606   4.453   0.407   7.612  0.5427  0.9721 -1.2758
 2990SOL    HW220607   4.587   0.408   7.662 -0.5745  0.2643  0.0430
 2991SOL     OW20608   2.934   4.593   9.791  0.6740  0.4546 -0.2851
 2991SOL    HW120609   2.851   4.624   9.755  0.2371 -1.4454 -0.9185
 2991SOL    HW220610   2.968   4.530   9.727  0.6913  0.5788 -0.3975
 2992SOL     OW20611   3.359   2.810   3.909 -0.6191 -0.5459  0.0962
 2992SOL    HW120612   3.341   2.829   4.001  1.7067 -0.2161  0.4950
 2992SOL    HW220613   3.422   2.738   3.914  0.2359 -0.0941 -3.8232
 2993SOL     OW20614   4.693   0.074   7.996  0.3837  0.0532  0.2291
 2993SOL    HW120615   4.672   0.111   7.910 -0.3745 -0.0267  0.3764
 2993SOL    HW220616   0.050   0.087   8.001  0.4874  0.7332 -3.1786
 2994SOL     OW20617   4.563   4.141  11.728 -0.1216 -0.2857  0.3545
 2994SOL    HW120618   4.659   4.139  11.729 -0.1811 -2.0872  1.9985
 2994SOL    HW220619   4.546   4.069  11.789  1.5692 -1.9358 -1.1237
 2995SOL     OW20620   2.775   1.037   3.991  0.6207  0.1359  0.2535
 2995SOL    HW120621   2.731   1.121   4.004 -0.3880 -0.1484 -1.3221
 2995SOL    HW220622   2.793   1.041   3.897 -2.6742  1.6069 -0.3057
 2996SOL     OW20623   3.342   1.016   3.867  0.4270 -0.3650 -0.0100
 2996SOL    HW120624   3.246   1.019   3.861  0.2902 -0.0172  2.3053
 2996SOL    HW220625   3.343   0.966   3.949 -3.1607  1.1916  0.9898
 2997SOL     OW20626   3.646   1.418  14.919  0.4890  0.2537 -0.1752
 2997SOL    HW120627   3.601   1.352  14.866  2.0712 -0.3225 -0.8067
 2997SOL    HW220628   3.731   1.377  14.934  1.0749  1.8469  0.7949
 2998SOL     OW20629   3.975   0.458   5.572 -0.2636 -0.3472 -0.1038
 2998SOL    HW120630   4.008   0.392   5.634 -1.6750 -1.5486 -0.6117
 2998SOL    HW220631   3.921   0.405   5.512 -1.1923 -0.5105  0.8698
 2999SOL     OW20632   2.046   1.860   6.972 -0.1958  0.1619  0.3314
 2999SOL    HW120633   2.015   1.841   7.061 -1.7208 -2.8388 -0.8235
 2999SOL    HW220634   1.972   1.918   6.954  0.8349  1.0697 -0.9421
 3000SOL     OW20635   2.026   1.221   1.335  0.4001 -0.0247  0.2002
 3000SOL    HW120636   2.023   1.131   1.367  1.3049 -0.3319 -0.5683
 3000SOL    HW220637   2.118   1.237   1.358  0.8092 -0.2010 -1.2874
 3001SOL     OW20638   0.638   4.180   2.743  0.4443 -0.2777  0.6694
 3001SOL    HW120639   0.643   4.202   2.650  1.2545 -2.5146  0.1767
 3001SOL    HW220640   0.726   4.207   2.772  0.2018  2.0681 -0.8345
 3002SOL     OW20641   0.157   1.721  12.647  0.3338 -0.6086  0.5109
 3002SOL    HW120642   0.096   1.794  12.639 -1.2205 -1.7743  1.8024
 3002SOL    HW220643   0.143   1.681  12.561  0.3700  1.5262 -0.4830
 3003SOL     OW20644   4.058   1.161   5.556 -0.1072  0.1104 -0.2283
 3003SOL    HW120645   4.107   1.221   5.612  1.6313 -0.8629 -0.7076
 3003SOL    HW220646   4.020   1.111   5.627  0.5173  1.2863  0.9338
 3004SOL     OW20647   1.686   4.704  11.243  0.0643 -0.2213  0.2489
 3004SOL    HW120648   1.748   4.688  11.314  0.7994 -2.5764 -0.9147
 3004SOL    HW220649   1.646   4.618  11.230 -0.1271 -0.4844  2.5859
 3005SOL     OW20650   4.666   4.144  10.209  0.3559  0.0262  0.4264
 3005SOL    HW120651   4.617   4.107  10.283 -0.1264  1.3080  0.7378
 3005SOL    HW220652   4.649   4.236  10.227 -2.1819 -0.2513 -0.6542
 3006SOL     OW20653   2.049   3.587   0.961  0.0360  0.0128  0.7107
 3006SOL    HW120654   2.084   3.516   0.906 -1.4034  0.3548 -0.6340
 3006SOL    HW220655   1.954   3.582   0.951 -0.0052  0.1441  1.0431
 3007SOL     OW20656   1.650   2.924  11.495  0.0065  0.2053  0.1671
 3007SOL    HW120657   1.656   3.012  11.531 -1.8081  1.0452 -1.5544
 3007SOL    HW220658   1.573   2.934  11.438  0.3128  1.1986 -0.0559
 3008SOL     OW20659   2.762   2.004   9.614  0.3487  0.1209 -0.1952
 3008SOL    HW120660   2.788   1.971   9.700  0.9614  0.6992 -0.1508
 3008SOL    HW220661   2.710   1.932   9.579 -2.4406  2.3735 -0.6743
 3009SOL     OW20662   1.734   2.861  13.226 -0.3173 -0.3396 -0.3319
 3009SOL    HW120663   1.737   2.766  13.238 -3.0964 -0.1744  1.6500
 3009SOL    HW220664   1.812   2.876  13.173 -0.0310  0.3983  0.2941
 3010SOL     OW20665   1.551   0.259  13.669 -0.8910 -0.9839  0.0081
 3010SOL    HW120666   1.460   0.236  13.654 -0.8574 -0.2980 -1.2576
 3010SOL    HW220667   1.562   0.336  13.612 -0.8468 -0.1881  1.0958
 3011SOL     OW20668   4.368   2.555   3.083  0.6696 -1.2500 -0.0765
 3011SOL    HW120669   4.322   2.639   3.086  1.2858 -0.9449  1.0247
 3011SOL    HW220670   4.301   2.507   3.133  1.2505  0.1150  2.0511
 3012SOL     OW20671   1.348   4.006   8.415 -0.5131  0.5223 -1.3830
 3012SOL    HW120672   1.324   3.916   8.393 -0.3773  0.6369 -1.9983
 3012SOL    HW220673   1.422   3.986   8.471 -1.1006 -0.6110 -1.0221
 3013SOL     OW20674   4.032   2.477   1.274 -0.4706  0.8546 -0.0192
 3013SOL    HW120675   4.021   2.513   1.362 -1.5951 -1.0234  0.6274
 3013SOL    HW220676   4.121   2.502   1.248 -0.6336 -0.3740 -1.7543
 3014SOL     OW20677   2.466   0.519   8.464  0.3068 -0.2144  0.6568
 3014SOL    HW120678   2.402   0.449   8.477  1.3057 -1.5836 -1.7452
 3014SOL    HW220679   2.415   0.579   8.409 -1.1545 -0.4749  1.7152
 3015SOL     OW20680   3.644   3.872   2.543 -0.1273 -0.9302 -0.7133
 3015SOL    HW120681   3.719   3.925   2.568 -0.7818  0.6029 -1.9951
 3015SOL    HW220682   3.684   3.788   2.520 -0.4011 -1.1818 -0.2699
 3016SOL     OW20683   1.453   3.498   5.038 -0.3011 -0.2310 -0.2074
 3016SOL    HW120684   1.508   3.457   4.972 -0.3792  2.0090 -1.6655
 3016SOL    HW220685   1.499   3.580   5.057 -0.7923 -0.3456  1.4554
 3017SOL     OW20686   0.956   4.660   5.725 -0.6647 -0.4757 -0.1664
 3017SOL    HW120687   1.029   4.687   5.669 -1.7741  2.1507 -0.3405
 3017SOL    HW220688   0.917   0.010   5.732  0.0494 -0.1894  0.3011
 3018SOL     OW20689   0.568   4.226   6.239  0.2764 -0.1823  0.5970
 3018SOL    HW120690   0.496   4.240   6.178  0.7837 -1.6929 -0.3434
 3018SOL    HW220691   0.638   4.187   6.186 -0.3392 -0.6112  0.1051
 3019SOL     OW20692   3.499   2.806  17.400 -0.1241 -0.3099  0.0130
 3019SOL    HW120693   3.473   2.732  17.454  2.1911 -1.1175  0.0040
 3019SOL    HW220694   3.431   2.872  17.418 -1.1632 -0.9237 -1.5760
 3020SOL     OW20695   1.489   3.974   0.284 -0.7297  0.1704  0.4201
 3020SOL    HW120696   1.395   3.977   0.264 -0.3054  0.1168 -1.6080
 3020SOL    HW220697   1.503   3.897   0.339 -1.6433 -2.4817 -3.0119
 3021SOL     OW20698   1.343   4.218   7.603  0.9624 -0.4629 -0.0129
 3021SOL    HW120699   1.420   4.246   7.651  1.2880 -0.9353 -0.2614
 3021SOL    HW220700   1.355   4.258   7.517  0.5583  2.3262  1.2068
 3022SOL     OW20701   1.872   1.047   3.758 -0.2153  0.7703 -0.1055
 3022SOL    HW120702   1.817   1.123   3.741 -1.8211 -0.4073 -0.2246
 3022SOL    HW220703   1.872   1.046   3.854  0.0993  0.6401 -0.1063
 3023SOL     OW20704   0.461   0.870   8.758  0.0657  0.1213 -0.0804
 3023SOL    HW120705   0.420   0.931   8.819 -0.6726 -0.7432  0.2944
 3023SOL    HW220706   0.546   0.855   8.799  0.6271 -0.2241 -1.3528
 3024SOL     OW20707   2.670   0.287   2.715 -0.0420 -0.5983 -0.3063
 3024SOL    HW120708   2.733   0.223   2.749 -0.3152 -1.4994 -1.5206
 3024SOL    HW220709   2.605   0.235   2.669  1.6741 -1.7556 -1.4605
 3025SOL     OW20710   1.366   4.364   8.210  0.3732  0.6692 -0.1079
 3025SOL    HW120711   1.327   4.433   8.265 -0.9671  0.9808 -1.4378
 3025SOL    HW220712   1.353   4.394   8.120 -0.9158 -0.4443 -0.2864
 3026SOL     OW20713   0.415   2.171   6.939  0.3563 -0.1091  0.4837
 3026SOL    HW120714   0.407   2.163   7.034 -1.5381 -2.4719  0.1382
 3026SOL    HW220715   0.510   2.183   6.936 -0.0713  3.2422  0.3207
 3027SOL     OW20716   0.382   3.259   7.034 -0.4292 -0.0129 -0.1706
 3027SOL    HW120717   0.395   3.227   7.123 -0.3258  0.7671  0.0874
 3027SOL    HW220718   0.420   3.347   7.037 -0.4613 -0.0402  0.9511
 3028SOL     OW20719   4.260   0.277   6.951 -0.1952 -0.0670  0.3951
 3028SOL    HW120720   4.227   0.211   6.891  0.8573  0.3082 -0.5905
 3028SOL    HW220721   4.290   0.346   6.891  0.5711  0.1063  0.9844
 3029SOL     OW20722   4.332   0.945   5.686  0.1331  0.5608 -0.0800
 3029SOL    HW120723   4.364   0.935   5.596 -0.1431 -3.4228  0.2684
 3029SOL    HW220724   4.386   1.018   5.717  3.4657 -1.9347 -0.0169
 3030SOL     OW20725   0.235   1.063  13.694  0.5476 -0.2634 -0.3134
 3030SOL    HW120726   0.319   1.105  13.676  0.7471  0.1632  1.6892
 3030SOL    HW220727   0.219   1.007  13.617  3.2122 -0.6576 -0.5684
 3031SOL     OW20728   0.941   4.393  12.724 -0.3798  0.0890  0.1211
 3031SOL    HW120729   0.923   4.411  12.632 -0.8441  2.2047  0.6318
 3031SOL    HW220730   0.975   4.305  12.709 -1.7331 -0.5486  0.7928
 3032SOL     OW20731   1.998   3.751  14.452 -0.6917  0.1577  0.0293
 3032SOL    HW120732   2.025   3.819  14.514 -2.5742 -0.7274  1.7897
 3032SOL    HW220733   1.993   3.803  14.371  1.8729  2.2531  1.2452
 3033SOL     OW20734   2.848   4.239   6.750  0.9748  0.5385 -0.6421
 3033SOL    HW120735   2.935   4.226   6.788  0.1025 -2.2639  0.4192
 3033SOL    HW220736   2.787   4.229   6.823  1.6023  1.3677 -0.0140
 3034SOL     OW20737   2.250   1.002  10.155 -1.3126  0.6920 -0.3629
 3034SOL    HW120738   2.209   1.083  10.183 -1.6241 -0.2347  1.8740
 3034SOL    HW220739   2.198   0.974  10.079  2.1984 -3.3808 -1.2785
 3035SOL     OW20740   0.432   4.385   8.323 -0.2957 -0.4374 -0.5680
 3035SOL    HW120741   0.445   4.291   8.321 -0.7362 -0.4963 -0.7099
 3035SOL    HW220742   0.507   4.419   8.372 -0.4557 -0.8356 -0.0562
 3036SOL     OW20743   2.956   4.277   7.549 -0.4985  0.4559 -0.2660
 3036SOL    HW120744   2.951   4.274   7.453  1.8291  0.3169 -0.3840
 3036SOL    HW220745   2.892   4.342   7.577  0.2681  0.3872  1.6213
 3037SOL     OW20746   1.345   1.542  12.310 -0.4271  0.7638  0.3543
 3037SOL    HW120747   1.310   1.496  12.234  0.1084 -0.8866  1.1052
 3037SOL    HW220748   1.281   1.525  12.379  1.0817 -0.8227  1.3696
 3038SOL     OW20749   3.532   1.327   9.209  0.1412 -0.0353 -0.1197
 3038SOL    HW120750   3.577   1.277   9.276  1.4367 -3.1039 -3.2599
 3038SOL    HW220751   3.447   1.353   9.244  1.2360 -0.7550  3.0635
 3039SOL     OW20752   3.617   4.065   4.924  0.4916 -0.3206 -0.0498
 3039SOL    HW120753   3.613   3.999   4.992  1.4076  0.2464  0.5608
 3039SOL    HW220754   3.566   4.027   4.852  0.2900  0.5968 -0.3958
 3040SOL     OW20755   2.902   0.511   9.846 -0.1399 -0.0383  0.0910
 3040SOL    HW120756   2.984   0.518   9.894  1.0073  0.6957 -1.9588
 3040SOL    HW220757   2.860   0.595   9.828  1.6870  0.5993 -1.1743
 3041SOL     OW20758   1.653   0.326  13.173  0.6142 -0.4489  0.0110
 3041SOL    HW120759   1.575   0.342  13.120 -0.5290 -0.8045  1.5789
 3041SOL    HW220760   1.707   0.319  13.095  2.5773  2.5493  1.0971
 3042SOL     OW20761   3.302   2.971   6.881  0.1634 -0.0101 -0.4916
 3042SOL    HW120762   3.219   3.004   6.848  1.2168  0.3805 -2.7448
 3042SOL    HW220763   3.333   3.051   6.924  1.3963 -0.3941 -0.6461
 3043SOL     OW20764   3.415   0.881   6.386  0.0367 -0.0426  0.5327
 3043SOL    HW120765   3.357   0.807   6.369  1.4688 -0.9985 -0.2268
 3043SOL    HW220766   3.367   0.930   6.453  1.6072  2.3125 -0.0662
 3044SOL     OW20767   0.072   2.186   3.779 -0.2286  0.2967 -0.2212
 3044SOL    HW120768   0.034   2.188   3.867 -2.8321  0.9289 -1.3590
 3044SOL    HW220769   0.030   2.107   3.744 -0.7055  0.8431 -0.8881
 3045SOL     OW20770   3.661   1.504   6.300  0.2720  0.3327 -0.0509
 3045SOL    HW120771   3.607   1.428   6.320 -0.3293  0.7244 -0.1754
 3045SOL    HW220772   3.687   1.482   6.210  0.1950  0.7624 -0.1815
 3046SOL     OW20773   3.111   4.090   4.940 -0.0407 -0.4361  0.4973
 3046SOL    HW120774   3.201   4.119   4.923 -0.3223 -0.2911 -0.7153
 3046SOL    HW220775   3.126   4.057   5.029 -3.0084 -1.3310  0.6575
 3047SOL     OW20776   0.753   3.176   4.838  0.0634  0.8121 -0.1335
 3047SOL    HW120777   0.840   3.150   4.869 -1.1495 -0.4300  2.2461
 3047SOL    HW220778   0.702   3.111   4.888 -0.7193  1.6711  0.1737
 3048SOL     OW20779   1.756   3.287  17.168 -0.4454 -0.0237 -0.7942
 3048SOL    HW120780   1.735   3.268  17.259  0.0501 -2.4864 -1.2093
 3048SOL    HW220781   1.666   3.287  17.136 -0.2474  1.2277 -1.3711
 3049SOL     OW20782   3.513   1.124   4.856  0.0827 -0.0727 -0.2149
 3049SOL    HW120783   3.499   1.150   4.765 -3.3091 -0.1343  0.2927
 3049SOL    HW220784   3.609   1.124   4.855  0.1059  1.1440  1.8523
 3050SOL     OW20785   0.728   1.316   6.084 -0.0468 -0.5247  0.6603
 3050SOL    HW120786   0.699   1.230   6.054 -1.7123 -0.2779  1.5580
 3050SOL    HW220787   0.669   1.334   6.157  1.5096  0.0805  1.7821
 3051SOL     OW20788   4.511   1.039  16.298  0.2909  0.8378  0.3275
 3051SOL    HW120789   4.426   1.056  16.338 -0.3321 -2.0791  0.2765
 3051SOL    HW220790   4.549   1.126  16.292 -1.3183  1.6509  1.9249
 3052SOL     OW20791   3.428   4.354  16.262  0.2644  0.1594 -0.7296
 3052SOL    HW120792   3.515   4.386  16.239  0.2905  0.8865  0.3503
 3052SOL    HW220793   3.452   4.272  16.306  0.2563 -0.1644 -1.3313
 3053SOL     OW20794   1.607   0.426  13.408  0.6681  0.0311  0.0398
 3053SOL    HW120795   1.697   0.437  13.438 -0.0643  2.5660  1.3366
 3053SOL    HW220796   1.620   0.402  13.317  3.5570  0.9898  0.2251
 3054SOL     OW20797   3.544   1.026   9.631 -0.3047 -0.4385  0.2704
 3054SOL    HW120798   3.594   0.945   9.632  1.2344  0.5225  0.6633
 3054SOL    HW220799   3.458   0.989   9.612 -0.0935 -0.0042 -1.5042
 3055SOL     OW20800   4.345   3.273   1.001  0.0398  0.1220  0.2467
 3055SOL    HW120801   4.358   3.210   1.071 -1.7466  1.6775  1.9744
 3055SOL    HW220802   4.265   3.314   1.032  0.9185  1.3482  0.9123
 3056SOL     OW20803   1.132   4.449   2.124  0.0063 -0.1568  0.3784
 3056SOL    HW120804   1.175   4.500   2.056  0.1566 -0.2089  0.4345
 3056SOL    HW220805   1.154   4.358   2.101  1.9539  0.6432 -0.8895
 3057SOL     OW20806   0.063   3.323   2.812  0.0083 -0.1529  0.0129
 3057SOL    HW120807   0.074   3.228   2.814  1.2678  0.0200  1.1313
 3057SOL    HW220808   0.153   3.345   2.787  0.2198  1.7268  2.4286
 3058SOL     OW20809   0.807   3.803   8.803 -0.0366 -0.1497 -0.1171
 3058SOL    HW120810   0.841   3.727   8.756 -2.7899 -0.8604 -0.9400
 3058SOL    HW220811   0.892   3.846   8.811 -0.0287 -0.4042  1.1925
 3059SOL     OW20812   2.570   1.006  15.735 -0.5649 -0.0068 -0.0884
 3059SOL    HW120813   2.633   1.069  15.770 -0.1661 -0.7366  0.5032
 3059SOL    HW220814   2.490   1.059  15.745 -0.6718 -0.2685  0.4916
 3060SOL     OW20815   3.940   0.417   8.717  0.5937 -0.0223 -0.0607
 3060SOL    HW120816   4.024   0.458   8.698 -0.3956  2.4242  0.8365
 3060SOL    HW220817   3.952   0.376   8.803  1.5892  1.1465  0.3482
 3061SOL     OW20818   4.732   3.226   4.658 -0.0238 -0.3998 -0.0538
 3061SOL    HW120819   4.673   3.239   4.732 -0.6874  1.8161 -0.9910
 3061SOL    HW220820   0.076   3.259   4.696  0.2031 -1.6569  0.5682
 3062SOL     OW20821   0.472   4.608   2.633  0.8095 -0.0179 -0.4148
 3062SOL    HW120822   0.413   4.578   2.702  0.9005 -2.6266 -1.4760
 3062SOL    HW220823   0.553   4.602   2.684 -1.4913 -0.6883  3.1562
 3063SOL     OW20824   2.268   2.716   4.078 -0.0124 -0.0119  1.0215
 3063SOL    HW120825   2.226   2.798   4.105  0.3567  0.9954 -1.4787
 3063SOL    HW220826   2.225   2.695   3.995  1.5034 -0.9743  0.4653
 3064SOL     OW20827   3.343   3.514  14.418  0.1779  0.0077  0.5503
 3064SOL    HW120828   3.274   3.464  14.375 -0.5860  2.3926 -1.0390
 3064SOL    HW220829   3.299   3.599  14.426 -0.9672 -0.1443 -4.0278
 3065SOL     OW20830   3.163   0.363   1.739  0.3638  0.0063 -0.0492
 3065SOL    HW120831   3.111   0.348   1.817  1.4315  0.0445  0.6617
 3065SOL    HW220832   3.232   0.299   1.754  1.3410  0.7565 -1.2396
 3066SOL     OW20833   3.866   1.091   4.054  0.5011 -0.7390 -0.1643
 3066SOL    HW120834   3.783   1.130   4.082  0.0252 -1.0327 -1.1961
 3066SOL    HW220835   3.917   1.143   4.117 -0.6054 -0.1773  0.2679
 3067SOL     OW20836   1.416   3.491  10.615 -0.1816 -0.2336 -0.5231
 3067SOL    HW120837   1.341   3.432  10.602 -0.4329 -0.0537  0.0909
 3067SOL    HW220838   1.378   3.548  10.683  0.1339  1.6514 -1.9226
 3068SOL     OW20839   4.635   1.938   5.678 -0.3727 -0.1813 -0.0681
 3068SOL    HW120840   4.679   1.853   5.675  0.2115  0.1479 -0.7594
 3068SOL    HW220841   4.710   1.991   5.652 -1.3361  0.3876 -1.6494
 3069SOL     OW20842   3.487   3.839   1.371 -0.0391  0.3936  0.1269
 3069SOL    HW120843   3.474   3.749   1.401  3.7493  0.0424  0.8086
 3069SOL    HW220844   3.434   3.895   1.427  1.6337  1.9629  0.1763
 3070SOL     OW20845   0.527   1.675   2.505  0.0625 -0.2546 -0.0834
 3070SOL    HW120846   0.460   1.733   2.470 -0.3189 -0.4713  0.2942
 3070SOL    HW220847   0.593   1.743   2.519 -0.2674  0.1813 -0.6423
 3071SOL     OW20848   2.364   4.116   7.425 -0.5047  0.7670 -0.2409
 3071SOL    HW120849   2.414   4.036   7.441  1.3017  2.2881  1.8086
 3071SOL    HW220850   2.274   4.083   7.430 -0.7191  1.2563 -0.8931
 3072SOL     OW20851   4.305   0.387   3.254  0.2795 -0.1695  0.0280
 3072SOL    HW120852   4.353   0.465   3.280 -1.0327  0.7669 -0.3247
 3072SOL    HW220853   4.346   0.329   3.318 -2.9679 -0.9051  1.4906
 3073SOL     OW20854   3.516   0.893   8.485 -0.2453  0.1149 -0.4301
 3073SOL    HW120855   3.475   0.812   8.515  1.5923 -0.6374  0.0471
 3073SOL    HW220856   3.583   0.910   8.551 -0.4781  0.3190 -0.2493
 3074SOL     OW20857   2.178   4.180   8.768 -0.0405 -0.3220  0.1390
 3074SOL    HW120858   2.177   4.274   8.787  1.2962 -0.0562 -1.0961
 3074SOL    HW220859   2.271   4.161   8.779 -0.2821 -0.7657  1.3760
 3075SOL     OW20860   4.497   2.965  12.551  0.1403  0.1474 -0.3106
 3075SOL    HW120861   4.507   2.871  12.535 -0.9089  0.1136 -0.7591
 3075SOL    HW220862   4.416   2.973  12.600  0.0186  1.1515 -0.6708
 3076SOL     OW20863   4.682   4.147  17.201 -0.7852 -0.6446  0.0926
 3076SOL    HW120864   4.734   4.218  17.164  2.1506 -1.7751  2.1058
 3076SOL    HW220865   4.650   4.117  17.115 -1.2050  4.0849 -1.4394
 3077SOL     OW20866   1.828   3.791  16.011  0.3056 -0.7392 -0.2768
 3077SOL    HW120867   1.797   3.712  15.968  3.3663 -1.1945 -1.6536
 3077SOL    HW220868   1.906   3.758  16.057  0.3001  1.0552  1.0477
 3078SOL     OW20869   4.290   3.810   3.210 -0.5257  0.6572  0.1788
 3078SOL    HW120870   4.346   3.754   3.155  1.4330  0.4516  2.3542
 3078SOL    HW220871   4.249   3.864   3.144  1.3128  1.5359 -0.2515
 3079SOL     OW20872   3.966   3.670   3.239  0.0434 -0.4953  0.2348
 3079SOL    HW120873   3.929   3.608   3.177 -0.7260  1.9770 -1.7489
 3079SOL    HW220874   4.037   3.611   3.266 -1.4671 -2.9094 -1.0957
 3080SOL     OW20875   2.777   3.140  10.595 -0.5770  0.3232  0.0476
 3080SOL    HW120876   2.688   3.109  10.607 -0.6191  0.6260  0.5299
 3080SOL    HW220877   2.767   3.233  10.573 -0.4513  0.2742 -0.2152
 3081SOL     OW20878   2.127   1.262   7.548 -0.3548 -0.5871 -0.4986
 3081SOL    HW120879   2.085   1.180   7.521 -0.8754 -0.2146 -0.8306
 3081SOL    HW220880   2.064   1.284   7.617 -0.6730 -0.7298 -0.7413
 3082SOL     OW20881   4.394   4.356   1.132  0.3228 -0.3266 -0.3094
 3082SOL    HW120882   4.474   4.349   1.080 -0.7513 -0.2851 -1.9579
 3082SOL    HW220883   4.355   4.440   1.112  0.2887 -0.6466 -1.6002
 3083SOL     OW20884   0.541   0.327  12.814  0.5720  0.1818  0.0796
 3083SOL    HW120885   0.569   0.297  12.900 -3.3525  1.7604  1.9178
 3083SOL    HW220886   0.626   0.339  12.771  1.3242  0.7777  1.7423
 3084SOL     OW20887   1.962   4.258   1.433 -0.0993 -0.1777  0.2144
 3084SOL    HW120888   2.052   4.243   1.405  0.1146  1.3296  0.1109
 3084SOL    HW220889   1.963   4.250   1.528  0.4588  0.0031  0.2176
 3085SOL     OW20890   2.633   0.353   6.656  0.1707  0.5551  0.0077
 3085SOL    HW120891   2.549   0.397   6.640 -0.5562  0.0999  2.6156
 3085SOL    HW220892   2.630   0.270   6.609 -1.9455  0.6056  0.0519
 3086SOL     OW20893   0.410   3.017   1.525  0.7308 -0.4036 -0.4502
 3086SOL    HW120894   0.363   3.035   1.606  1.9517 -1.2412  0.4447
 3086SOL    HW220895   0.344   2.965   1.479 -2.7311  2.5379  1.2233
 3087SOL     OW20896   2.858   4.647  11.298 -0.8279 -0.0104 -0.2327
 3087SOL    HW120897   2.946   4.683  11.306 -0.8764  0.1144 -0.2656
 3087SOL    HW220898   2.800   4.715  11.332 -1.1379  0.2241 -1.2112
 3088SOL     OW20899   0.472   4.034   1.616  0.5455  0.2530 -0.7286
 3088SOL    HW120900   0.412   4.007   1.686  1.7828  1.7718  0.9131
 3088SOL    HW220901   0.452   3.966   1.551 -2.7692  0.8899 -0.3718
 3089SOL     OW20902   3.425   0.847   1.072 -0.0451 -0.8782  0.0248
 3089SOL    HW120903   3.337   0.832   1.107  0.7850 -2.3533  1.4808
 3089SOL    HW220904   3.409   0.884   0.985  1.3774  0.3645  0.2826
 3090SOL     OW20905   3.112   2.503   7.773  0.0417 -0.4011 -0.4113
 3090SOL    HW120906   3.098   2.464   7.687 -0.9321 -0.4833 -0.2199
 3090SOL    HW220907   3.148   2.430   7.824  1.0731 -0.4170 -1.1646
 3091SOL     OW20908   1.480   1.192   8.904  0.1044 -0.2835  0.0280
 3091SOL    HW120909   1.421   1.121   8.929 -1.7722  0.9011 -1.0860
 3091SOL    HW220910   1.509   1.153   8.821  1.5124 -0.9316  0.8330
 3092SOL     OW20911   3.478   1.633  14.941  0.0411 -0.2343  0.3065
 3092SOL    HW120912   3.521   1.549  14.924 -0.2746 -0.7399  1.9871
 3092SOL    HW220913   3.506   1.640  15.033  0.8182  3.3865 -0.2097
 3093SOL     OW20914   0.182   3.059   7.663 -0.1817 -0.3482  0.4665
 3093SOL    HW120915   0.230   2.990   7.616 -0.2904 -1.0041  1.3251
 3093SOL    HW220916   0.108   3.016   7.706 -0.4456 -0.9585 -0.6008
 3094SOL     OW20917   1.962   2.885  16.942 -0.1468  0.4876 -0.7424
 3094SOL    HW120918   1.984   2.829  17.017  0.4062  0.1650 -1.1562
 3094SOL    HW220919   1.943   2.964  16.993 -1.0519 -0.8400  0.9883
 3095SOL     OW20920   0.674   2.596   6.089 -0.0972  0.8570 -0.1078
 3095SOL    HW120921   0.592   2.641   6.073  0.9146  2.4621 -0.8167
 3095SOL    HW220922   0.665   2.531   6.159 -0.6773 -0.7183 -1.6468
 3096SOL     OW20923   2.660   3.595   3.139 -0.1448  0.0816 -0.3277
 3096SOL    HW120924   2.626   3.681   3.117  0.4644  0.3757 -0.1260
 3096SOL    HW220925   2.608   3.573   3.216 -1.2816 -0.5713 -1.2772
 3097SOL     OW20926   3.554   4.618   4.770  0.0531 -0.3022 -0.0715
 3097SOL    HW120927   3.466   4.583   4.785 -0.5291  1.2533  0.1092
 3097SOL    HW220928   3.538   4.709   4.747  4.1080  0.3266 -0.4834
 3098SOL     OW20929   0.454   3.666   6.036  0.1470  0.2434 -0.1269
 3098SOL    HW120930   0.459   3.609   6.112  0.6627  0.9222  0.3531
 3098SOL    HW220931   0.376   3.623   6.000 -0.4078  1.0595  0.1099
 3099SOL     OW20932   1.624   3.697   1.606  0.4386 -0.6599 -0.0734
 3099SOL    HW120933   1.543   3.716   1.653  0.5614 -0.7726  0.1877
 3099SOL    HW220934   1.598   3.672   1.518 -1.7587  1.5561 -0.0349
 3100SOL     OW20935   2.920   3.149   9.378 -0.1763 -0.1652  0.4623
 3100SOL    HW120936   2.905   3.056   9.395  0.7659 -0.2437  0.8571
 3100SOL    HW220937   2.853   3.176   9.441  0.6097  3.1728 -0.1534
 3101SOL     OW20938   0.975   1.015   7.357 -0.0523 -0.3391 -0.0244
 3101SOL    HW120939   0.912   0.948   7.383  0.5846 -0.7713  0.4041
 3101SOL    HW220940   1.048   0.954   7.345 -0.6625 -0.8491 -1.1832
 3102SOL     OW20941   4.296   4.296  11.655  0.6537 -0.1082  0.6359
 3102SOL    HW120942   4.231   4.331  11.595  1.5529  0.4010 -0.0302
 3102SOL    HW220943   4.291   4.202  11.634  2.7372 -0.1457  0.2631
 3103SOL     OW20944   3.175   4.066   4.374  0.1337  0.1665 -0.1766
 3103SOL    HW120945   3.096   4.121   4.375  0.7495  1.0037  2.8826
 3103SOL    HW220946   3.204   4.053   4.465  0.9664  0.2037 -0.4328
 3104SOL     OW20947   2.239   2.010   4.749 -0.3495 -0.6843  0.2372
 3104SOL    HW120948   2.319   1.965   4.777  0.5197  0.0969 -1.0111
 3104SOL    HW220949   2.186   1.965   4.814 -1.3286 -1.4264 -1.0738
 3105SOL     OW20950   2.994   1.904  16.009  0.3892 -0.1778 -0.3195
 3105SOL    HW120951   2.920   1.861  15.965  0.3524 -0.1812 -0.2544
 3105SOL    HW220952   2.946   1.934  16.086  0.1802 -3.8604  0.9595
 3106SOL     OW20953   2.892   2.577  10.301  0.5104 -0.2422 -0.4134
 3106SOL    HW120954   2.834   2.654  10.295 -0.2210 -0.5529  2.4985
 3106SOL    HW220955   2.873   2.546  10.213 -1.0820 -0.0866 -0.1294
 3107SOL     OW20956   2.778   3.443   5.983 -0.0073 -1.0009  0.0580
 3107SOL    HW120957   2.737   3.359   5.964 -1.5013 -0.2679  0.0062
 3107SOL    HW220958   2.695   3.492   5.988  1.1578  1.1657 -1.8656
 3108SOL     OW20959   3.133   4.121  10.373  0.0195 -0.0262  0.0380
 3108SOL    HW120960   3.069   4.189  10.359 -0.5851 -0.8827 -1.3099
 3108SOL    HW220961   3.154   4.122  10.467  1.9701  0.8759 -0.3951
 3109SOL     OW20962   1.992   1.052   7.998 -0.2848 -0.2872  0.0576
 3109SOL    HW120963   2.083   1.045   7.970 -0.9804  2.1646 -2.8301
 3109SOL    HW220964   1.964   0.967   8.034  0.7885  0.0613  1.6906
 3110SOL     OW20965   3.989   4.592   2.515 -0.2662 -0.2354  0.0656
 3110SOL    HW120966   4.055   4.661   2.510 -2.0657  1.5476  0.7619
 3110SOL    HW220967   3.915   4.646   2.542  0.0313  0.0505  0.3128
 3111SOL     OW20968   2.485   3.956   6.141 -0.4741 -0.1603  0.4516
 3111SOL    HW120969   2.397   3.993   6.146 -0.2370  0.4835 -0.1604
 3111SOL    HW220970   2.523   3.975   6.227  1.5421  1.4416 -0.7715
 3112SOL     OW20971   4.169   4.015   4.091  0.6497  0.4635  0.1525
 3112SOL    HW120972   4.240   4.010   4.027  1.2197  1.7381  0.6752
 3112SOL    HW220973   4.100   3.977   4.036  0.1375  1.9546 -0.2378
 3113SOL     OW20974   3.546   2.224   0.173  0.1163 -0.4147 -0.1713
 3113SOL    HW120975   3.603   2.230   0.249 -0.5688 -1.4037  0.4247
 3113SOL    HW220976   3.486   2.151   0.191 -1.1938  0.4628 -0.9519
 3114SOL     OW20977   0.238   0.807   9.734  0.1287  0.3867 -0.3057
 3114SOL    HW120978   0.157   0.760   9.748  0.3420  0.0668 -0.1466
 3114SOL    HW220979   0.294   0.737   9.700  0.6228  0.7008 -0.1444
 3115SOL     OW20980   1.892   4.418   6.509 -0.2348  0.7545 -0.8354
 3115SOL    HW120981   1.968   4.450   6.460  2.3872 -0.4111  2.5258
 3115SOL    HW220982   1.934   4.352   6.565  1.1696  0.1429 -2.5867
 3116SOL     OW20983   2.905   3.724   8.017 -0.1073 -0.6944  0.5434
 3116SOL    HW120984   2.965   3.798   8.016 -0.5970 -0.3115 -1.0368
 3116SOL    HW220985   2.899   3.704   7.924  3.8840 -1.0331  0.3606
 3117SOL     OW20986   3.742   1.582   7.622  0.0494 -0.1388  0.2425
 3117SOL    HW120987   3.694   1.529   7.686  1.5740 -0.1497  1.3855
 3117SOL    HW220988   3.668   1.639   7.600  0.8722 -0.5364 -3.5107
 3118SOL     OW20989   4.342   3.987   6.935 -0.2054 -0.2993  0.0737
 3118SOL    HW120990   4.290   3.922   6.888 -3.2388  0.7884  1.8680
 3118SOL    HW220991   4.428   3.947   6.943 -0.0391 -0.4805 -2.8020
 3119SOL     OW20992   0.559   1.916  15.565 -0.3894 -0.1868 -0.2247
 3119SOL    HW120993   0.608   1.865  15.501  1.8787  0.6490  0.8351
 3119SOL    HW220994   0.471   1.896  15.533 -1.4525  1.2943  1.7866
 3120SOL     OW20995   2.148   0.980   8.386  0.1006  0.0519  0.0905
 3120SOL    HW120996   2.192   1.012   8.465 -2.1356  0.5442  1.1336
 3120SOL    HW220997   2.207   1.000   8.313  0.0808 -0.5303 -0.0869
 3121SOL     OW20998   2.190   1.281  10.259 -0.1989 -0.1077 -0.1661
 3121SOL    HW120999   2.101   1.277  10.295 -0.2164  2.3485  0.0970
 3121SOL    HW221000   2.221   1.345  10.323  2.8881 -2.0592  0.2528
 3122SOL     OW21001   2.790   0.375   8.688 -0.3427  0.0002  0.3575
 3122SOL    HW121002   2.802   0.298   8.743  3.9463  1.3756  1.3576
 3122SOL    HW221003   2.838   0.432   8.748 -0.7543 -1.2909  1.8972
 3123SOL     OW21004   4.606   4.103   4.093  0.4357 -0.3269  0.6426
 3123SOL    HW121005   4.644   4.089   4.007  0.1411  2.0287  0.1261
 3123SOL    HW221006   4.620   4.197   4.103  1.7541 -0.5068  0.4468
 3124SOL     OW21007   4.708   0.157   4.460  0.2485  0.2528  0.6468
 3124SOL    HW121008   4.655   0.083   4.491  0.0488 -0.9033 -2.4360
 3124SOL    HW221009   4.646   0.219   4.498  1.8986  1.6296  1.0925
 3125SOL     OW21010   1.515   3.166   7.076 -0.5542  0.0951 -0.0754
 3125SOL    HW121011   1.598   3.178   7.123 -0.0897 -0.6732 -0.7079
 3125SOL    HW221012   1.487   3.082   7.113 -1.1042 -0.2901 -1.3797
 3126SOL     OW21013   4.089   0.182   2.179 -0.2473 -0.1790 -0.5095
 3126SOL    HW121014   4.021   0.249   2.172  1.2152  1.2048 -1.3232
 3126SOL    HW221015   4.041   0.100   2.166 -0.3223  0.0383 -1.5989
 3127SOL     OW21016   1.586   0.380   6.557 -0.2780  0.0231  0.2504
 3127SOL    HW121017   1.566   0.339   6.473 -0.0523  0.0765  0.1695
 3127SOL    HW221018   1.602   0.469   6.524  4.0486 -0.1596  1.8214
 3128SOL     OW21019   0.088   1.148   5.577  0.1694 -0.4206  0.4597
 3128SOL    HW121020   0.153   1.205   5.618  0.4500 -0.5711  0.2368
 3128SOL    HW221021   0.148   1.094   5.524  0.0901 -0.3918  0.3410
 3129SOL     OW21022   4.068   2.157   3.227 -0.1324  0.6431 -0.1887
 3129SOL    HW121023   4.050   2.069   3.193  0.3328  0.4740  0.0003
 3129SOL    HW221024   4.005   2.212   3.180 -1.7147 -0.6290  0.4509
 3130SOL     OW21025   4.629   3.891  10.698 -0.0988 -0.2862 -0.7199
 3130SOL    HW121026   4.717   3.928  10.696 -0.0879 -0.3761 -1.6058
 3130SOL    HW221027   4.576   3.970  10.709  0.6959  0.3401 -1.3896
 3131SOL     OW21028   3.449   2.278   9.150  0.0255 -0.2931  0.0939
 3131SOL    HW121029   3.383   2.288   9.218  0.6868 -1.0790  0.8549
 3131SOL    HW221030   3.395   2.249   9.076  0.8701 -0.2417 -0.5477
 3132SOL     OW21031   1.552   0.887   6.242  0.2983  0.0970  0.5077
 3132SOL    HW121032   1.469   0.927   6.270 -0.3784 -1.3483  0.5432
 3132SOL    HW221033   1.519   0.808   6.199 -0.6603  1.3769 -1.1577
 3133SOL     OW21034   2.135   0.510   7.451  0.3467 -0.2592 -0.6103
 3133SOL    HW121035   2.077   0.501   7.527 -0.9133  2.8924 -1.1840
 3133SOL    HW221036   2.219   0.493   7.494  0.8017 -0.0496 -1.4135
 3134SOL     OW21037   1.590   4.215  13.975  0.0819  0.0835 -0.0884
 3134SOL    HW121038   1.620   4.145  14.033 -1.3348 -1.6860 -1.4969
 3134SOL    HW221039   1.524   4.257  14.030  0.7673 -1.2201  1.7435
 3135SOL     OW21040   4.732   3.684   5.350 -0.4827 -0.4905  0.5913
 3135SOL    HW121041   4.706   3.607   5.400 -0.9109  0.2273  1.4691
 3135SOL    HW221042   0.077   3.705   5.395  1.4076 -0.4035 -2.9170
 3136SOL     OW21043   1.654   2.946   7.824  0.0819  0.5144 -0.0903
 3136SOL    HW121044   1.647   2.871   7.766 -0.8855  1.2615 -0.9496
 3136SOL    HW221045   1.561   2.968   7.827 -0.3086 -1.4149  1.7490
 3137SOL     OW21046   3.213   0.012  15.158 -0.1758 -0.3998 -0.2099
 3137SOL    HW121047   3.219   0.022  15.253 -2.4993  1.5225 -0.2812
 3137SOL    HW221048   3.304   0.030  15.137  0.1030 -0.5055  0.8728
 3138SOL     OW21049   2.149   0.245   6.219  0.0622  0.2065  0.0090
 3138SOL    HW121050   2.066   0.214   6.256 -0.4575  0.0492 -1.2727
 3138SOL    HW221051   2.171   0.321   6.273  0.4002  0.9194 -1.1390
 3139SOL     OW21052   3.088   4.430  17.160 -0.1056 -0.2098  0.2962
 3139SOL    HW121053   3.136   4.364  17.210  0.5037 -0.6537 -0.8846
 3139SOL    HW221054   3.155   4.499  17.154  0.1982 -0.3511  1.9563
 3140SOL     OW21055   1.224   1.172   5.099  0.2491  0.2953  0.2190
 3140SOL    HW121056   1.253   1.253   5.140 -1.6089  1.5076 -0.8632
 3140SOL    HW221057   1.190   1.127   5.176  1.3053 -1.7840 -0.5163
 3141SOL     OW21058   0.692   1.137   9.365  0.3460  0.0028  0.2178
 3141SOL    HW121059   0.730   1.208   9.312 -0.5298 -0.0050 -0.4160
 3141SOL    HW221060   0.598   1.146   9.353  0.0118 -0.1386  2.7302
 3142SOL     OW21061   1.773   0.104   3.148  0.6985  0.4229 -0.1394
 3142SOL    HW121062   1.793   0.133   3.059  2.4590 -1.7106 -0.4358
 3142SOL    HW221063   1.678   0.092   3.140  0.3791  2.5188  0.6278
 3143SOL     OW21064   4.152   0.798   6.623 -0.0591 -0.0059  0.5031
 3143SOL    HW121065   4.172   0.774   6.532 -1.7215  3.8820 -0.8843
 3143SOL    HW221066   4.166   0.714   6.668 -0.5542 -1.3820 -1.8990
 3144SOL     OW21067   1.976   1.956   9.337 -0.0113 -0.4972 -0.3164
 3144SOL    HW121068   1.888   1.949   9.376 -0.6446  0.6369 -1.5184
 3144SOL    HW221069   1.978   1.878   9.283 -0.3404 -0.7093 -0.0257
 3145SOL     OW21070   1.209   2.238  17.301  0.6497  0.3476 -0.5592
 3145SOL    HW121071   1.156   2.158  17.305 -1.1469  1.4485 -1.8246
 3145SOL    HW221072   1.174   2.274  17.383  1.5008 -0.9324  0.3723
 3146SOL     OW21073   0.982   0.654   1.499 -0.3070  0.4363  0.1847
 3146SOL    HW121074   1.024   0.581   1.545 -1.3518 -0.0498  0.3499
 3146SOL    HW221075   0.912   0.677   1.559 -0.1008 -0.6429  0.8306
 3147SOL     OW21076   0.271   0.765  14.563  0.2203 -0.1802  0.1523
 3147SOL    HW121077   0.301   0.678  14.537 -1.2556 -0.4928 -0.5005
 3147SOL    HW221078   0.325   0.812  14.499  0.9403 -1.1597  0.0474
 3148SOL     OW21079   2.760   1.508   9.953  0.6106 -0.0824 -0.5255
 3148SOL    HW121080   2.670   1.534   9.935  0.2827 -0.3876  0.6664
 3148SOL    HW221081   2.792   1.586   9.998 -0.4468  0.5519 -0.8811
 3149SOL     OW21082   0.452   1.662   9.771 -0.1786 -0.3335 -0.1688
 3149SOL    HW121083   0.479   1.579   9.731 -1.1576 -0.2734 -0.9439
 3149SOL    HW221084   0.539   1.702   9.776  0.3743 -1.4512 -0.7487
 3150SOL     OW21085   1.505   3.484   1.844 -0.3191 -0.5663  0.1348
 3150SOL    HW121086   1.524   3.408   1.789 -0.1331  1.8946 -3.1960
 3150SOL    HW221087   1.471   3.542   1.777  0.7451  0.3920  0.4340
 3151SOL     OW21088   0.656   3.173   7.829 -0.2866  0.7121 -0.1172
 3151SOL    HW121089   0.586   3.114   7.802 -0.0383  0.9145 -1.2070
 3151SOL    HW221090   0.626   3.256   7.792  0.4116  0.7249 -0.6436
 3152SOL     OW21091   1.368   1.710   3.903 -0.2558 -0.1604  0.1052
 3152SOL    HW121092   1.337   1.672   3.986 -0.7208  1.5322  0.7112
 3152SOL    HW221093   1.380   1.804   3.918  1.9902 -0.4758  0.2133
 3153SOL     OW21094   1.521   3.862   8.589 -0.0743 -0.1890 -0.6622
 3153SOL    HW121095   1.596   3.906   8.630  0.1175 -0.2027 -1.0002
 3153SOL    HW221096   1.474   3.856   8.672  1.3655 -0.3553  0.1516
 3154SOL     OW21097   2.582   4.050   9.222 -0.0924  0.2328 -0.1066
 3154SOL    HW121098   2.586   3.957   9.196  0.8108 -0.1885  1.5540
 3154SOL    HW221099   2.488   4.054   9.240  0.1294  0.7636  0.9358
 3155SOL     OW21100   4.032   1.241   4.228  0.0266 -0.1048 -0.1491
 3155SOL    HW121101   4.109   1.268   4.277  0.7402  0.1976 -1.4617
 3155SOL    HW221102   3.964   1.281   4.283 -2.1206 -2.1395 -1.2714
 3156SOL     OW21103   2.315   1.014  17.383  0.1959 -0.4531 -0.4022
 3156SOL    HW121104   2.365   0.934  17.402  0.6804 -0.5707 -2.2207
 3156SOL    HW221105   2.389   1.074  17.393 -0.9534  0.5730  2.1491
 3157SOL     OW21106   3.414   2.165   3.419  0.3481 -0.1392 -0.8876
 3157SOL    HW121107   3.388   2.123   3.338 -0.6503 -0.6046 -0.3189
 3157SOL    HW221108   3.350   2.236   3.413  2.1874  1.6028  0.0483
 3158SOL     OW21109   0.514   4.687  12.592 -0.0627 -0.5104  0.0227
 3158SOL    HW121110   0.480   4.598  12.581 -2.9582  0.1569  3.5079
 3158SOL    HW221111   0.595   4.673  12.543  0.2356 -3.1652  1.2975
 3159SOL     OW21112   2.473   1.229  10.403  0.0831  0.1154  0.0711
 3159SOL    HW121113   2.408   1.167  10.436 -0.3276 -0.0864 -1.1053
 3159SOL    HW221114   2.414   1.295  10.365  2.3109  1.2591 -1.4215
 3160SOL     OW21115   4.448   4.325   6.625 -0.2076  0.3735  0.1870
 3160SOL    HW121116   4.384   4.360   6.687 -1.3801  0.3959 -1.0449
 3160SOL    HW221117   4.531   4.367   6.648 -0.1190  0.7485 -0.8143
 3161SOL     OW21118   3.038   3.389   1.433 -0.2387  0.9096  0.2400
 3161SOL    HW121119   2.984   3.391   1.512  0.2999  0.6861  0.6207
 3161SOL    HW221120   3.091   3.469   1.441  1.4646 -0.2441  0.6018
 3162SOL     OW21121   3.412   3.462   3.586  0.0618 -0.1101 -0.4458
 3162SOL    HW121122   3.320   3.486   3.600  0.2618  0.0544  0.6429
 3162SOL    HW221123   3.451   3.480   3.672  4.9128 -2.7164 -2.1513
 3163SOL     OW21124   0.091   3.597   7.887  0.1004 -0.2400  0.0473
 3163SOL    HW121125   0.092   3.660   7.959 -0.7102  0.0229 -0.1710
 3163SOL    HW221126   0.163   3.539   7.910 -0.4736 -1.7295 -1.9188
 3164SOL     OW21127   0.765   2.202  16.801  0.5080  0.4177 -0.3550
 3164SOL    HW121128   0.742   2.289  16.832 -1.0297 -0.6961  1.6183
 3164SOL    HW221129   0.859   2.204  16.819  0.6837  2.1054 -1.4440
 3165SOL     OW21130   1.872   2.071   0.131 -0.3909 -0.5916 -0.5336
 3165SOL    HW121131   1.932   2.015   0.178 -1.3927 -2.1556 -1.1193
 3165SOL    HW221132   1.831   2.008   0.072 -0.0249 -0.4670 -0.9196
 3166SOL     OW21133   2.733   4.324  14.177 -0.0465  0.3582 -0.3280
 3166SOL    HW121134   2.753   4.366  14.260 -1.8988  2.3183 -0.8787
 3166SOL    HW221135   2.734   4.402  14.121  0.1508 -0.4021 -1.3867
 3167SOL     OW21136   1.750   1.457   6.776  1.0256  0.2249 -0.5599
 3167SOL    HW121137   1.719   1.449   6.686 -0.7457  0.4839  0.0315
 3167SOL    HW221138   1.739   1.367   6.808  3.2360  0.2482  0.2741
 3168SOL     OW21139   3.675   3.592   1.085 -0.1920  0.1365 -0.4885
 3168SOL    HW121140   3.724   3.661   1.039  0.8829  0.0604  0.5396
 3168SOL    HW221141   3.736   3.521   1.105  0.2140  0.8461  0.8091
 3169SOL     OW21142   2.738   0.878   1.700 -0.1315 -0.8245  0.1821
 3169SOL    HW121143   2.735   0.787   1.731  1.0961 -0.7966  0.3908
 3169SOL    HW221144   2.695   0.875   1.614 -0.0974  1.6316  0.0950
 3170SOL     OW21145   1.235   3.249   4.232 -0.4128 -0.5307 -0.4009
 3170SOL    HW121146   1.319   3.287   4.207  0.6545 -0.9753  2.5547
 3170SOL    HW221147   1.232   3.275   4.324  0.5101 -2.9240  0.2805
 3171SOL     OW21148   1.258   1.640  14.750 -0.5257  0.6866 -0.1829
 3171SOL    HW121149   1.296   1.727  14.766  1.9940 -0.4206 -0.2680
 3171SOL    HW221150   1.303   1.631  14.666  0.3249 -1.3266  0.4997
 3172SOL     OW21151   2.370   1.073   8.231 -0.2099 -0.7324 -0.1299
 3172SOL    HW121152   2.453   1.049   8.272 -1.2240 -2.1217  1.1142
 3172SOL    HW221153   2.359   1.166   8.251 -0.2811 -0.3973 -1.7273
 3173SOL     OW21154   1.729   2.689   4.807 -0.8176 -0.3489 -0.0675
 3173SOL    HW121155   1.666   2.704   4.737 -2.6346  1.2595  1.9016
 3173SOL    HW221156   1.806   2.681   4.751 -0.6981 -0.4470  0.1098
 3174SOL     OW21157   0.822   4.714   2.712 -0.0075 -0.0458  0.0586
 3174SOL    HW121158   0.774   0.053   2.744  0.6239 -0.0148  0.9250
 3174SOL    HW221159   0.873   0.009   2.638 -0.4145  2.1110  0.7307
 3175SOL     OW21160   2.055   4.625   8.535  0.7907  0.2266 -0.1256
 3175SOL    HW121161   2.010   4.666   8.608 -0.4226  0.1214 -0.8077
 3175SOL    HW221162   1.997   4.641   8.461 -0.6774  0.3470  1.0665
 3176SOL     OW21163   0.402   3.114  11.983 -0.1702  0.4807  0.1115
 3176SOL    HW121164   0.327   3.174  11.988 -0.4268  0.1721 -0.0664
 3176SOL    HW221165   0.397   3.064  12.064  0.1789  0.5392  0.1666
 3177SOL     OW21166   1.957   1.928   1.098 -0.0617 -0.0268 -0.3349
 3177SOL    HW121167   1.982   1.839   1.120 -1.5940 -0.6244 -0.9604
 3177SOL    HW221168   1.862   1.915   1.099 -0.2901  1.8947  2.0537
 3178SOL     OW21169   2.115   1.914   8.983  0.4077 -0.3827 -0.5153
 3178SOL    HW121170   2.032   1.889   8.942  0.4658 -1.0048 -0.2521
 3178SOL    HW221171   2.175   1.841   8.968  0.6080 -0.5396  1.0507
 3179SOL     OW21172   0.857   3.854  12.015 -0.0114 -0.2513 -0.0741
 3179SOL    HW121173   0.885   3.777  12.063 -0.4383 -0.4137 -0.0873
 3179SOL    HW221174   0.866   3.824  11.925  0.2687 -1.4444  0.3510
 3180SOL     OW21175   1.722   1.543   1.662 -0.0763 -0.5653 -0.7948
 3180SOL    HW121176   1.723   1.627   1.616 -0.1311 -0.4056 -0.5013
 3180SOL    HW221177   1.764   1.486   1.597 -1.6849 -1.7077 -0.8364
 3181SOL     OW21178   2.879   4.085   8.965  0.0590 -1.0425  0.4699
 3181SOL    HW121179   2.919   4.059   8.882  1.2839 -0.0923  0.7614
 3181SOL    HW221180   2.806   4.023   8.970 -0.2109 -0.6778  1.1289
 3182SOL     OW21181   0.504   2.334  12.725  0.1773  0.1082 -0.0767
 3182SOL    HW121182   0.591   2.372  12.709 -0.4319  0.3327 -2.8171
 3182SOL    HW221183   0.509   2.341  12.820 -2.9797  0.9235  0.0174
 3183SOL     OW21184   0.346   4.527   3.870 -0.1360  0.5047  0.8449
 3183SOL    HW121185   0.274   4.541   3.931 -0.2997  0.5530  0.6398
 3183SOL    HW221186   0.398   4.460   3.915 -1.7220 -2.1272 -1.2709
 3184SOL     OW21187   4.189   2.123   5.235  0.4150 -0.0178  0.3120
 3184SOL    HW121188   4.234   2.039   5.233 -0.5911 -0.5858  1.7875
 3184SOL    HW221189   4.137   2.106   5.156  0.0992 -0.6614  0.6601
 3185SOL     OW21190   3.418   1.500   6.623  0.2607 -0.0213  0.0716
 3185SOL    HW121191   3.498   1.546   6.647 -0.1922  1.3455 -1.0281
 3185SOL    HW221192   3.359   1.575   6.616 -1.0366 -1.1714 -1.3732
 3186SOL     OW21193   2.163   0.646   8.800  0.0989  0.3897 -0.4813
 3186SOL    HW121194   2.207   0.682   8.723  3.1666 -0.8791  0.6611
 3186SOL    HW221195   2.174   0.717   8.863 -0.5599 -1.8027  2.1326
 3187SOL     OW21196   1.832   1.472   8.854  0.3175 -0.0347  0.0521
 3187SOL    HW121197   1.848   1.554   8.901  1.2212 -0.3101  0.2364
 3187SOL    HW221198   1.919   1.458   8.816 -0.2450  1.9790 -1.9680
 3188SOL     OW21199   3.550   0.224   2.206  0.2878 -0.0195 -0.3639
 3188SOL    HW121200   3.535   0.293   2.271 -1.4729  0.5327 -1.3429
 3188SOL    HW221201   3.621   0.172   2.243 -1.1007 -2.6990 -1.4533
 3189SOL     OW21202   2.040   4.650  10.094  0.1094  0.1225 -0.4982
 3189SOL    HW121203   2.132   4.676  10.098 -0.0541  0.6306 -0.0174
 3189SOL    HW221204   2.052   4.562  10.129 -0.7171  0.9145  1.7421
 3190SOL     OW21205   0.388   3.924  17.422  0.3133  0.6835 -0.5424
 3190SOL    HW121206   0.418   4.014  17.434  0.2997  0.5249  0.6962
 3190SOL    HW221207   0.297   3.934  17.391 -0.0170  0.3038  0.3049
 3191SOL     OW21208   0.497   1.554   4.436 -0.2630 -0.4413 -0.0175
 3191SOL    HW121209   0.540   1.477   4.399  0.2819  0.5982 -1.5767
 3191SOL    HW221210   0.453   1.584   4.357  1.1445 -0.8397 -0.9473
 3192SOL     OW21211   3.026   0.885   1.663  0.1771 -0.0669 -0.3042
 3192SOL    HW121212   2.992   0.895   1.752 -0.6766 -2.0567 -0.3928
 3192SOL    HW221213   3.023   0.789   1.657  0.4843  0.0825 -2.6704
 3193SOL     OW21214   2.159   1.955   2.256 -0.5051 -0.3258  0.2834
 3193SOL    HW121215   2.189   1.875   2.300 -0.8430 -0.3145  0.5312
 3193SOL    HW221216   2.242   1.998   2.239 -1.1432  1.0675  0.7201
 3194SOL     OW21217   3.407   2.666   2.626  0.2589 -0.3576 -0.1335
 3194SOL    HW121218   3.432   2.724   2.698 -2.1357  0.6227 -0.0874
 3194SOL    HW221219   3.398   2.583   2.673  1.0768 -1.1964 -1.4637
 3195SOL     OW21220   0.015   2.730   6.412 -0.4632  0.3045  0.2134
 3195SOL    HW121221   0.022   2.681   6.330  2.8447  0.3036  0.4770
 3195SOL    HW221222   4.719   2.812   6.378 -2.2142 -0.6487 -0.3527
 3196SOL     OW21223   2.680   3.056  15.533 -0.1138  0.7269  0.3432
 3196SOL    HW121224   2.698   2.975  15.486 -0.6611  0.1122  1.1783
 3196SOL    HW221225   2.684   3.118  15.461 -0.1642 -1.4031 -1.4853
 3197SOL     OW21226   1.167   2.484  14.285 -0.0210  0.3045  0.0924
 3197SOL    HW121227   1.166   2.535  14.367 -0.3847  2.4520 -1.2498
 3197SOL    HW221228   1.255   2.447  14.299  1.0248  2.4806 -0.7154
 3198SOL     OW21229   0.053   3.408   3.676 -0.0929 -0.2871  0.2904
 3198SOL    HW121230   0.053   3.326   3.625  0.6338  1.0391 -1.8561
 3198SOL    HW221231   0.026   3.469   3.607  1.5075 -0.1254 -0.1988
 3199SOL     OW21232   1.772   0.129   0.418 -0.1384  0.1677  0.1963
 3199SOL    HW121233   1.714   0.064   0.377 -0.0302 -0.7401  1.4973
 3199SOL    HW221234   1.843   0.136   0.354  0.1498  1.9584  0.7054
 3200SOL     OW21235   4.506   2.265   7.692 -0.3880 -0.0577 -0.3644
 3200SOL    HW121236   4.599   2.270   7.667 -0.1994 -0.6182  0.2131
 3200SOL    HW221237   4.460   2.298   7.614 -2.7612 -0.8423  0.7140
 3201SOL     OW21238   3.680   1.978  11.738  0.6402  0.1419 -0.0672
 3201SOL    HW121239   3.743   2.045  11.765  1.4739 -0.6794  0.0527
 3201SOL    HW221240   3.740   1.903  11.745 -0.8257 -1.0794 -0.5170
 3202SOL     OW21241   3.413   0.312   7.393  0.3767 -0.0047 -0.1633
 3202SOL    HW121242   3.497   0.270   7.410 -0.1923 -0.6728  1.0332
 3202SOL    HW221243   3.362   0.241   7.354 -1.5615  0.6842  1.1341
 3203SOL     OW21244   1.512   2.300   5.911 -0.0727  0.8718  0.7665
 3203SOL    HW121245   1.528   2.389   5.881 -2.4009  0.4279 -1.6789
 3203SOL    HW221246   1.426   2.315   5.950 -0.4607  1.0573 -0.1781
 3204SOL     OW21247   0.492   3.178   7.289  0.1457  0.6030 -0.3625
 3204SOL    HW121248   0.461   3.218   7.371  2.2005 -0.2566  0.8255
 3204SOL    HW221249   0.574   3.225   7.273  1.2344 -0.7933  1.1054
 3205SOL     OW21250   0.564   0.457   6.260 -0.0241  0.0346  0.4362
 3205SOL    HW121251   0.572   0.373   6.304 -2.4849 -1.1522 -1.3609
 3205SOL    HW221252   0.470   0.469   6.272 -0.1494  0.5629 -1.0402
 3206SOL     OW21253   0.000   4.407   4.853  0.1929  0.1957 -0.2115
 3206SOL    HW121254   4.730   4.503   4.852 -1.3639  0.0772 -0.1090
 3206SOL    HW221255   4.652   4.386   4.815  0.3644 -1.5124  0.3464
 3207SOL     OW21256   0.314   2.541   6.578 -0.1942  0.5318 -0.1936
 3207SOL    HW121257   0.298   2.615   6.636  0.0243  0.7138 -0.3704
 3207SOL    HW221258   0.357   2.580   6.502 -1.4131 -0.1649 -1.2425
 3208SOL     OW21259   2.029   0.106  13.240 -0.3547 -0.3461 -0.0684
 3208SOL    HW121260   1.995   0.128  13.327  0.3354 -1.9575  0.5869
 3208SOL    HW221261   2.067   0.192  13.222 -2.1259  0.4158 -0.1901
 3209SOL     OW21262   3.536   3.138   6.052 -0.3980  0.5222  0.0284
 3209SOL    HW121263   3.544   3.162   6.145  0.7412  0.1267  0.0338
 3209SOL    HW221264   3.495   3.214   6.011 -2.8483 -1.1315 -0.5508
 3210SOL     OW21265   4.067   0.095   3.333 -0.2109 -0.5403 -0.3920
 3210SOL    HW121266   3.984   0.056   3.356 -1.7328  2.1251 -1.3441
 3210SOL    HW221267   4.127   0.023   3.351 -0.5182 -1.4789 -3.0604
 3211SOL     OW21268   3.829   3.358   1.094  0.5919  0.4617  0.1863
 3211SOL    HW121269   3.796   3.316   1.174 -1.6551 -0.5612 -1.2726
 3211SOL    HW221270   3.820   3.291   1.027 -0.5103  0.6173  0.1673
 3212SOL     OW21271   0.653   2.521   6.691 -0.8043 -0.0052  0.0936
 3212SOL    HW121272   0.664   2.532   6.596 -0.2467  1.9376  0.3865
 3212SOL    HW221273   0.706   2.446   6.718  1.3595  1.4220 -0.1607
 3213SOL     OW21274   3.385   2.550   2.397 -0.0671  0.0481  0.2062
 3213SOL    HW121275   3.402   2.592   2.481 -0.6870  1.1147 -0.1968
 3213SOL    HW221276   3.439   2.596   2.332 -1.1320 -1.6474 -1.8984
 3214SOL     OW21277   3.780   1.571   2.092  0.3669 -0.4051  0.3149
 3214SOL    HW121278   3.764   1.500   2.029 -2.0700  0.9666 -0.6042
 3214SOL    HW221279   3.699   1.572   2.142  0.1735  1.1482 -0.0371
 3215SOL     OW21280   3.230   3.970   5.173  0.2054  0.2208  0.0335
 3215SOL    HW121281   3.315   3.997   5.208  0.3515  0.8840 -0.8259
 3215SOL    HW221282   3.177   3.988   5.251 -0.0530 -1.6813  0.2754
 3216SOL     OW21283   2.819   4.536   5.389  0.8587  0.4368 -0.9576
 3216SOL    HW121284   2.834   4.464   5.327  0.1718  0.2764 -0.9368
 3216SOL    HW221285   2.763   4.483   5.445  1.5593  0.0895 -0.5827
 3217SOL     OW21286   2.888   2.218  10.261  0.1852 -0.3399  0.2779
 3217SOL    HW121287   2.957   2.248  10.321  0.8907 -2.0568  0.3095
 3217SOL    HW221288   2.813   2.203  10.319 -0.3330 -1.2476 -0.6363
 3218SOL     OW21289   4.499   2.264  13.863 -0.1493 -0.0797 -0.3636
 3218SOL    HW121290   4.420   2.300  13.904 -0.4579  1.5229 -2.3376
 3218SOL    HW221291   4.472   2.196  13.801  2.7237 -1.5875  0.0467
 3219SOL     OW21292   2.466   3.244   9.819 -0.2974  0.7170  0.2124
 3219SOL    HW121293   2.453   3.181   9.748 -0.9856  2.8545 -1.5360
 3219SOL    HW221294   2.561   3.230   9.826 -0.2819  0.1600 -1.1776
 3220SOL     OW21295   4.104   4.154   0.586  0.7154 -0.5404  0.2240
 3220SOL    HW121296   4.115   4.186   0.496  2.0658  3.1663  1.6856
 3220SOL    HW221297   4.022   4.192   0.617  1.0888  0.6899 -0.3059
 3221SOL     OW21298   4.442   2.380  14.533  0.3067  0.2240  0.4750
 3221SOL    HW121299   4.406   2.330  14.607 -0.5421  2.4824  1.5604
 3221SOL    HW221300   4.535   2.360  14.533  0.2091 -0.2388  0.4148
 3222SOL     OW21301   1.109   4.071   0.336 -0.0362  0.2940  0.3013
 3222SOL    HW121302   1.144   4.009   0.271  0.0356 -1.2341  1.7954
 3222SOL    HW221303   1.175   4.065   0.405 -0.5575 -1.0519  0.6699
 3223SOL     OW21304   4.660   0.814   5.553  0.4848  0.1927 -0.0302
 3223SOL    HW121305   4.643   0.874   5.480 -1.3428  0.6510  0.7959
 3223SOL    HW221306   4.620   0.737   5.514 -1.5262  1.9297 -1.4271
 3224SOL     OW21307   0.001   3.587   3.445 -0.4279  0.2826 -0.2183
 3224SOL    HW121308   4.678   3.654   3.477 -0.6281  0.2466 -0.5143
 3224SOL    HW221309   4.685   3.552   3.374  1.8057  1.6997 -2.5803
 3225SOL     OW21310   3.282   0.945   7.874 -0.0021 -0.1669  0.1938
 3225SOL    HW121311   3.228   0.867   7.859  1.7941 -1.4483  0.3967
 3225SOL    HW221312   3.338   0.915   7.945  0.4803  1.9516  0.7104
 3226SOL     OW21313   3.420   3.396   1.431  0.4814 -0.3206 -0.0826
 3226SOL    HW121314   3.381   3.321   1.385 -1.0648 -0.9580  2.2808
 3226SOL    HW221315   3.418   3.347   1.513  2.0213 -0.1495  0.0630
 3227SOL     OW21316   2.602   3.992   3.747  0.3614  0.0811  0.8466
 3227SOL    HW121317   2.671   3.972   3.684  0.4676  2.2117  0.2877
 3227SOL    HW221318   2.571   4.074   3.709 -0.1082  0.0208  1.1020
 3228SOL     OW21319   1.504   4.148   0.538 -0.0313  0.3112  0.0198
 3228SOL    HW121320   1.508   4.080   0.471  2.1549  0.6000 -0.1409
 3228SOL    HW221321   1.417   4.188   0.537  0.4751  1.4097 -0.3681
 3229SOL     OW21322   3.298   3.321   2.552  0.6062  0.1430  0.3116
 3229SOL    HW121323   3.245   3.400   2.542 -0.0067 -0.4692 -1.2445
 3229SOL    HW221324   3.229   3.255   2.544  0.3289  0.3045  1.2792
 3230SOL     OW21325   2.248   0.766   8.569 -0.3346  0.6014 -0.0694
 3230SOL    HW121326   2.256   0.703   8.498  0.4217  2.1913 -1.3822
 3230SOL    HW221327   2.244   0.850   8.525  0.3372  0.9832  0.6003
 3231SOL     OW21328   4.252   3.923   1.883 -0.6756  0.4220  0.2518
 3231SOL    HW121329   4.334   3.941   1.837 -0.4142  0.3705  0.6975
 3231SOL    HW221330   4.201   4.004   1.878  2.4778  2.4332  0.7008
 3232SOL     OW21331   3.460   2.359   7.863  0.1378 -0.1593 -0.8509
 3232SOL    HW121332   3.458   2.401   7.949  2.6445 -0.8151 -0.5019
 3232SOL    HW221333   3.515   2.421   7.815  0.2104  0.2692 -0.2114
 3233SOL     OW21334   2.747   3.570   4.602  0.1279 -0.0162  0.2424
 3233SOL    HW121335   2.678   3.543   4.662  0.3684 -2.3811 -0.5479
 3233SOL    HW221336   2.734   3.508   4.530  0.1674 -0.7609  0.8829
 3234SOL     OW21337   4.032   1.831  14.749  0.2440 -0.2484  0.2316
 3234SOL    HW121338   4.100   1.882  14.794  0.3364 -0.7234  0.6284
 3234SOL    HW221339   4.069   1.815  14.662 -0.4488  1.7116 -0.4296
 3235SOL     OW21340   1.288   3.949   6.637  0.4918 -0.2734 -0.1510
 3235SOL    HW121341   1.238   3.946   6.719  0.4573 -0.4999 -0.1785
 3235SOL    HW221342   1.367   3.901   6.663  0.4923  0.3041  0.9192
 3236SOL     OW21343   1.680   0.739   8.253 -0.6297 -0.3243  0.1111
 3236SOL    HW121344   1.720   0.799   8.315 -0.8181 -0.7712  0.6683
 3236SOL    HW221345   1.682   0.657   8.303 -1.1122 -1.0884 -1.0975
 3237SOL     OW21346   4.277   3.497  14.202 -0.3636  0.1835 -0.0769
 3237SOL    HW121347   4.188   3.468  14.183 -0.5835  0.2845  0.7913
 3237SOL    HW221348   4.322   3.424  14.245  3.6668  2.2553 -0.7095
 3238SOL     OW21349   0.542   0.772   4.983  0.1016 -0.1681  0.1535
 3238SOL    HW121350   0.486   0.799   4.910  0.3759  0.2281  0.0922
 3238SOL    HW221351   0.483   0.764   5.058  1.2888 -0.7105  1.0386
 3239SOL     OW21352   1.689   4.326  15.114 -0.1586  0.7250  0.4280
 3239SOL    HW121353   1.749   4.360  15.181  0.3321  0.3234  0.1945
 3239SOL    HW221354   1.653   4.255  15.166  0.8585 -0.5428 -0.6130
 3240SOL     OW21355   4.708   3.110   1.272  0.0620 -0.5378  0.6029
 3240SOL    HW121356   4.714   3.105   1.176 -0.7322  2.6594  0.4097
 3240SOL    HW221357   4.691   3.020   1.302  0.4533 -0.6633  0.4486
 3241SOL     OW21358   0.870   1.575   8.691 -0.3565  0.0549 -0.3929
 3241SOL    HW121359   0.932   1.513   8.730 -0.5143  0.9111  1.2016
 3241SOL    HW221360   0.816   1.521   8.634  1.7674  0.1254 -2.4868
 3242SOL     OW21361   2.929   0.542   3.411 -0.1870  0.3968 -0.1343
 3242SOL    HW121362   2.844   0.498   3.415  0.3029 -0.6939 -1.6582
 3242SOL    HW221363   2.938   0.586   3.496  3.0038 -0.5670  0.0185
 3243SOL     OW21364   0.539   3.916  15.835 -0.1733  0.5605  0.0928
 3243SOL    HW121365   0.567   3.964  15.913  2.6557 -0.2945 -0.3825
 3243SOL    HW221366   0.615   3.862  15.815  0.0372  0.2006  1.9085
 3244SOL     OW21367   1.815   1.777   4.410 -0.0254 -0.3656  0.7039
 3244SOL    HW121368   1.860   1.693   4.401  1.0421  0.5354 -2.1913
 3244SOL    HW221369   1.775   1.764   4.496 -0.5597 -3.6331 -0.0169
 3245SOL     OW21370   1.533   2.293   8.119 -0.4920 -0.0537 -0.0212
 3245SOL    HW121371   1.551   2.280   8.212 -1.0662  1.1747  0.2642
 3245SOL    HW221372   1.457   2.352   8.119 -1.3830 -1.2050  0.1796
 3246SOL     OW21373   2.686   1.106   1.820 -0.5137 -0.3621  0.2690
 3246SOL    HW121374   2.707   1.021   1.783  0.6702 -0.2178  0.6143
 3246SOL    HW221375   2.599   1.110   1.780 -0.7105 -3.4137  0.4477
 3247SOL     OW21376   2.687   2.421   4.061 -0.0975 -0.0600 -0.1055
 3247SOL    HW121377   2.780   2.421   4.083  0.1910  0.5141 -1.3134
 3247SOL    HW221378   2.675   2.513   4.040 -0.2138  0.2695  1.3959
 3248SOL     OW21379   0.533   0.229   2.095 -0.2549  0.2011  0.0770
 3248SOL    HW121380   0.605   0.283   2.127  0.6999 -0.6202 -0.6831
 3248SOL    HW221381   0.458   0.268   2.140 -1.9286 -0.9678 -1.7162
 3249SOL     OW21382   4.618   0.050   3.347 -0.2797  0.0534  0.2775
 3249SOL    HW121383   4.703   0.047   3.302 -0.5856  2.0210 -0.4435
 3249SOL    HW221384   4.575   4.722   3.292  0.0205 -1.0746  1.3925
 3250SOL     OW21385   4.289   2.934  11.730  0.2227 -0.5041  0.2209
 3250SOL    HW121386   4.350   2.862  11.714  0.5643 -0.6889  2.3070
 3250SOL    HW221387   4.299   2.987  11.651  0.0755 -0.1176  0.4599
 3251SOL     OW21388   0.902   3.851   5.365 -0.4116 -0.1512  0.3188
 3251SOL    HW121389   0.877   3.762   5.391 -1.1046  0.1714  0.7424
 3251SOL    HW221390   0.822   3.881   5.321  1.2884  3.7596 -0.0732
 3252SOL     OW21391   3.954   3.735   8.188 -0.1059  0.0623  0.7149
 3252SOL    HW121392   3.935   3.675   8.116  0.5704 -0.7964  1.2544
 3252SOL    HW221393   4.050   3.740   8.189 -0.1021 -0.1258  1.2071
 3253SOL     OW21394   4.129   3.216  12.837  0.1969  0.0820  0.0112
 3253SOL    HW121395   4.177   3.187  12.914 -2.0791 -2.1884  0.5839
 3253SOL    HW221396   4.047   3.249  12.874  0.6590 -1.1033  2.0722
 3254SOL     OW21397   2.490   3.227  14.258  0.2791 -0.0864  0.9555
 3254SOL    HW121398   2.483   3.170  14.334  1.2581 -0.3006  0.8912
 3254SOL    HW221399   2.409   3.277  14.262  0.2868 -0.0809  1.0349
 3255SOL     OW21400   4.164   0.705   7.736 -0.1736  0.2346 -0.4468
 3255SOL    HW121401   4.190   0.765   7.806  0.9477 -2.2378  1.2520
 3255SOL    HW221402   4.138   0.629   7.788  0.1336  1.0410  0.8789
 3256SOL     OW21403   0.083   2.325   7.304 -0.2104 -0.0175 -0.9182
 3256SOL    HW121404   0.077   2.415   7.273  0.1635  0.3338  0.0172
 3256SOL    HW221405   0.022   2.283   7.244  0.6162  0.4177 -2.0474
 3257SOL     OW21406   1.429   2.026   2.531 -0.1980 -1.1470 -0.4778
 3257SOL    HW121407   1.389   2.010   2.446 -1.6972  1.2403 -0.2348
 3257SOL    HW221408   1.518   2.038   2.498  0.3093  1.0494  1.7261
 3258SOL     OW21409   0.504   2.803   2.730 -0.7070 -0.0371 -0.2674
 3258SOL    HW121410   0.416   2.839   2.724 -0.3805  1.3025  2.9405
 3258SOL    HW221411   0.517   2.811   2.824 -3.0371  0.2466  0.0371
 3259SOL     OW21412   4.571   3.732   7.460  0.1417  0.1584  0.0178
 3259SOL    HW121413   4.619   3.794   7.404  0.9654 -0.9860 -0.5382
 3259SOL    HW221414   4.647   3.694   7.505 -0.3861 -0.4127  0.4203
 3260SOL     OW21415   0.384   1.066   8.936  0.2579 -0.4641 -0.4861
 3260SOL    HW121416   0.303   1.115   8.921 -0.5777 -1.3510  1.2025
 3260SOL    HW221417   0.396   1.055   9.030  1.6217  0.7622 -0.5184
 3261SOL     OW21418   4.534   2.342  12.175 -0.3817  0.1564  0.0716
 3261SOL    HW121419   4.450   2.388  12.167 -0.2907  0.4423  0.7347
 3261SOL    HW221420   4.590   2.384  12.110  0.9349  0.8857  1.6873
 3262SOL     OW21421   0.221   3.902   5.286  0.3257  0.0686 -0.9742
 3262SOL    HW121422   0.152   3.964   5.263  0.1714  0.3529  0.2496
 3262SOL    HW221423   0.258   3.942   5.364 -0.5539  0.0170 -0.5315
 3263SOL     OW21424   2.927   0.117   6.778  0.4266  0.2208 -0.6519
 3263SOL    HW121425   2.885   0.074   6.703  0.3361 -0.3524 -0.2798
 3263SOL    HW221426   3.018   0.114   6.749  0.4023  2.4675 -0.9532
 3264SOL     OW21427   1.788   4.194  11.262 -0.6353 -0.4144  0.3472
 3264SOL    HW121428   1.722   4.170  11.328 -0.9017  0.7572  0.5104
 3264SOL    HW221429   1.828   4.271  11.300 -2.7584  1.1059 -0.4893
 3265SOL     OW21430   0.014   3.416   1.666  0.3067  0.2319  0.8338
 3265SOL    HW121431   4.714   3.498   1.634  1.9520  1.1951  1.4096
 3265SOL    HW221432   4.675   3.358   1.658  0.6330  0.0634 -1.0157
 3266SOL     OW21433   2.487   4.587   7.046  0.5486 -0.4231  0.4480
 3266SOL    HW121434   2.450   4.634   6.971  3.0134 -0.5170 -0.8097
 3266SOL    HW221435   2.490   4.657   7.112 -0.9106 -0.0543  0.1195
 3267SOL     OW21436   3.910   0.632   6.797 -0.2270 -0.7416  0.1058
 3267SOL    HW121437   3.869   0.616   6.882  1.9797 -0.8956  1.1560
 3267SOL    HW221438   3.906   0.727   6.793  2.1978 -0.6877 -0.8595
 3268SOL     OW21439   4.622   4.595   6.419  0.0721  0.7427  0.7619
 3268SOL    HW121440   4.598   4.685   6.443  0.6102  1.5549 -1.7137
 3268SOL    HW221441   4.656   4.562   6.502  3.3101 -0.7007 -1.1207
 3269SOL     OW21442   1.691   1.347   7.538 -0.0564  1.1966 -0.2017
 3269SOL    HW121443   1.758   1.383   7.480  0.7138  1.5727  0.9264
 3269SOL    HW221444   1.615   1.399   7.512 -1.8013 -1.2023  0.0401
 3270SOL     OW21445   2.554   4.706  11.931  0.2268 -0.3063  0.4301
 3270SOL    HW121446   2.580   4.707  12.024  2.4489 -1.7815 -0.1619
 3270SOL    HW221447   2.499   0.047  11.938  0.8673  0.2269 -0.5336
 3271SOL     OW21448   1.150   3.712   0.691  0.5108  0.1910 -0.4035
 3271SOL    HW121449   1.140   3.698   0.597 -2.2488  1.4273 -0.3173
 3271SOL    HW221450   1.114   3.629   0.724 -0.0260 -1.1448 -4.4249
 3272SOL     OW21451   1.515   4.179  13.724 -0.5655 -0.0298  0.1954
 3272SOL    HW121452   1.420   4.190  13.737 -0.1744  1.7586  1.6156
 3272SOL    HW221453   1.546   4.191  13.814 -1.2516  1.2833  0.2620
 3273SOL     OW21454   0.370   0.471   3.061  0.0500  0.7515 -0.8053
 3273SOL    HW121455   0.277   0.457   3.045 -0.1463 -0.3193  1.2343
 3273SOL    HW221456   0.403   0.381   3.052  0.9373  0.9877  0.1037
 3274SOL     OW21457   4.093   1.552   8.109 -0.4614 -0.0735 -0.6787
 3274SOL    HW121458   4.132   1.501   8.180 -1.3132  0.2485  0.0289
 3274SOL    HW221459   4.054   1.486   8.051 -0.4111 -0.1447 -0.6310
 3275SOL     OW21460   1.882   2.783   8.261 -0.6006  0.3490 -0.2714
 3275SOL    HW121461   1.976   2.766   8.255 -0.5182  0.7234 -0.0087
 3275SOL    HW221462   1.872   2.850   8.328  1.4373 -0.3099  0.6666
 3276SOL     OW21463   3.247   4.595   8.180 -0.0712 -0.1578 -0.1793
 3276SOL    HW121464   3.277   4.523   8.123 -2.6310 -1.3245 -0.0486
 3276SOL    HW221465   3.322   4.654   8.176  2.5376 -3.3714  0.8136
 3277SOL     OW21466   1.272   2.478   7.342 -0.2474 -0.3558 -0.3291
 3277SOL    HW121467   1.270   2.565   7.380  0.9229 -0.0680 -0.9086
 3277SOL    HW221468   1.302   2.414   7.408  0.0180 -1.0414 -1.1166
 3278SOL     OW21469   0.907   4.282   3.773 -0.3326 -0.4093  0.3194
 3278SOL    HW121470   0.866   4.326   3.847 -0.5780 -1.3296  0.7270
 3278SOL    HW221471   0.987   4.334   3.765 -0.1645 -1.1167 -2.6746
 3279SOL     OW21472   3.852   3.408   6.075  0.9102 -0.3480  0.1602
 3279SOL    HW121473   3.776   3.417   6.017  0.9615  2.1064  0.4558
 3279SOL    HW221474   3.842   3.473   6.145 -0.4503 -1.3771  0.9150
 3280SOL     OW21475   4.495   1.431   4.153 -0.1535  0.1319  0.2289
 3280SOL    HW121476   4.458   1.345   4.171 -3.4682  0.9882 -2.5519
 3280SOL    HW221477   4.587   1.405   4.144  0.5602  2.2400  1.3795
 3281SOL     OW21478   4.118   0.977   9.148  1.0649  0.5969 -0.0566
 3281SOL    HW121479   4.049   0.910   9.137  0.3568  1.0180  1.8319
 3281SOL    HW221480   4.075   1.061   9.136 -0.2864 -0.4533 -2.6015
 3282SOL     OW21481   3.324   1.687   2.851 -0.1295 -0.1896 -0.4389
 3282SOL    HW121482   3.399   1.631   2.829 -0.0185  0.1878 -1.0152
 3282SOL    HW221483   3.265   1.613   2.866 -0.2518  0.4271  2.0348
 3283SOL     OW21484   3.126   2.549   2.704 -0.2952  0.2294  0.4770
 3283SOL    HW121485   3.208   2.518   2.666 -0.4277  0.9974 -0.4240
 3283SOL    HW221486   3.144   2.542   2.798 -1.9123 -1.4760  0.6648
 3284SOL     OW21487   4.537   4.374  12.836 -0.1638 -0.1638  0.1456
 3284SOL    HW121488   4.501   4.306  12.892 -1.4725 -1.2776 -2.0218
 3284SOL    HW221489   4.476   4.446  12.851  0.3215 -0.4386  3.3498
 3285SOL     OW21490   0.799   3.366   1.939 -0.2076  0.0560  0.1117
 3285SOL    HW121491   0.856   3.442   1.929  0.3885 -0.4669 -0.4142
 3285SOL    HW221492   0.772   3.345   1.850  0.9820 -3.3924  0.5892
 3286SOL     OW21493   1.828   0.353   8.997  0.5663 -0.0362  0.7758
 3286SOL    HW121494   1.922   0.367   9.006  0.4103  1.9220 -0.7196
 3286SOL    HW221495   1.843   0.260   8.985 -0.0496 -0.1599  0.9489
 3287SOL     OW21496   3.547   2.108   4.340 -0.3802  0.1711  0.1552
 3287SOL    HW121497   3.572   2.192   4.302 -1.3499  0.0850 -0.6768
 3287SOL    HW221498   3.467   2.100   4.288  0.4205 -1.0879 -0.8862
 3288SOL     OW21499   0.285   3.018   9.434  0.4928  0.3229 -0.1732
 3288SOL    HW121500   0.300   2.928   9.463  2.1580  0.7620  0.3274
 3288SOL    HW221501   0.375   3.050   9.426  0.0139  2.1024  1.6420
 3289SOL     OW21502   4.644   2.966  11.304 -0.5101 -0.5579 -0.4087
 3289SOL    HW121503   4.697   2.886  11.300  0.0254 -0.3657  2.3344
 3289SOL    HW221504   4.571   2.929  11.354 -1.0192  0.9809 -0.0130
 3290SOL     OW21505   2.870   2.443   2.388  0.1463 -0.0488 -0.0828
 3290SOL    HW121506   2.958   2.467   2.360 -0.0639  1.5630  0.6206
 3290SOL    HW221507   2.877   2.448   2.484 -2.2799  0.4742  0.0686
 3291SOL     OW21508   0.038   0.001  10.184  0.0544  0.1699 -0.0357
 3291SOL    HW121509   0.070   4.665  10.236 -0.8075 -0.1034  0.0999
 3291SOL    HW221510   4.689   0.016  10.221 -0.3723 -0.7289 -0.6738
 3292SOL     OW21511   1.030   2.863   4.610  0.2918 -0.4786  0.6149
 3292SOL    HW121512   1.067   2.945   4.644 -0.2311  0.5330 -1.2765
 3292SOL    HW221513   0.951   2.855   4.662  0.2786 -2.5630  0.2724
 3293SOL     OW21514   2.636   4.445   2.937 -0.8330 -0.4383 -0.2029
 3293SOL    HW121515   2.607   4.403   2.857  0.7431  2.4354 -2.2891
 3293SOL    HW221516   2.725   4.462   2.907 -0.3263  0.4548  1.7514
 3294SOL     OW21517   2.909   2.968   0.031  0.4213  0.1225 -0.0247
 3294SOL    HW121518   2.918   2.934   0.120 -2.3464  1.7684  0.8792
 3294SOL    HW221519   2.848   2.904  17.742 -0.0974  1.3446 -1.3099
 3295SOL     OW21520   3.928   1.975   5.557 -0.3138 -0.3403  0.2465
 3295SOL    HW121521   3.872   2.014   5.490 -3.1650  1.1477  3.4758
 3295SOL    HW221522   3.861   1.918   5.595 -1.4421  0.9101  0.1640
 3296SOL     OW21523   0.716   0.222   7.084  0.1027  0.3270 -0.1072
 3296SOL    HW121524   0.689   0.177   7.164  1.6208 -0.3790  0.0159
 3296SOL    HW221525   0.759   0.298   7.122 -1.2412  0.2056  1.6284
 3297SOL     OW21526   2.296   0.038  13.823 -0.4454  0.0462  0.3191
 3297SOL    HW121527   2.334   0.013  13.738  1.6278 -2.3637  1.9652
 3297SOL    HW221528   2.368   0.031  13.885 -0.8897  0.0836  0.8352
 3298SOL     OW21529   0.993   3.362   2.363 -0.0764 -0.1123  0.1493
 3298SOL    HW121530   1.011   3.316   2.281 -1.9254  0.4492 -0.5679
 3298SOL    HW221531   1.063   3.317   2.411  0.1590 -0.4872 -0.5546
 3299SOL     OW21532   1.709   0.099  17.291  0.5397 -0.0594 -0.3866
 3299SOL    HW121533   1.632   0.044  17.276  0.6058 -0.0067 -0.9235
 3299SOL    HW221534   1.763   0.088  17.213  1.1892 -0.5464  0.1339
 3300SOL     OW21535   3.301   3.966   1.540  0.4038 -0.6581 -0.0296
 3300SOL    HW121536   3.285   4.042   1.485  0.3486 -0.1711  0.6668
 3300SOL    HW221537   3.210   3.953   1.568 -0.0220  0.1189 -1.0381
 3301SOL     OW21538   3.142   2.175   9.916 -0.4289 -0.1509  0.0712
 3301SOL    HW121539   3.052   2.204   9.907 -0.0620  1.5051  1.8463
 3301SOL    HW221540   3.134   2.087   9.878 -1.8975 -0.4104  0.9854
 3302SOL     OW21541   0.238   2.326  16.988  0.1305  0.2336 -0.5754
 3302SOL    HW121542   0.147   2.336  17.015  0.6641 -0.2298  1.4079
 3302SOL    HW221543   0.296   2.301  17.059 -1.5836 -2.2192 -0.0408
 3303SOL     OW21544   0.764   0.397  10.246 -0.1414  0.1372  0.1297
 3303SOL    HW121545   0.750   0.386  10.152  0.1128  1.2426 -0.0336
 3303SOL    HW221546   0.720   0.318  10.278 -0.7942  0.3367 -0.2927
 3304SOL     OW21547   0.951   0.561   7.614 -0.0526 -0.3345 -0.3192
 3304SOL    HW121548   0.931   0.495   7.679  1.4611  0.3191  0.8073
 3304SOL    HW221549   0.933   0.648   7.650 -2.6754 -0.6547 -0.8445
 3305SOL     OW21550   0.759   1.460   4.854  0.1504 -0.0840 -0.4281
 3305SOL    HW121551   0.739   1.526   4.788 -0.2545 -0.1413 -0.3665
 3305SOL    HW221552   0.676   1.440   4.898 -0.3805 -0.4905 -1.6088
 3306SOL     OW21553   0.019   0.621  17.200 -0.0115 -0.3309  0.7711
 3306SOL    HW121554   0.056   0.554  17.143 -0.6710  0.6772 -0.8419
 3306SOL    HW221555   4.676   0.582  17.235 -1.3658 -0.5151 -2.4997
 3307SOL     OW21556   4.406   1.622   5.787 -0.1251 -0.0839  0.1179
 3307SOL    HW121557   4.424   1.594   5.697 -0.4414  2.1999 -0.6666
 3307SOL    HW221558   4.496   1.646   5.810  0.5329 -0.8964 -1.5896
 3308SOL     OW21559   2.813   3.670   0.080  0.3418 -0.3854 -0.0017
 3308SOL    HW121560   2.866   3.591   0.091  0.3394 -0.4212 -0.2330
 3308SOL    HW221561   2.735   3.645   0.128  0.0187 -0.3871 -0.5251
 3309SOL     OW21562   2.056   3.201  16.689  0.1689  0.2254  0.0964
 3309SOL    HW121563   2.035   3.219  16.780 -2.9227  0.4849 -0.6656
 3309SOL    HW221564   2.106   3.119  16.687 -1.8483 -1.0058  0.7037
 3310SOL     OW21565   4.233   4.198   5.406  0.3144 -0.2252  0.3463
 3310SOL    HW121566   4.299   4.252   5.361  0.4075 -1.4419 -0.9832
 3310SOL    HW221567   4.293   4.140   5.452  0.7016  0.4120  0.6521
 3311SOL     OW21568   0.317   4.432   7.050  0.0633  0.1855  0.1315
 3311SOL    HW121569   0.282   4.374   7.117  0.0617  0.8436  0.7030
 3311SOL    HW221570   0.252   4.501   7.062 -0.9811 -1.0107  1.2376
 3312SOL     OW21571   4.373   2.162   0.195  0.2624 -0.3544 -0.6863
 3312SOL    HW121572   4.294   2.148   0.248 -0.0999  1.4493 -0.7702
 3312SOL    HW221573   4.335   2.218   0.127 -2.3145 -0.6977  0.4486
 3313SOL     OW21574   0.193   2.411   6.006  0.4593  0.0808 -0.2250
 3313SOL    HW121575   0.237   2.360   5.938 -0.7554  0.1557 -1.0635
 3313SOL    HW221576   0.127   2.345   6.027  1.2453 -0.9792 -1.0506
 3314SOL     OW21577   4.303   0.253   2.397  0.3594 -0.4195 -0.3870
 3314SOL    HW121578   4.235   0.234   2.333 -0.1263  1.3015 -0.3760
 3314SOL    HW221579   4.254   0.293   2.469  1.8875 -0.7052  0.8127
 3315SOL     OW21580   0.492   4.206   5.814  0.1208  0.2669  0.3417
 3315SOL    HW121581   0.583   4.235   5.810 -0.1360  1.1411  0.7988
 3315SOL    HW221582   0.480   4.183   5.722  1.6987 -1.5236  0.5759
 3316SOL     OW21583   3.070   3.513   2.526 -0.4056  0.6177  0.1890
 3316SOL    HW121584   3.064   3.607   2.508 -0.0747  0.5252 -0.3969
 3316SOL    HW221585   3.018   3.475   2.456  0.7865 -1.6201  0.5481
 3317SOL     OW21586   3.378   0.095   0.224  0.0458  0.9871  0.3911
 3317SOL    HW121587   3.408   0.182   0.249 -1.4280  1.0018  2.1159
 3317SOL    HW221588   3.284   0.112   0.216  0.1385  0.3491 -1.9722
 3318SOL     OW21589   1.237   3.202   5.787 -0.0194 -0.3326 -0.2743
 3318SOL    HW121590   1.234   3.200   5.692  1.1574 -0.2238 -0.3126
 3318SOL    HW221591   1.178   3.128   5.795 -1.2773  0.6530 -0.4626
 3319SOL     OW21592   2.470   1.713   7.611 -0.4536 -0.4615 -0.5891
 3319SOL    HW121593   2.549   1.742   7.656 -2.6018  1.0832  2.1391
 3319SOL    HW221594   2.442   1.801   7.587 -0.4483 -0.1358  0.6520
 3320SOL     OW21595   4.500   2.976  17.206 -0.5406  0.5917  0.8487
 3320SOL    HW121596   4.408   2.967  17.181 -0.5830 -2.1449  1.9687
 3320SOL    HW221597   4.534   2.887  17.216 -3.0078 -0.3366  0.9430
 3321SOL     OW21598   0.900   0.537   5.863 -0.2102  0.1282 -0.0926
 3321SOL    HW121599   0.913   0.505   5.952  0.2034 -1.4378 -0.7259
 3321SOL    HW221600   0.819   0.489   5.845  0.1839 -1.0248  1.1914
 3322SOL     OW21601   1.021   0.104   6.558  0.0364  0.2951  0.2840
 3322SOL    HW121602   0.982   0.018   6.542  0.5783  0.1122 -0.0818
 3322SOL    HW221603   0.955   0.157   6.602 -0.1253  0.0946  0.2855
 3323SOL     OW21604   2.070   3.560  14.227  0.0002 -0.0742 -0.1470
 3323SOL    HW121605   2.095   3.627  14.163 -1.4170 -1.4816 -2.2005
 3323SOL    HW221606   2.060   3.620  14.301  1.7083  0.8368 -0.6574
 3324SOL     OW21607   3.846   4.490   7.444 -0.4132 -0.1013  0.2038
 3324SOL    HW121608   3.886   4.533   7.520  0.3375 -0.3307 -0.0585
 3324SOL    HW221609   3.851   4.397   7.465 -0.6406  0.3475  2.2298
 3325SOL     OW21610   1.586   4.306   7.735  0.4906 -0.0254  0.1284
 3325SOL    HW121611   1.615   4.397   7.738  2.6126 -0.6297 -2.0182
 3325SOL    HW221612   1.667   4.256   7.729  0.7310  0.1759  1.8417
 3326SOL     OW21613   0.409   0.105   1.881 -0.2672  0.2685 -0.0916
 3326SOL    HW121614   0.358   0.065   1.952  0.4207 -0.5651 -0.0667
 3326SOL    HW221615   0.467   0.158   1.936 -0.0939 -1.2669  1.2097
 3327SOL     OW21616   3.972   4.026  10.505  0.2207 -0.5407  1.0269
 3327SOL    HW121617   4.043   4.024  10.568  1.7947 -0.7546 -0.7467
 3327SOL    HW221618   3.903   4.054  10.565  0.0245  2.9476 -0.8010
 3328SOL     OW21619   0.850   3.511   1.416 -0.2416 -0.0314 -0.5509
 3328SOL    HW121620   0.773   3.486   1.467 -0.7740  2.3757 -0.1903
 3328SOL    HW221621   0.878   3.589   1.465  1.4691 -2.4770  2.4010
 3329SOL     OW21622   1.801   3.630  14.320  0.0044  0.2652  0.3127
 3329SOL    HW121623   1.872   3.678  14.363  1.3148 -1.3846  0.0021
 3329SOL    HW221624   1.769   3.576  14.393  1.0084  0.8632  1.1938
 3330SOL     OW21625   0.111   4.066   2.049 -0.8377  0.0580  0.0927
 3330SOL    HW121626   0.069   4.004   2.109 -0.0957  1.3401  1.9562
 3330SOL    HW221627   0.039   4.130   2.049 -1.2466 -0.4027 -0.1330
 3331SOL     OW21628   4.331   4.433  12.143  0.3813  0.2679  0.0153
 3331SOL    HW121629   4.377   4.512  12.113 -0.4156  0.9361  0.5654
 3331SOL    HW221630   4.243   4.456  12.114  0.0635 -0.8260  0.1144
 3332SOL     OW21631   0.269   2.738   6.756 -0.1722  0.5022 -0.4030
 3332SOL    HW121632   0.186   2.782   6.774 -0.4850 -0.3051  0.0852
 3332SOL    HW221633   0.320   2.776   6.827 -1.5044  2.0422 -0.2564
 3333SOL     OW21634   0.844   2.258  13.593 -0.1489  0.3890 -0.1092
 3333SOL    HW121635   0.771   2.320  13.601  0.9026  1.3671  2.0824
 3333SOL    HW221636   0.832   2.201  13.669  0.4066  0.4502  0.0235
 3334SOL     OW21637   0.528   2.211   5.057 -0.0620  0.1124  0.5958
 3334SOL    HW121638   0.579   2.212   5.138 -1.4151  0.6309  1.4183
 3334SOL    HW221639   0.505   2.118   5.059 -0.5236  0.2383  0.9297
 3335SOL     OW21640   1.455   0.907   5.471  0.0192 -0.1907 -0.1488
 3335SOL    HW121641   1.470   0.834   5.412  3.2745  1.1398 -0.9631
 3335SOL    HW221642   1.385   0.869   5.524 -1.4738  1.0457 -1.2187
 3336SOL     OW21643   0.544   2.228  14.722 -0.2361  0.8331  0.0244
 3336SOL    HW121644   0.545   2.155  14.661  0.4774  1.1966 -0.3977
 3336SOL    HW221645   0.571   2.304  14.670  0.5350  1.0125  0.6839
 3337SOL     OW21646   0.668   2.897  13.104  0.0288  0.2461  0.0781
 3337SOL    HW121647   0.708   2.982  13.084 -1.0057  0.9941  1.1281
 3337SOL    HW221648   0.741   2.854  13.148 -1.6884 -1.4687  1.2340
 3338SOL     OW21649   1.636   3.867   4.026  0.0032 -1.0776 -0.1026
 3338SOL    HW121650   1.728   3.840   4.034  0.1496 -0.7492 -0.6996
 3338SOL    HW221651   1.620   3.897   4.115 -0.2660  0.0985 -0.5548
 3339SOL     OW21652   0.809   2.495   9.786  0.0420  0.0567 -0.1235
 3339SOL    HW121653   0.841   2.423   9.731 -1.4134  1.0835 -2.3072
 3339SOL    HW221654   0.747   2.451   9.844 -0.1550  0.3192 -0.1344
 3340SOL     OW21655   4.572   3.277   4.864 -0.9220  0.3267  0.1295
 3340SOL    HW121656   4.607   3.359   4.900 -1.2277  0.5785 -0.1532
 3340SOL    HW221657   4.559   3.222   4.941 -2.0209 -0.0033 -0.3030
 3341SOL     OW21658   2.083   2.179   4.298 -0.3078 -0.7756 -0.2098
 3341SOL    HW121659   2.147   2.140   4.358  1.2920  0.1056 -1.3683
 3341SOL    HW221660   2.076   2.115   4.228  2.8298 -1.8345  0.4821
 3342SOL     OW21661   0.689   4.647  12.869 -0.0766  0.0481 -1.2817
 3342SOL    HW121662   0.696   4.700  12.790  0.2061 -1.3703 -2.2070
 3342SOL    HW221663   0.666   4.720  12.927  0.2984 -0.8705  0.0191
 3343SOL     OW21664   0.192   0.955   3.842  0.2282  0.3093 -0.1364
 3343SOL    HW121665   0.279   0.918   3.827  0.8376  1.2431  1.1563
 3343SOL    HW221666   0.202   1.037   3.793 -0.3092 -0.9832 -2.4063
 3344SOL     OW21667   2.632   1.510   4.184  0.3077 -0.8031 -0.0735
 3344SOL    HW121668   2.705   1.542   4.237  2.8092 -2.3826 -2.5103
 3344SOL    HW221669   2.615   1.582   4.123 -1.0797 -0.8330  0.2820
 3345SOL     OW21670   2.254   1.008   3.419  0.0433  0.0491 -0.1160
 3345SOL    HW121671   2.310   0.994   3.496 -0.6888 -0.5074  0.3161
 3345SOL    HW221672   2.319   1.043   3.358 -1.7012 -0.6880 -2.3856
 3346SOL     OW21673   4.201   0.934   2.779 -0.2583 -0.4620 -0.1365
 3346SOL    HW121674   4.156   0.985   2.712 -2.8978  0.7527  2.5802
 3346SOL    HW221675   4.196   0.993   2.854  0.2220 -1.7040  0.8724
 3347SOL     OW21676   0.252   4.167  16.954 -0.2683 -0.4645  0.1604
 3347SOL    HW121677   0.201   4.226  17.009  0.3829 -1.3914  1.7488
 3347SOL    HW221678   0.295   4.221  16.888  0.5543  0.1897  1.2441
 3348SOL     OW21679   2.463   2.578   7.442 -0.5458  0.3934 -0.0685
 3348SOL    HW121680   2.379   2.591   7.487 -0.8183  3.2534 -1.4607
 3348SOL    HW221681   2.523   2.581   7.517  0.6761  0.5685 -1.0598
 3349SOL     OW21682   4.272   2.369   6.953 -0.1768 -0.0870 -0.2705
 3349SOL    HW121683   4.330   2.377   6.877  0.7705 -2.0622  0.2198
 3349SOL    HW221684   4.218   2.293   6.932 -1.5158  0.6383  0.5897
 3350SOL     OW21685   1.499   1.109   8.373 -0.3568 -0.0399  0.1947
 3350SOL    HW121686   1.419   1.161   8.387  0.8110  1.8849 -0.2545
 3350SOL    HW221687   1.470   1.022   8.344  0.2990 -0.3297  0.4184
 3351SOL     OW21688   2.983   3.286   5.203  0.0680  0.5709  0.5121
 3351SOL    HW121689   2.902   3.263   5.250 -0.6536  0.3156 -0.8577
 3351SOL    HW221690   3.042   3.229   5.252  0.5340  0.0563 -0.6504
 3352SOL     OW21691   2.533   3.016   9.623  0.6010 -0.5331  0.1128
 3352SOL    HW121692   2.532   2.929   9.661 -0.2655 -1.3619 -1.8324
 3352SOL    HW221693   2.457   3.015   9.565  1.0381  1.1807 -0.5038
 3353SOL     OW21694   3.347   2.717  15.653 -0.0845  0.0062  0.5826
 3353SOL    HW121695   3.308   2.664  15.723  0.9158 -3.2179 -1.3067
 3353SOL    HW221696   3.386   2.647  15.602 -2.5704 -0.4504 -0.6876
 3354SOL     OW21697   2.514   3.006   7.097  0.3423  0.2425  0.0521
 3354SOL    HW121698   2.456   2.930   7.093 -0.2902  0.6810  0.8734
 3354SOL    HW221699   2.561   2.998   7.014  3.0894 -2.0063  1.8295
 3355SOL     OW21700   2.022   2.852   8.010  0.0655  0.1598  0.7641
 3355SOL    HW121701   1.974   2.928   7.977 -0.6442 -1.0472 -0.9543
 3355SOL    HW221702   2.060   2.885   8.091  1.6170  0.2528  0.0044
 3356SOL     OW21703   0.860   0.649   8.470 -0.3589  0.6856 -0.1657
 3356SOL    HW121704   0.795   0.580   8.460 -1.1317  1.3897  0.0343
 3356SOL    HW221705   0.804   0.727   8.472 -0.6506  0.4932 -0.8996
 3357SOL     OW21706   4.366   2.783   3.775  0.2157  0.0932  0.0246
 3357SOL    HW121707   4.307   2.711   3.750  0.4263  1.1943 -3.5858
 3357SOL    HW221708   4.441   2.733   3.808 -1.2746 -1.8844  0.4554
 3358SOL     OW21709   3.719   1.206   6.227 -0.2960  0.8661 -0.4870
 3358SOL    HW121710   3.788   1.142   6.214 -1.4926 -0.2751 -1.1782
 3358SOL    HW221711   3.710   1.238   6.137  0.5090  0.0581 -0.8475
 3359SOL     OW21712   0.275   3.460  17.730 -0.3498 -0.2612 -0.1454
 3359SOL    HW121713   0.194   3.475   0.031 -0.7232  1.7703 -1.4364
 3359SOL    HW221714   0.250   3.438  17.640  0.3057 -0.1977 -0.3390
 3360SOL     OW21715   2.977   0.249   7.212 -0.2118  0.2316  0.0987
 3360SOL    HW121716   2.913   0.227   7.144  0.2784 -0.7262 -0.0576
 3360SOL    HW221717   2.912   0.249   7.281  1.3981 -0.7378  1.6158
 3361SOL     OW21718   3.357   3.839   8.168 -0.3815  0.4613  0.0644
 3361SOL    HW121719   3.381   3.914   8.223 -0.6177  0.8644 -0.3881
 3361SOL    HW221720   3.440   3.812   8.127 -0.2987  1.0046 -0.1194
 3362SOL     OW21721   3.399   4.337   1.193  0.1862 -0.4395  0.3581
 3362SOL    HW121722   3.467   4.352   1.259 -0.2026 -0.6090  0.7974
 3362SOL    HW221723   3.416   4.412   1.136  0.9783 -0.1674  0.9542
 3363SOL     OW21724   4.305   0.252   3.943  0.5916 -0.1802  0.8489
 3363SOL    HW121725   4.235   0.210   3.993  0.6732  1.5723  2.4193
 3363SOL    HW221726   4.278   0.343   3.949 -1.3401 -0.7615  0.7953
 3364SOL     OW21727   3.726   1.051   9.190 -0.2419 -0.2464  0.0130
 3364SOL    HW121728   3.737   0.967   9.234 -0.4750  0.4875  1.4684
 3364SOL    HW221729   3.639   1.036   9.152 -0.0008 -1.3923 -0.0616
 3365SOL     OW21730   2.014   4.556   6.087 -0.1125 -0.1343 -0.4156
 3365SOL    HW121731   2.063   4.478   6.060 -0.1973 -0.5024  0.4791
 3365SOL    HW221732   2.060   4.620   6.033  1.2688 -0.8582 -0.1076
 3366SOL     OW21733   3.144   1.167   4.015  0.0534 -0.0128  0.3327
 3366SOL    HW121734   3.075   1.170   4.082  0.8029  0.2000  1.1054
 3366SOL    HW221735   3.111   1.107   3.949  0.5336  0.1343 -0.0441
 3367SOL     OW21736   3.707   3.410   4.991  0.0381  0.0069  0.0040
 3367SOL    HW121737   3.662   3.346   4.936 -2.9227  0.8312  1.4286
 3367SOL    HW221738   3.743   3.460   4.918 -1.6361 -0.0013 -0.8166
 3368SOL     OW21739   1.055   0.912   8.829 -0.1750 -0.0759 -0.2100
 3368SOL    HW121740   1.082   0.828   8.793 -0.4477 -0.4038  0.3478
 3368SOL    HW221741   0.988   0.882   8.891  1.6093 -2.3626  0.6301
 3369SOL     OW21742   3.327   3.772   3.694  0.0545  0.1888  0.0872
 3369SOL    HW121743   3.260   3.833   3.726 -1.7067 -1.7597  0.1592
 3369SOL    HW221744   3.264   3.722   3.641 -0.2026 -0.0677  0.6299
 3370SOL     OW21745   3.417   3.074   1.484  0.1493 -0.1969  0.0259
 3370SOL    HW121746   3.374   3.060   1.569  1.3222  2.3738  1.0472
 3370SOL    HW221747   3.347   3.124   1.442 -1.1213 -1.1415  0.9811
 3371SOL     OW21748   4.018   4.361  15.954 -0.2277  0.1882 -0.4526
 3371SOL    HW121749   3.961   4.312  15.894 -1.1960 -0.0348  0.6677
 3371SOL    HW221750   4.046   4.296  16.019  2.6126  0.8365 -0.9925
 3372SOL     OW21751   4.517   1.425   8.468  0.3818  0.0295  0.2444
 3372SOL    HW121752   4.565   1.384   8.540 -3.5011  0.8729  3.3138
 3372SOL    HW221753   4.445   1.459   8.520  0.1183 -1.4296  0.8368
 3373SOL     OW21754   4.076   0.264  13.881 -0.5199  0.1436 -0.1857
 3373SOL    HW121755   4.125   0.341  13.852 -1.8225 -0.1617 -3.2044
 3373SOL    HW221756   4.034   0.298  13.960  0.0151 -0.0474  0.1793
 3374SOL     OW21757   1.308   0.717   3.266 -0.3485  0.3008 -0.0363
 3374SOL    HW121758   1.312   0.624   3.247  2.4622  0.5617 -0.7259
 3374SOL    HW221759   1.361   0.752   3.194 -1.6782  0.5367 -0.8932
 3375SOL     OW21760   4.368   4.664   6.780  0.0260  0.3040  0.1852
 3375SOL    HW121761   4.437   4.728   6.801 -1.2457  1.2225  1.5535
 3375SOL    HW221762   4.323   4.721   6.718 -0.6590 -3.9842 -3.1839
 3376SOL     OW21763   3.910   3.055   5.454  0.3168 -0.4776 -0.2752
 3376SOL    HW121764   3.928   2.986   5.518  1.4226 -0.6383 -0.7531
 3376SOL    HW221765   3.906   3.000   5.376 -0.8352 -0.9870  0.1459
 3377SOL     OW21766   4.486   3.420  17.035 -0.8500  0.0875 -0.3621
 3377SOL    HW121767   4.438   3.341  17.008 -4.2602  1.1496  2.4908
 3377SOL    HW221768   4.511   3.459  16.951  1.9021 -1.0139 -0.0563
 3378SOL     OW21769   2.016   3.848   2.226  0.3663 -0.3928 -0.2204
 3378SOL    HW121770   1.959   3.910   2.181 -0.3971 -1.2867 -0.4935
 3378SOL    HW221771   2.010   3.772   2.167 -1.0276 -0.5150  0.0770
 3379SOL     OW21772   1.672   0.958  12.927  0.0355 -0.5283 -0.0290
 3379SOL    HW121773   1.710   0.880  12.888 -2.6057 -1.3399 -0.9832
 3379SOL    HW221774   1.752   1.010  12.924  0.3283 -0.9991 -0.4036
 3380SOL     OW21775   3.360   4.239   0.550 -0.3730 -0.4099  0.2835
 3380SOL    HW121776   3.352   4.216   0.642  4.1911  0.9368  1.0041
 3380SOL    HW221777   3.431   4.303   0.552  0.6662 -1.6047  1.5897
 3381SOL     OW21778   1.943   2.773   5.649 -0.2296 -0.2177  0.3394
 3381SOL    HW121779   1.927   2.731   5.565  0.6260  0.6525 -0.2558
 3381SOL    HW221780   1.934   2.701   5.712 -0.0451 -0.6493 -0.1259
 3382SOL     OW21781   0.090   2.173   8.174 -0.5259 -0.5568 -0.1795
 3382SOL    HW121782   0.062   2.123   8.251 -2.1734  1.2832  0.4235
 3382SOL    HW221783   0.011   2.149   8.126 -0.6969 -2.5571  1.1003
 3383SOL     OW21784   1.752   4.453   4.717  0.0577 -0.2639 -0.0185
 3383SOL    HW121785   1.696   4.426   4.645 -0.3312 -0.4349  0.3513
 3383SOL    HW221786   1.696   4.426   4.789  0.6852 -3.0668 -0.6092
 3384SOL     OW21787   0.759   3.924   4.106  0.2677 -0.0510  0.4419
 3384SOL    HW121788   0.790   4.011   4.079  1.2930 -0.5908 -0.0861
 3384SOL    HW221789   0.840   3.876   4.117  1.2294  1.5455  0.2847
 3385SOL     OW21790   0.727   3.258   2.728  0.0013 -0.5411 -0.0115
 3385SOL    HW121791   0.686   3.175   2.703 -0.8976 -0.9107  2.7286
 3385SOL    HW221792   0.731   3.259   2.824  0.3130 -0.5612 -0.0237
 3386SOL     OW21793   1.540   3.577   4.665  0.1933  0.6849  0.0479
 3386SOL    HW121794   1.471   3.626   4.710  0.5591  0.6565  0.6507
 3386SOL    HW221795   1.622   3.622   4.685 -0.8501  2.3472  0.5973
 3387SOL     OW21796   3.121   2.416   7.512  0.9998 -0.5034  0.0261
 3387SOL    HW121797   3.098   2.360   7.437  0.9471  0.7476 -0.8831
 3387SOL    HW221798   3.140   2.498   7.467 -0.3928  0.3879  1.0967
 3388SOL     OW21799   1.489   0.943   4.391  0.0967  0.4542 -0.4405
 3388SOL    HW121800   1.541   1.007   4.342 -0.6404  1.0293 -0.4837
 3388SOL    HW221801   1.535   0.863   4.367 -1.1017  0.1160 -1.6182
 3389SOL     OW21802   1.387   1.694   8.438 -0.0384  0.0033  0.7787
 3389SOL    HW121803   1.360   1.661   8.353 -2.4144  2.8267  0.4275
 3389SOL    HW221804   1.407   1.784   8.414  0.2307 -0.5244 -0.9269
 3390SOL     OW21805   3.737   1.813   3.194  0.4784 -0.1007 -0.1384
 3390SOL    HW121806   3.704   1.895   3.229 -1.6353 -0.7503 -0.6078
 3390SOL    HW221807   3.665   1.754   3.217  1.3872 -0.7608  0.9783
 3391SOL     OW21808   2.906   0.509  13.086 -0.1418 -0.3501 -0.4343
 3391SOL    HW121809   2.979   0.452  13.063 -0.4169 -1.3434  1.1508
 3391SOL    HW221810   2.955   0.557  13.154 -0.3159  0.6821 -1.0390
 3392SOL     OW21811   3.797   4.116  10.680  0.6153 -0.2467 -0.2214
 3392SOL    HW121812   3.771   4.079  10.764 -0.5702 -0.0033 -0.4801
 3392SOL    HW221813   3.724   4.173  10.657  0.2946 -1.5055 -2.3406
 3393SOL     OW21814   1.032   3.922   5.117  0.2188 -0.4626  0.0520
 3393SOL    HW121815   1.046   4.007   5.158  0.1296 -0.1534 -0.5575
 3393SOL    HW221816   0.984   3.872   5.182  0.2540  0.2026  0.5894
 3394SOL     OW21817   3.234   4.637  15.935 -0.0114 -0.2979  0.7239
 3394SOL    HW121818   3.191   4.697  15.873  0.4363 -2.8003 -2.0043
 3394SOL    HW221819   3.203   4.668  16.020 -0.7531 -0.3775  0.4797
 3395SOL     OW21820   1.403   2.909   5.654  0.5350 -0.2563  0.8565
 3395SOL    HW121821   1.423   2.981   5.594 -2.3847  0.1332  0.3555
 3395SOL    HW221822   1.418   2.941   5.743 -0.9246  2.7455  0.0231
 3396SOL     OW21823   4.730   4.683   6.177  0.3573 -0.0449  0.4852
 3396SOL    HW121824   4.690   4.644   6.255  0.8779 -0.8385  0.3448
 3396SOL    HW221825   4.694   4.636   6.103 -1.7533  4.9172 -1.6514
 3397SOL     OW21826   4.395   1.357   7.594  0.0234 -0.3341  0.0399
 3397SOL    HW121827   4.371   1.266   7.576  1.9188 -0.8187 -0.0700
 3397SOL    HW221828   4.476   1.351   7.543  0.0401 -0.9249  0.1354
 3398SOL     OW21829   3.550   3.511   8.273  0.7428 -0.1702 -0.1980
 3398SOL    HW121830   3.464   3.541   8.243  0.3724  1.6301  2.6714
 3398SOL    HW221831   3.599   3.592   8.288 -0.8624  1.2918 -2.8155
 3399SOL     OW21832   1.138   2.067   1.423 -0.5041 -0.1475  0.1789
 3399SOL    HW121833   1.098   1.980   1.418 -0.6888  0.0156 -1.1012
 3399SOL    HW221834   1.219   2.049   1.471 -1.6721 -0.9290  1.8547
 3400SOL     OW21835   3.377   1.694   7.806  0.0965  0.0289  0.0216
 3400SOL    HW121836   3.348   1.624   7.748  0.6959  2.2191 -2.9342
 3400SOL    HW221837   3.364   1.768   7.747  0.0098  0.1021  0.1322
 3401SOL     OW21838   1.888   1.612  10.949  0.6137  0.2929 -0.3126
 3401SOL    HW121839   1.932   1.642  10.869 -0.5374  1.8988 -0.3266
 3401SOL    HW221840   1.942   1.533  10.963 -0.2648 -0.2333  0.0703
 3402SOL     OW21841   3.317   3.847   3.372  0.8589 -0.0168  0.0303
 3402SOL    HW121842   3.319   3.848   3.277 -0.8628 -0.5538 -0.0135
 3402SOL    HW221843   3.258   3.775   3.395 -0.3222  1.4251  1.5154
 3403SOL     OW21844   1.270   1.100   5.381  0.3936 -0.4148  0.0903
 3403SOL    HW121845   1.269   1.182   5.431  1.3985  1.0461 -2.2950
 3403SOL    HW221846   1.353   1.060   5.409  1.4265  2.8193  1.6321
 3404SOL     OW21847   3.729   1.275  12.482 -0.6781 -0.1485 -0.2441
 3404SOL    HW121848   3.645   1.231  12.485 -1.5109  1.5102  1.0046
 3404SOL    HW221849   3.760   1.236  12.401 -1.5354  1.1556 -1.1857
 3405SOL     OW21850   3.772   4.111   8.306 -0.2487 -0.4590 -0.1935
 3405SOL    HW121851   3.812   4.076   8.226 -0.0662 -4.3663  1.6343
 3405SOL    HW221852   3.844   4.118   8.369  0.6814  2.2673 -1.5413
 3406SOL     OW21853   0.835   4.475   4.438 -0.2848 -0.1456 -0.6207
 3406SOL    HW121854   0.792   4.559   4.457 -1.7990 -0.2052 -3.6887
 3406SOL    HW221855   0.773   4.439   4.375 -0.8390 -0.0796 -0.1147
 3407SOL     OW21856   2.119   3.775  11.792  0.0499  0.1570 -0.0152
 3407SOL    HW121857   2.074   3.826  11.859  0.7896  0.1529  0.4927
 3407SOL    HW221858   2.163   3.706  11.842 -0.5402 -0.3203 -0.1618
 3408SOL     OW21859   1.732   3.727  16.822 -0.4045  0.1242 -0.2491
 3408SOL    HW121860   1.651   3.778  16.828 -0.5337  0.0027 -0.9449
 3408SOL    HW221861   1.748   3.728  16.916 -0.4977 -1.6253 -0.2205
 3409SOL     OW21862   3.869   0.522   6.546 -0.1857  0.1170  0.2719
 3409SOL    HW121863   3.874   0.550   6.637 -1.2962 -3.0894  1.3179
 3409SOL    HW221864   3.779   0.542   6.520 -1.1813 -4.4706  0.1751
 3410SOL     OW21865   4.227   2.255   5.455  0.2494  0.0123  0.1901
 3410SOL    HW121866   4.212   2.194   5.383 -1.2041 -0.8307  1.1933
 3410SOL    HW221867   4.244   2.191   5.524 -1.3096  0.1551  0.7040
 3411SOL     OW21868   1.609   0.515   3.209  0.3694  0.8789 -0.1991
 3411SOL    HW121869   1.569   0.432   3.232  0.6307  0.9114  0.3882
 3411SOL    HW221870   1.629   0.556   3.294 -1.2524 -0.1959  0.6969
 3412SOL     OW21871   2.779   4.491   6.731  0.1441  0.2619 -0.0590
 3412SOL    HW121872   2.846   4.557   6.710  0.8137 -0.3360  0.2039
 3412SOL    HW221873   2.827   4.409   6.724  0.7006  0.7635 -2.3508
 3413SOL     OW21874   0.550   4.176  12.480 -0.2342 -0.0645 -0.0017
 3413SOL    HW121875   0.636   4.206  12.451 -0.4224  2.3512  1.8985
 3413SOL    HW221876   0.511   4.261  12.500 -0.4539 -0.1738  0.0306
 3414SOL     OW21877   0.369   3.589   4.518 -0.2962  0.4703 -0.6069
 3414SOL    HW121878   0.299   3.567   4.456  0.8256 -1.9552 -0.9890
 3414SOL    HW221879   0.445   3.615   4.465  1.6091  1.1183  2.4771
 3415SOL     OW21880   3.075   2.016   9.711  0.2648 -0.4042 -0.1927
 3415SOL    HW121881   3.024   2.093   9.689 -1.3311 -1.0229  1.3008
 3415SOL    HW221882   3.063   1.962   9.632  0.4108  2.0337 -1.8570
 3416SOL     OW21883   3.185   4.485   6.940  0.0790  0.3608  0.3436
 3416SOL    HW121884   3.145   4.492   6.853 -1.2289  0.8472  0.9785
 3416SOL    HW221885   3.120   4.528   6.996  0.6300 -1.8682  2.6897
 3417SOL     OW21886   3.290   0.646   6.296  0.3487 -0.4139 -0.0391
 3417SOL    HW121887   3.244   0.575   6.251  0.7517 -0.3345 -0.5796
 3417SOL    HW221888   3.371   0.641   6.245  1.7365  0.2906  2.1022
 3418SOL     OW21889   0.643   3.818   3.265 -0.4971 -0.0786  0.6862
 3418SOL    HW121890   0.701   3.871   3.210  0.4507 -1.0858  0.7023
 3418SOL    HW221891   0.675   3.849   3.350  0.6250  1.1994 -0.2052
 3419SOL     OW21892   2.528   2.297   8.796 -0.4062 -0.1307  0.0913
 3419SOL    HW121893   2.478   2.375   8.820  0.5684  0.5251  0.0181
 3419SOL    HW221894   2.598   2.334   8.741 -0.0938  0.9627  1.2265
 3420SOL     OW21895   0.281   0.554   5.624 -0.2037  0.2078 -0.0843
 3420SOL    HW121896   0.210   0.493   5.646  0.9811 -0.8041  0.9058
 3420SOL    HW221897   0.291   0.537   5.530  2.5541 -0.3181  0.3059
 3421SOL     OW21898   2.615   4.122   3.022 -0.1786  0.1112 -0.1138
 3421SOL    HW121899   2.693   4.176   3.007 -0.7074  0.6637 -0.8696
 3421SOL    HW221900   2.550   4.179   3.063  0.5626  0.9115 -0.0613
 3422SOL     OW21901   3.737   2.135   5.883 -0.0548  0.5255 -0.4701
 3422SOL    HW121902   3.712   2.169   5.797 -2.5601 -2.4882 -0.9579
 3422SOL    HW221903   3.700   2.202   5.939 -0.0862  1.3279 -1.4595
 3423SOL     OW21904   0.771   3.542   2.668 -0.1319 -0.0027  0.4912
 3423SOL    HW121905   0.742   3.456   2.697 -0.4166 -0.1009 -0.0876
 3423SOL    HW221906   0.830   3.570   2.738  2.1302 -1.0508 -0.9818
 3424SOL     OW21907   2.209   1.475   1.334  0.1977  0.0126 -0.0622
 3424SOL    HW121908   2.270   1.513   1.270  0.1373  0.3481  0.0850
 3424SOL    HW221909   2.136   1.449   1.277 -1.1238 -2.0756  2.5852
 3425SOL     OW21910   4.143   4.161   3.015  0.4811 -0.0477  0.3221
 3425SOL    HW121911   4.067   4.201   2.972  0.0240 -1.7506 -0.4461
 3425SOL    HW221912   4.115   4.070   3.024 -0.0781 -0.1199 -2.2201
 3426SOL     OW21913   0.571   4.611  14.682  0.0659  0.3521  1.0870
 3426SOL    HW121914   0.555   4.559  14.603  0.8495  0.8512  0.5988
 3426SOL    HW221915   0.479   4.625  14.703  0.1716 -2.6050  3.5202
 3427SOL     OW21916   1.378   3.722   5.551  0.0987 -0.5168 -0.2661
 3427SOL    HW121917   1.326   3.779   5.495 -0.3172 -1.1945 -0.5614
 3427SOL    HW221918   1.458   3.703   5.502  1.0342  0.0303  1.0501
 3428SOL     OW21919   3.201   2.301   9.348  0.2354 -0.6715  0.4621
 3428SOL    HW121920   3.185   2.258   9.431  2.1560 -1.1512  0.5802
 3428SOL    HW221921   3.174   2.240   9.279  0.4645 -0.1757 -0.0712
 3429SOL     OW21922   3.124   4.724  13.842  0.1622 -0.2344  0.0280
 3429SOL    HW121923   3.086   4.639  13.822 -1.4373  0.3512  0.5897
 3429SOL    HW221924   3.132   0.024  13.754  0.8536  1.0586  0.6336
 3430SOL     OW21925   0.222   4.450   7.616  0.6063  0.0965  0.0662
 3430SOL    HW121926   0.206   4.466   7.708 -1.7164  1.0304 -0.4985
 3430SOL    HW221927   0.231   4.544   7.601  0.9460  0.2886  1.5127
 3431SOL     OW21928   4.284   1.242   7.820  0.6776 -0.1452  0.0224
 3431SOL    HW121929   4.322   1.299   7.753  0.1471  0.7079  0.4407
 3431SOL    HW221930   4.232   1.181   7.768 -2.4382 -0.4675  3.5075
 3432SOL     OW21931   0.496   3.941   2.109  0.5235 -0.7302 -0.4408
 3432SOL    HW121932   0.460   3.896   2.032 -1.4345 -1.7715  1.0751
 3432SOL    HW221933   0.452   4.025   2.099 -0.6309 -1.3595 -0.6612
 3433SOL     OW21934   2.611   2.509   6.257 -0.0140 -0.4061  0.3225
 3433SOL    HW121935   2.649   2.592   6.226 -1.2187 -1.0825 -2.9731
 3433SOL    HW221936   2.530   2.516   6.205 -0.9140 -1.7215  1.5531
 3434SOL     OW21937   3.170   0.386   2.331 -0.2976 -0.5477  0.2510
 3434SOL    HW121938   3.076   0.391   2.345 -0.5194  0.9639 -1.6793
 3434SOL    HW221939   3.174   0.291   2.323  1.7681 -0.2992 -1.9603
 3435SOL     OW21940   0.050   3.935   5.745 -0.1215 -0.4168 -1.0717
 3435SOL    HW121941   0.142   3.935   5.771 -0.6824 -0.5940  0.9357
 3435SOL    HW221942   0.064   3.919   5.652  0.6250 -0.6921 -0.9056
 3436SOL     OW21943   1.693   1.733   6.908  0.1239 -0.6617  0.3249
 3436SOL    HW121944   1.672   1.710   6.999 -0.4126 -0.5948  0.2180
 3436SOL    HW221945   1.686   1.648   6.864 -2.0367  0.2964 -1.1711
 3437SOL     OW21946   3.304   2.040   1.538  0.4299  0.4492  0.2037
 3437SOL    HW121947   3.351   2.048   1.621 -1.7897  0.0821  1.4852
 3437SOL    HW221948   3.355   1.973   1.493  0.1591  0.2388  0.2118
 3438SOL     OW21949   1.099   2.784   7.895 -0.2463 -0.8271  0.3581
 3438SOL    HW121950   1.047   2.727   7.953 -0.0236 -0.0967  1.2819
 3438SOL    HW221951   1.083   2.869   7.934 -0.5973 -0.9741  0.5362
 3439SOL     OW21952   3.848   3.419   3.952 -0.4637 -0.1990  0.3630
 3439SOL    HW121953   3.924   3.472   3.975  0.2028 -1.3455  0.8104
 3439SOL    HW221954   3.887   3.359   3.888 -1.6226 -0.5726  0.0129
 3440SOL     OW21955   4.004   0.643   3.156 -0.6675 -0.4894 -0.1349
 3440SOL    HW121956   3.973   0.676   3.239  1.0723  1.9237 -0.4341
 3440SOL    HW221957   4.083   0.595   3.183 -0.7196  0.1560  1.1165
 3441SOL     OW21958   3.591   0.733  11.419 -0.0464  0.1547 -0.0453
 3441SOL    HW121959   3.573   0.826  11.405 -2.5609 -0.2172  0.7442
 3441SOL    HW221960   3.658   0.712  11.353 -0.5720  0.2771 -0.6183
 3442SOL     OW21961   4.472   0.857   2.764  0.3089 -0.1064  0.0324
 3442SOL    HW121962   4.509   0.941   2.788 -0.7599  0.8314 -1.5704
 3442SOL    HW221963   4.383   0.871   2.796  0.6802  0.0129  1.0150
 3443SOL     OW21964   4.378   1.423   3.153  0.3997  0.6022 -0.6576
 3443SOL    HW121965   4.421   1.442   3.236  0.1160  1.7117 -0.7687
 3443SOL    HW221966   4.315   1.357   3.183 -1.5141  2.0685 -1.5044
 3444SOL     OW21967   4.017   4.082   6.612 -0.1612  0.6385  0.0338
 3444SOL    HW121968   4.008   4.027   6.690  2.2571  1.7543  1.1061
 3444SOL    HW221969   4.075   4.028   6.558  0.2359  1.9909 -0.8979
 3445SOL     OW21970   0.174   0.802   4.487 -0.4213 -0.1126  0.5085
 3445SOL    HW121971   0.146   0.833   4.573  0.8684 -0.1877  0.9615
 3445SOL    HW221972   0.249   0.743   4.499  0.4484  1.2798  1.8683
 3446SOL     OW21973   0.383   4.181  10.594 -0.0544  0.0268  0.1479
 3446SOL    HW121974   0.362   4.270  10.621 -0.8645  0.0977 -0.7499
 3446SOL    HW221975   0.473   4.173  10.627  1.0992 -1.8708 -3.5033
 3447SOL     OW21976   0.873   3.152  15.371  0.4059  0.7587 -0.3598
 3447SOL    HW121977   0.968   3.152  15.362  0.3494  2.1150 -0.9783
 3447SOL    HW221978   0.866   3.102  15.452  1.2138 -0.6219 -1.1244
 3448SOL     OW21979   2.806   2.773   4.555 -0.0307  0.4964 -0.2459
 3448SOL    HW121980   2.787   2.740   4.467  1.2895  0.2849 -0.4604
 3448SOL    HW221981   2.879   2.831   4.532 -0.9454  1.3517 -0.9814
 3449SOL     OW21982   0.549   2.648   2.487  0.1298 -0.6020  0.0797
 3449SOL    HW121983   0.546   2.688   2.400  2.0954 -0.3881  0.1167
 3449SOL    HW221984   0.564   2.722   2.545 -3.8818  0.4751 -0.2076
 3450SOL     OW21985   3.113   2.018   7.723  0.4437  0.0390  0.5082
 3450SOL    HW121986   3.076   2.035   7.637 -0.9463 -2.3787  0.5937
 3450SOL    HW221987   3.202   1.995   7.698  0.2717 -0.7172  0.5795
 3451SOL     OW21988   1.626   0.443   6.146  0.1767  0.0044 -0.1354
 3451SOL    HW121989   1.647   0.433   6.053 -1.1802  0.2449 -0.4610
 3451SOL    HW221990   1.535   0.416   6.137  1.0077 -2.4869 -1.1208
 3452SOL     OW21991   1.121   3.360   0.045  0.1887  0.0306  0.4281
 3452SOL    HW121992   1.142   3.414   0.122  0.7636  0.3510  0.0516
 3452SOL    HW221993   1.034   3.397   0.032  0.0783  0.4018  2.2459
 3453SOL     OW21994   2.810   1.224   4.953 -0.7169  0.4168 -0.0261
 3453SOL    HW121995   2.904   1.230   4.936 -0.4888  0.6463  1.3348
 3453SOL    HW221996   2.807   1.138   4.995  0.3304  0.5004  0.2220
 3454SOL     OW21997   1.753   1.807   5.202 -0.9247 -0.7493 -0.2992
 3454SOL    HW121998   1.839   1.847   5.219 -1.2513 -0.0685 -0.2580
 3454SOL    HW221999   1.786   1.735   5.148  0.5836 -0.5166  0.3131
 3455SOL     OW22000   0.967   2.650   3.195  0.2394  0.1289 -0.0862
 3455SOL    HW122001   1.036   2.664   3.260  0.9882 -1.7054 -0.4903
 3455SOL    HW222002   0.962   2.554   3.193 -3.4307  0.3350 -0.4483
 3456SOL     OW22003   1.301   3.754   0.432  0.1144  0.1682  0.3175
 3456SOL    HW122004   1.397   3.754   0.440  0.2448  0.1705 -1.2561
 3456SOL    HW222005   1.280   3.828   0.488  2.0630  0.2769  0.9143
 3457SOL     OW22006   4.052   4.268   8.642 -0.0884  0.4462  0.0782
 3457SOL    HW122007   4.143   4.298   8.653  0.0349  0.8707 -2.0797
 3457SOL    HW222008   4.062   4.188   8.591 -0.5102  0.4411  0.0095
 3458SOL     OW22009   4.418   1.828  10.703 -0.0898 -0.0430  0.3722
 3458SOL    HW122010   4.325   1.840  10.724 -0.3224  1.8626 -1.7733
 3458SOL    HW222011   4.419   1.741  10.664 -2.3237 -1.5857  3.7192
 3459SOL     OW22012   4.395   0.546   4.716 -0.4878 -0.4881  0.0429
 3459SOL    HW122013   4.334   0.476   4.691  0.6935 -2.7594  3.4574
 3459SOL    HW222014   4.342   0.624   4.703 -1.4507 -1.2309 -0.5071
 3460SOL     OW22015   3.793   2.652  14.707  0.0541  0.7816  0.3306
 3460SOL    HW122016   3.839   2.591  14.650 -1.2806  1.0742 -1.0540
 3460SOL    HW222017   3.728   2.678  14.642 -0.9280 -1.7274  0.3181
 3461SOL     OW22018   3.555   1.659   5.880 -0.3972 -0.1189 -0.0561
 3461SOL    HW122019   3.614   1.712   5.933  0.5933 -1.2938  0.0118
 3461SOL    HW222020   3.472   1.706   5.890 -0.1916  0.4541 -1.0248
 3462SOL     OW22021   4.350   2.099   3.002 -0.2922 -0.1979 -0.2671
 3462SOL    HW122022   4.440   2.084   2.975 -0.6679  0.6009 -1.9547
 3462SOL    HW222023   4.308   2.015   3.020 -0.8394 -0.3099 -2.0987
 3463SOL     OW22024   2.937   0.670   6.724 -0.2355  0.2215 -0.3941
 3463SOL    HW122025   2.900   0.677   6.636  0.5154  0.4247 -0.6980
 3463SOL    HW222026   2.940   0.575   6.727 -1.9498  0.1565 -0.7246
 3464SOL     OW22027   4.071   4.625  10.434 -0.2356  0.2536  0.3061
 3464SOL    HW122028   3.986   4.601  10.396 -0.2773  2.4434 -0.9735
 3464SOL    HW222029   4.039   4.706  10.475  0.4151  0.8677 -0.4049
 3465SOL     OW22030   0.525   0.819   0.060 -0.4321  0.3273 -0.3834
 3465SOL    HW122031   0.440   0.829   0.103  0.2111 -1.0131  1.2391
 3465SOL    HW222032   0.564   0.903   0.084 -0.5983  0.4948 -0.7068
 3466SOL     OW22033   1.215   3.301   8.368  0.2212  0.0663 -0.2206
 3466SOL    HW122034   1.148   3.356   8.409  0.8339 -1.5799  2.9842
 3466SOL    HW222035   1.292   3.357   8.369 -0.8234  1.5130 -0.0951
 3467SOL     OW22036   1.306   1.567   7.254 -0.3279 -1.0296 -0.1766
 3467SOL    HW122037   1.215   1.554   7.280 -0.0557 -0.7539  0.9274
 3467SOL    HW222038   1.299   1.550   7.160 -1.2708 -0.0120 -0.2922
 3468SOL     OW22039   4.685   4.630  11.429 -0.0394 -0.4764 -0.5344
 3468SOL    HW122040   0.028   4.661  11.387 -1.4353  3.0680 -0.5309
 3468SOL    HW222041   4.621   4.673  11.373  1.4930  0.5570 -1.4824
 3469SOL     OW22042   1.380   4.493   7.967 -0.1233  0.7680 -0.5107
 3469SOL    HW122043   1.388   4.508   7.873  2.2534 -4.1412 -1.0975
 3469SOL    HW222044   1.367   4.584   7.994 -1.5930  1.1998 -2.6446
 3470SOL     OW22045   0.802   2.709   2.950  0.4174 -0.3823 -0.1355
 3470SOL    HW122046   0.777   2.623   2.915 -0.6934 -0.0977 -0.0318
 3470SOL    HW222047   0.852   2.693   3.030 -0.7326 -2.6274  0.1433
 3471SOL     OW22048   2.771   2.665   1.766 -0.0262 -0.2054 -0.2551
 3471SOL    HW122049   2.850   2.644   1.816 -0.8582  0.8875  1.4964
 3471SOL    HW222050   2.797   2.756   1.756  1.8897 -0.6712  0.3717
 3472SOL     OW22051   0.637   4.678   4.425  0.4586 -0.1579 -0.3056
 3472SOL    HW122052   0.564   4.732   4.455  0.8986 -0.6591  1.6665
 3472SOL    HW222053   0.623   4.668   4.331  0.2647 -2.7107 -0.0080
 3473SOL     OW22054   3.975   2.254  13.305 -0.2365 -0.6941  0.6559
 3473SOL    HW122055   3.905   2.192  13.328  0.9627 -2.2013  0.2636
 3473SOL    HW222056   4.051   2.208  13.340  0.3522  1.4362  2.1571
 3474SOL     OW22057   4.680   2.428   5.784 -0.4966  0.1633 -0.1036
 3474SOL    HW122058   4.630   2.486   5.841  0.5743  1.3282 -0.3338
 3474SOL    HW222059   4.646   2.344   5.814  0.7046  0.8059  3.1179
 3475SOL     OW22060   2.742   3.025   4.082 -0.0796 -0.6647 -0.2339
 3475SOL    HW122061   2.647   3.023   4.099 -0.4428  2.2939 -1.8695
 3475SOL    HW222062   2.790   3.031   4.164  2.0940  0.3532 -1.5757
 3476SOL     OW22063   2.868   4.032   2.137  0.2534 -0.0717  0.5899
 3476SOL    HW122064   2.910   3.952   2.106  1.9175  0.9705  0.1577
 3476SOL    HW222065   2.940   4.077   2.181  0.9211 -1.1506  0.5950
 3477SOL     OW22066   3.575   0.686   3.222  0.1350  0.1077 -0.4555
 3477SOL    HW122067   3.630   0.638   3.283  1.9756  1.7145 -0.8461
 3477SOL    HW222068   3.624   0.664   3.143 -2.6212 -1.9207 -1.5954
 3478SOL     OW22069   3.260   0.783  11.032  0.7734 -0.3756  0.3230
 3478SOL    HW122070   3.217   0.783  10.947 -1.3697 -1.1102  1.4276
 3478SOL    HW222071   3.195   0.827  11.086  0.7146  1.6830 -1.4056
 3479SOL     OW22072   3.926   1.405  14.890  0.0442  0.0352 -0.1561
 3479SOL    HW122073   4.015   1.412  14.857  0.3189 -1.3366  0.3244
 3479SOL    HW222074   3.891   1.493  14.871  1.6440  0.4094 -1.3666
 3480SOL     OW22075   4.051   0.870   5.378  1.0828  0.4295  0.9203
 3480SOL    HW122076   3.986   0.806   5.406 -1.4948  3.0139  0.7984
 3480SOL    HW222077   4.069   0.918   5.459 -1.8402  0.3627  1.5788
 3481SOL     OW22078   2.030   0.537   5.056  0.7477  0.0705 -0.2229
 3481SOL    HW122079   2.080   0.611   5.024  0.0747  1.2001  1.3335
 3481SOL    HW222080   2.081   0.468   5.013  1.7720 -0.0388  1.1640
 3482SOL     OW22081   3.590   0.984   5.245 -0.1964  0.2761  0.4268
 3482SOL    HW122082   3.554   1.068   5.216 -0.2335  0.2435  0.3772
 3482SOL    HW222083   3.621   0.958   5.158 -0.5022 -0.6800  0.6039
 3483SOL     OW22084   2.137   0.588   0.619  0.0287  0.2669 -0.0519
 3483SOL    HW122085   2.104   0.671   0.585  1.5979  0.6619 -0.6200
 3483SOL    HW222086   2.184   0.603   0.701 -1.9764 -1.2286  1.3386
 3484SOL     OW22087   4.315   3.770   0.734  0.2135  0.2638 -0.2911
 3484SOL    HW122088   4.225   3.804   0.727  0.8165  1.9638  0.2977
 3484SOL    HW222089   4.305   3.679   0.707 -0.6169  0.5953 -1.1316
 3485SOL     OW22090   2.173   3.051   2.723  0.3535  0.0393  0.1293
 3485SOL    HW122091   2.142   3.142   2.721  0.6952  0.0872 -3.4241
 3485SOL    HW222092   2.161   3.028   2.815  2.4608 -0.8979  0.1767
 3486SOL     OW22093   4.260   2.312   1.342 -0.3635 -0.2667 -0.2045
 3486SOL    HW122094   4.183   2.257   1.358 -0.7716  0.6814  1.0746
 3486SOL    HW222095   4.264   2.362   1.424  0.8344 -0.0642 -0.3910
 3487SOL     OW22096   0.197   1.455   2.992 -0.1211 -0.1003 -0.0288
 3487SOL    HW122097   0.159   1.423   2.910 -1.9420  0.3601  0.6442
 3487SOL    HW222098   0.289   1.428   2.983 -0.6653 -1.7801 -0.6182
 3488SOL     OW22099   4.292   1.623   9.649 -0.9732  0.2906  0.5880
 3488SOL    HW122100   4.224   1.584   9.594 -1.0422  0.9315  0.2202
 3488SOL    HW222101   4.242   1.652   9.726 -0.2911  0.7006  0.8775
 3489SOL     OW22102   1.230   3.704   6.898 -0.1019 -0.2181 -0.2838
 3489SOL    HW122103   1.273   3.642   6.839 -1.9334 -0.4864 -1.3610
 3489SOL    HW222104   1.181   3.635   6.943  0.4085 -1.0518 -0.9955
 3490SOL     OW22105   3.274   4.673  11.085 -0.4216 -0.1512  0.0008
 3490SOL    HW122106   3.278   4.687  11.179 -0.3419  0.4825 -0.0975
 3490SOL    HW222107   3.288   4.578  11.080 -1.0586 -0.0575 -3.7878
 3491SOL     OW22108   0.886   1.646   6.367 -0.3498 -0.3177  0.7852
 3491SOL    HW122109   0.977   1.642   6.338 -0.7156  2.2019 -0.6808
 3491SOL    HW222110   0.837   1.642   6.285 -0.6949 -1.1291  1.0298
 3492SOL     OW22111   0.491   3.060   0.224  0.7761 -0.4937 -0.1511
 3492SOL    HW122112   0.503   3.085   0.132 -1.8281 -0.3178 -0.4295
 3492SOL    HW222113   0.399   3.086   0.232  0.8160 -1.2185  2.4659
 3493SOL     OW22114   0.106   4.587   2.647  0.0177 -0.5734 -0.0267
 3493SOL    HW122115   0.100   4.655   2.579  1.9519  0.8210  1.1928
 3493SOL    HW222116   0.042   4.524   2.615 -1.7434  0.6712  1.0363
 3494SOL     OW22117   2.683   3.047   8.264  0.3031  0.0063 -0.1665
 3494SOL    HW122118   2.714   3.074   8.350  2.0952  1.8196 -1.3824
 3494SOL    HW222119   2.589   3.049   8.283  0.6683  2.1403  1.3589
 3495SOL     OW22120   2.771   2.489   5.143  0.0177  0.4473  0.0003
 3495SOL    HW122121   2.815   2.528   5.219 -0.7887 -0.4776  0.9313
 3495SOL    HW222122   2.709   2.560   5.126  0.6064  0.5918 -1.5886
 3496SOL     OW22123   4.675   4.704  16.351  0.1951 -0.2051  0.1918
 3496SOL    HW122124   4.620   4.626  16.344 -1.4810  0.9645  0.3501
 3496SOL    HW222125   4.692   4.716  16.257  3.3490 -0.4850  0.7289
 3497SOL     OW22126   3.139   0.680   5.528 -0.1141  0.4327 -0.0508
 3497SOL    HW122127   3.205   0.718   5.470 -0.0737  0.9994  0.3630
 3497SOL    HW222128   3.161   0.727   5.609  1.1035  1.5939 -1.0563
 3498SOL     OW22129   0.820   0.126  12.698  0.3865 -0.5042 -0.7976
 3498SOL    HW122130   0.839   0.110  12.606 -0.7876  0.4895 -1.2161
 3498SOL    HW222131   0.813   0.222  12.704  0.5049 -0.4032 -2.3000
 3499SOL     OW22132   1.044   1.990   5.084  0.0823  0.9109 -0.8100
 3499SOL    HW122133   0.986   1.995   5.161 -0.7467  1.8585 -1.4980
 3499SOL    HW222134   1.062   1.897   5.078 -1.0689  0.6161  0.2649
 3500SOL     OW22135   0.327   4.675   6.259 -0.1182  0.5284  0.7744
 3500SOL    HW122136   0.271   4.734   6.309 -1.5946 -1.3675  1.3152
 3500SOL    HW222137   0.398   4.662   6.322 -0.1306  1.9059  1.0758
 3501SOL     OW22138   3.021   1.834   9.525 -0.4043  0.5630 -0.0970
 3501SOL    HW122139   3.054   1.824   9.435  1.1044 -0.3132  0.5606
 3501SOL    HW222140   2.950   1.770   9.519 -0.6773  0.8120  0.5445
 3502SOL     OW22141   0.697   1.594   4.635  0.2550  0.4330  0.1991
 3502SOL    HW122142   0.630   1.553   4.580  0.8876  1.1032 -1.0529
 3502SOL    HW222143   0.642   1.665   4.667  0.5172  1.1648 -0.9587
 3503SOL     OW22144   2.668   3.443  13.508 -0.3349  0.7418 -0.2393
 3503SOL    HW122145   2.749   3.473  13.465  0.5000 -2.6319 -1.0733
 3503SOL    HW222146   2.615   3.522  13.502 -0.2746  0.7622 -0.5663
 3504SOL     OW22147   0.710   2.033   2.534 -0.1043  0.0299  0.4610
 3504SOL    HW122148   0.615   2.045   2.534 -0.4476 -2.4721 -4.5883
 3504SOL    HW222149   0.726   1.938   2.531 -2.0006 -0.3354  1.8049
 3505SOL     OW22150   1.054   3.159   7.459  0.0360  0.3940 -0.3372
 3505SOL    HW122151   1.022   3.078   7.499 -0.2775  0.0656 -1.2513
 3505SOL    HW222152   1.082   3.209   7.536  0.2014 -2.0454  1.2109
 3506SOL     OW22153   1.928   4.376   8.501 -0.6040 -0.0614 -0.1898
 3506SOL    HW122154   1.981   4.456   8.501 -1.5691  0.5770  0.4883
 3506SOL    HW222155   1.969   4.317   8.438 -1.2885 -0.8177  0.0728
 3507SOL     OW22156   2.509   3.677   2.433 -0.4419  0.4320 -0.0550
 3507SOL    HW122157   2.476   3.590   2.454  1.6582 -0.6925 -1.5246
 3507SOL    HW222158   2.438   3.709   2.377 -0.7503 -0.4664 -0.1710
 3508SOL     OW22159   1.376   0.255   2.468  0.2042  0.8603 -0.4560
 3508SOL    HW122160   1.417   0.171   2.491 -0.5734  1.3312  2.6477
 3508SOL    HW222161   1.431   0.296   2.401  0.4400  0.1949 -0.6708
 3509SOL     OW22162   3.693   3.663  17.326  0.3056  0.0320 -0.7373
 3509SOL    HW122163   3.715   3.572  17.349 -1.8663 -0.2958 -0.0050
 3509SOL    HW222164   3.640   3.689  17.401  0.2697  1.4947 -1.2701
 3510SOL     OW22165   1.356   4.422  11.726  0.1816  0.2719 -0.3293
 3510SOL    HW122166   1.405   4.451  11.649 -0.2524  0.5833 -0.4941
 3510SOL    HW222167   1.318   4.335  11.712  0.5005  0.3857 -2.0178
 3511SOL     OW22168   4.145   1.267  10.926 -0.0640  0.2499 -0.3130
 3511SOL    HW122169   4.184   1.351  10.902  0.3103 -0.2348 -1.3592
 3511SOL    HW222170   4.166   1.260  11.019 -0.1531 -0.3383 -0.3383
 3512SOL     OW22171   2.192   3.094   9.142  0.2181  0.5756  0.2659
 3512SOL    HW122172   2.105   3.087   9.102  0.6340  1.3999 -0.7803
 3512SOL    HW222173   2.182   3.031   9.213 -0.4791  2.1346  1.5437
 3513SOL     OW22174   3.086   3.863   9.914  0.0385 -0.3134  0.0583
 3513SOL    HW122175   3.148   3.935   9.928  0.6717 -0.8317 -0.0522
 3513SOL    HW222176   3.077   3.822  10.000 -0.2244  1.3716  0.8182
 3514SOL     OW22177   2.282   0.178   4.113 -0.5002  0.0102 -0.5044
 3514SOL    HW122178   2.253   0.231   4.187  1.6850  0.2402  0.1959
 3514SOL    HW222179   2.350   0.133   4.164 -1.8406 -0.7596  0.5934
 3515SOL     OW22180   4.715   3.896   4.987  0.6252 -0.0816 -0.6475
 3515SOL    HW122181   0.003   3.971   5.040 -1.6331  1.7817 -2.1659
 3515SOL    HW222182   4.646   3.861   5.043  0.7463 -1.1271 -1.1501
 3516SOL     OW22183   3.872   0.570   2.626 -0.5850  0.2568  0.2960
 3516SOL    HW122184   3.938   0.609   2.683 -0.0900 -0.4517  0.2178
 3516SOL    HW222185   3.811   0.570   2.700 -0.0494 -1.1815  0.7322
 3517SOL     OW22186   0.247   1.402   4.863  0.0788 -0.9673  0.6255
 3517SOL    HW122187   0.231   1.322   4.813  0.6705  1.1622 -2.9627
 3517SOL    HW222188   0.284   1.473   4.810  0.7608 -1.4683  0.4365
 3518SOL     OW22189   4.480   1.759   2.965  0.0237  0.2762  0.0531
 3518SOL    HW122190   4.531   1.680   2.948 -0.1225  0.2056 -0.0558
 3518SOL    HW222191   4.553   1.798   3.015  0.1493  1.6684 -1.2057
 3519SOL     OW22192   2.070   3.635   1.559  0.5553  0.8925  0.2120
 3519SOL    HW122193   2.052   3.592   1.476 -0.0009 -1.4314  1.5463
 3519SOL    HW222194   2.121   3.562   1.594  0.3312  0.7468  0.2250
 3520SOL     OW22195   2.966   3.796   8.487  0.1809  0.1578 -0.1928
 3520SOL    HW122196   2.996   3.747   8.410  1.2108 -0.5995  0.6940
 3520SOL    HW222197   2.872   3.776   8.490  0.5819 -1.6577 -0.0871
 3521SOL     OW22198   4.194   0.582   6.791 -0.3109  0.2547  0.0638
 3521SOL    HW122199   4.107   0.614   6.816 -0.1321 -0.0261  1.0525
 3521SOL    HW222200   4.256   0.620   6.853 -1.7901  0.8638  1.1750
 3522SOL     OW22201   2.490   1.680   9.034 -0.1704  0.6974  0.2620
 3522SOL    HW122202   2.474   1.645   9.122 -1.8266 -0.2772 -0.4286
 3522SOL    HW222203   2.401   1.708   9.011 -0.0494 -0.1364 -1.1758
 3523SOL     OW22204   1.733   1.425   2.879 -0.6224  1.0280  0.1251
 3523SOL    HW122205   1.641   1.406   2.857 -0.4050 -0.2484  0.3280
 3523SOL    HW222206   1.726   1.498   2.940 -1.1422 -1.1755  2.7241
 3524SOL     OW22207   1.829   0.707   5.360 -0.3026 -0.4757  0.4146
 3524SOL    HW122208   1.737   0.700   5.386 -0.2483  0.8094  0.9732
 3524SOL    HW222209   1.867   0.744   5.440 -2.4186  0.3402  1.0450
 3525SOL     OW22210   1.922   4.086   7.672  0.0145  0.0092 -0.3790
 3525SOL    HW122211   1.881   3.999   7.673  2.5383 -1.2027 -0.0144
 3525SOL    HW222212   1.900   4.107   7.762  1.5115  1.1548 -0.2883
 3526SOL     OW22213   4.471   0.574  17.267  0.2048 -0.4763 -0.1691
 3526SOL    HW122214   4.458   0.480  17.267  1.7215 -0.6754  1.7040
 3526SOL    HW222215   4.380   0.601  17.252  0.5465  0.7617  0.0033
 3527SOL     OW22216   0.456   4.388  13.955  0.0335  0.0071 -0.0200
 3527SOL    HW122217   0.428   4.371  14.045  2.0381 -1.4705  0.3025
 3527SOL    HW222218   0.502   4.305  13.944  0.4252 -0.1789  3.0347
 3528SOL     OW22219   1.331   0.814   9.726 -0.3969  0.4423 -0.5428
 3528SOL    HW122220   1.372   0.740   9.770 -4.1379 -1.1966  0.1501
 3528SOL    HW222221   1.318   0.866   9.806 -0.4978  0.1295 -0.3551
 3529SOL     OW22222   4.529   3.483  11.918  0.4430  0.5385 -0.2524
 3529SOL    HW122223   4.460   3.522  11.863  0.0659  0.3419  0.0748
 3529SOL    HW222224   4.494   3.395  11.933 -1.2300  1.6842  2.5659
 3530SOL     OW22225   0.102   1.996   4.043  0.4183  0.3530 -0.2008
 3530SOL    HW122226   0.053   2.078   4.046  0.2839  0.2829 -0.4199
 3530SOL    HW222227   0.030   1.932   4.040 -0.2148  1.1042 -1.2679
 3531SOL     OW22228   2.534   2.252  14.425  0.4518 -0.0309  0.4755
 3531SOL    HW122229   2.504   2.310  14.355  1.5448  0.0292  0.0559
 3531SOL    HW222230   2.460   2.237  14.484  0.8029 -3.3324  0.0565
 3532SOL     OW22231   0.424   1.001   8.528  0.4569  0.1618  0.4772
 3532SOL    HW122232   0.371   1.080   8.544  0.1549  0.1036 -0.2344
 3532SOL    HW222233   0.460   0.973   8.612 -0.1744 -1.9344  0.0560
 3533SOL     OW22234   1.247   3.996   0.566  0.4873 -0.2714  0.1409
 3533SOL    HW122235   1.284   4.069   0.616  1.8614 -0.0188 -1.2170
 3533SOL    HW222236   1.157   3.997   0.599 -0.1948  3.2505 -1.8546
 3534SOL     OW22237   2.583   1.133  17.429  0.4398 -0.1094 -0.3745
 3534SOL    HW122238   2.653   1.189  17.463 -1.1321  1.2445  0.6392
 3534SOL    HW222239   2.632   1.106  17.352 -2.4548 -2.3999 -1.4347
 3535SOL     OW22240   2.595   3.508   8.331  0.5221 -0.1443 -0.7374
 3535SOL    HW122241   2.550   3.428   8.359  1.9443 -1.4277 -2.0553
 3535SOL    HW222242   2.619   3.467   8.248 -0.4754 -3.0985  0.4042
 3536SOL     OW22243   0.427   1.082  11.764 -0.4948 -0.2312  0.2892
 3536SOL    HW122244   0.389   1.166  11.793  1.2565  1.2052 -1.5777
 3536SOL    HW222245   0.494   1.114  11.703 -0.6158  2.8149  1.7470
 3537SOL     OW22246   3.145   3.316   6.138  0.0621 -0.0546  0.0745
 3537SOL    HW122247   3.089   3.270   6.200  1.5059 -0.6958  0.8828
 3537SOL    HW222248   3.226   3.288   6.181 -0.4592 -1.0758  0.3861
 3538SOL     OW22249   4.045   0.026   1.918 -0.7679 -0.7210  0.4376
 3538SOL    HW122250   3.993   0.001   1.994 -0.7314  2.5294  1.5307
 3538SOL    HW222251   4.113   0.083   1.953 -1.1248 -1.2570  2.0139
 3539SOL     OW22252   0.235   0.660  11.963 -0.3163  0.0655  0.3716
 3539SOL    HW122253   0.176   0.700  12.027  0.9712  0.7474  1.1381
 3539SOL    HW222254   0.240   0.726  11.893 -4.2535  0.8085  0.7869
 3540SOL     OW22255   0.345   2.845  16.406 -0.5237 -0.3178 -0.4647
 3540SOL    HW122256   0.390   2.773  16.449 -1.6508 -1.7622 -1.7126
 3540SOL    HW222257   0.366   2.911  16.473 -1.7343  1.0056 -1.3939
 3541SOL     OW22258   2.411   3.681  11.654  0.6258 -0.2942  0.5633
 3541SOL    HW122259   2.377   3.599  11.689 -0.1687 -0.1119  0.2217
 3541SOL    HW222260   2.362   3.741  11.711  0.1638 -0.1508  0.0202
 3542SOL     OW22261   0.610   0.554   7.912 -0.3296  0.0850  0.1842
 3542SOL    HW122262   0.702   0.545   7.935 -0.7218 -0.9274  1.3810
 3542SOL    HW222263   0.599   0.648   7.900 -1.4591 -0.3011 -1.7935
 3543SOL     OW22264   2.698   0.666   0.029  0.6210  0.0141 -0.2402
 3543SOL    HW122265   2.698   0.588   0.084 -0.9035 -0.4625 -0.9258
 3543SOL    HW222266   2.737   0.625  17.699  1.6265  1.0081 -0.2550
 3544SOL     OW22267   1.761   4.679  13.784  0.1096 -0.6548  0.1559
 3544SOL    HW122268   1.801   4.598  13.754 -1.3186 -0.8469 -1.2172
 3544SOL    HW222269   1.756   4.674  13.879  1.4145 -2.0367  0.1397
 3545SOL     OW22270   2.043   0.090   5.113 -0.4639  0.0354 -0.5934
 3545SOL    HW122271   2.128   0.124   5.139 -0.7787  0.4111 -0.0597
 3545SOL    HW222272   1.989   0.154   5.158 -0.2809  0.8942 -1.5947
 3546SOL     OW22273   1.862   0.246   4.028 -0.1675 -0.2951 -0.1381
 3546SOL    HW122274   1.934   0.302   3.997  1.5721 -2.3230  0.2633
 3546SOL    HW222275   1.853   0.209   3.940  0.9527 -1.1272  0.1042
 3547SOL     OW22276   3.165   1.101  13.666  0.2710  0.7806 -0.3171
 3547SOL    HW122277   3.073   1.108  13.641  0.3988 -1.0568 -1.3518
 3547SOL    HW222278   3.150   1.101  13.760  1.0012 -0.2588 -0.1963
 3548SOL     OW22279   4.303   1.750   5.030 -0.1162  0.2175 -0.1007
 3548SOL    HW122280   4.391   1.743   4.993  0.7967 -0.2679  2.1591
 3548SOL    HW222281   4.316   1.796   5.113 -0.0896 -0.9568  0.5344
 3549SOL     OW22282   0.038   1.883   2.760  0.1297  0.2343  0.4229
 3549SOL    HW122283   0.066   1.966   2.797 -0.1793 -0.0254  1.2417
 3549SOL    HW222284   4.680   1.892   2.763  0.3128  2.0512  0.7803
 3550SOL     OW22285   0.894   1.312   7.814 -0.0338 -0.5381 -0.3795
 3550SOL    HW122286   0.955   1.384   7.801 -1.5047  1.0829  1.5493
 3550SOL    HW222287   0.832   1.326   7.743  0.2311  1.6573 -0.1845
 3551SOL     OW22288   4.389   1.196   8.405  0.2017  0.1182  0.4757
 3551SOL    HW122289   4.411   1.164   8.317 -0.8936  1.7936 -0.3950
 3551SOL    HW222290   4.439   1.277   8.411  3.4148 -1.7645 -0.5261
 3552SOL     OW22291   0.823   3.318   8.678 -0.3813  0.3049  0.0068
 3552SOL    HW122292   0.809   3.262   8.601 -0.4185 -0.0591  0.2776
 3552SOL    HW222293   0.738   3.310   8.721 -0.9814 -0.8261 -1.3734
 3553SOL     OW22294   1.485   3.380   5.342 -0.0114  0.3944 -0.0398
 3553SOL    HW122295   1.485   3.464   5.386  1.1042  0.5957 -0.4229
 3553SOL    HW222296   1.580   3.372   5.326 -0.2817 -0.9842 -0.9734
 3554SOL     OW22297   1.735   3.246  15.942  0.3619  0.0188  0.1999
 3554SOL    HW122298   1.702   3.159  15.963  0.8659 -0.1527  0.2879
 3554SOL    HW222299   1.655   3.299  15.948  0.2775  0.0155 -0.7906
 3555SOL     OW22300   3.448   0.267   4.447 -0.4609  0.2197 -0.2638
 3555SOL    HW122301   3.395   0.343   4.469  1.2140  0.3386  3.3115
 3555SOL    HW222302   3.418   0.196   4.504  2.7113  0.4423  1.6798
 3556SOL     OW22303   0.334   4.371  16.775 -0.2950  0.6907  0.3895
 3556SOL    HW122304   0.353   4.394  16.684  1.7515 -0.9653  0.3919
 3556SOL    HW222305   0.401   4.406  16.833 -0.6626  0.0170  1.2146
 3557SOL     OW22306   2.432   4.393  11.813 -0.3327  0.1624 -0.4128
 3557SOL    HW122307   2.346   4.428  11.837  0.5979  0.7520  2.0475
 3557SOL    HW222308   2.462   4.365  11.899 -0.1779  0.4587 -0.3709
 3558SOL     OW22309   1.565   0.445   7.193  0.2758  0.5242  0.1510
 3558SOL    HW122310   1.514   0.421   7.115  1.8954 -0.7707 -0.5112
 3558SOL    HW222311   1.649   0.477   7.160  0.8728 -2.1522 -0.8679
 3559SOL     OW22312   3.057   1.002   3.775 -0.4666 -0.0715 -0.0358
 3559SOL    HW122313   2.982   1.048   3.738 -1.4405 -0.6709  1.1813
 3559SOL    HW222314   3.087   0.950   3.701 -1.1293  0.8581 -0.9534
 3560SOL     OW22315   1.654   4.051   7.923 -0.0956  0.9715 -0.3945
 3560SOL    HW122316   1.595   4.026   7.851 -0.3400  2.0758 -0.5721
 3560SOL    HW222317   1.714   3.977   7.913  0.0632  0.8923  1.2031
 3561SOL     OW22318   2.369   4.564   2.217  0.0445  0.3023 -0.1662
 3561SOL    HW122319   2.299   4.503   2.239  1.4115 -1.8131 -1.6737
 3561SOL    HW222320   2.372   4.608   2.302  1.3325 -1.0665  0.4861
 3562SOL     OW22321   4.657   1.135   3.672  0.3234  0.0959 -0.0007
 3562SOL    HW122322   4.588   1.199   3.657  0.1555  0.4164  2.1450
 3562SOL    HW222323   4.620   1.056   3.633  0.9599  0.5578 -1.5524
 3563SOL     OW22324   4.630   4.056   1.334  0.1332  0.0851  0.1505
 3563SOL    HW122325   4.602   4.100   1.253 -0.5630 -2.2235 -0.8566
 3563SOL    HW222326   4.684   4.130   1.363 -0.3327 -0.7672  3.1792
 3564SOL     OW22327   2.260   1.758   2.415 -0.3977  0.0064 -0.3165
 3564SOL    HW122328   2.299   1.755   2.503 -1.7167 -2.1002  0.2031
 3564SOL    HW222329   2.340   1.727   2.374  0.0345 -0.6960  1.0435
 3565SOL     OW22330   4.168   3.041  10.541  0.0784  0.1688 -0.0731
 3565SOL    HW122331   4.116   3.070  10.466  2.6559 -0.0260 -1.9123
 3565SOL    HW222332   4.096   3.012  10.597  0.2236  1.4617  0.7647
 3566SOL     OW22333   0.865   3.001   3.074  0.1809  0.0203 -0.0570
 3566SOL    HW122334   0.912   3.026   3.153 -0.7813 -0.3564  0.6353
 3566SOL    HW222335   0.938   2.970   3.020  1.1034  2.0841 -0.0137
 3567SOL     OW22336   2.465   4.711   5.410  0.5571 -0.3754  0.2000
 3567SOL    HW122337   2.438   4.619   5.417 -0.6855 -0.0242 -0.0252
 3567SOL    HW222338   2.515   4.732   5.489 -0.1103  1.2018  0.1956
 3568SOL     OW22339   3.467   1.253   6.946 -0.2983  0.3100  0.3232
 3568SOL    HW122340   3.400   1.320   6.957  1.0789  1.2078  3.1578
 3568SOL    HW222341   3.525   1.261   7.022 -0.0108  0.6198  0.0672
 3569SOL     OW22342   1.425   3.245   7.397  0.2955  0.5241  0.0235
 3569SOL    HW122343   1.393   3.309   7.462 -0.1463  1.2398 -0.9006
 3569SOL    HW222344   1.410   3.286   7.312 -0.0752 -1.2372 -0.7639
 3570SOL     OW22345   0.345   1.598   8.282  0.0168 -0.2489 -0.3771
 3570SOL    HW122346   0.399   1.652   8.224 -2.0135  0.5367 -1.5359
 3570SOL    HW222347   0.261   1.641   8.270  0.9117  2.2778  2.5199
 3571SOL     OW22348   1.775   2.225   3.901  0.1000  0.3008  0.4819
 3571SOL    HW122349   1.773   2.314   3.866  0.6613 -0.6821 -2.0072
 3571SOL    HW222350   1.825   2.244   3.981  2.1002 -2.6728 -0.0290
 3572SOL     OW22351   1.551   1.062   3.583 -0.1559 -0.0330  0.6055
 3572SOL    HW122352   1.472   1.039   3.632 -0.3150 -3.3179 -1.1992
 3572SOL    HW222353   1.533   1.151   3.554  0.2638  0.2809  1.3142
 3573SOL     OW22354   2.592   3.766   5.984  0.5656  0.0244  0.0887
 3573SOL    HW122355   2.670   3.777   6.039 -0.3524  2.2714  0.9355
 3573SOL    HW222356   2.547   3.848   6.002  1.2766  0.4637 -0.1240
 3574SOL     OW22357   3.404   1.119   2.334 -0.3194  0.1279  1.0531
 3574SOL    HW122358   3.381   1.077   2.251 -0.5357  1.2771  0.5366
 3574SOL    HW222359   3.389   1.035   2.379  1.6770 -0.2149  1.1031
 3575SOL     OW22360   0.785   3.065   4.586  0.0933  0.3409  0.4353
 3575SOL    HW122361   0.795   3.130   4.656  1.5928 -0.0295  0.5748
 3575SOL    HW222362   0.749   2.990   4.634  0.1152 -0.6412 -1.0810
 3576SOL     OW22363   1.555   2.338   8.650  0.2797 -0.6494 -0.5169
 3576SOL    HW122364   1.504   2.309   8.724 -1.3723  1.7034 -0.7199
 3576SOL    HW222365   1.567   2.429   8.677 -0.7650  0.3116 -3.2707
 3577SOL     OW22366   2.244   2.635  12.657 -0.0938 -0.2867  0.2761
 3577SOL    HW122367   2.184   2.643  12.583  1.5808  1.0040 -0.9210
 3577SOL    HW222368   2.287   2.551  12.642  1.2264  0.5994 -0.9017
 3578SOL     OW22369   1.706   2.047   8.473 -0.4907  0.3433 -0.1223
 3578SOL    HW122370   1.657   2.123   8.505  1.4840  1.7606 -0.4733
 3578SOL    HW222371   1.682   1.984   8.541 -1.0002  0.9760  0.2920
 3579SOL     OW22372   3.809   2.846   8.861 -0.1480  0.3292  0.1356
 3579SOL    HW122373   3.773   2.920   8.908 -3.0174 -0.3240 -1.0538
 3579SOL    HW222374   3.734   2.788   8.850  0.1880 -0.1349  0.2936
 3580SOL     OW22375   4.353   4.358   3.764 -0.4008  0.4073  0.0857
 3580SOL    HW122376   4.400   4.314   3.834 -0.5309  1.1015  0.6053
 3580SOL    HW222377   4.382   4.311   3.686  0.1010  1.9190 -0.6365
 3581SOL     OW22378   3.135   0.122   3.514 -0.6630 -0.3417 -0.9100
 3581SOL    HW122379   3.112   0.124   3.607 -0.5359 -1.1959 -0.8635
 3581SOL    HW222380   3.151   0.211   3.482 -0.6916 -0.0057  0.0190
 3582SOL     OW22381   4.442   4.024   7.225 -0.0441  0.1083  0.9282
 3582SOL    HW122382   4.455   3.933   7.254 -1.6128 -0.1364  0.9085
 3582SOL    HW222383   4.372   4.012   7.161  2.8938 -0.9684 -2.0798
 3583SOL     OW22384   0.687   1.023   6.178  0.1323  0.2834  0.1804
 3583SOL    HW122385   0.602   1.019   6.222 -0.0738  1.6172 -0.0932
 3583SOL    HW222386   0.697   0.936   6.140 -1.3438  0.6033 -0.9286
 3584SOL     OW22387   3.793   2.443   9.628  0.5153 -0.4616 -0.0381
 3584SOL    HW122388   3.760   2.422   9.715 -0.9508  0.1003 -0.4572
 3584SOL    HW222389   3.884   2.438   9.655  0.4540 -3.4542 -0.4304
 3585SOL     OW22390   1.952   1.489   6.257 -0.1198  0.4610  0.2719
 3585SOL    HW122391   2.035   1.522   6.224  1.1686 -0.1641  2.9469
 3585SOL    HW222392   1.904   1.487   6.174  0.6641 -1.3692 -0.1454
 3586SOL     OW22393   1.194   0.286   5.077  0.4809 -0.1082 -0.0418
 3586SOL    HW122394   1.104   0.314   5.061  0.3230 -0.9270 -0.6065
 3586SOL    HW222395   1.202   0.216   5.012 -1.3003  0.3137 -0.7168
 3587SOL     OW22396   2.895   1.124   1.964  0.4679 -0.1888  0.1607
 3587SOL    HW122397   2.929   1.034   1.969 -2.1144 -1.3363 -3.3802
 3587SOL    HW222398   2.816   1.104   1.915  1.6606  0.2839 -1.9200
 3588SOL     OW22399   1.404   2.990   7.408 -0.5606  0.0044 -0.0272
 3588SOL    HW122400   1.410   3.085   7.403  1.3967 -0.2121 -1.7313
 3588SOL    HW222401   1.402   2.962   7.317 -0.7685 -0.8047  0.2206
 3589SOL     OW22402   0.206   0.692   8.623 -0.3749  0.0450  0.2018
 3589SOL    HW122403   0.242   0.607   8.596 -1.6296 -0.9533  1.6591
 3589SOL    HW222404   0.277   0.719   8.682  0.7381  1.4121 -1.7920
 3590SOL     OW22405   0.212   4.663   2.001 -0.3150  0.5393  0.2206
 3590SOL    HW122406   0.234   4.720   2.075  1.3628  1.6397 -1.1354
 3590SOL    HW222407   0.117   4.675   1.993 -0.1585  1.2790 -0.5221
 3591SOL     OW22408   3.142   0.661  14.632  0.6395 -0.0147 -0.0697
 3591SOL    HW122409   3.199   0.600  14.678 -0.0710 -2.3632 -2.3792
 3591SOL    HW222410   3.205   0.727  14.602  1.0590  0.1021  1.0609
 3592SOL     OW22411   2.274   1.959   9.401  0.3510  0.6167 -0.3001
 3592SOL    HW122412   2.180   1.977   9.401  0.5581  1.7138  2.3252
 3592SOL    HW222413   2.271   1.908   9.482 -2.7917  1.2084 -0.0797
 3593SOL     OW22414   4.508   1.218   2.602  1.1541  0.6294  0.2678
 3593SOL    HW122415   4.597   1.204   2.568  0.2635 -0.2163 -1.7476
 3593SOL    HW222416   4.524   1.167   2.681  2.0250  0.0037 -0.3128
 3594SOL     OW22417   0.296   2.319   2.493 -0.2031 -0.1133 -0.4021
 3594SOL    HW122418   0.287   2.408   2.526 -1.9211  0.2407 -1.8033
 3594SOL    HW222419   0.354   2.326   2.417  0.1795  1.0639 -0.0076
 3595SOL     OW22420   4.630   2.233   3.257  0.1183  0.8911  0.2640
 3595SOL    HW122421   4.685   2.240   3.179  1.1199 -1.9671  0.7212
 3595SOL    HW222422   4.695   2.197   3.318  0.1162 -0.9907 -0.8548
 3596SOL     OW22423   3.289   1.792   9.671  0.0805  0.9318 -0.5448
 3596SOL    HW122424   3.212   1.794   9.615  2.1014 -2.1871 -3.4325
 3596SOL    HW222425   3.254   1.844   9.743 -0.1078 -1.4559  1.1135
 3597SOL     OW22426   3.991   1.120   6.792  0.7091 -0.3692  0.4052
 3597SOL    HW122427   3.991   1.182   6.719  3.0628  0.8937  1.4802
 3597SOL    HW222428   4.017   1.180   6.862 -0.4820 -0.5978  1.0454
 3598SOL     OW22429   4.634   0.052   4.063  0.2139  0.2949 -0.1916
 3598SOL    HW122430   4.570   0.081   4.127  0.2051 -0.7047  0.2507
 3598SOL    HW222431   4.590   4.714   4.022  0.3448  1.0919 -1.8016
 3599SOL     OW22432   4.213   0.210   5.972  0.3474 -0.3504  0.1096
 3599SOL    HW122433   4.209   0.196   6.067 -0.0535 -0.0395  0.1344
 3599SOL    HW222434   4.221   0.304   5.953 -0.4029 -0.2131  0.4681
 3600SOL     OW22435   3.279   4.069   3.584  0.6905  0.1882 -0.4154
 3600SOL    HW122436   3.302   3.992   3.533  0.1623 -2.0913  2.8188
 3600SOL    HW222437   3.202   4.041   3.632 -1.3692  0.1884 -3.6850
 3601SOL     OW22438   1.579   1.467   4.752  0.2382  0.0672  0.4498
 3601SOL    HW122439   1.557   1.498   4.841  2.3343  0.5419  0.7919
 3601SOL    HW222440   1.673   1.463   4.767  0.8407  0.4585 -3.2252
 3602SOL     OW22441   2.598   1.791   9.456 -0.3099 -0.0631 -0.3268
 3602SOL    HW122442   2.663   1.723   9.474 -1.1357 -0.5058  1.0350
 3602SOL    HW222443   2.530   1.756   9.514 -0.1823  0.1536 -0.0431
 3603SOL     OW22444   3.880   4.103   5.048 -0.1993 -0.1412  0.3374
 3603SOL    HW122445   3.934   4.050   4.990 -1.5452 -3.1884  1.8275
 3603SOL    HW222446   3.797   4.110   5.000 -0.9925  3.3601  2.2699
 3604SOL     OW22447   3.315   4.386   9.663 -0.4945 -0.2738 -0.3643
 3604SOL    HW122448   3.365   4.467   9.669 -0.5142 -0.1301 -2.2264
 3604SOL    HW222449   3.366   4.310   9.691 -3.2645 -2.0082  0.0076
 3605SOL     OW22450   2.626   2.899   4.751 -0.1866  0.2556  0.3023
 3605SOL    HW122451   2.698   2.868   4.695  0.7070  0.8981  1.0965
 3605SOL    HW222452   2.670   2.954   4.816  0.9541 -0.7595  0.3938
 3606SOL     OW22453   1.457   2.166  15.781  0.5693  0.7942 -0.3882
 3606SOL    HW122454   1.474   2.096  15.719  2.6528  0.3415  0.7255
 3606SOL    HW222455   1.415   2.118  15.852  1.7495  0.0811 -0.1784
 3607SOL     OW22456   3.459   2.603   1.830  0.0041  0.6843 -0.1233
 3607SOL    HW122457   3.469   2.543   1.904 -0.5615  1.3936  0.5235
 3607SOL    HW222458   3.458   2.530   1.767  2.4621 -2.1403  3.0674
 3608SOL     OW22459   0.830   2.685  11.186 -0.4356 -0.3703  0.2775
 3608SOL    HW122460   0.875   2.770  11.194 -2.9263  0.8417  1.2452
 3608SOL    HW222461   0.906   2.638  11.152 -2.4391 -1.7233 -2.2702
 3609SOL     OW22462   2.260   2.420   8.042  0.1494  0.0939  0.1622
 3609SOL    HW122463   2.280   2.327   8.057 -1.3338 -0.1651  0.5169
 3609SOL    HW222464   2.238   2.440   8.133  0.3091 -1.8905  0.6539
 3610SOL     OW22465   3.875   4.342   9.050  0.2876  0.7247  0.3725
 3610SOL    HW122466   3.876   4.304   8.962  0.7199 -0.8005  1.0306
 3610SOL    HW222467   3.956   4.309   9.091  0.6700  1.8046  0.4923
 3611SOL     OW22468   0.088   1.840   7.305  0.3699 -0.0475  0.3720
 3611SOL    HW122469   0.109   1.805   7.391  0.1230 -1.5349 -0.1725
 3611SOL    HW222470   0.097   1.934   7.322 -4.5100  0.3404  0.7869
 3612SOL     OW22471   3.457   3.655   7.680  0.2161 -0.0793 -0.2632
 3612SOL    HW122472   3.421   3.734   7.720  2.1889 -0.0838  1.4737
 3612SOL    HW222473   3.414   3.654   7.594  1.1466  1.4049 -0.7431
 3613SOL     OW22474   2.364   3.365  14.007 -0.1386 -0.1824 -0.0114
 3613SOL    HW122475   2.301   3.428  13.971  1.8833 -0.4705 -4.0967
 3613SOL    HW222476   2.347   3.383  14.100 -0.5540 -2.4826  0.3456
 3614SOL     OW22477   0.574   2.921  11.075  0.2574 -0.0615 -0.1181
 3614SOL    HW122478   0.665   2.895  11.083  0.5400  0.9675 -0.0245
 3614SOL    HW222479   0.568   2.917  10.980 -0.4939  0.3301 -0.0932
 3615SOL     OW22480   1.877   1.711   1.826 -0.1161 -0.7084 -0.5759
 3615SOL    HW122481   1.813   1.655   1.782 -2.1337 -0.2210  1.6822
 3615SOL    HW222482   1.947   1.717   1.761 -0.5238 -1.5509 -1.0953
 3616SOL     OW22483   4.270   1.413   6.432 -0.0572  0.5539  0.1791
 3616SOL    HW122484   4.194   1.449   6.476 -0.6085  1.7793 -1.7943
 3616SOL    HW222485   4.232   1.338   6.386 -2.9085  0.9424  1.8826
 3617SOL     OW22486   0.656   2.547  16.021  0.5250  0.1991 -0.0766
 3617SOL    HW122487   0.618   2.483  16.082  1.6903  0.3081  0.7650
 3617SOL    HW222488   0.745   2.513  16.010  0.7241 -0.8105  4.4698
 3618SOL     OW22489   4.500   3.496  12.544 -0.1340  0.5262 -0.4036
 3618SOL    HW122490   4.439   3.570  12.546 -0.5308  0.1053  2.5860
 3618SOL    HW222491   4.441   3.421  12.552 -0.3640  0.5891 -1.5115
 3619SOL     OW22492   0.755   1.173   3.196  0.4431  0.3959 -0.5173
 3619SOL    HW122493   0.754   1.166   3.101  1.4461 -0.3314 -0.4725
 3619SOL    HW222494   0.665   1.152   3.221  0.4124  2.4848  1.1635
 3620SOL     OW22495   4.048   3.673   7.118  0.0377 -0.4093  0.1492
 3620SOL    HW122496   3.973   3.700   7.171 -1.9743  1.3065 -3.6382
 3620SOL    HW222497   4.004   3.657   7.035 -0.3983 -0.3765  0.3723
 3621SOL     OW22498   2.333   1.061   7.089 -0.0185 -0.3906  0.6888
 3621SOL    HW122499   2.331   1.156   7.102 -0.7018 -0.5903  2.0444
 3621SOL    HW222500   2.421   1.045   7.057 -0.4472 -1.2645 -0.0486
 3622SOL     OW22501   3.538   4.430   0.533 -0.2236 -0.1675  0.1464
 3622SOL    HW122502   3.484   4.504   0.505  0.3356  0.1398 -0.1039
 3622SOL    HW222503   3.627   4.452   0.509 -0.4356 -0.1707 -0.6559
 3623SOL     OW22504   1.356   0.002   9.819 -0.5504  0.0849 -0.1574
 3623SOL    HW122505   1.442   4.706   9.845  0.2547 -0.3581 -3.3937
 3623SOL    HW222506   1.353   4.695   9.734  0.8060 -1.7595  0.7480
 3624SOL     OW22507   2.059   1.018   7.058  0.2618 -0.3532  0.1176
 3624SOL    HW122508   2.053   1.102   7.013 -4.0768 -1.1784 -0.8415
 3624SOL    HW222509   2.153   1.008   7.077  0.8615  2.7277 -1.1243
 3625SOL     OW22510   1.209   3.620   5.989  0.0339  0.2150  0.1925
 3625SOL    HW122511   1.244   3.532   5.975 -0.3604 -0.2779  2.2685
 3625SOL    HW222512   1.216   3.622   6.084 -0.4147  1.5773  0.1924
 3626SOL     OW22513   4.124   4.657   0.646 -0.3088 -0.2651 -0.0985
 3626SOL    HW122514   4.197   4.616   0.693 -0.6066 -1.1989 -0.4566
 3626SOL    HW222515   4.161   0.008   0.642 -0.1140 -0.2245  2.4041
 3627SOL     OW22516   3.637   3.399   2.201 -0.2225  0.1472 -0.1611
 3627SOL    HW122517   3.673   3.332   2.144 -0.6348 -0.2299  0.0291
 3627SOL    HW222518   3.547   3.369   2.210 -0.0564 -0.4025 -0.3693
 3628SOL     OW22519   0.041   3.242   7.503  1.0700 -0.6133  0.5440
 3628SOL    HW122520   0.031   3.288   7.586  0.1666  0.0526  0.0634
 3628SOL    HW222521   0.082   3.165   7.542 -0.4874 -1.2371  0.9268
 3629SOL     OW22522   3.312   0.269   8.311  0.8110  0.2232  0.3526
 3629SOL    HW122523   3.371   0.320   8.255  1.7330  1.2582  2.2514
 3629SOL    HW222524   3.268   0.212   8.248  0.4690  1.2148 -0.3117
 3630SOL     OW22525   4.638   0.931  11.494 -0.2839 -0.2265 -0.4074
 3630SOL    HW122526   4.631   1.008  11.438 -0.2662 -0.0513 -0.1672
 3630SOL    HW222527   4.567   0.940  11.558 -0.4969 -1.5843 -0.4519
 3631SOL     OW22528   1.692   1.868   1.149  0.1692  0.8724 -0.5766
 3631SOL    HW122529   1.673   1.908   1.234 -1.0449 -0.4193 -0.2387
 3631SOL    HW222530   1.632   1.913   1.088  0.1758  0.7058 -0.7059
 3632SOL     OW22531   1.246   2.973  10.120 -0.0604  0.0531  0.0380
 3632SOL    HW122532   1.313   2.905  10.112  1.0000  1.3605 -2.3666
 3632SOL    HW222533   1.193   2.962  10.041 -0.6569 -0.0701  0.4622
 3633SOL     OW22534   0.905   3.775   7.679  0.2134  0.4545  0.5588
 3633SOL    HW122535   0.919   3.787   7.586 -0.8539 -0.7627  0.2447
 3633SOL    HW222536   0.902   3.865   7.713  0.3683  1.0088 -0.9235
 3634SOL     OW22537   1.458   3.092   8.713  0.1310  0.8704 -0.3761
 3634SOL    HW122538   1.394   3.120   8.777 -0.2580 -2.1427  0.5531
 3634SOL    HW222539   1.395   3.089   8.641  0.4804  1.9318 -0.7231
 3635SOL     OW22540   0.563   3.164   2.279 -0.1366  0.0331 -0.1969
 3635SOL    HW122541   0.606   3.221   2.343 -0.3089  0.5432 -0.5372
 3635SOL    HW222542   0.638   3.155   2.220 -0.4685 -0.2084 -0.5784
 3636SOL     OW22543   2.590   1.579   7.325  0.0302 -0.4003  0.6169
 3636SOL    HW122544   2.680   1.574   7.357  0.4508  2.4958 -0.1159
 3636SOL    HW222545   2.560   1.669   7.340 -3.1262 -1.9093  3.3351
 3637SOL     OW22546   2.864   0.715   6.225 -0.4040 -0.5223 -0.0300
 3637SOL    HW122547   2.929   0.694   6.158 -1.0767 -2.2391 -0.1400
 3637SOL    HW222548   2.857   0.625   6.259  3.1376 -0.6039  0.5553
 3638SOL     OW22549   4.715   1.140  11.346 -0.5906  0.7224  0.3949
 3638SOL    HW122550   4.680   1.218  11.388 -0.2408  1.0016  0.1640
 3638SOL    HW222551   0.072   1.157  11.357 -0.8968  3.5352 -1.2901
 3639SOL     OW22552   3.098   0.100  12.620 -0.0777  0.5453 -0.1436
 3639SOL    HW122553   3.034   0.170  12.610 -1.4205 -0.7106 -0.2895
 3639SOL    HW222554   3.177   0.145  12.650 -0.9071  0.4936  2.1043
 3640SOL     OW22555   4.367   0.909   3.284 -0.1604 -0.0358  0.1705
 3640SOL    HW122556   4.360   0.931   3.191 -0.2438  0.0605  0.1994
 3640SOL    HW222557   4.431   0.975   3.309  1.6679 -1.4681 -0.7096
 3641SOL     OW22558   3.193   3.967  13.506  0.4774  0.1396  0.0444
 3641SOL    HW122559   3.108   3.981  13.546 -0.5112 -2.3584 -1.2052
 3641SOL    HW222560   3.187   3.872  13.497  0.4562  0.4741 -3.2441
 3642SOL     OW22561   4.037   0.178   1.520 -0.2950  0.6173 -0.3595
 3642SOL    HW122562   4.121   0.136   1.500  0.1095  1.5320 -0.5739
 3642SOL    HW222563   4.048   0.253   1.461 -1.3981  0.0137 -1.3514
 3643SOL     OW22564   0.452   2.853   9.273  0.0973 -0.1897  0.2169
 3643SOL    HW122565   0.487   2.821   9.189  0.7100 -0.1629  0.4595
 3643SOL    HW222566   0.460   2.941   9.237 -1.5145 -0.1542 -0.0215
 3644SOL     OW22567   1.378   1.442   9.972 -0.2622  0.7228  0.2924
 3644SOL    HW122568   1.421   1.508   9.919  0.9091  0.5389  0.9987
 3644SOL    HW222569   1.294   1.475  10.003 -0.3079 -1.2467  2.3008
 3645SOL     OW22570   0.066   3.593   4.795  0.5586 -0.6320 -0.1389
 3645SOL    HW122571   0.014   3.622   4.720  2.7077  3.1488 -0.1490
 3645SOL    HW222572   0.067   3.676   4.843  1.9077 -1.0748  0.6066
 3646SOL     OW22573   3.062   3.273   7.966 -0.1356  0.7888 -0.2690
 3646SOL    HW122574   3.110   3.252   7.886  4.1073  0.4185  2.3796
 3646SOL    HW222575   3.133   3.287   8.028  0.5209 -0.0126 -0.8423
 3647SOL     OW22576   0.330   2.742  13.835  0.5619 -0.1076 -0.0116
 3647SOL    HW122577   0.354   2.650  13.840 -1.3949 -0.6591 -0.4701
 3647SOL    HW222578   0.239   2.743  13.866  0.4003 -1.5042 -0.4684
 3648SOL     OW22579   2.464   3.860   2.109  0.0317 -0.1097 -0.2655
 3648SOL    HW122580   2.414   3.779   2.120  0.5806 -0.6214 -1.5998
 3648SOL    HW222581   2.409   3.921   2.158 -1.7860 -1.9684  0.0007
 3649SOL     OW22582   2.700   4.297   5.922  0.0594 -0.2641  0.0211
 3649SOL    HW122583   2.660   4.269   5.840 -2.0892  0.3211  0.8658
 3649SOL    HW222584   2.628   4.345   5.963  0.9711 -0.9929  2.5234
 3650SOL     OW22585   0.046   3.893  13.078 -0.0907  0.4166  0.7245
 3650SOL    HW122586   0.137   3.917  13.092 -0.4150  1.3671  1.1936
 3650SOL    HW222587   0.068   3.819  13.021  0.9783  0.4160  1.1493
 3651SOL     OW22588   2.058   0.938   4.092 -0.0609  0.4457 -0.0529
 3651SOL    HW122589   1.993   0.868   4.093 -2.2845  2.4842 -1.3824
 3651SOL    HW222590   2.010   1.011   4.052  0.9738  0.6487 -0.9518
 3652SOL     OW22591   2.939   1.511   8.496  0.0676 -0.2482  0.4152
 3652SOL    HW122592   2.853   1.538   8.463  1.9652  4.2722 -0.9223
 3652SOL    HW222593   2.987   1.502   8.414 -1.8477  0.0484 -0.7569
 3653SOL     OW22594   1.014   0.972  10.182 -0.0689  0.3631  0.0301
 3653SOL    HW122595   0.956   1.047  10.168 -1.1328 -0.8136 -1.8855
 3653SOL    HW222596   1.019   0.970  10.278 -1.5665 -0.3506  0.0981
 3654SOL     OW22597   3.846   2.543  16.774  0.1228  0.8464  0.8011
 3654SOL    HW122598   3.792   2.549  16.853 -1.6724 -1.3601 -0.2716
 3654SOL    HW222599   3.851   2.638  16.760 -0.1763  0.4356 -2.1189
 3655SOL     OW22600   4.156   2.148  14.970 -0.0447  0.1460  0.1484
 3655SOL    HW122601   4.148   2.164  15.064  0.2185 -0.5054  0.2847
 3655SOL    HW222602   4.227   2.083  14.969 -0.8916 -0.7791  0.2629
 3656SOL     OW22603   1.524   2.683   9.759 -0.1124  0.1720  0.5243
 3656SOL    HW122604   1.461   2.755   9.768 -1.0135 -0.4947 -0.4858
 3656SOL    HW222605   1.602   2.734   9.734 -1.0914  1.3703 -0.1027
 3657SOL     OW22606   2.325   3.088   1.436  0.5193  0.1667 -0.1287
 3657SOL    HW122607   2.251   3.035   1.407 -0.6091  1.4023  0.4668
 3657SOL    HW222608   2.310   3.166   1.383  0.1887 -0.5818 -1.1484
 3658SOL     OW22609   0.206   2.095   4.776 -0.0917  0.4622 -0.2064
 3658SOL    HW122610   0.220   2.050   4.860 -0.0581  0.2979 -0.3008
 3658SOL    HW222611   0.177   2.026   4.717  1.2881  0.5202 -0.9471
 3659SOL     OW22612   4.384   2.889   1.578 -0.1978 -0.1182 -0.2627
 3659SOL    HW122613   4.296   2.879   1.614 -0.1462 -0.0988 -0.1299
 3659SOL    HW222614   4.430   2.829   1.638  0.4758  0.9811  0.3154
 3660SOL     OW22615   1.947   1.299   8.087 -0.0889 -0.5788  0.3870
 3660SOL    HW122616   1.978   1.210   8.072  2.6152  0.4261 -0.1668
 3660SOL    HW222617   1.853   1.288   8.095 -0.3523  0.0103 -1.9327
 3661SOL     OW22618   1.386   4.729  13.196 -0.2495  0.4586  0.0686
 3661SOL    HW122619   1.364   0.010  13.104 -2.2568 -0.0971  0.4548
 3661SOL    HW222620   1.325   0.052  13.238 -2.9590 -1.8215 -0.6243
 3662SOL     OW22621   4.371   1.927   0.836 -0.2282 -0.1329 -0.0767
 3662SOL    HW122622   4.436   1.859   0.854  0.5040  0.8528  0.9735
 3662SOL    HW222623   4.369   1.933   0.741 -1.9070 -1.3841 -0.1120
 3663SOL     OW22624   2.898   4.737   4.097 -0.2271 -1.0668  0.4290
 3663SOL    HW122625   2.967   0.022   4.160  2.1767 -3.4254 -1.3735
 3663SOL    HW222626   2.841   4.677   4.145 -0.3914  0.7278  2.4804
 3664SOL     OW22627   1.525   0.385   2.243 -0.4404 -0.0006 -0.0014
 3664SOL    HW122628   1.496   0.466   2.201  1.6954 -0.0623 -1.6330
 3664SOL    HW222629   1.587   0.353   2.178  0.4811  1.9337 -0.0919
 3665SOL     OW22630   2.960   4.217   1.318  0.3418  0.2839  0.4731
 3665SOL    HW122631   2.877   4.257   1.341 -0.2138 -0.9783  0.6476
 3665SOL    HW222632   2.933   4.125   1.315  0.5924  0.1942  0.9313
 3666SOL     OW22633   4.208   0.192   4.426  0.4155 -0.1723  0.6875
 3666SOL    HW122634   4.226   0.280   4.458  1.0761  0.4124 -1.2641
 3666SOL    HW222635   4.137   0.157   4.480  0.4138 -2.4220 -0.7879
 3667SOL     OW22636   3.323   2.740  11.572 -0.2134  0.1028  0.6247
 3667SOL    HW122637   3.344   2.693  11.652  0.6796  0.6056  0.6793
 3667SOL    HW222638   3.401   2.788  11.545  1.9380 -2.3413  2.5288
 3668SOL     OW22639   0.810   2.049   7.927  0.1505 -0.0740 -0.0946
 3668SOL    HW122640   0.800   1.954   7.937  1.6727 -0.3263 -1.0271
 3668SOL    HW222641   0.884   2.068   7.870  0.4441  0.6593  0.5320
 3669SOL     OW22642   2.575   1.592   3.258 -0.0048  0.1705 -0.4616
 3669SOL    HW122643   2.524   1.672   3.244 -1.5330 -0.4344  1.5205
 3669SOL    HW222644   2.660   1.630   3.237  0.5692  0.3351  2.1004
 3670SOL     OW22645   3.695   3.675   6.823 -0.1135 -0.0174 -0.5831
 3670SOL    HW122646   3.701   3.592   6.775 -1.5731  0.2457 -1.2367
 3670SOL    HW222647   3.694   3.737   6.750  0.0412  2.4794  1.5449
 3671SOL     OW22648   1.374   3.331  16.211 -0.2193 -0.1955 -0.2825
 3671SOL    HW122649   1.438   3.325  16.282  1.5288 -0.5442 -1.8850
 3671SOL    HW222650   1.305   3.284  16.258  0.1596 -0.4251  0.0425
 3672SOL     OW22651   3.290   1.890   5.443 -0.3406  0.4708 -0.2618
 3672SOL    HW122652   3.243   1.838   5.378 -0.8858  1.8918 -0.9976
 3672SOL    HW222653   3.306   1.973   5.398  0.1861 -0.3000 -1.5066
 3673SOL     OW22654   0.190   4.209  12.483  0.4360  0.5726 -0.6990
 3673SOL    HW122655   0.199   4.304  12.483  0.7396  0.5507 -2.3614
 3673SOL    HW222656   0.174   4.198  12.576 -0.1511  1.0363 -0.7480
 3674SOL     OW22657   2.961   2.581   3.359 -0.4825  0.2727 -0.0023
 3674SOL    HW122658   2.986   2.666   3.395 -0.1683 -0.5139  1.6494
 3674SOL    HW222659   2.916   2.587   3.275 -0.9784 -1.9903  0.1000
 3675SOL     OW22660   0.663   0.495   5.354 -0.2250 -0.2415 -0.0556
 3675SOL    HW122661   0.716   0.570   5.383  2.2941 -2.0004 -0.0500
 3675SOL    HW222662   0.672   0.503   5.259 -0.0950 -1.6307 -0.1604
 3676SOL     OW22663   4.653   1.874   1.765 -0.0615 -0.1407 -0.0980
 3676SOL    HW122664   4.639   1.895   1.672  1.4410  0.3359 -0.2162
 3676SOL    HW222665   4.624   1.784   1.775 -2.0713  0.7244  1.8948
 3677SOL     OW22666   2.092   0.816  14.250 -0.4580 -0.7854  0.3070
 3677SOL    HW122667   2.180   0.795  14.220 -0.9061 -0.7035 -1.1109
 3677SOL    HW222668   2.040   0.747  14.207  1.0977 -0.8436 -1.4713
 3678SOL     OW22669   1.858   4.299  12.719 -0.0406  0.0102  0.5302
 3678SOL    HW122670   1.829   4.318  12.808  0.5562 -1.5797  1.0721
 3678SOL    HW222671   1.861   4.203  12.728 -0.0776  0.0720  1.2073
 3679SOL     OW22672   1.688   4.432   7.136  0.1175 -0.3568 -0.1312
 3679SOL    HW122673   1.776   4.439   7.100  1.1439  0.0615  2.4175
 3679SOL    HW222674   1.662   4.359   7.080  0.8447 -0.4423 -0.3535
 3680SOL     OW22675   1.266   0.661   4.172 -0.4683 -0.8534  0.0922
 3680SOL    HW122676   1.257   0.594   4.104  0.4781 -0.7835 -0.1001
 3680SOL    HW222677   1.175   0.657   4.201 -1.0339 -2.8796 -1.9402
 3681SOL     OW22678   2.325   1.350  12.436 -0.1398  0.1320  0.0506
 3681SOL    HW122679   2.329   1.393  12.351 -0.1719 -0.3710 -0.2062
 3681SOL    HW222680   2.356   1.264  12.409 -0.5844 -0.4239  1.3243
 3682SOL     OW22681   2.080   3.621  12.923 -0.5420 -0.6450 -0.5115
 3682SOL    HW122682   2.129   3.649  12.846 -0.8068 -0.7643 -0.7211
 3682SOL    HW222683   2.098   3.528  12.938 -0.9742 -0.8051 -1.0120
 3683SOL     OW22684   0.489   1.648   9.445  0.1617  0.1601  0.0005
 3683SOL    HW122685   0.496   1.572   9.504 -0.6506 -1.3671 -1.8559
 3683SOL    HW222686   0.482   1.718   9.509  0.6511 -1.6438  2.0528
 3684SOL     OW22687   4.569   3.845   3.349 -0.7736  0.1471 -0.3371
 3684SOL    HW122688   4.510   3.920   3.344  0.7789  1.3023 -1.0253
 3684SOL    HW222689   4.597   3.841   3.258 -0.3473  2.1880 -0.2906
 3685SOL     OW22690   3.205   2.370  17.220 -0.2655 -0.6429  0.0363
 3685SOL    HW122691   3.299   2.355  17.230  0.1530  1.0560 -1.4030
 3685SOL    HW222692   3.177   2.294  17.169 -3.3078  0.1228  0.5500
 3686SOL     OW22693   0.687   2.450   3.293 -0.0020  0.6462 -0.1710
 3686SOL    HW122694   0.625   2.523   3.285 -0.6238  0.1440 -0.0130
 3686SOL    HW222695   0.616   2.386   3.285 -0.4130  1.0115  0.5544
 3687SOL     OW22696   0.586   0.908   4.229 -0.6099 -0.5539  0.2948
 3687SOL    HW122697   0.645   0.889   4.303  1.1549 -1.4192 -1.3345
 3687SOL    HW222698   0.645   0.888   4.157 -1.5080  1.2615 -0.9486
 3688SOL     OW22699   0.441   3.393   5.731  0.2865  0.2155  0.1884
 3688SOL    HW122700   0.498   3.374   5.805  1.3512  0.5502 -0.5444
 3688SOL    HW222701   0.502   3.456   5.692 -0.3267  0.5987 -0.1512
 3689SOL     OW22702   2.313   3.267  13.747  0.6610  0.2843 -0.0129
 3689SOL    HW122703   2.382   3.206  13.719  1.7629  0.8740  1.3930
 3689SOL    HW222704   2.350   3.300  13.829  1.3546  1.7627 -0.9179
 3690SOL     OW22705   4.005   4.310   1.628  0.2355  0.1471 -0.3003
 3690SOL    HW122706   3.979   4.395   1.592  0.4859  0.8545  1.2112
 3690SOL    HW222707   3.947   4.260   1.571 -1.7555 -0.5897  2.3821
 3691SOL     OW22708   0.117   2.517   5.581  0.0498 -0.1643  0.4938
 3691SOL    HW122709   0.078   2.468   5.653  0.8366 -0.1778  0.9178
 3691SOL    HW222710   0.059   2.514   5.505  4.1663  1.0980 -2.7345
 3692SOL     OW22711   4.077   1.892   3.145 -0.1434 -0.4427  0.9573
 3692SOL    HW122712   4.020   1.851   3.079  0.3306  0.8689 -0.2661
 3692SOL    HW222713   4.158   1.843   3.127 -0.5727 -0.7207 -0.2696
 3693SOL     OW22714   2.741   3.150   8.001  0.0936 -0.4834 -0.3561
 3693SOL    HW122715   2.717   3.083   8.065  0.7618 -1.6005 -1.2695
 3693SOL    HW222716   2.815   3.106   7.960  1.6891  2.8605 -1.0109
 3694SOL     OW22717   4.215   3.924  17.397  0.2021  0.6659 -0.1755
 3694SOL    HW122718   4.219   3.982  17.321 -0.7207  1.1050  0.1103
 3694SOL    HW222719   4.271   3.856  17.359  0.6603 -0.4863  2.6106
 3695SOL     OW22720   1.303   2.276   9.226  0.1850 -0.5709 -0.0338
 3695SOL    HW122721   1.267   2.257   9.140  0.9212  1.3153 -0.7628
 3695SOL    HW222722   1.223   2.312   9.263  0.2691  0.8152 -1.1731
 3696SOL     OW22723   3.025   0.626   2.096  0.0750 -0.6738 -0.3665
 3696SOL    HW122724   3.110   0.581   2.096  0.6588  0.4329  0.4803
 3696SOL    HW222725   2.961   0.555   2.105  1.6551 -2.1758 -1.0724
 3697SOL     OW22726   0.962   3.651  14.810 -0.3763 -0.3068 -0.0673
 3697SOL    HW122727   0.914   3.579  14.768 -0.4792 -1.8168  2.6784
 3697SOL    HW222728   0.983   3.607  14.892 -0.0309  3.3531  1.7929
 3698SOL     OW22729   1.573   0.277   8.900 -0.3662 -0.1137  0.6745
 3698SOL    HW122730   1.641   0.340   8.923  1.4662 -2.0296  0.4311
 3698SOL    HW222731   1.623   0.195   8.901 -0.7718 -0.3940 -3.1688
 3699SOL     OW22732   0.811   3.245   8.036 -0.1295 -0.4460  0.1760
 3699SOL    HW122733   0.745   3.266   7.970  0.8529  0.6680 -0.4604
 3699SOL    HW222734   0.815   3.149   8.038  0.6525 -0.4278 -0.4089
 3700SOL     OW22735   1.776   1.735   8.867  0.2067  0.3308 -0.0108
 3700SOL    HW122736   1.766   1.815   8.918 -0.3914  1.4877 -1.9625
 3700SOL    HW222737   1.749   1.763   8.780  3.0807  0.5747 -0.8191
 3701SOL     OW22738   2.275   1.412  13.713 -1.0066 -0.1845 -0.0494
 3701SOL    HW122739   2.323   1.467  13.774 -0.6820  0.5475 -0.9828
 3701SOL    HW222740   2.286   1.323  13.748 -1.2088 -0.3865 -0.5009
 3702SOL     OW22741   3.854   3.625   4.833 -0.2300 -0.2723 -0.2181
 3702SOL    HW122742   3.790   3.695   4.844  1.4992  1.3212 -0.2642
 3702SOL    HW222743   3.899   3.639   4.916 -1.3158  1.6653  0.0419
 3703SOL     OW22744   3.757   4.528  10.874  0.5312  0.2747  0.4411
 3703SOL    HW122745   3.722   4.617  10.874 -1.4785 -0.4920 -2.5425
 3703SOL    HW222746   3.700   4.490  10.941  1.2456 -0.9797  0.3311
 3704SOL     OW22747   1.725   1.407   2.472 -0.2302  0.2683 -0.1652
 3704SOL    HW122748   1.667   1.338   2.504 -1.9747  1.7354 -0.1589
 3704SOL    HW222749   1.668   1.454   2.411  0.8660  0.8101 -0.7686
 3705SOL     OW22750   4.116   0.480   6.189 -0.3785  0.7253  0.1443
 3705SOL    HW122751   4.209   0.468   6.167 -0.8909 -0.9344 -1.1216
 3705SOL    HW222752   4.081   0.391   6.182  0.4243  0.2823  1.7519
 3706SOL     OW22753   1.800   1.160   4.755 -0.4069  0.1833 -0.3286
 3706SOL    HW122754   1.894   1.148   4.742 -0.5266  0.2832 -1.2235
 3706SOL    HW222755   1.790   1.253   4.776 -1.4908 -0.4517  2.0096
 3707SOL     OW22756   1.132   3.361   5.519  0.3006 -0.4044  0.0188
 3707SOL    HW122757   1.047   3.385   5.483  0.1161 -1.6866 -0.4126
 3707SOL    HW222758   1.132   3.266   5.503  0.6065 -0.3719 -0.1702
 3708SOL     OW22759   1.811   0.234   1.069 -0.1606 -0.8521 -0.0618
 3708SOL    HW122760   1.749   0.269   1.133  1.1333 -0.7378  1.1134
 3708SOL    HW222761   1.800   0.300   1.000 -0.0128 -1.2602 -0.4751
 3709SOL     OW22762   0.370   3.850   1.458 -0.0839  0.3012  0.5497
 3709SOL    HW122763   0.292   3.797   1.477 -1.5177  2.2190 -0.0764
 3709SOL    HW222764   0.425   3.775   1.432 -0.1655  0.7710 -1.0014
 3710SOL     OW22765   2.191   3.483  17.591 -0.4297  0.6648 -0.2623
 3710SOL    HW122766   2.265   3.540  17.610  1.6967 -1.6894 -1.4378
 3710SOL    HW222767   2.117   3.539  17.614 -0.3430  1.1203 -1.0882
 3711SOL     OW22768   0.672   4.159   8.388  0.1755  0.0483 -0.1533
 3711SOL    HW122769   0.755   4.187   8.348  0.8403 -1.4230  0.2112
 3711SOL    HW222770   0.722   4.110   8.453  0.8188  1.1761  0.1996
 3712SOL     OW22771   2.353   0.095   2.869  0.6043  0.1711 -0.4173
 3712SOL    HW122772   2.294   0.159   2.908  0.0219 -1.7565  1.8322
 3712SOL    HW222773   2.377   0.041   2.944  0.8404 -2.1764 -2.1681
 3713SOL     OW22774   3.110   1.185   9.664 -0.1845  0.3350 -0.2201
 3713SOL    HW122775   3.060   1.171   9.744  0.0169 -2.5834 -0.5964
 3713SOL    HW222776   3.055   1.133   9.605 -2.2454  0.0667  1.9306
 3714SOL     OW22777   3.360   0.421   7.632  0.4103  0.5248  0.2955
 3714SOL    HW122778   3.375   0.515   7.617  2.6599 -0.1237 -1.6023
 3714SOL    HW222779   3.388   0.381   7.550  0.0340  0.9276 -0.0327
 3715SOL     OW22780   1.004   3.824   5.969  0.0734  0.4114 -0.0077
 3715SOL    HW122781   1.080   3.766   5.967  0.8889  1.4018  2.3390
 3715SOL    HW222782   1.040   3.904   5.931  0.0954 -0.0289 -0.9065
 3716SOL     OW22783   1.001   0.390   5.638  0.1608  0.0444  0.3671
 3716SOL    HW122784   1.010   0.455   5.708  3.4136  0.1902 -0.1951
 3716SOL    HW222785   0.906   0.382   5.630  0.1081  0.7101  0.3019
 3717SOL     OW22786   3.531   1.887  11.520 -0.2272  0.7393 -0.1866
 3717SOL    HW122787   3.436   1.882  11.533 -0.2286 -0.0836 -0.4810
 3717SOL    HW222788   3.552   1.929  11.603  0.7164 -0.2489  0.0730
 3718SOL     OW22789   1.904   2.833   4.301  0.2346 -0.3835  0.3296
 3718SOL    HW122790   1.951   2.867   4.378 -0.0361  0.3569  0.1737
 3718SOL    HW222791   1.825   2.818   4.353  0.0630  1.6301  0.6606
 3719SOL     OW22792   0.223   4.630   3.636  0.4252  1.0737  0.2313
 3719SOL    HW122793   0.202   4.715   3.676  0.7783  1.2347  0.0748
 3719SOL    HW222794   0.260   4.589   3.714 -2.1939 -0.9100  0.4267
 3720SOL     OW22795   2.760   3.317   1.917  0.2657 -0.3432  0.1959
 3720SOL    HW122796   2.778   3.272   1.999  1.5242 -3.5945 -1.8817
 3720SOL    HW222797   2.756   3.405   1.954 -2.5330  0.6825 -2.5057
 3721SOL     OW22798   3.789   2.500  16.511  0.0391  0.2337 -0.1835
 3721SOL    HW122799   3.814   2.512  16.603 -0.2206  0.3373 -0.1278
 3721SOL    HW222800   3.697   2.476  16.521  0.2262 -0.0507  0.8036
 3722SOL     OW22801   1.447   2.025   8.813 -0.3165  0.4068  0.0525
 3722SOL    HW122802   1.432   2.103   8.865  1.3342  0.2368  0.7756
 3722SOL    HW222803   1.383   2.041   8.743  0.8437  1.6924 -0.7168
 3723SOL     OW22804   2.036   0.500   2.037  0.0505 -0.0810  0.7585
 3723SOL    HW122805   2.130   0.518   2.035 -0.0920  0.4758 -0.9161
 3723SOL    HW222806   2.013   0.515   1.945 -1.3393 -0.7554  0.9905
 3724SOL     OW22807   2.853   1.428   2.584  0.0344  0.1301  0.5802
 3724SOL    HW122808   2.763   1.426   2.618  0.7860  0.2602  2.5731
 3724SOL    HW222809   2.837   1.417   2.491 -1.6264 -1.0029  0.9949
 3725SOL     OW22810   0.527   0.556   9.485  0.0251 -0.1311  0.2779
 3725SOL    HW122811   0.561   0.642   9.458 -1.9621 -0.0108 -1.8552
 3725SOL    HW222812   0.446   0.546   9.435 -0.5885  0.6497  1.1039
 3726SOL     OW22813   3.442   4.082   5.289  0.2390  0.4708  0.2926
 3726SOL    HW122814   3.407   4.134   5.362 -1.2876 -2.0054  1.3228
 3726SOL    HW222815   3.481   4.158   5.245  3.1600 -0.7192  0.8429
 3727SOL     OW22816   1.587   2.213   1.661 -0.1072 -0.5823  0.2122
 3727SOL    HW122817   1.648   2.213   1.587 -1.3810 -1.8493 -0.8218
 3727SOL    HW222818   1.638   2.157   1.720  1.8621 -1.1055 -1.9553
 3728SOL     OW22819   1.684   2.414   4.601  0.1592 -0.2790  0.1138
 3728SOL    HW122820   1.641   2.484   4.552  0.4328 -0.4477 -0.3658
 3728SOL    HW222821   1.764   2.415   4.550  0.4524 -1.9681  0.5255
 3729SOL     OW22822   0.649   3.220   4.313 -0.2027  0.1542 -0.9117
 3729SOL    HW122823   0.557   3.207   4.288  0.1012 -1.4046 -1.2156
 3729SOL    HW222824   0.689   3.273   4.244  3.7364  0.2067  1.4416
 3730SOL     OW22825   3.647   2.750   6.829  0.1035 -0.0312  0.1036
 3730SOL    HW122826   3.679   2.796   6.907 -1.9860  2.2491 -0.4245
 3730SOL    HW222827   3.572   2.698   6.859  0.2399 -0.2422  0.0773
 3731SOL     OW22828   2.192   2.128   5.941 -0.0405  0.0284 -0.6235
 3731SOL    HW122829   2.131   2.176   5.885  0.5863  1.4587 -0.0679
 3731SOL    HW222830   2.144   2.048   5.964 -0.4544 -0.1304 -2.0170
 3732SOL     OW22831   2.913   2.954   7.920  0.0696  0.5514 -0.3068
 3732SOL    HW122832   2.866   2.889   7.866  2.2505 -0.5083 -0.9220
 3732SOL    HW222833   2.994   2.906   7.937 -1.0458 -1.6786 -1.2229
 3733SOL     OW22834   1.748   2.153  13.906 -0.4441 -0.0115  0.0171
 3733SOL    HW122835   1.807   2.212  13.954  0.1151  0.6475 -1.5058
 3733SOL    HW222836   1.681   2.134  13.972 -0.7700  0.3128 -0.2247
 3734SOL     OW22837   2.573   4.707  11.075 -0.4166 -0.6032 -0.0923
 3734SOL    HW122838   2.636   4.636  11.060  1.6000  0.4903  3.0644
 3734SOL    HW222839   2.491   4.662  11.055  0.2726 -1.5483 -0.8175
 3735SOL     OW22840   4.112   0.659  12.475 -0.2587 -0.0655 -0.0763
 3735SOL    HW122841   4.103   0.590  12.540 -2.2802 -2.0477 -2.4861
 3735SOL    HW222842   4.131   0.729  12.538 -1.1366 -1.0930  1.3202
 3736SOL     OW22843   2.759   2.955   7.598 -0.1629  0.1166  0.2675
 3736SOL    HW122844   2.795   2.938   7.511  0.5806  0.6472  0.4668
 3736SOL    HW222845   2.796   3.043   7.605 -2.8709  1.2009  1.0755
 3737SOL     OW22846   1.940   4.654   7.159 -0.4904 -0.6189 -0.4066
 3737SOL    HW122847   2.013   4.598   7.135 -0.5430 -0.1116 -1.7981
 3737SOL    HW222848   1.931   4.624   7.249  0.5992  1.2984  0.3359
 3738SOL     OW22849   3.685   3.444   0.027  0.8391 -0.3229 -0.5179
 3738SOL    HW122850   3.757   3.394   0.064  1.3106  1.2296  0.6569
 3738SOL    HW222851   3.644   3.386  17.710 -0.1276 -1.7522  1.3997
 3739SOL     OW22852   0.674   2.476   5.771  0.3745  0.3633  0.3477
 3739SOL    HW122853   0.721   2.426   5.705 -0.5823 -2.5770  1.9026
 3739SOL    HW222854   0.756   2.503   5.815 -1.3004  0.5229  3.3822
 3740SOL     OW22855   2.698   1.591   5.204  0.0036 -0.4009 -0.1933
 3740SOL    HW122856   2.773   1.557   5.252 -1.0177 -1.8156  0.4069
 3740SOL    HW222857   2.640   1.516   5.216  0.5413 -0.2757  3.3751
 3741SOL     OW22858   2.421   4.429   5.402  0.3029  0.0767 -0.0799
 3741SOL    HW122859   2.346   4.442   5.460 -0.1549 -1.9273 -0.2225
 3741SOL    HW222860   2.441   4.336   5.411 -0.8201 -0.3194 -1.7169
 3742SOL     OW22861   2.844   4.600  13.788 -0.1454 -0.3786 -0.3637
 3742SOL    HW122862   2.920   4.542  13.791 -0.0832 -0.3068 -0.5488
 3742SOL    HW222863   2.838   4.629  13.697 -0.1881  0.8055  0.0159
 3743SOL     OW22864   3.620   2.794   1.731 -0.6856  0.8435  0.1596
 3743SOL    HW122865   3.624   2.832   1.819 -0.4068  4.7848 -1.5549
 3743SOL    HW222866   3.573   2.712   1.746 -2.2482  1.4091 -1.6269
 3744SOL     OW22867   2.867   2.698   6.556 -0.0587  0.2971 -0.0463
 3744SOL    HW122868   2.785   2.650   6.568 -0.1581  0.9143  1.7677
 3744SOL    HW222869   2.824   2.768   6.507  2.1830  0.5093 -1.7285
 3745SOL     OW22870   1.770   1.635   8.506  0.0483 -0.2854 -0.2695
 3745SOL    HW122871   1.724   1.614   8.424 -1.2900  1.6117  0.0102
 3745SOL    HW222872   1.860   1.629   8.473 -0.3846  1.9162 -1.7956
 3746SOL     OW22873   2.246   4.017   2.172  1.3163  0.1691  0.2419
 3746SOL    HW122874   2.223   4.073   2.098  2.2108  0.2159 -0.0036
 3746SOL    HW222875   2.162   4.008   2.218  0.2790  1.3451 -1.4252
 3747SOL     OW22876   3.039   2.900   4.495  0.4526 -0.1758 -0.2702
 3747SOL    HW122877   3.065   2.877   4.585  0.7957 -0.5146 -0.4543
 3747SOL    HW222878   3.119   2.886   4.445  0.6605  0.6648 -0.1657
 3748SOL     OW22879   2.321   3.492   8.676 -0.0561 -0.4888 -0.0059
 3748SOL    HW122880   2.279   3.407   8.692  0.2022 -0.3615  1.3410
 3748SOL    HW222881   2.278   3.528   8.599  1.3548  0.4535 -0.3528
 3749SOL     OW22882   3.288   2.848  12.860  0.0734  0.1911 -0.1145
 3749SOL    HW122883   3.290   2.763  12.816 -1.6317  0.6815 -1.1621
 3749SOL    HW222884   3.289   2.908  12.784  1.4604  1.2232  0.7162
 3750SOL     OW22885   2.563   3.321   6.651  0.3942 -0.1742 -0.0190
 3750SOL    HW122886   2.615   3.376   6.710  0.0459 -0.8985  0.9494
 3750SOL    HW222887   2.484   3.304   6.701  0.0328  0.4950 -0.3726
 3751SOL     OW22888   3.192   2.212   2.592 -0.4846 -0.1384  0.0628
 3751SOL    HW122889   3.158   2.146   2.532  0.8122 -0.5981 -0.1666
 3751SOL    HW222890   3.275   2.223   2.546 -0.6589  1.1118  0.0425
 3752SOL     OW22891   2.001   1.640   8.365 -0.3323  0.6510  0.3902
 3752SOL    HW122892   2.059   1.653   8.291 -1.9257  1.4620 -0.7286
 3752SOL    HW222893   2.071   1.642   8.430  1.2621 -0.7086 -1.3352
 3753SOL     OW22894   2.081   0.894   1.267  0.8395 -0.8713 -0.1521
 3753SOL    HW122895   2.112   0.804   1.256 -0.2348 -1.4031  1.1901
 3753SOL    HW222896   2.047   0.921   1.182  3.1851  1.3577 -0.3902
 3754SOL     OW22897   1.049   2.183   0.268 -0.5296 -0.5677 -0.4593
 3754SOL    HW122898   0.979   2.126   0.300  0.3833 -0.9682  0.8478
 3754SOL    HW222899   1.094   2.207   0.349  0.0344 -2.4994 -0.2023
 3755SOL     OW22900   3.428   2.020  17.137 -0.2242 -0.1676  0.1360
 3755SOL    HW122901   3.438   1.930  17.106 -0.3565 -0.8521  2.1240
 3755SOL    HW222902   3.377   2.008  17.217 -1.7283  0.0454 -0.7987
 3756SOL     OW22903   2.454   3.691   6.626  0.8160  0.0511  0.1656
 3756SOL    HW122904   2.474   3.615   6.571 -0.4305  0.0420 -0.2735
 3756SOL    HW222905   2.509   3.669   6.701  1.1320  2.3161  0.6151
 3757SOL     OW22906   4.730   1.387   5.956  0.3221 -0.4917  0.0462
 3757SOL    HW122907   4.690   1.464   5.996 -0.0832 -1.5133  1.6132
 3757SOL    HW222908   4.712   1.393   5.862  2.0278 -1.3727 -0.3514
 3758SOL     OW22909   3.034   1.000   4.571 -0.3811  0.2575  0.4366
 3758SOL    HW122910   3.129   0.994   4.580 -0.2904 -0.3810 -0.9424
 3758SOL    HW222911   3.023   0.985   4.477  0.9200  1.3172  0.1317
 3759SOL     OW22912   3.236   4.200   1.393  0.2026 -0.1776 -0.2757
 3759SOL    HW122913   3.246   4.244   1.309 -0.2750  1.8909  0.7644
 3759SOL    HW222914   3.141   4.185   1.390 -0.2461  2.6823 -0.3952
 3760SOL     OW22915   2.522   0.380   2.205 -0.0906 -0.4127  0.6994
 3760SOL    HW122916   2.581   0.332   2.148  0.0057  2.0338 -1.2330
 3760SOL    HW222917   2.475   0.307   2.246  0.2461 -1.6339 -1.0752
 3761SOL     OW22918   2.611   3.655   6.308 -0.4357  0.0540 -0.0323
 3761SOL    HW122919   2.658   3.651   6.391  0.5785  0.2931 -0.5863
 3761SOL    HW222920   2.627   3.566   6.277 -1.9471  0.3260 -1.5825
 3762SOL     OW22921   2.314   2.314  14.646  0.0824 -0.3691 -0.3729
 3762SOL    HW122922   2.379   2.327  14.715 -0.6092 -1.6220  0.5228
 3762SOL    HW222923   2.248   2.372  14.683  1.7975  0.3919  1.4703
 3763SOL     OW22924   2.797   2.147   3.961  0.5685  0.3476  0.0685
 3763SOL    HW122925   2.770   2.125   4.051  1.0971  1.9079  0.6028
 3763SOL    HW222926   2.783   2.241   3.955 -0.4086  0.3258  1.9647
 3764SOL     OW22927   0.353   1.911   9.915 -0.8653  0.3805 -0.1102
 3764SOL    HW122928   0.382   1.868   9.834 -1.0570 -0.4598  0.2623
 3764SOL    HW222929   0.258   1.905   9.909 -0.9978  2.2168  0.3706
 3765SOL     OW22930   4.280   4.477   5.086 -0.1899 -0.4842  0.1090
 3765SOL    HW122931   4.188   4.450   5.081 -0.1009 -0.6620 -0.5251
 3765SOL    HW222932   4.332   4.399   5.067  0.3220  0.1422 -1.0549
 3766SOL     OW22933   4.247   3.413  12.644  0.1813  0.4450 -0.4138
 3766SOL    HW122934   4.211   3.411  12.555 -3.4712  0.1596  1.0428
 3766SOL    HW222935   4.219   3.332  12.687 -2.2798  1.1951 -0.5997
 3767SOL     OW22936   3.816   1.056   7.319 -0.1294  0.7024 -0.2209
 3767SOL    HW122937   3.721   1.061   7.328 -0.2401  0.8411 -1.5234
 3767SOL    HW222938   3.826   1.036   7.226 -0.1095 -0.7325  0.0778
 3768SOL     OW22939   0.344   2.838  15.735  0.5460 -0.7465  0.0601
 3768SOL    HW122940   0.436   2.811  15.739 -0.0250 -2.4895  1.2562
 3768SOL    HW222941   0.353   2.930  15.709  0.0145 -0.3568  1.2506
 3769SOL     OW22942   0.320   2.148   4.314  0.3136 -0.1283 -0.4508
 3769SOL    HW122943   0.376   2.205   4.367 -0.3691  2.0678 -2.0607
 3769SOL    HW222944   0.326   2.058   4.345  1.4819 -0.3525 -1.3578
 3770SOL     OW22945   2.013   3.272   4.198 -0.6639 -0.2101 -0.3419
 3770SOL    HW122946   1.966   3.295   4.118  0.7103  0.4434 -0.9533
 3770SOL    HW222947   2.085   3.334   4.199  0.1570 -1.1415 -1.9802
 3771SOL     OW22948   1.176   0.210  10.983 -0.4066 -0.2230 -0.2046
 3771SOL    HW122949   1.196   0.278  11.047  1.0338 -0.2106 -0.6477
 3771SOL    HW222950   1.085   0.185  10.993  0.0181 -1.7654 -0.2286
 3772SOL     OW22951   0.269   1.759   2.839 -0.0670  0.0127  0.3895
 3772SOL    HW122952   0.189   1.805   2.816 -1.1486 -2.3907 -0.7061
 3772SOL    HW222953   0.242   1.669   2.860 -1.6368  0.8397  1.9741
 3773SOL     OW22954   3.252   4.377   9.935  0.7011 -0.3503  0.2926
 3773SOL    HW122955   3.319   4.445   9.928 -0.7951  0.9598 -1.1893
 3773SOL    HW222956   3.232   4.360   9.843 -1.8767  1.9185  0.4280
 3774SOL     OW22957   4.563   2.589   7.354  0.6021  0.2334 -0.1393
 3774SOL    HW122958   4.571   2.684   7.351  0.3622  0.3659  3.6338
 3774SOL    HW222959   4.533   2.561   7.267 -0.3638  0.2773  0.1755
 3775SOL     OW22960   4.059   3.719   1.976 -0.1299  0.5975  0.2409
 3775SOL    HW122961   4.116   3.794   1.957 -0.1626  0.9996  1.7020
 3775SOL    HW222962   4.091   3.692   2.062 -0.8199  3.0890  1.2787
 3776SOL     OW22963   2.552   2.940   1.976 -0.5646 -0.3267 -0.0575
 3776SOL    HW122964   2.563   2.987   1.893  0.8834 -0.3039  0.1600
 3776SOL    HW222965   2.635   2.892   1.980 -0.3178  0.0338 -0.8375
 3777SOL     OW22966   2.770   1.948  14.873  0.4236 -0.9038 -0.2305
 3777SOL    HW122967   2.843   1.969  14.814  2.2185 -1.6531  1.7055
 3777SOL    HW222968   2.770   1.854  14.857  2.1741 -0.4598 -2.9539
 3778SOL     OW22969   4.671   2.517  14.980 -0.8737  0.3534 -0.2497
 3778SOL    HW122970   4.720   2.598  14.994 -0.0089 -0.3548  0.7920
 3778SOL    HW222971   4.675   2.502  14.886  1.9873  1.7455 -0.3388
 3779SOL     OW22972   3.356   4.737   2.538  0.2022 -0.3719  0.7489
 3779SOL    HW122973   3.408   4.715   2.461 -0.3981  0.3187  0.1618
 3779SOL    HW222974   3.310   4.654   2.553  0.2224 -0.4234  0.5211
 3780SOL     OW22975   3.243   1.582   4.331  0.4647  0.1769  0.6625
 3780SOL    HW122976   3.281   1.514   4.386  0.4082  0.1561  0.6758
 3780SOL    HW222977   3.280   1.563   4.245  1.2531  2.2937  0.5261
 3781SOL     OW22978   3.658   1.989   7.158  0.0195  0.2959 -1.1075
 3781SOL    HW122979   3.719   1.938   7.106  0.6246  0.4040 -0.5072
 3781SOL    HW222980   3.720   2.054   7.190  0.9685 -1.5123  0.7496
 3782SOL     OW22981   3.090   0.361  15.794  0.1521  0.3630 -0.0251
 3782SOL    HW122982   3.044   0.414  15.859 -2.0882 -1.2569 -0.3029
 3782SOL    HW222983   3.022   0.321  15.740 -1.1915  2.5789  0.0173
 3783SOL     OW22984   0.636   0.047   6.697  0.4723  0.3575  0.1449
 3783SOL    HW122985   0.554   0.076   6.738  1.0293  1.0763  0.7634
 3783SOL    HW222986   0.691   0.020   6.771  0.6396 -0.0009 -0.1154
 3784SOL     OW22987   2.133   3.590   6.097 -0.0313 -0.1685  0.5877
 3784SOL    HW122988   2.217   3.633   6.112  0.9747 -2.4954  1.4582
 3784SOL    HW222989   2.095   3.574   6.183 -2.0234  2.5042  0.2195
 3785SOL     OW22990   1.334   2.219   4.383  0.8783  0.1660  0.1355
 3785SOL    HW122991   1.415   2.193   4.427  0.1676 -0.9548  0.7635
 3785SOL    HW222992   1.368   2.247   4.298  2.6901 -0.4196  0.6675
 3786SOL     OW22993   1.081   3.721   8.344  0.1845 -0.4830 -0.0237
 3786SOL    HW122994   1.158   3.755   8.299 -0.8582  2.3904  0.3555
 3786SOL    HW222995   1.118   3.653   8.400  0.1002 -1.3357 -0.9992
 3787SOL     OW22996   3.198   3.643   1.855 -0.3239 -0.1595 -0.0604
 3787SOL    HW122997   3.261   3.688   1.799 -0.7366 -0.9645 -1.1751
 3787SOL    HW222998   3.258   3.592   1.910 -0.8735  0.4274  1.0744
 3788SOL     OW22999   2.953   2.146   9.492 -0.4792  1.1135 -0.0376
 3788SOL    HW123000   2.919   2.148   9.402 -0.7858 -0.1438  0.0502
 3788SOL    HW223001   2.883   2.094   9.531 -0.2294  1.4090  0.7923
 3789SOL     OW23002   2.743   3.065  13.273  0.2773  0.0620 -0.2788
 3789SOL    HW123003   2.809   2.996  13.261  0.6617  0.4815 -0.5909
 3789SOL    HW223004   2.801   3.142  13.279  3.9025 -2.6438 -0.6337
 3790SOL     OW23005   4.203   2.155   3.504  0.1247 -0.4092 -0.2871
 3790SOL    HW123006   4.234   2.066   3.518 -0.8207 -0.2796  2.5512
 3790SOL    HW223007   4.166   2.146   3.416 -0.5300 -0.5917  0.0079
 3791SOL     OW23008   4.140   2.295  13.758 -0.1589 -0.4153 -0.3178
 3791SOL    HW123009   4.201   2.368  13.752  1.0076 -1.4376 -0.7528
 3791SOL    HW223010   4.075   2.317  13.691 -0.0732 -0.2785 -0.3549
 3792SOL     OW23011   4.311   3.246  14.313  0.0886 -0.1152 -0.4119
 3792SOL    HW123012   4.378   3.190  14.272  1.8320  2.2086 -0.7368
 3792SOL    HW223013   4.234   3.199  14.282 -0.3774 -0.7204  1.6746
 3793SOL     OW23014   1.913   0.117   0.749 -0.3733 -0.0310  0.3942
 3793SOL    HW123015   1.874   0.066   0.678  0.5896 -0.7378  0.3678
 3793SOL    HW223016   1.952   0.193   0.705 -0.4680 -0.1842  0.0465
 3794SOL     OW23017   3.904   0.466  11.637 -0.0885  0.2405  0.0287
 3794SOL    HW123018   3.920   0.439  11.547 -3.2583 -1.3547 -0.0703
 3794SOL    HW223019   3.829   0.526  11.644 -0.4253 -0.1078 -0.6287
 3795SOL     OW23020   3.731   2.733  15.318 -0.1719 -0.3901 -0.3757
 3795SOL    HW123021   3.748   2.820  15.354  4.2068 -1.4977  0.2346
 3795SOL    HW223022   3.771   2.671  15.380 -0.5508  0.7762  1.0426
 3796SOL     OW23023   4.430   2.384  12.941 -0.2212 -0.2450  0.0788
 3796SOL    HW123024   4.372   2.459  12.928  1.2075  0.6698 -1.0841
 3796SOL    HW223025   4.515   2.421  12.915 -0.3478 -1.4625 -2.0657
 3797SOL     OW23026   3.456   3.523   3.858 -0.1676 -0.6278 -0.4170
 3797SOL    HW123027   3.532   3.558   3.904 -0.2033 -0.6456 -0.3446
 3797SOL    HW223028   3.389   3.543   3.923 -0.3037  2.7282 -1.6186
 3798SOL     OW23029   0.897   1.986   7.575  0.3092 -0.3420  0.2339
 3798SOL    HW123030   0.938   1.921   7.632 -1.1417 -2.1582 -0.7930
 3798SOL    HW223031   0.967   2.027   7.524 -1.7160  2.7626  0.0174
 3799SOL     OW23032   1.068   4.464   3.482 -0.3729  0.0833 -0.1076
 3799SOL    HW123033   0.980   4.479   3.515 -0.2130  1.4716 -0.3073
 3799SOL    HW223034   1.122   4.424   3.551  0.3570 -0.1915 -0.8226
 3800SOL     OW23035   2.637   1.439   8.675  0.1744 -0.1045  0.4600
 3800SOL    HW123036   2.677   1.355   8.653  0.7855  0.7132 -1.5150
 3800SOL    HW223037   2.633   1.477   8.588 -1.7023 -1.1205  0.0928
 3801SOL     OW23038   4.050   1.391   8.923  0.5280  0.3288  0.1321
 3801SOL    HW123039   3.992   1.333   8.972 -0.7937  0.6687 -1.0322
 3801SOL    HW223040   4.043   1.360   8.832 -1.8872 -0.4963  0.6078
 3802SOL     OW23041   3.043   1.639   7.615  0.5521  0.0519  0.0850
 3802SOL    HW123042   3.037   1.715   7.673 -0.5960 -0.0755  0.1279
 3802SOL    HW223043   3.090   1.572   7.664  1.1395  2.2934  2.6054
 3803SOL     OW23044   3.211   2.612   4.266  0.2391 -0.0721 -0.3557
 3803SOL    HW123045   3.278   2.616   4.334 -2.1501 -0.2009  2.0282
 3803SOL    HW223046   3.205   2.517   4.264 -1.4113  0.0383 -0.6329
 3804SOL     OW23047   2.626   0.389  16.118  0.1745 -0.4778  0.1565
 3804SOL    HW123048   2.564   0.372  16.047  1.6316  0.2564 -1.2905
 3804SOL    HW223049   2.688   0.450  16.078  1.6638 -1.0268  1.6218
 3805SOL     OW23050   3.903   2.316   8.146 -0.3534  0.0429  0.3458
 3805SOL    HW123051   3.929   2.272   8.065 -0.6181  0.1241  0.2154
 3805SOL    HW223052   3.825   2.362   8.115 -0.4622  0.4812  1.2658
 3806SOL     OW23053   2.597   3.410   1.593 -0.4726 -0.2134  0.2824
 3806SOL    HW123054   2.691   3.411   1.609 -0.5215 -1.5767  0.6722
 3806SOL    HW223055   2.571   3.498   1.619  1.1317  0.1542  0.6129
 3807SOL     OW23056   0.100   2.083  12.167  0.3125 -0.0581 -0.0940
 3807SOL    HW123057   0.080   2.155  12.226  0.2875  0.1241 -0.3265
 3807SOL    HW223058   0.103   2.131  12.084  0.7501  0.5603  0.2770
 3808SOL     OW23059   2.598   2.398   9.379  0.2763  0.1050 -0.1060
 3808SOL    HW123060   2.564   2.387   9.290  1.2268  2.0583 -0.7027
 3808SOL    HW223061   2.550   2.321   9.410  1.6089  0.1241  1.9691
 3809SOL     OW23062   2.807   2.894   2.030 -0.0287 -0.8492  0.2498
 3809SOL    HW123063   2.857   2.890   1.949 -0.1458  0.4575  0.1049
 3809SOL    HW223064   2.877   2.881   2.095  0.0582  1.3115  0.6129
 3810SOL     OW23065   4.698   0.527  16.293 -0.5323  0.4168 -0.1138
 3810SOL    HW123066   4.718   0.574  16.374  2.8624  0.8880 -1.2035
 3810SOL    HW223067   0.013   0.583  16.236 -0.0269 -0.5112 -0.5711
 3811SOL     OW23068   2.825   0.109   6.071 -0.0236  0.5360  0.8186
 3811SOL    HW123069   2.794   0.193   6.037 -1.0696 -0.3207 -0.3365
 3811SOL    HW223070   2.816   0.052   5.995  4.2243  0.0889  0.6682
 3812SOL     OW23071   0.023   0.074   9.909  0.0727 -0.3451  0.1488
 3812SOL    HW123072   0.085   0.146   9.893  1.0979 -0.9824  1.1978
 3812SOL    HW223073   0.042   0.030   9.992  1.9063 -0.4062 -0.3031
 3813SOL     OW23074   0.347   0.730   7.705  0.2068 -0.3514  0.2051
 3813SOL    HW123075   0.274   0.787   7.680 -0.2316 -1.0245 -0.0526
 3813SOL    HW223076   0.407   0.786   7.755 -0.7120 -0.2030  1.1443
 3814SOL     OW23077   0.275   3.091   0.501 -0.3452  0.0876  0.0937
 3814SOL    HW123078   0.227   3.151   0.557 -1.3035 -1.5324  1.0137
 3814SOL    HW223079   0.271   3.126   0.412  0.8226  0.0909  0.0478
 3815SOL     OW23080   3.195   0.869   5.782  0.6540  0.1975 -0.2758
 3815SOL    HW123081   3.222   0.801   5.844 -0.2536 -0.2856 -0.4099
 3815SOL    HW223082   3.279   0.913   5.768 -0.1799  1.2515 -1.9027
 3816SOL     OW23083   2.705   3.583   1.990 -0.1560 -0.0723  0.1045
 3816SOL    HW123084   2.681   3.580   2.083  0.3900 -1.8356  0.1800
 3816SOL    HW223085   2.741   3.672   1.986  0.5928 -0.4476 -1.2680
 3817SOL     OW23086   2.924   0.310   9.542  0.5644 -0.5558  0.0065
 3817SOL    HW123087   2.996   0.373   9.544 -2.3795  2.9224 -3.2857
 3817SOL    HW223088   2.979   0.235   9.519  2.0034  0.7371 -0.7802
 3818SOL     OW23089   4.038   3.293   5.418 -0.3478  0.2589  0.2110
 3818SOL    HW123090   4.097   3.281   5.344  0.2466 -0.7059  0.8372
 3818SOL    HW223091   4.007   3.203   5.430 -1.4202  0.3072 -2.2331
 3819SOL     OW23092   3.805   0.802   3.682  0.5469  0.2781  1.1003
 3819SOL    HW123093   3.736   0.750   3.723  0.9360 -1.3708 -0.3552
 3819SOL    HW223094   3.878   0.770   3.735  2.3112  1.6328 -0.4840
 3820SOL     OW23095   2.376   2.086   2.168  0.3635  0.1573 -0.0453
 3820SOL    HW123096   2.390   2.181   2.161 -1.0613  0.3239 -0.7992
 3820SOL    HW223097   2.468   2.066   2.183 -0.0151 -1.1482  0.4914
 3821SOL     OW23098   0.772   1.697  15.663 -0.1752  0.3540  0.0200
 3821SOL    HW123099   0.706   1.653  15.611  1.3595  1.0826 -2.5292
 3821SOL    HW223100   0.837   1.630  15.686 -2.1619 -1.2161  1.1522
 3822SOL     OW23101   4.457   3.769  12.719 -0.1071  0.0229 -0.3389
 3822SOL    HW123102   4.544   3.806  12.705 -0.2266 -0.6307 -2.7224
 3822SOL    HW223103   4.421   3.821  12.792  2.0975  2.0324 -0.6875
 3823SOL     OW23104   1.799   4.392  12.964  0.0308  0.6268 -0.2930
 3823SOL    HW123105   1.797   4.471  13.018 -0.7213 -0.6357  1.4909
 3823SOL    HW223106   1.735   4.339  13.012 -1.0416  2.5523  0.4422
 3824SOL     OW23107   0.632   4.017   8.033 -0.2676 -0.5558 -0.4178
 3824SOL    HW123108   0.688   4.039   8.108  0.2322 -0.1870 -0.8968
 3824SOL    HW223109   0.665   3.931   8.008  1.7367  0.7331 -2.2021
 3825SOL     OW23110   0.226   3.920   6.274 -0.1742 -0.1951 -0.3580
 3825SOL    HW123111   0.321   3.914   6.272 -0.2735 -1.6261 -0.9369
 3825SOL    HW223112   0.196   3.844   6.323  0.0506 -0.8639 -1.2435
 3826SOL     OW23113   4.278   4.212   5.958 -0.5234  1.1051  0.4985
 3826SOL    HW123114   4.360   4.228   6.005 -0.7710 -0.0561  1.3274
 3826SOL    HW223115   4.282   4.276   5.887 -0.4022 -1.6558 -1.9833
 3827SOL     OW23116   4.594   3.248   0.894  0.2040 -0.5382 -0.0151
 3827SOL    HW123117   4.503   3.261   0.918  0.7516  0.6574  1.4405
 3827SOL    HW223118   4.624   3.338   0.883  1.8412 -1.3054 -1.7719
 3828SOL     OW23119   0.575   1.125   5.395 -0.2470 -0.8412 -0.0975
 3828SOL    HW123120   0.531   1.170   5.323  0.1042  0.4298  0.4746
 3828SOL    HW223121   0.660   1.166   5.377 -0.2270 -0.4124  0.9570
 3829SOL     OW23122   2.693   2.421   4.512  0.0823  0.1207  0.0987
 3829SOL    HW123123   2.737   2.345   4.473 -0.3817 -1.2244  2.1769
 3829SOL    HW223124   2.607   2.418   4.469  0.3031  1.2230 -0.4104
 3830SOL     OW23125   2.589   3.017   3.389 -0.5465  0.6190 -0.3296
 3830SOL    HW123126   2.668   2.996   3.440 -1.8261  0.4769  1.5772
 3830SOL    HW223127   2.555   2.928   3.388 -0.0893  0.4566 -1.2935
 3831SOL     OW23128   2.817   3.358   2.401 -0.1723  0.2146 -0.2378
 3831SOL    HW123129   2.847   3.299   2.332  0.5438 -0.9006  1.0265
 3831SOL    HW223130   2.770   3.296   2.458 -0.4244 -2.1149 -3.0000
 3832SOL     OW23131   3.765   2.547   4.630  0.2088 -0.0414  0.1708
 3832SOL    HW123132   3.808   2.577   4.550  0.5139  0.3242  0.4736
 3832SOL    HW223133   3.838   2.506   4.676 -0.2894 -1.3763 -0.2420
 3833SOL     OW23134   4.700   4.125   8.370  0.1918  0.5784  0.1695
 3833SOL    HW123135   4.726   4.094   8.283 -0.3610 -0.8792  0.5307
 3833SOL    HW223136   0.050   4.143   8.404  1.4096 -2.4875 -1.3206
 3834SOL     OW23137   2.158   4.064   3.964  0.0981 -0.1950  0.1646
 3834SOL    HW123138   2.210   4.144   3.967 -0.2838  0.0603 -0.0671
 3834SOL    HW223139   2.092   4.077   4.032 -1.0105  0.7415 -1.0962
 3835SOL     OW23140   2.627   0.568  15.651 -0.2440 -0.0369  0.0089
 3835SOL    HW123141   2.717   0.599  15.644  1.2811 -4.7629 -1.2694
 3835SOL    HW223142   2.617   0.538  15.561 -0.9302  1.8232 -0.5200
 3836SOL     OW23143   3.264   3.667  10.151 -0.8446 -0.1335 -0.2477
 3836SOL    HW123144   3.227   3.614  10.221 -3.4643  0.3945 -1.2297
 3836SOL    HW223145   3.215   3.747  10.167 -0.9341 -0.0805 -0.7742
 3837SOL     OW23146   1.581   3.203   2.487  0.2389  0.2586 -0.6108
 3837SOL    HW123147   1.579   3.114   2.521  1.5688 -0.2049 -1.7226
 3837SOL    HW223148   1.676   3.214   2.482  0.4556 -0.9738  0.8183
 3838SOL     OW23149   0.340   0.405   2.177  0.6419 -0.0391  0.4495
 3838SOL    HW123150   0.314   0.497   2.183  1.2529  0.2529 -1.3523
 3838SOL    HW223151   0.264   0.367   2.221  0.5993 -0.5776 -0.0914
 3839SOL     OW23152   3.103   3.416   7.404 -0.3155  0.3428  0.4040
 3839SOL    HW123153   3.069   3.470   7.333 -0.4574  0.2997  0.4392
 3839SOL    HW223154   3.039   3.345   7.413 -0.5866  0.4852 -0.3830
 3840SOL     OW23155   2.143   0.367   9.284  0.1234 -0.4224 -0.1910
 3840SOL    HW123156   2.229   0.405   9.269 -0.8390  1.5450 -0.7485
 3840SOL    HW223157   2.102   0.412   9.210  0.0238 -0.2900 -0.0555
 3841SOL     OW23158   3.385   3.631   0.234 -0.4445  0.4397 -0.0936
 3841SOL    HW123159   3.458   3.625   0.296  0.4087  0.6635 -1.0671
 3841SOL    HW223160   3.316   3.670   0.287 -0.1179  2.5636 -1.2316
 3842SOL     OW23161   3.915   1.234  17.570  0.0524  0.0221 -0.2759
 3842SOL    HW123162   3.977   1.271  17.508 -1.2188  1.7665 -0.4891
 3842SOL    HW223163   3.896   1.148  17.534 -1.7524 -1.0482  3.1769
 3843SOL     OW23164   3.032   0.125  11.306  0.0246 -0.4272  0.2284
 3843SOL    HW123165   3.041   0.198  11.367 -2.3550 -0.7320  0.9402
 3843SOL    HW223166   3.063   0.159  11.222  2.5402 -1.4009  0.7660
 3844SOL     OW23167   0.133   4.641  17.195 -0.3847 -0.0344  0.1179
 3844SOL    HW123168   0.055   4.599  17.231 -1.4271  0.3986 -1.6359
 3844SOL    HW223169   0.091   4.715  17.152 -0.5926  0.1279  0.5904
 3845SOL     OW23170   2.357   4.567  17.202  0.1058  0.3044  0.3481
 3845SOL    HW123171   2.337   4.570  17.109  0.9472  0.1091  0.1676
 3845SOL    HW223172   2.430   4.627  17.217 -1.2134  2.5471 -2.0873
 3846SOL     OW23173   1.672   0.536   7.470 -0.5478  0.2089 -0.1323
 3846SOL    HW123174   1.669   0.506   7.379  1.2659  1.1143 -0.4808
 3846SOL    HW223175   1.695   0.628   7.459  1.1935 -0.2232 -0.0633
 3847SOL     OW23176   0.079   0.403  14.657  0.2849 -0.0791  0.0760
 3847SOL    HW123177   0.140   0.474  14.637 -1.0024  1.3180  1.0472
 3847SOL    HW223178   0.125   0.360  14.729 -0.3598 -3.9905 -1.8348
 3848SOL     OW23179   3.393   2.457   0.109 -0.2777 -0.0332  0.0139
 3848SOL    HW123180   3.369   2.525   0.172 -3.5506 -0.4947 -0.7346
 3848SOL    HW223181   3.450   2.405   0.165 -0.2001  0.1860  0.1364
 3849SOL     OW23182   3.004   2.125   8.656  0.0423 -0.5049  0.4515
 3849SOL    HW123183   2.922   2.136   8.704  0.2511 -2.5934  1.2628
 3849SOL    HW223184   2.973   2.126   8.566 -0.2588  0.5662  0.5689
 3850SOL     OW23185   4.044   2.339   2.389  0.0513 -0.2651 -0.9868
 3850SOL    HW123186   4.070   2.315   2.478  0.1633  1.9178 -0.4406
 3850SOL    HW223187   4.078   2.269   2.333  1.2805  0.2731 -0.9262
 3851SOL     OW23188   4.115   2.858   4.117  0.1168  0.1773  0.3903
 3851SOL    HW123189   4.199   2.900   4.095  0.4892 -0.6975  0.1222
 3851SOL    HW223190   4.093   2.901   4.199 -0.6257  1.6911 -0.6061
 3852SOL     OW23191   0.092   0.928   8.604 -0.3113 -0.9337  0.0525
 3852SOL    HW123192   0.019   0.914   8.544  0.0456  1.9448 -1.0455
 3852SOL    HW223193   0.142   0.849   8.582 -0.2372 -1.0757  0.7346
 3853SOL     OW23194   1.620   0.948   9.572 -0.5139 -0.0787  0.3863
 3853SOL    HW123195   1.587   1.033   9.601 -1.5604  0.3367 -2.0027
 3853SOL    HW223196   1.692   0.925   9.631 -0.7047 -0.7899  0.3393
 3854SOL     OW23197   1.342   1.339   0.194 -0.1764  0.3652 -0.1814
 3854SOL    HW123198   1.436   1.337   0.181 -0.1669 -0.1117 -0.0313
 3854SOL    HW223199   1.321   1.415   0.140 -2.2441 -0.5878 -0.7582
 3855SOL     OW23200   3.596   4.563  15.197 -0.3538 -0.1981 -0.1386
 3855SOL    HW123201   3.677   4.580  15.245 -1.3122 -0.0764  1.4351
 3855SOL    HW223202   3.540   4.521  15.262  0.5413 -0.3841  0.5037
 3856SOL     OW23203   1.317   3.970   9.164  0.4876 -0.4937 -0.0872
 3856SOL    HW123204   1.228   3.968   9.201  0.1383  0.0668 -0.8986
 3856SOL    HW223205   1.315   4.055   9.120 -0.0976 -0.0893  0.7125
 3857SOL     OW23206   1.772   1.360  17.283  0.2084 -0.1016 -0.1016
 3857SOL    HW123207   1.830   1.373  17.208 -0.0498  0.7267 -0.1613
 3857SOL    HW223208   1.837   1.346  17.352 -0.1199 -0.1424  0.2044
 3858SOL     OW23209   2.882   4.412   8.033  0.4965  0.0397  0.3373
 3858SOL    HW123210   2.862   4.505   8.025 -0.6789 -0.1775  0.8663
 3858SOL    HW223211   2.875   4.409   8.128 -1.1962  0.8057  0.2273
 3859SOL     OW23212   4.629   0.309  10.247  0.0838 -0.0695 -0.2959
 3859SOL    HW123213   4.607   0.216  10.244 -0.1082 -0.0196 -0.4434
 3859SOL    HW223214   4.540   0.341  10.239 -0.5590 -2.1325 -1.5859
 3860SOL     OW23215   0.687   1.677   0.703  0.3305  0.0562  0.4397
 3860SOL    HW123216   0.613   1.728   0.738 -2.1921 -0.5928 -3.9408
 3860SOL    HW223217   0.638   1.597   0.686  0.5480  0.0528 -0.1616
 3861SOL     OW23218   4.516   3.714   4.647 -0.1808 -0.9128 -0.2268
 3861SOL    HW123219   4.552   3.796   4.680  0.0308 -1.6280  1.3608
 3861SOL    HW223220   4.567   3.711   4.566  0.7151  2.3615  0.2130
 3862SOL     OW23221   2.935   4.251   4.341  0.4814  0.1794  0.3089
 3862SOL    HW123222   2.872   4.277   4.274 -1.3229 -0.5296  1.7463
 3862SOL    HW223223   2.892   4.178   4.386 -2.1514  0.8623 -1.0774
 3863SOL     OW23224   1.703   1.876   1.925 -0.0920 -0.7535  0.1108
 3863SOL    HW123225   1.767   1.810   1.896  0.4168 -0.4934  0.6508
 3863SOL    HW223226   1.752   1.915   1.998 -1.5246 -1.8413  1.6429
 3864SOL     OW23227   1.775   2.128   9.695  0.1743 -0.2946  0.0636
 3864SOL    HW123228   1.784   2.205   9.637  1.3049  0.1775  0.8707
 3864SOL    HW223229   1.869   2.110   9.702 -0.0430 -1.5896 -0.5079
 3865SOL     OW23230   2.995   2.286  13.984 -0.2832 -0.4240 -0.7127
 3865SOL    HW123231   2.924   2.322  13.931 -0.6916  0.7976  0.6662
 3865SOL    HW223232   3.068   2.321  13.932  0.2839 -0.2262  0.2013
 3866SOL     OW23233   3.399   1.684   2.159 -0.6221 -0.1096 -0.5361
 3866SOL    HW123234   3.374   1.639   2.078 -2.2681  2.0103 -1.2229
 3866SOL    HW223235   3.364   1.628   2.229  2.3599 -0.3278  0.7715
 3867SOL     OW23236   3.694   4.100  16.260 -0.3155 -0.5922 -0.0196
 3867SOL    HW123237   3.626   4.086  16.325 -0.4749 -1.0910 -0.2932
 3867SOL    HW223238   3.662   4.041  16.191  0.8536 -0.0877 -0.9817
 3868SOL     OW23239   2.387   1.109   3.029 -0.5081  0.7460 -0.2292
 3868SOL    HW123240   2.441   1.124   3.107  2.0934  0.1942 -1.9075
 3868SOL    HW223241   2.395   1.014   3.024 -1.5697  0.6760 -0.6179
 3869SOL     OW23242   2.619   2.581   6.844  0.4223 -0.6154  0.6090
 3869SOL    HW123243   2.559   2.531   6.788 -0.5040  2.1357 -0.8647
 3869SOL    HW223244   2.694   2.523   6.839 -0.4407 -1.4885 -2.4022
 3870SOL     OW23245   3.186   4.399   3.544  0.3984  0.4137 -0.0228
 3870SOL    HW123246   3.259   4.357   3.590 -0.1041 -0.9760 -0.5139
 3870SOL    HW223247   3.123   4.327   3.547  1.5838 -0.5767  1.0842
 3871SOL     OW23248   0.680   1.832   1.831  0.0225 -0.1798  0.4156
 3871SOL    HW123249   0.724   1.917   1.835  0.4497 -0.3230 -1.1259
 3871SOL    HW223250   0.593   1.870   1.844 -1.4157 -3.1836 -0.5025
 3872SOL     OW23251   0.917   2.318   6.954  0.0110 -0.3571  0.9052
 3872SOL    HW123252   0.989   2.265   6.920 -0.6900 -0.2250 -0.7949
 3872SOL    HW223253   0.948   2.325   7.044 -0.8073  0.6099  1.1053
 3873SOL     OW23254   3.315   1.346  14.690 -0.1699 -0.1206  0.4390
 3873SOL    HW123255   3.313   1.356  14.785  3.7408  0.6670  0.4555
 3873SOL    HW223256   3.387   1.285  14.672 -0.0249 -0.0790  0.8810
 3874SOL     OW23257   2.696   2.855  16.206 -0.6295 -0.0563 -0.2271
 3874SOL    HW123258   2.646   2.909  16.266  0.2595 -0.3738  0.7913
 3874SOL    HW223259   2.635   2.781  16.199 -1.1515  0.2465  1.2602
 3875SOL     OW23260   0.038   4.206  15.237  0.6642 -0.4357  0.1412
 3875SOL    HW123261   0.112   4.171  15.287 -0.5619  0.1032  2.3124
 3875SOL    HW223262   4.706   4.154  15.279  0.8538 -1.3980 -0.7394
 3876SOL     OW23263   3.064   3.053   7.421  0.0374  0.0117  0.1187
 3876SOL    HW123264   3.148   3.067   7.376  0.3641 -0.6555  0.5288
 3876SOL    HW223265   3.026   2.991   7.359  2.4213 -0.1814 -1.1763
 3877SOL     OW23266   0.296   0.136  10.185 -0.1195 -0.2934 -0.4337
 3877SOL    HW123267   0.335   0.049  10.173  0.3992 -0.2116  0.7456
 3877SOL    HW223268   0.203   0.114  10.195 -0.5131  2.7564  2.5788
 3878SOL     OW23269   0.943   1.534  15.050  1.1423  0.4484  0.1090
 3878SOL    HW123270   0.996   1.524  15.129  1.7715  0.2461 -0.3351
 3878SOL    HW223271   0.864   1.484  15.068  2.2325 -1.2074  0.3488
 3879SOL     OW23272   3.589   4.349  16.598  0.0282  0.3423 -0.1592
 3879SOL    HW123273   3.663   4.350  16.537  0.0210 -0.6525 -0.1829
 3879SOL    HW223274   3.546   4.276  16.553  1.0157  0.9114 -2.0276
 3880SOL     OW23275   0.010   3.363   3.165  0.0555 -0.1787  0.2536
 3880SOL    HW123276   0.058   3.409   3.096 -0.7671 -0.3190 -0.4078
 3880SOL    HW223277   0.029   3.272   3.147  0.1497 -0.3848  1.3906
 3881SOL     OW23278   3.743   2.167   4.602 -0.1626 -0.0539  0.4914
 3881SOL    HW123279   3.795   2.228   4.550 -0.4165  0.9926  1.4545
 3881SOL    HW223280   3.689   2.120   4.539  0.3995  0.7062 -0.5452
 3882SOL     OW23281   4.026   2.518   4.768  0.1900 -0.2413  0.1175
 3882SOL    HW123282   4.079   2.453   4.721 -1.8991 -1.9120  0.0491
 3882SOL    HW223283   4.089   2.559   4.827 -0.2798  0.0787  0.3950
 3883SOL     OW23284   0.633   2.908   2.979 -0.0338  0.1663  0.1393
 3883SOL    HW123285   0.690   2.838   2.949 -1.7259 -0.4834 -1.6418
 3883SOL    HW223286   0.701   2.966   3.011 -0.4419  0.9993 -0.4931
 3884SOL     OW23287   0.414   1.232   7.689  0.0867  0.1819 -0.1451
 3884SOL    HW123288   0.331   1.218   7.643 -1.2971  2.1075  1.7596
 3884SOL    HW223289   0.434   1.323   7.668 -2.3142  1.3051  2.4030
 3885SOL     OW23290   4.104   2.235   9.105  0.3342  0.3143  0.2233
 3885SOL    HW123291   4.163   2.159   9.111  1.6102  1.2283 -0.8501
 3885SOL    HW223292   4.063   2.240   9.191 -0.8723 -0.1179 -0.3202
 3886SOL     OW23293   2.578   0.969   2.108  0.3962 -0.3620 -0.2306
 3886SOL    HW123294   2.608   1.059   2.123  2.1852 -1.1187  0.7207
 3886SOL    HW223295   2.549   0.955   2.198  0.5156  1.9297  0.1652
 3887SOL     OW23296   0.158   3.173  15.886 -0.4318  0.1396  0.3683
 3887SOL    HW123297   0.100   3.116  15.836 -1.2292 -0.0818  1.5459
 3887SOL    HW223298   0.108   3.189  15.967  1.8596 -2.9445  2.3664
 3888SOL     OW23299   2.773   4.691  14.852  0.1161  0.0182 -0.2824
 3888SOL    HW123300   2.790   4.608  14.808  2.6525  0.6299 -0.4723
 3888SOL    HW223301   2.767   4.666  14.944  0.6882  1.3041  0.1067
 3889SOL     OW23302   0.828   0.747   5.016 -0.5513  0.1496  0.3775
 3889SOL    HW123303   0.737   0.774   5.028 -0.8615 -1.8653  2.6260
 3889SOL    HW223304   0.815   0.655   5.040  0.0940 -0.5845 -2.2078
 3890SOL     OW23305   4.096   0.587   2.130  0.5769 -0.1011  0.1054
 3890SOL    HW123306   4.047   0.661   2.166  2.2964  0.9716  0.2661
 3890SOL    HW223307   4.176   0.607   2.179  1.6833 -1.0963 -1.3066
 3891SOL     OW23308   2.671   1.942   1.532  0.2629 -0.2068 -0.2054
 3891SOL    HW123309   2.656   1.991   1.614  0.8552 -3.1006  1.6236
 3891SOL    HW223310   2.596   1.968   1.478  0.9458  3.1778  0.4569
 3892SOL     OW23311   2.705   2.087  14.551 -0.0715 -0.3844 -0.2554
 3892SOL    HW123312   2.638   2.152  14.529 -0.3614 -0.2242  1.1008
 3892SOL    HW223313   2.784   2.140  14.561  0.6914 -1.5880  0.0595
 3893SOL     OW23314   0.907   3.334  12.799 -0.1022 -0.5634 -0.2291
 3893SOL    HW123315   0.880   3.256  12.751 -1.0471 -0.5027  0.2004
 3893SOL    HW223316   0.994   3.348  12.762 -1.0569 -0.9527 -2.6256
 3894SOL     OW23317   0.736   0.402   2.181 -0.1718 -0.0591  0.3673
 3894SOL    HW123318   0.820   0.363   2.156 -0.9202 -1.2502 -0.2871
 3894SOL    HW223319   0.751   0.496   2.173  0.0186 -0.1726 -0.6119
 3895SOL     OW23320   1.322   1.911  14.715 -0.5570 -0.0312 -0.2327
 3895SOL    HW123321   1.359   1.907  14.803 -0.0447 -0.4378 -0.4656
 3895SOL    HW223322   1.256   1.981  14.720 -0.7983 -0.2445 -0.4311
 3896SOL     OW23323   1.493   2.265   6.533 -0.0415  0.3429 -0.4675
 3896SOL    HW123324   1.539   2.342   6.567  0.2496 -0.5711  1.1957
 3896SOL    HW223325   1.508   2.203   6.604  2.5472  0.1252 -1.1962
 3897SOL     OW23326   1.856   0.314   4.294 -0.2258  0.4516 -0.0167
 3897SOL    HW123327   1.894   0.272   4.216 -2.8809  0.5420 -1.3427
 3897SOL    HW223328   1.871   0.246   4.359 -1.1012  1.4165  1.1921
 3898SOL     OW23329   2.193   1.097   6.149  0.5535 -0.5655 -0.3786
 3898SOL    HW123330   2.199   1.189   6.124  2.2051 -0.7128 -0.4925
 3898SOL    HW223331   2.099   1.079   6.138  0.6667 -0.7253 -1.0824
 3899SOL     OW23332   0.802   1.225   5.323  0.0603 -0.2363  0.1261
 3899SOL    HW123333   0.819   1.319   5.318  2.0997 -0.6160 -0.0657
 3899SOL    HW223334   0.817   1.197   5.233  0.4956 -0.1461  0.1718
 3900SOL     OW23335   1.255   3.753   5.066  0.1484  0.6854 -0.3017
 3900SOL    HW123336   1.181   3.785   5.117  1.2787 -1.5932  2.7525
 3900SOL    HW223337   1.281   3.683   5.125  0.3096 -0.0045 -1.1984
 3901SOL     OW23338   0.229   1.752  10.259 -0.4275  0.1433 -0.4715
 3901SOL    HW123339   0.200   1.752  10.350 -3.1095  1.9686 -1.3411
 3901SOL    HW223340   0.152   1.793  10.221 -1.6256 -1.3235  0.3758
 3902SOL     OW23341   0.508   3.174   3.139 -0.2823  0.1311 -0.2643
 3902SOL    HW123342   0.522   3.084   3.110 -1.3628 -0.2931  0.5559
 3902SOL    HW223343   0.584   3.185   3.197 -0.6186 -3.4535  0.8656
 3903SOL     OW23344   2.734   4.370   7.244  0.5189 -0.0146  0.4172
 3903SOL    HW123345   2.708   4.455   7.209 -0.4497  0.0352  1.2589
 3903SOL    HW223346   2.644   4.338   7.252  1.2965 -2.0365  1.1079
 3904SOL     OW23347   3.540   2.468  15.544  0.3814 -0.4066 -0.8277
 3904SOL    HW123348   3.573   2.402  15.484 -0.7835 -2.0196  0.3157
 3904SOL    HW223349   3.607   2.450  15.610 -0.1619  1.9025  0.3572
 3905SOL     OW23350   2.049   3.652   2.041 -0.3456  0.3039 -0.5199
 3905SOL    HW123351   2.069   3.561   2.016 -1.3129 -0.3826  1.2315
 3905SOL    HW223352   2.124   3.694   1.998 -1.8753  1.7641 -1.7400
 3906SOL     OW23353   0.404   4.629   8.720  0.2349  0.3780 -0.2771
 3906SOL    HW123354   0.372   4.563   8.659  0.2934 -1.1721  1.3723
 3906SOL    HW223355   0.324   4.668   8.754  0.1446 -2.1737  2.3812
 3907SOL     OW23356   1.637   3.682   5.465  0.2315  0.4641 -0.3705
 3907SOL    HW123357   1.690   3.670   5.544  1.1315  0.8416 -0.9128
 3907SOL    HW223358   1.689   3.741   5.411  1.2260 -0.0486  0.0290
 3908SOL     OW23359   0.443   1.825   5.620  0.3542 -0.1545  0.1763
 3908SOL    HW123360   0.390   1.787   5.551  1.1177 -0.1360 -0.4193
 3908SOL    HW223361   0.412   1.915   5.627 -0.4337 -0.5240  1.4480
 3909SOL     OW23362   3.057   0.884   3.057 -0.1124  0.1007  0.5418
 3909SOL    HW123363   2.989   0.952   3.060 -1.6316 -1.4664  1.3577
 3909SOL    HW223364   3.023   0.826   3.124 -1.2203  0.4004  0.2458
 3910SOL     OW23365   2.937   0.159   6.327 -0.2267 -0.0467 -0.3444
 3910SOL    HW123366   2.907   0.161   6.236 -0.2319 -1.5090 -0.3667
 3910SOL    HW223367   3.026   0.125   6.317  0.2933  0.9962  0.6558
 3911SOL     OW23368   2.273   2.836   7.289  0.1701 -0.4739  0.0060
 3911SOL    HW123369   2.300   2.752   7.253 -0.6020  0.1435 -2.0439
 3911SOL    HW223370   2.239   2.886   7.214  2.2301 -2.3584 -2.1857
 3912SOL     OW23371   4.636   1.832   4.338 -0.2877  0.5096  0.4407
 3912SOL    HW123372   4.583   1.763   4.377 -0.8165 -1.1125 -3.1715
 3912SOL    HW223373   4.609   1.825   4.247 -0.1670  1.1747  0.3498
 3913SOL     OW23374   2.849   3.246   0.355  0.5974 -0.5065  1.0501
 3913SOL    HW123375   2.838   3.152   0.368  0.1257 -0.4416  1.0999
 3913SOL    HW223376   2.922   3.265   0.414  1.5684  1.3812 -0.7453
 3914SOL     OW23377   1.055   1.418   9.678  0.3810  0.0123  0.1596
 3914SOL    HW123378   1.124   1.355   9.656  0.6366  0.8258 -1.3521
 3914SOL    HW223379   0.983   1.368   9.717 -0.1998 -1.0992 -2.3181
 3915SOL     OW23380   0.403   3.702  17.075  0.3160 -0.5247  0.3651
 3915SOL    HW123381   0.475   3.679  17.016  0.3374  1.8377 -0.5196
 3915SOL    HW223382   0.462   3.745  17.137  0.0349  3.1294 -1.8578
 3916SOL     OW23383   3.660   2.938   7.698  0.7973 -0.8421  0.1129
 3916SOL    HW123384   3.649   2.966   7.789  0.8444  0.0793 -0.1644
 3916SOL    HW223385   3.580   2.886   7.701  1.0571 -1.1542  1.7593
 3917SOL     OW23386   1.701   2.711   5.939  0.0859 -0.0340  0.5014
 3917SOL    HW123387   1.760   2.776   5.977 -0.6520  0.2350  1.1781
 3917SOL    HW223388   1.752   2.660   5.876 -0.6565 -2.2651  1.7089
 3918SOL     OW23389   4.430   0.145   3.721 -0.1990 -0.7761 -0.1462
 3918SOL    HW123390   4.390   0.201   3.789 -2.5696 -1.1131 -1.2579
 3918SOL    HW223391   4.389   0.061   3.739  0.5707 -1.2919 -0.8778
 3919SOL     OW23392   0.233   1.219   3.325  0.1276 -0.1785  0.1500
 3919SOL    HW123393   0.191   1.148   3.375  0.9212 -0.0434  1.0283
 3919SOL    HW223394   0.186   1.218   3.242 -1.9933  0.9865  1.3351
 3920SOL     OW23395   2.162   2.663   2.683  0.3223 -0.5126 -0.0868
 3920SOL    HW123396   2.196   2.734   2.737 -1.9898  0.0220  0.6875
 3920SOL    HW223397   2.118   2.614   2.753  0.8826 -0.6534  0.1660
 3921SOL     OW23398   1.633   2.853   3.455 -0.4866  0.3861 -0.3661
 3921SOL    HW123399   1.707   2.898   3.496 -0.1605  1.0355 -1.6508
 3921SOL    HW223400   1.567   2.880   3.519 -1.9704  0.8073 -2.0840
 3922SOL     OW23401   0.953   0.319  11.146  0.5959 -0.1099 -0.1384
 3922SOL    HW123402   0.923   0.367  11.069 -0.0534 -0.2718  0.0147
 3922SOL    HW223403   0.986   0.388  11.203  0.6329 -0.2986  0.0663
 3923SOL     OW23404   0.453   1.982   3.105 -0.2460  0.1645 -0.0357
 3923SOL    HW123405   0.525   2.023   3.153  0.3661 -1.2227  0.2221
 3923SOL    HW223406   0.493   1.902   3.069  0.8100  0.4118  0.5835
 3924SOL     OW23407   2.003   1.978   5.255 -0.2213  0.4389 -0.4271
 3924SOL    HW123408   1.953   2.042   5.306 -0.0882  0.0337  0.2053
 3924SOL    HW223409   2.042   1.930   5.328  0.1319  2.1521  0.4957
 3925SOL     OW23410   3.941   4.487   2.821 -0.7118  0.2598  0.3639
 3925SOL    HW123411   4.035   4.480   2.807 -1.0378  0.3030 -1.9504
 3925SOL    HW223412   3.939   4.497   2.916  3.6352  0.3807  0.4129
 3926SOL     OW23413   2.020   0.388  14.306 -0.4785  0.2509 -0.1052
 3926SOL    HW123414   2.079   0.380  14.231  0.5069  1.5132  0.5353
 3926SOL    HW223415   2.021   0.299  14.339  1.4498  0.1563 -0.4205
 3927SOL     OW23416   3.676   0.168   6.228  0.4213  0.3332  0.2970
 3927SOL    HW123417   3.589   0.191   6.261  0.5836  0.9172  0.3110
 3927SOL    HW223418   3.648   0.096   6.170  0.1591  1.5492 -1.0850
 3928SOL     OW23419   0.396   0.576   2.729  0.0964  0.1952 -0.0850
 3928SOL    HW123420   0.306   0.578   2.763 -0.0816 -0.0012 -0.5523
 3928SOL    HW223421   0.380   0.565   2.635 -0.2143  1.5570 -0.1834
 3929SOL     OW23422   4.645   2.278   9.632 -0.0184  0.9682 -0.3265
 3929SOL    HW123423   4.588   2.354   9.641 -1.0722  0.3183 -1.5626
 3929SOL    HW223424   4.718   2.304   9.690 -1.0774  0.0422  1.4399
 3930SOL     OW23425   1.200   1.851  10.771 -0.4772 -0.3550  0.3608
 3930SOL    HW123426   1.215   1.760  10.747 -0.2147 -0.3742  0.5970
 3930SOL    HW223427   1.105   1.850  10.783 -0.8177 -0.5956 -2.3595
 3931SOL     OW23428   3.398   3.154   4.503  0.2680 -0.0879 -0.1074
 3931SOL    HW123429   3.467   3.217   4.481  1.7577 -1.2830  1.1013
 3931SOL    HW223430   3.353   3.196   4.576 -1.0231 -0.1736 -0.8614
 3932SOL     OW23431   1.760   1.699   9.704 -0.0136 -0.4139  0.0184
 3932SOL    HW123432   1.757   1.722   9.797  0.8560  2.0943 -0.5786
 3932SOL    HW223433   1.821   1.625   9.705 -0.5753 -0.8792 -0.3602
 3933SOL     OW23434   4.400   4.592   4.072 -0.1597 -0.6132  0.1080
 3933SOL    HW123435   4.307   4.612   4.057  0.2818  2.1193  1.0186
 3933SOL    HW223436   4.401   4.497   4.065 -3.2891 -0.6402  0.1016
 3934SOL     OW23437   4.610   3.707   5.746  0.2947 -0.4817  0.2778
 3934SOL    HW123438   4.671   3.778   5.766 -0.5631 -0.0388  1.3596
 3934SOL    HW223439   4.527   3.738   5.784  0.3164  0.0324 -0.1039
 3935SOL     OW23440   1.810   4.539   1.195 -0.8304  0.1455  0.3028
 3935SOL    HW123441   1.849   4.458   1.163 -1.5225  0.3585 -1.0788
 3935SOL    HW223442   1.825   4.598   1.121 -0.5945  0.9459  0.9872
 3936SOL     OW23443   1.114   4.582  13.159  0.0911 -0.0439 -0.0305
 3936SOL    HW123444   1.101   4.662  13.108  1.7523 -0.6422 -1.3856
 3936SOL    HW223445   1.067   4.517  13.107  2.9236 -0.9677 -1.4362
 3937SOL     OW23446   3.750   3.723   2.823 -0.1633 -0.6160 -0.3141
 3937SOL    HW123447   3.789   3.744   2.738 -1.2175  1.2828 -0.3274
 3937SOL    HW223448   3.729   3.631   2.808  1.0535 -0.7016 -1.5262
 3938SOL     OW23449   2.023   2.968  16.485  0.9017  0.0887 -0.0264
 3938SOL    HW123450   2.031   3.002  16.396  1.1114  1.5788  0.5642
 3938SOL    HW223451   1.929   2.952  16.480  0.6384  1.5363  0.2772
 3939SOL     OW23452   3.091   1.176   5.207 -0.2269  0.0035  0.3392
 3939SOL    HW123453   3.099   1.204   5.298  0.4758  0.9097 -0.0027
 3939SOL    HW223454   3.084   1.081   5.214 -0.6652  0.0646  0.6549
 3940SOL     OW23455   1.959   4.519   9.478  0.0332  0.8807 -0.0211
 3940SOL    HW123456   1.931   4.597   9.526  1.2374  1.9960 -1.1285
 3940SOL    HW223457   1.939   4.544   9.388  0.7454 -0.3853 -0.5294
 3941SOL     OW23458   3.369   3.408   2.029  0.1804 -0.2816 -0.2373
 3941SOL    HW123459   3.411   3.329   1.995 -3.8391 -1.5166 -2.4315
 3941SOL    HW223460   3.306   3.379   2.095  0.2918 -1.4663 -0.6422
 3942SOL     OW23461   3.691   2.198  11.181 -0.1593  0.1182  0.3035
 3942SOL    HW123462   3.675   2.110  11.216  0.2760  0.4195  1.2650
 3942SOL    HW223463   3.605   2.236  11.161 -0.7265 -0.8202  0.9429
 3943SOL     OW23464   3.160   4.420   2.378  0.2065  0.2429 -0.3970
 3943SOL    HW123465   3.076   4.386   2.411  0.7417 -1.1120 -0.4342
 3943SOL    HW223466   3.204   4.440   2.461  1.9625  0.2445 -1.3364
 3944SOL     OW23467   1.748   1.856   2.588 -0.4870 -0.9553 -0.7379
 3944SOL    HW123468   1.826   1.902   2.556  0.3374 -2.5760 -1.1228
 3944SOL    HW223469   1.719   1.906   2.664  1.8672  0.9356 -1.0689
 3945SOL     OW23470   3.981   2.922   5.673  0.4781  0.0853  0.0755
 3945SOL    HW123471   4.010   2.864   5.743  1.8669 -1.7490 -2.0324
 3945SOL    HW223472   3.999   3.009   5.710 -1.6536  1.2736 -1.6774
 3946SOL     OW23473   1.706   3.427   3.926 -0.3176 -0.2513  0.1575
 3946SOL    HW123474   1.742   3.451   3.841 -1.1263 -0.9617 -0.3895
 3946SOL    HW223475   1.778   3.460   3.979 -0.7732  0.6882  0.1841
 3947SOL     OW23476   1.275   1.933   4.417 -0.2630 -0.0637  0.2321
 3947SOL    HW123477   1.250   2.019   4.386 -2.1030 -1.1013 -1.1418
 3947SOL    HW223478   1.330   1.914   4.341 -0.9830  0.5619 -0.4429
 3948SOL     OW23479   3.911   2.356  10.093  0.3822 -0.3351 -0.2276
 3948SOL    HW123480   3.880   2.276  10.135  0.5726 -0.1403  0.2870
 3948SOL    HW223481   4.004   2.345  10.113  0.2186 -2.2318 -0.5658
 3949SOL     OW23482   1.096   1.643   4.351  0.8356  0.2872 -0.2720
 3949SOL    HW123483   1.165   1.659   4.416  1.5587  0.0221 -0.9734
 3949SOL    HW223484   1.019   1.671   4.400  1.4499 -0.7499  1.2874
 3950SOL     OW23485   3.234   3.107   9.365  0.0884  0.0503  0.2233
 3950SOL    HW123486   3.268   3.034   9.417  0.0605  0.3879  0.7202
 3950SOL    HW223487   3.143   3.078   9.365 -0.5033  1.9150  1.0847
 3951SOL     OW23488   2.609   4.708   5.173 -0.0519 -0.0445 -0.1116
 3951SOL    HW123489   2.620   4.620   5.136 -0.2425 -0.8251  1.6606
 3951SOL    HW223490   2.556   4.689   5.251 -1.5235 -0.8137 -1.2867
 3952SOL     OW23491   1.910   2.299   2.797 -0.0229  0.7030 -0.0897
 3952SOL    HW123492   1.959   2.242   2.856  2.8598  2.7495 -0.4596
 3952SOL    HW223493   1.849   2.228   2.779 -0.3909  1.2892 -1.1300
 3953SOL     OW23494   1.482   1.073   5.904 -0.4119  0.3596 -0.1268
 3953SOL    HW123495   1.468   1.091   5.997  0.0684 -4.0743  0.8111
 3953SOL    HW223496   1.396   1.074   5.861  0.5924  1.1482 -2.0800
 3954SOL     OW23497   2.626   0.369   6.233 -0.1120 -0.0902 -0.0157
 3954SOL    HW123498   2.630   0.383   6.139 -1.3866  1.0132  0.0938
 3954SOL    HW223499   2.659   0.453   6.265 -1.4504  0.8511 -1.1318
 3955SOL     OW23500   4.187   4.378   7.631  0.4344  0.2107 -0.0411
 3955SOL    HW123501   4.128   4.447   7.659  1.1028  1.1917 -1.0804
 3955SOL    HW223502   4.171   4.312   7.699 -1.7240 -0.5391 -1.2500
 3956SOL     OW23503   3.122   1.778   3.150 -0.4218  0.3421 -0.2396
 3956SOL    HW123504   3.195   1.800   3.093  0.2148  0.2216  0.5364
 3956SOL    HW223505   3.130   1.849   3.213 -0.3802 -1.2766  1.5854
 3957SOL     OW23506   0.950   0.262   8.180 -0.4750 -0.6172 -0.4012
 3957SOL    HW123507   0.947   0.203   8.256  0.7152 -0.7290 -0.4386
 3957SOL    HW223508   1.006   0.331   8.215 -0.4300 -0.4606 -0.7770
 3958SOL     OW23509   4.682   2.621   8.572 -0.0403 -0.6887 -0.1023
 3958SOL    HW123510   4.700   2.715   8.566 -2.3870 -0.2063  0.2515
 3958SOL    HW223511   4.588   2.614   8.553  0.2703 -0.2983 -1.7756
 3959SOL     OW23512   1.863   1.316   9.448  0.2655  0.7788  0.3806
 3959SOL    HW123513   1.902   1.238   9.490  0.2380  1.8659  2.4473
 3959SOL    HW223514   1.799   1.286   9.385  0.9575  2.1607 -0.9764
 3960SOL     OW23515   2.090   1.578  13.927  0.0642  0.4997  0.1383
 3960SOL    HW123516   2.012   1.523  13.920  1.3171 -1.0890 -1.4074
 3960SOL    HW223517   2.101   1.594  13.833 -1.5529  0.2027 -0.1048
 3961SOL     OW23518   4.239   4.128  17.726 -0.0348  0.5826  0.6262
 3961SOL    HW123519   4.327   4.131  17.688 -0.1393 -1.0573  0.2851
 3961SOL    HW223520   4.230   4.224  17.734 -1.6951  0.4743 -0.0441
 3962SOL     OW23521   0.590   4.159  13.058  0.2317 -0.3144 -0.5081
 3962SOL    HW123522   0.630   4.173  12.972 -0.6365  0.3600 -0.8078
 3962SOL    HW223523   0.653   4.097  13.093 -0.1920 -1.2630 -1.4466
 3963SOL     OW23524   3.203   2.638   1.113 -0.3209  0.5069  0.4948
 3963SOL    HW123525   3.135   2.644   1.180  0.2417 -2.8138  1.3441
 3963SOL    HW223526   3.240   2.724   1.131 -0.4682  0.4429  1.1063
 3964SOL     OW23527   2.294   1.793   6.192  0.1555 -0.2210 -0.2243
 3964SOL    HW123528   2.211   1.798   6.146 -0.0955 -2.4057 -0.0049
 3964SOL    HW223529   2.359   1.759   6.131 -0.2338 -0.1232 -0.6930
 3965SOL     OW23530   0.046   4.051   9.245 -0.6703 -0.1656 -0.1112
 3965SOL    HW123531   0.081   3.962   9.240 -0.6973  0.0517 -3.8877
 3965SOL    HW223532   0.065   4.087   9.159  2.8059  0.1946  0.7904
 3966SOL     OW23533   1.072   2.103   7.816 -0.6027  0.6655  0.3114
 3966SOL    HW123534   1.162   2.092   7.785  0.1217  1.2517  2.2288
 3966SOL    HW223535   1.056   2.193   7.788 -4.9510 -0.0166  0.6974
 3967SOL     OW23536   0.821   1.361   9.827 -0.7200  0.2513  0.6590
 3967SOL    HW123537   0.788   1.326   9.744 -0.8721  1.5360  0.1863
 3967SOL    HW223538   0.746   1.400   9.873 -0.3825 -0.4403  1.8057
 3968SOL     OW23539   0.917   2.043   2.361 -0.3653 -0.4361 -0.3705
 3968SOL    HW123540   0.858   2.054   2.436  0.3721  0.4382  0.0775
 3968SOL    HW223541   1.007   2.057   2.390  0.3728 -1.7699 -2.0255
 3969SOL     OW23542   3.079   4.000  15.832 -0.6582  0.4428 -0.3154
 3969SOL    HW123543   3.016   4.004  15.904  2.5255 -0.2216  2.4728
 3969SOL    HW223544   3.027   3.995  15.751  1.4138  0.2098 -1.6198
 3970SOL     OW23545   3.453   0.065   1.213 -0.1772  0.3189 -0.0146
 3970SOL    HW123546   3.360   0.049   1.232 -0.3615  1.4662  0.0814
 3970SOL    HW223547   3.490   0.031   1.294 -0.0777 -0.0158 -0.2023
 3971SOL     OW23548   1.490   3.545  15.053  0.2526  0.2405 -0.4087
 3971SOL    HW123549   1.583   3.536  15.074 -0.0758 -0.1356  0.9003
 3971SOL    HW223550   1.446   3.499  15.124  0.5853 -0.6321 -0.7658
 3972SOL     OW23551   3.932   3.190   4.857  0.1871  0.2192 -0.7666
 3972SOL    HW123552   4.024   3.197   4.882  0.5961 -0.7867 -2.0028
 3972SOL    HW223553   3.926   3.098   4.832 -1.9525  0.1992 -0.1783
 3973SOL     OW23554   1.804   1.061   7.805  0.1358  0.5476 -0.0272
 3973SOL    HW123555   1.824   1.146   7.767 -0.4563  0.7906  0.2079
 3973SOL    HW223556   1.875   1.056   7.869 -1.0573  1.1841  1.3585
 3974SOL     OW23557   4.505   0.868   5.140 -0.4185  0.5387  0.4805
 3974SOL    HW123558   4.492   0.946   5.086  0.3221  0.9191  0.8436
 3974SOL    HW223559   4.580   0.888   5.197 -0.2736 -0.5502  0.6667
 3975SOL     OW23560   0.178   4.498   8.304 -0.4329  0.1643  0.2000
 3975SOL    HW123561   0.147   4.438   8.236  0.1101  1.7172 -1.4263
 3975SOL    HW223562   0.270   4.472   8.306 -0.8754 -1.2322  2.2019
 3976SOL     OW23563   0.813   1.145   5.055  0.2412  0.2607  0.5949
 3976SOL    HW123564   0.903   1.122   5.030 -0.8807 -4.6204  1.0393
 3976SOL    HW223565   0.758   1.145   4.976  0.9603  2.2566  0.0928
 3977SOL     OW23566   0.655   1.687   5.688 -0.3971  0.2508 -0.3306
 3977SOL    HW123567   0.588   1.752   5.667 -0.3907  0.1199 -0.7615
 3977SOL    HW223568   0.600   1.611   5.707  1.0700 -0.4414  1.1285
 3978SOL     OW23569   2.740   0.405   7.638  0.2108 -0.2560 -0.4884
 3978SOL    HW123570   2.725   0.425   7.730 -0.7116 -0.6878 -0.5418
 3978SOL    HW223571   2.651   0.376   7.617  0.3923 -0.4654 -0.9822
 3979SOL     OW23572   0.236   3.123  16.979 -0.2736  0.1244  0.2717
 3979SOL    HW123573   0.185   3.184  16.925 -0.6291 -1.9065 -1.6874
 3979SOL    HW223574   0.205   3.033  16.972 -3.2008  1.3752 -2.6460
 3980SOL     OW23575   3.124   3.857   6.693  0.3674  0.0333  0.2665
 3980SOL    HW123576   3.195   3.904   6.736  1.3440 -0.1915 -1.1211
 3980SOL    HW223577   3.114   3.904   6.611 -0.2685 -1.5483 -0.5644
 3981SOL     OW23578   1.660   2.922   7.464 -0.4319  0.0681  0.0617
 3981SOL    HW123579   1.633   2.841   7.507  2.5242 -2.7407 -3.3242
 3981SOL    HW223580   1.574   2.965   7.458 -0.9242 -0.5431  2.7065
 3982SOL     OW23581   0.797   2.620  14.564  0.7566 -0.2500 -0.1687
 3982SOL    HW123582   0.832   2.622  14.475 -0.7814  1.9934 -0.7109
 3982SOL    HW223583   0.757   2.533  14.563  0.1714  0.0398 -2.0586
 3983SOL     OW23584   0.145   2.475   1.936  0.1335 -0.1629 -0.2325
 3983SOL    HW123585   0.101   2.507   2.015 -0.5729 -0.4411 -0.5081
 3983SOL    HW223586   0.082   2.498   1.868 -0.0767  1.1533  0.4067
 3984SOL     OW23587   0.850   2.034   1.690 -0.4450  0.1925  0.4379
 3984SOL    HW123588   0.801   2.071   1.764  0.8679  0.1039  1.3557
 3984SOL    HW223589   0.929   2.083   1.712 -0.4460  0.8215 -0.9620
 3985SOL     OW23590   4.642   1.247  15.309  0.4983  0.2875  0.1894
 3985SOL    HW123591   4.650   1.312  15.378 -1.0257  3.2157 -2.3823
 3985SOL    HW223592   4.666   1.167  15.356  0.3246 -1.0064 -1.9391
 3986SOL     OW23593   1.318   1.070  12.989 -0.0894  0.2087  0.1845
 3986SOL    HW123594   1.230   1.105  13.003  0.2049  0.9489  0.1807
 3986SOL    HW223595   1.370   1.134  13.037 -1.7345  2.6539 -1.2650
 3987SOL     OW23596   2.848   0.429   9.103 -0.3104 -0.1164  0.0700
 3987SOL    HW123597   2.913   0.443   9.035 -0.6963 -2.3480 -0.7613
 3987SOL    HW223598   2.891   0.457   9.184  0.7189 -1.3869 -0.0353
 3988SOL     OW23599   0.549   2.889   6.270  0.0988 -0.7307 -0.0312
 3988SOL    HW123600   0.511   2.854   6.350  0.4622  1.9904  1.3146
 3988SOL    HW223601   0.502   2.839   6.202 -2.0977 -2.4933  2.7715
 3989SOL     OW23602   3.108   2.979   8.583  0.5379 -0.0566 -1.0212
 3989SOL    HW123603   3.197   2.974   8.550  0.5431 -1.6762 -0.7856
 3989SOL    HW223604   3.105   3.065   8.625 -0.9614 -0.6381  0.0828
 3990SOL     OW23605   0.169   1.490   2.298  0.3389 -0.0788 -0.1397
 3990SOL    HW123606   0.254   1.459   2.330 -1.0492 -2.1342  1.5829
 3990SOL    HW223607   0.197   1.568   2.251 -1.6983  0.1251 -0.9919
 3991SOL     OW23608   2.345   0.293   0.476 -0.5296  0.0744 -0.0445
 3991SOL    HW123609   2.339   0.231   0.549 -3.5443  2.5009  1.7789
 3991SOL    HW223610   2.370   0.232   0.407  0.0475  0.8247 -0.5029
 3992SOL     OW23611   0.704   1.278   4.565  0.4210  0.3510  0.0254
 3992SOL    HW123612   0.730   1.368   4.585 -1.9005  0.8805  0.6620
 3992SOL    HW223613   0.787   1.234   4.583  1.9994  2.8280 -1.2034
 3993SOL     OW23614   4.665   1.383  16.914  0.0281 -0.5631 -0.6401
 3993SOL    HW123615   4.646   1.366  16.821 -1.3314 -1.7520 -0.1526
 3993SOL    HW223616   4.654   1.294  16.948 -0.8375  0.7851  2.5797
 3994SOL     OW23617   4.677   0.079   2.209 -0.8089  0.0949  0.6498
 3994SOL    HW123618   4.618   0.152   2.193 -0.4032  0.5649  1.3153
 3994SOL    HW223619   4.668   0.031   2.127  0.0399  0.1145  0.5452
 3995SOL     OW23620   3.672   0.670  11.669  0.3524 -0.1709 -0.6227
 3995SOL    HW123621   3.659   0.764  11.681 -1.0992 -0.3026 -1.1814
 3995SOL    HW223622   3.619   0.662  11.590  0.7704  3.0488 -1.2135
 3996SOL     OW23623   3.790   4.584   8.790  0.1519  0.0269 -0.1957
 3996SOL    HW123624   3.834   4.621   8.713  1.2715 -1.3965 -0.2400
 3996SOL    HW223625   3.745   4.509   8.751 -1.6665 -0.1358  2.2261
 3997SOL     OW23626   1.538   0.184  11.179  0.2938 -0.1166  0.0993
 3997SOL    HW123627   1.482   0.116  11.142  1.6478 -1.9608  1.4383
 3997SOL    HW223628   1.596   0.120  11.220  1.4054  1.9315  1.7143
 3998SOL     OW23629   4.159   4.651   7.389 -0.1673  0.4041 -0.3377
 3998SOL    HW123630   4.223   4.695   7.445  0.4309  1.1050 -1.5663
 3998SOL    HW223631   4.112   4.589   7.444 -0.0371  2.1277  1.6925
 3999SOL     OW23632   0.921   3.525   3.075 -0.8638 -0.0991  0.2580
 3999SOL    HW123633   0.841   3.496   3.118 -1.0020 -2.1291 -1.3533
 3999SOL    HW223634   0.969   3.557   3.151 -0.6277  0.4799 -0.1345
 4000SOL     OW23635   1.779   0.640  16.467  0.1331  0.0252  0.3771
 4000SOL    HW123636   1.829   0.624  16.387  1.9085  1.6934  1.1700
 4000SOL    HW223637   1.740   0.725  16.446  1.7810  1.2041  2.1051
 4001SOL     OW23638   3.919   2.381   7.555 -0.1071  0.4884 -0.4907
 4001SOL    HW123639   3.978   2.315   7.518 -0.6939 -1.0057  1.2859
 4001SOL    HW223640   3.988   2.434   7.594  0.8450  1.5943 -3.6164
 4002SOL     OW23641   3.175   0.261  15.304 -0.0088  0.0319  0.0384
 4002SOL    HW123642   3.175   0.199  15.377  0.0538 -0.8410 -0.7029
 4002SOL    HW223643   3.182   0.212  15.222 -2.1306 -2.3335  1.2415
 4003SOL     OW23644   0.415   1.441  15.334  0.3492 -0.4848  0.0544
 4003SOL    HW123645   0.442   1.519  15.287 -0.5088 -0.8260 -1.0143
 4003SOL    HW223646   0.385   1.379  15.268 -1.6749  0.0900  0.4478
 4004SOL     OW23647   1.893   2.354  12.172 -0.0263  0.1103 -0.8909
 4004SOL    HW123648   1.833   2.428  12.179 -0.2688 -0.1720 -0.0467
 4004SOL    HW223649   1.932   2.350  12.259 -0.8072 -1.3636 -0.6017
 4005SOL     OW23650   2.511   1.045  13.527 -0.6477 -0.2695 -0.2730
 4005SOL    HW123651   2.416   1.039  13.515 -0.4720 -2.4527 -0.5614
 4005SOL    HW223652   2.528   1.074  13.437  1.0687 -1.3642 -0.3039
 4006SOL     OW23653   0.362   3.749   3.272 -0.0615  0.0819 -0.2314
 4006SOL    HW123654   0.357   3.844   3.263 -2.6665  0.0133  0.7019
 4006SOL    HW223655   0.449   3.735   3.310  0.7968  1.3161 -1.7052
 4007SOL     OW23656   4.626   1.362   4.471  0.0479  0.5219  0.3965
 4007SOL    HW123657   4.597   1.305   4.542  0.2071  0.8094  0.6894
 4007SOL    HW223658   4.710   1.393   4.504  0.5560  1.5698 -1.8956
 4008SOL     OW23659   2.929   2.371   7.983  0.9815  0.1672 -0.1130
 4008SOL    HW123660   2.881   2.305   7.932  1.4312 -0.6434  0.5258
 4008SOL    HW223661   3.005   2.396   7.931  2.1984  1.5287  2.3528
 4009SOL     OW23662   0.406   1.662  10.075  0.4380 -0.4687  0.0159
 4009SOL    HW123663   0.417   1.744  10.027  3.6366  0.4551  2.3064
 4009SOL    HW223664   0.334   1.686  10.134 -0.4460 -0.8377 -0.9175
 4010SOL     OW23665   0.126   2.590  15.542  0.2134  0.3647  0.2486
 4010SOL    HW123666   0.217   2.614  15.525 -0.3463  2.5656  0.2508
 4010SOL    HW223667   0.122   2.605  15.637  2.1412 -0.0858  0.4041
 4011SOL     OW23668   4.500   1.287   6.302 -0.2863 -0.2009 -0.2039
 4011SOL    HW123669   4.424   1.312   6.354  1.5139 -0.7703  2.6897
 4011SOL    HW223670   4.554   1.354   6.346 -1.2946 -1.1363  2.4119
 4012SOL     OW23671   3.206   4.003   8.448  0.0773  0.1039 -0.0864
 4012SOL    HW123672   3.299   3.989   8.469  0.7103  1.9547 -1.7167
 4012SOL    HW223673   3.170   3.917   8.469 -0.7365  0.9278  2.0002
 4013SOL     OW23674   3.287   0.562   5.244 -0.0998 -0.3131  0.2924
 4013SOL    HW123675   3.290   0.656   5.230  1.2664 -0.2394  0.9989
 4013SOL    HW223676   3.202   0.538   5.207  0.2809  0.8698 -1.3614
 4014SOL     OW23677   0.010   4.373   4.119 -0.4743 -0.8043 -0.4709
 4014SOL    HW123678   4.706   4.431   4.184  0.0977 -0.0141 -0.8126
 4014SOL    HW223679   0.031   4.432   4.046  1.6996 -1.7453 -0.5924
 4015SOL     OW23680   2.672   2.129   9.899  0.0794  0.1906  0.2854
 4015SOL    HW123681   2.678   2.120   9.994 -0.4259 -1.1316  0.1859
 4015SOL    HW223682   2.762   2.153   9.878 -0.5321 -1.3136 -4.1498
 4016SOL     OW23683   3.213   3.746   0.436  0.4099 -0.0812 -0.0036
 4016SOL    HW123684   3.222   3.728   0.529  0.2033  0.0460  0.0383
 4016SOL    HW223685   3.128   3.709   0.412  0.7927 -0.4156 -0.8550
 4017SOL     OW23686   2.597   0.287   9.108 -0.4837 -0.1128 -0.0521
 4017SOL    HW123687   2.573   0.316   9.196 -0.3693 -0.6404  0.1517
 4017SOL    HW223688   2.675   0.338   9.084 -0.1243  0.2450  1.8501
 4018SOL     OW23689   2.877   4.293   2.736  0.1158  0.3852  0.2248
 4018SOL    HW123690   2.903   4.277   2.827  0.1676 -1.5534 -0.1468
 4018SOL    HW223691   2.866   4.387   2.752 -0.8811  0.2393  0.4104
 4019SOL     OW23692   4.588   4.612   3.590  0.4008 -0.0797 -0.5048
 4019SOL    HW123693   4.555   4.697   3.559  0.3102  0.7498  1.8620
 4019SOL    HW223694   4.598   4.578   3.501 -1.9337  0.6588 -1.0492
 4020SOL     OW23695   0.560   2.675  15.784  0.2108  0.2981  0.1032
 4020SOL    HW123696   0.576   2.704  15.874  0.6194 -3.2970  1.1946
 4020SOL    HW223697   0.649   2.653  15.758  0.3603 -0.7692  1.5369
 4021SOL     OW23698   2.063   0.895   1.558  0.7221 -0.4774  0.2774
 4021SOL    HW123699   2.063   0.879   1.463 -1.2453 -0.2717  0.2596
 4021SOL    HW223700   1.969   0.912   1.564  0.9363  0.1544  1.8622
 4022SOL     OW23701   3.537   4.208   9.686 -0.0015 -0.1413  0.1890
 4022SOL    HW123702   3.597   4.189   9.758 -0.1762  1.6358  0.8286
 4022SOL    HW223703   3.570   4.135   9.634 -1.5568  0.5929 -1.8273
 4023SOL     OW23704   4.270   3.777   7.277  0.0197  0.1359  0.2932
 4023SOL    HW123705   4.214   3.766   7.200  0.6405 -0.5961 -0.0487
 4023SOL    HW223706   4.292   3.690   7.308 -1.8544  0.2191  1.8990
 4024SOL     OW23707   3.566   2.892   5.569  0.1882  0.1094  0.2964
 4024SOL    HW123708   3.565   2.958   5.638  0.3288  0.1617  0.2483
 4024SOL    HW223709   3.610   2.821   5.615 -1.6208 -1.4895 -0.4579
 4025SOL     OW23710   3.214   1.480   7.751  0.2929 -0.3783 -0.4175
 4025SOL    HW123711   3.252   1.432   7.678 -0.0476 -1.8042  0.3285
 4025SOL    HW223712   3.168   1.413   7.802  0.0024  0.3275  0.2493
 4026SOL     OW23713   2.918   2.342   4.920 -0.0578  0.2652 -0.0280
 4026SOL    HW123714   2.892   2.355   5.011  0.5429  0.1188  0.1688
 4026SOL    HW223715   2.894   2.249   4.914  0.2462  0.1207  0.9853
 4027SOL     OW23716   4.076   1.126   2.621  0.2882  0.3236  0.3274
 4027SOL    HW123717   4.100   1.191   2.555  2.0969 -0.1366  0.5449
 4027SOL    HW223718   4.029   1.174   2.689 -0.3840  0.8651 -0.5094
 4028SOL     OW23719   4.189   3.923   7.828  0.0620  0.1662  0.6590
 4028SOL    HW123720   4.262   3.909   7.768 -0.6437  2.0640 -0.6406
 4028SOL    HW223721   4.211   3.851   7.887  0.5530  0.3198  0.6550
 4029SOL     OW23722   1.338   0.266   8.071  0.1667 -0.1797 -0.0209
 4029SOL    HW123723   1.432   0.259   8.053  1.0432  1.7075  3.7924
 4029SOL    HW223724   1.327   0.312   8.154  0.8677 -0.3147  0.1493
 4030SOL     OW23725   3.917   0.594   7.421 -0.2880 -0.0901 -0.0463
 4030SOL    HW123726   3.972   0.631   7.352  2.6645  2.5718  3.7683
 4030SOL    HW223727   3.927   0.666   7.483  1.1494  2.0677 -2.7651
 4031SOL     OW23728   4.126   0.795   8.342 -0.1904  0.1402  0.4402
 4031SOL    HW123729   4.159   0.867   8.396  0.3445 -2.2776  3.3350
 4031SOL    HW223730   4.187   0.725   8.363 -0.4089 -0.3856 -0.6826
 4032SOL     OW23731   4.139   0.929   4.344 -0.8195  0.7526  0.0742
 4032SOL    HW123732   4.072   0.903   4.281 -0.6057 -2.1578  1.0621
 4032SOL    HW223733   4.137   1.021   4.315 -3.5582  0.7757  0.3816
 4033SOL     OW23734   2.557   2.675   5.120  0.0744 -0.1983 -0.8873
 4033SOL    HW123735   2.490   2.691   5.187  2.2423  0.1819  1.1787
 4033SOL    HW223736   2.504   2.641   5.048 -0.6615  0.2419 -0.5501
 4034SOL     OW23737   3.086   3.926   3.710  0.2226  0.0314 -0.5913
 4034SOL    HW123738   3.018   3.883   3.657 -0.4511 -0.5901  0.7931
 4034SOL    HW223739   3.039   3.988   3.765  0.6392  0.4310 -0.6904
 4035SOL     OW23740   0.651   4.001  12.115  0.4075  0.0398 -0.4300
 4035SOL    HW123741   0.723   3.940  12.100  3.3723  3.1977  0.8990
 4035SOL    HW223742   0.614   3.957  12.192  0.5915 -1.4853 -1.2181
 4036SOL     OW23743   4.219   3.175   5.191 -0.4845  0.1853 -0.5184
 4036SOL    HW123744   4.200   3.140   5.104  3.0213 -0.5654 -0.9833
 4036SOL    HW223745   4.291   3.233   5.169  0.1124 -0.6238 -0.7080
 4037SOL     OW23746   1.141   3.262   1.615 -0.5135 -0.2857 -0.5807
 4037SOL    HW123747   1.111   3.346   1.651  0.9305 -0.4424  0.9985
 4037SOL    HW223748   1.234   3.251   1.636 -0.2000  0.9580 -1.3033
 4038SOL     OW23749   2.200   2.864   1.078 -0.0835  0.2988  0.0254
 4038SOL    HW123750   2.274   2.897   1.028 -0.8606  2.4969  0.3443
 4038SOL    HW223751   2.158   2.804   1.016 -0.1866  3.5376 -3.0101
 4039SOL     OW23752   3.605   3.721   0.052 -0.5002 -0.2581  0.1064
 4039SOL    HW123753   3.522   3.709   0.099  1.0298  0.1931  2.9310
 4039SOL    HW223754   3.653   3.640   0.067 -0.2942 -0.5095 -1.9153
 4040SOL     OW23755   2.757   1.058   5.327  0.6700  0.1057 -1.0178
 4040SOL    HW123756   2.725   1.069   5.416 -0.3943 -2.1722 -1.1121
 4040SOL    HW223757   2.705   1.122   5.278 -0.9057 -1.1189 -0.9395
 4041SOL     OW23758   0.515   3.918  11.889 -0.4996 -0.0510 -0.2310
 4041SOL    HW123759   0.547   3.988  11.831  2.4860 -1.5352 -0.3706
 4041SOL    HW223760   0.579   3.922  11.959 -1.5340 -0.3796  0.7372
 4042SOL     OW23761   2.858   4.348   5.189  0.3217  0.0327  0.1770
 4042SOL    HW123762   2.778   4.380   5.147 -1.1067 -1.9329  1.4399
 4042SOL    HW223763   2.853   4.253   5.201 -0.5001  0.2584  1.5624
 4043SOL     OW23764   0.054   2.978   4.592  0.6381 -0.0163 -0.1183
 4043SOL    HW123765   0.012   3.062   4.609  1.2408  0.1717  0.4366
 4043SOL    HW223766   0.100   3.003   4.512 -0.8983 -0.0436 -0.9909
 4044SOL     OW23767   1.331   0.022   2.078  0.5489 -0.4450  0.4740
 4044SOL    HW123768   1.367   0.090   2.021  0.2917  0.2900  1.1863
 4044SOL    HW223769   1.289   4.696   2.020 -0.8746  0.1127  0.9182
 4045SOL     OW23770   0.042   2.496  17.410 -0.0724 -0.0368  0.1940
 4045SOL    HW123771   4.686   2.475  17.421 -0.8946  2.2650 -2.3825
 4045SOL    HW223772   0.065   2.468  17.499  1.6011  1.0746  0.0957
 4046SOL     OW23773   3.271   3.584   8.266 -0.0007 -0.4170  0.3200
 4046SOL    HW123774   3.188   3.583   8.312 -0.5914  2.1409 -0.6839
 4046SOL    HW223775   3.277   3.677   8.240 -1.1455  0.0937  1.9136
 4047SOL     OW23776   3.064   0.105   9.443 -0.1498 -0.4920  0.0638
 4047SOL    HW123777   3.031   0.017   9.460  1.6866 -1.4131 -1.1887
 4047SOL    HW223778   3.157   0.088   9.431  0.4515  0.7682  2.9118
 4048SOL     OW23779   2.378   0.493   9.269  0.7314  0.1480  0.2800
 4048SOL    HW123780   2.455   0.513   9.216 -1.8523 -0.9989 -3.8798
 4048SOL    HW223781   2.416   0.436   9.336  1.5556 -1.0789 -1.2442
 4049SOL     OW23782   2.769   1.055  14.401 -0.0479  0.2596  0.5540
 4049SOL    HW123783   2.836   1.112  14.364  0.1106 -1.1526 -1.3526
 4049SOL    HW223784   2.729   1.112  14.466  1.2906  0.9827  0.7393
 4050SOL     OW23785   1.772   2.526  11.166  0.9127 -0.1621 -0.1934
 4050SOL    HW123786   1.701   2.527  11.230  2.5223 -1.0747  1.5851
 4050SOL    HW223787   1.846   2.560  11.217 -0.2237 -0.8902  1.9416
 4051SOL     OW23788   2.498   2.508  12.331 -0.1959 -0.2712  0.2922
 4051SOL    HW123789   2.418   2.486  12.283  1.3768 -2.2182 -1.4305
 4051SOL    HW223790   2.484   2.597  12.363  1.2183 -0.4779  1.4922
 4052SOL     OW23791   0.707   2.637   4.367 -0.4453 -0.0033 -0.3289
 4052SOL    HW123792   0.771   2.657   4.299  0.4484  0.3469  0.6091
 4052SOL    HW223793   0.630   2.619   4.314 -1.3065 -0.7783  1.1944
 4053SOL     OW23794   2.632   3.391   4.776  0.1588 -0.7621  0.7872
 4053SOL    HW123795   2.694   3.339   4.826  0.2479 -0.4359  1.0134
 4053SOL    HW223796   2.634   3.344   4.692 -1.9492  1.2760 -0.3929
 4054SOL     OW23797   1.925   0.040   1.822 -0.0180  0.8252 -0.4012
 4054SOL    HW123798   1.843   0.041   1.772 -0.5454  1.2583  0.4794
 4054SOL    HW223799   1.986   0.010   1.755  0.9749  1.8928  0.0532
 4055SOL     OW23800   0.405   4.115   5.513  0.0352 -0.1241 -0.0311
 4055SOL    HW123801   0.459   4.135   5.437  1.4843 -0.4834  0.8894
 4055SOL    HW223802   0.445   4.028   5.523  0.4068  0.2048  1.3686
 4056SOL     OW23803   1.215   0.423   5.945 -0.4411  0.1353  0.4688
 4056SOL    HW123804   1.264   0.425   6.027  0.2774 -2.9751  0.0945
 4056SOL    HW223805   1.144   0.362   5.967 -1.4617  1.6844  1.5492
 4057SOL     OW23806   2.796   4.448  14.963  0.5454 -0.1753  0.0264
 4057SOL    HW123807   2.748   4.402  15.031  3.2259 -2.1948  0.5430
 4057SOL    HW223808   2.882   4.406  14.970  0.0909 -0.8669  1.5013
 4058SOL     OW23809   3.359   4.363   8.024  0.3352  0.1037  0.5684
 4058SOL    HW123810   3.270   4.327   8.020  0.2833  0.2297  0.5723
 4058SOL    HW223811   3.386   4.332   8.111  0.3518  0.1750  0.5883
 4059SOL     OW23812   2.170   3.365   2.031  0.1781 -0.2166  0.2991
 4059SOL    HW123813   2.133   3.340   2.116  0.9093 -0.3941  0.5645
 4059SOL    HW223814   2.206   3.285   1.994  0.9677 -0.0238  0.6515
 4060SOL     OW23815   2.840   3.608   9.328 -0.1425 -0.1930 -0.2697
 4060SOL    HW123816   2.906   3.565   9.382 -1.6826  0.0798  1.8586
 4060SOL    HW223817   2.869   3.588   9.240  0.4005 -1.6713  0.2533
 4061SOL     OW23818   3.510   1.161   7.657 -0.0177  0.1663 -0.2810
 4061SOL    HW123819   3.590   1.111   7.641  0.4670  0.5440  0.9383
 4061SOL    HW223820   3.442   1.110   7.614 -0.0957 -1.0831  1.3182
 4062SOL     OW23821   3.759   2.736   8.056  0.0129  0.0987 -0.1201
 4062SOL    HW123822   3.770   2.718   8.150 -1.6191  3.5290  0.7232
 4062SOL    HW223823   3.687   2.799   8.063 -1.1058 -1.3180  1.3067
 4063SOL     OW23824   1.735   1.960   9.038  0.1865 -0.0536  0.3141
 4063SOL    HW123825   1.686   1.949   9.119 -0.0832 -1.0229  0.0127
 4063SOL    HW223826   1.743   2.054   9.019 -1.5680 -0.0526 -0.3896
 4064SOL     OW23827   2.583   3.695  15.123  0.5411  1.0690 -0.4182
 4064SOL    HW123828   2.642   3.625  15.153  1.3131  1.9590  0.1423
 4064SOL    HW223829   2.599   3.684  15.030 -0.0871 -0.2008 -0.3708
 4065SOL     OW23830   4.492   3.699   6.429  0.3964  0.0231  0.2158
 4065SOL    HW123831   4.568   3.650   6.398 -0.3155 -0.3271 -0.9946
 4065SOL    HW223832   4.468   3.751   6.352  0.9850 -1.7110 -1.1507
 4066SOL     OW23833   1.540   4.568  17.486 -0.3148 -1.2675  0.1415
 4066SOL    HW123834   1.511   4.647  17.441  1.4079 -0.4844  0.4161
 4066SOL    HW223835   1.575   4.516  17.414 -1.5932 -1.8541 -0.0695
 4067SOL     OW23836   1.435   0.193   6.023 -0.7619  0.0770  0.0390
 4067SOL    HW123837   1.439   0.202   5.928 -1.2398  2.4319  0.2419
 4067SOL    HW223838   1.356   0.246   6.034 -0.5733  0.4046 -0.2202
 4068SOL     OW23839   0.947   4.417   4.785  0.1220 -0.9267  0.1999
 4068SOL    HW123840   0.874   4.393   4.728  0.4886 -1.2751 -0.1145
 4068SOL    HW223841   1.009   4.468   4.733  1.8436  0.7622  3.9036
 4069SOL     OW23842   2.545   2.737   2.318 -0.0278 -0.2423  0.1607
 4069SOL    HW123843   2.487   2.761   2.246 -2.0174  0.3811  1.9830
 4069SOL    HW223844   2.482   2.708   2.384  0.6125  0.4828  1.0965
 4070SOL     OW23845   2.314   3.957  12.983  0.0202 -0.5645 -0.4849
 4070SOL    HW123846   2.329   3.974  13.076 -1.1891  1.2677 -0.6380
 4070SOL    HW223847   2.263   4.032  12.954 -0.1309 -0.7224 -0.6315
 4071SOL     OW23848   1.671   3.268   7.796  0.1767 -0.3530  0.1185
 4071SOL    HW123849   1.671   3.184   7.842  1.4844 -0.3310  0.1397
 4071SOL    HW223850   1.587   3.310   7.815  1.0837  1.2012  0.6575
 4072SOL     OW23851   3.605   0.504   8.019  0.6029  0.3587  0.1143
 4072SOL    HW123852   3.675   0.444   8.047  2.2191  1.5209 -1.4299
 4072SOL    HW223853   3.554   0.519   8.098 -1.0872  0.7821 -1.0674
 4073SOL     OW23854   4.259   2.972   5.377 -0.7844  0.2319  0.4428
 4073SOL    HW123855   4.327   3.028   5.415  0.2812 -1.9575  1.7585
 4073SOL    HW223856   4.224   3.032   5.312 -2.4676 -2.4171 -1.0934
 4074SOL     OW23857   2.345   1.844   2.950 -0.2425 -0.2866 -0.1251
 4074SOL    HW123858   2.435   1.873   2.963 -0.1406 -0.4358 -0.5092
 4074SOL    HW223859   2.354   1.776   2.884 -2.9526  0.6972 -1.4604
 4075SOL     OW23860   2.125   4.291   8.344  0.3727 -0.1005  0.2531
 4075SOL    HW123861   2.186   4.219   8.328  0.8045  0.2885  0.1407
 4075SOL    HW223862   2.185   4.366   8.340  1.8276 -1.2343  0.3838
 4076SOL     OW23863   0.246   1.912  12.390 -0.5583 -0.2041  0.3237
 4076SOL    HW123864   0.217   1.982  12.332 -0.3997 -0.5457 -0.1699
 4076SOL    HW223865   0.176   1.915  12.456 -1.6029 -0.5289 -0.7805
 4077SOL     OW23866   2.293   2.968   3.884  0.4063  0.1918 -0.2940
 4077SOL    HW123867   2.219   2.965   3.825  1.3510  0.7341 -1.5042
 4077SOL    HW223868   2.244   2.973   3.966  1.4910  0.8169  0.3321
 4078SOL     OW23869   2.973   2.653   8.884 -0.1847 -0.2795  0.6315
 4078SOL    HW123870   3.050   2.705   8.861 -0.5500  0.5233  1.2155
 4078SOL    HW223871   2.971   2.603   8.803  2.3716  1.1285 -0.2982
 4079SOL     OW23872   0.198   3.204  17.259 -0.9975  0.3577 -0.1534
 4079SOL    HW123873   0.225   3.294  17.240  1.2970  0.1769  2.2054
 4079SOL    HW223874   0.223   3.162  17.177 -0.8766 -1.0407  0.6092
 4080SOL     OW23875   0.928   4.266   1.964  0.1726  0.4780 -0.3036
 4080SOL    HW123876   1.019   4.237   1.971  0.2517  1.2017  1.5238
 4080SOL    HW223877   0.926   4.337   2.028 -0.3492  0.3408 -0.1695
 4081SOL     OW23878   0.395   3.828   2.456  0.0929 -0.2141  0.1331
 4081SOL    HW123879   0.397   3.920   2.428 -0.7228 -0.5470 -1.0264
 4081SOL    HW223880   0.450   3.783   2.392  0.7289  0.3394  0.2855
 4082SOL     OW23881   2.976   0.531   9.326 -0.3200 -0.0987 -0.2667
 4082SOL    HW123882   3.032   0.606   9.304 -0.2972 -0.2932 -0.8498
 4082SOL    HW223883   3.015   0.502   9.408  0.7343 -0.6691 -0.9705
 4083SOL     OW23884   0.966   0.633   9.409  0.2200 -0.3393  0.1548
 4083SOL    HW123885   0.922   0.717   9.423 -0.4011 -0.8751  1.4095
 4083SOL    HW223886   0.952   0.597   9.496 -1.5389 -1.4591 -0.5766
 4084SOL     OW23887   1.548   1.701   9.956  0.2060  0.2253  0.2168
 4084SOL    HW123888   1.618   1.635   9.961  1.0685  1.0378 -1.2328
 4084SOL    HW223889   1.590   1.776   9.914  3.5964 -1.8112 -0.0492
 4085SOL     OW23890   2.586   1.642   0.391 -0.4387 -0.0778 -0.1151
 4085SOL    HW123891   2.602   1.700   0.317  1.8989 -0.6067 -0.0272
 4085SOL    HW223892   2.493   1.654   0.408 -0.4889  0.7051 -0.9695
 4086SOL     OW23893   0.720   3.009   8.620 -0.5406  0.6737  0.0062
 4086SOL    HW123894   0.729   3.039   8.529  1.3573 -0.0555 -0.0602
 4086SOL    HW223895   0.684   2.922   8.602  1.6962 -0.0513 -1.0038
 4087SOL     OW23896   3.393   4.550   3.781  0.1853 -0.0633 -0.3654
 4087SOL    HW123897   3.351   4.563   3.867  0.4989 -0.6883 -0.1155
 4087SOL    HW223898   3.360   4.460   3.770  1.7841 -0.9960  2.4494
 4088SOL     OW23899   4.683   0.103   1.697 -0.0730  0.0288 -0.0112
 4088SOL    HW123900   4.702   0.168   1.764  0.7287  1.2124 -1.3958
 4088SOL    HW223901   4.595   0.128   1.667 -1.2056  0.0842  3.3642
 4089SOL     OW23902   4.214   0.004   2.507 -0.2261 -0.8501  0.2720
 4089SOL    HW123903   4.244   0.031   2.594 -2.3528 -2.7722  1.6171
 4089SOL    HW223904   4.249   0.077   2.457 -2.6746 -0.6011 -1.0748
 4090SOL     OW23905   2.657   0.423   5.019  0.4585 -0.1329  0.0318
 4090SOL    HW123906   2.619   0.373   4.947 -0.4249 -0.5747  0.8038
 4090SOL    HW223907   2.679   0.352   5.080 -1.3086  0.7015  1.6210
 4091SOL     OW23908   3.831   2.051   8.557  0.4435  0.0800  0.3285
 4091SOL    HW123909   3.749   2.036   8.509  0.5382  0.3681  0.0810
 4091SOL    HW223910   3.790   2.084   8.637  0.5662 -1.3316  0.9706
 4092SOL     OW23911   4.086   2.186   8.554 -0.7617  0.1783 -0.2261
 4092SOL    HW123912   4.010   2.136   8.585 -0.6881  1.4171  1.9284
 4092SOL    HW223913   4.099   2.245   8.628  0.2827 -1.0868  0.5950
 4093SOL     OW23914   3.665   0.134   3.010 -0.7320  0.2007 -0.1806
 4093SOL    HW123915   3.717   0.165   2.936 -0.1337 -0.1579  0.0892
 4093SOL    HW223916   3.693   0.044   2.998 -0.9155  0.4001 -2.0408
 4094SOL     OW23917   2.605   2.413   5.419 -0.5987 -0.0470 -0.1124
 4094SOL    HW123918   2.549   2.463   5.478 -0.0341 -1.0719  1.2880
 4094SOL    HW223919   2.672   2.474   5.389 -0.1166 -1.1466 -1.3025
 4095SOL     OW23920   2.273   1.784  11.566 -0.3830  0.3158  0.6230
 4095SOL    HW123921   2.364   1.808  11.582  0.0327 -0.8758  0.0326
 4095SOL    HW223922   2.232   1.868  11.587  1.1454  1.2287 -0.0257
 4096SOL     OW23923   3.201   2.733   5.529  0.5710 -0.1149  0.6766
 4096SOL    HW123924   3.279   2.731   5.473  0.4257 -4.2144  0.6042
 4096SOL    HW223925   3.233   2.677   5.599 -3.2756 -1.6773  1.1354
 4097SOL     OW23926   3.938   2.399   5.308  0.6471 -0.6727  0.2733
 4097SOL    HW123927   3.886   2.381   5.230  1.4899  0.1155 -0.4627
 4097SOL    HW223928   4.027   2.393   5.274 -0.2250  4.5691 -2.9431
 4098SOL     OW23929   4.582   3.205   1.561  0.5448  0.3820  0.1981
 4098SOL    HW123930   4.628   3.250   1.490 -0.9020  1.6617  0.0530
 4098SOL    HW223931   4.583   3.116   1.527  1.1526  1.4513 -2.5789
 4099SOL     OW23932   2.251   1.852   1.741  0.0637 -0.3034  0.5005
 4099SOL    HW123933   2.225   1.919   1.677  1.1850 -0.4290 -0.0895
 4099SOL    HW223934   2.297   1.900   1.810  3.4776  0.3578 -2.2864
 4100SOL     OW23935   1.232   1.214   9.966  0.0910 -0.4742  0.5496
 4100SOL    HW123936   1.248   1.219  10.060  0.0270  1.4402  0.4693
 4100SOL    HW223937   1.291   1.286   9.940  1.5262 -1.4380  1.1550
 4101SOL     OW23938   1.625   0.194   5.550  0.3976 -0.1289  0.3382
 4101SOL    HW123939   1.663   0.138   5.482  0.5502 -0.2774  0.5460
 4101SOL    HW223940   1.700   0.236   5.592  1.4300 -2.2189  0.5708
 4102SOL     OW23941   0.594   3.822   5.871  0.1355  0.2716 -0.8710
 4102SOL    HW123942   0.527   3.768   5.914  0.3265  0.5679 -0.2125
 4102SOL    HW223943   0.663   3.759   5.852 -0.2096  0.1537 -1.7448
 4103SOL     OW23944   3.209   4.378  16.015 -0.0152 -0.3295 -0.0757
 4103SOL    HW123945   3.284   4.370  16.073  0.2590 -0.5226 -0.4532
 4103SOL    HW223946   3.225   4.467  15.985  0.4633 -0.0464  1.0421
 4104SOL     OW23947   0.152   0.381  10.151  0.2038 -0.1816 -0.2880
 4104SOL    HW123948   0.063   0.357  10.175 -0.3258  2.1042  0.0079
 4104SOL    HW223949   0.200   0.300  10.169  1.1360  0.5087  0.3686
 4105SOL     OW23950   0.960   3.655  12.174 -0.3504  0.6994  0.4654
 4105SOL    HW123951   0.943   3.578  12.229 -0.4108  1.6517  1.7682
 4105SOL    HW223952   1.056   3.657  12.166 -0.3873 -0.6615 -0.4518
 4106SOL     OW23953   3.651   4.318   8.057  0.4606  0.2663 -0.3600
 4106SOL    HW123954   3.591   4.390   8.075  1.0339  0.4885  0.6449
 4106SOL    HW223955   3.723   4.316   8.120  0.5546 -0.3755 -0.4861
 4107SOL     OW23956   1.543   4.305   9.323  0.1502 -0.1824 -0.4851
 4107SOL    HW123957   1.554   4.215   9.291  1.4549  0.2211 -1.1854
 4107SOL    HW223958   1.528   4.300   9.417 -2.1484  0.8822 -0.7900
 4108SOL     OW23959   2.558   2.671   3.996  0.2443 -0.0953 -0.0521
 4108SOL    HW123960   2.541   2.682   4.090 -2.0756 -0.5315 -0.4234
 4108SOL    HW223961   2.472   2.649   3.960  0.0199 -2.2761  1.8261
 4109SOL     OW23962   3.590   0.444   3.004  0.4366  0.2567  0.0926
 4109SOL    HW123963   3.677   0.484   3.000  0.0304  1.2814  1.8197
 4109SOL    HW223964   3.619   0.367   3.053  1.2795  1.6746  1.7872
 4110SOL     OW23965   0.583   2.803  16.056 -0.0166 -0.0516  0.2181
 4110SOL    HW123966   0.645   2.833  16.122  2.3321  0.2890 -2.1779
 4110SOL    HW223967   0.603   2.710  16.049  2.3225  0.2340  2.9130
 4111SOL     OW23968   1.256   0.814   5.122 -0.4092  0.0754  0.1956
 4111SOL    HW123969   1.241   0.720   5.113  0.7550 -0.2423  1.5819
 4111SOL    HW223970   1.345   0.820   5.088 -0.2497  2.0067  0.9418
 4112SOL     OW23971   3.327   0.858   2.430 -0.3149 -0.6200 -0.5397
 4112SOL    HW123972   3.351   0.766   2.428  1.0052 -0.2246 -2.2398
 4112SOL    HW223973   3.247   0.863   2.378  1.1218 -3.2750 -3.0039
 4113SOL     OW23974   3.373   0.163   2.961  0.6337 -0.4448 -0.0511
 4113SOL    HW123975   3.338   0.117   3.037 -1.6728  0.2397 -0.7107
 4113SOL    HW223976   3.466   0.150   2.978  0.8906  0.4052 -0.7914
 4114SOL     OW23977   0.039   3.337   7.770  0.3439 -0.1582 -0.2946
 4114SOL    HW123978   0.060   3.423   7.806 -0.2651 -0.0171 -0.2710
 4114SOL    HW223979   0.085   3.279   7.831 -1.6853 -2.5068 -0.9687
 4115SOL     OW23980   4.187   4.257   4.787  0.1809 -0.2122  0.1000
 4115SOL    HW123981   4.195   4.200   4.711  1.5430 -0.0009  0.0834
 4115SOL    HW223982   4.188   4.348   4.757 -0.0563  0.2436  1.4232
 4116SOL     OW23983   2.619   3.977   2.293  0.0777  0.3997  0.6060
 4116SOL    HW123984   2.678   4.024   2.234  0.5282  0.9805  1.5311
 4116SOL    HW223985   2.579   3.913   2.234  2.7824  0.3132 -1.1472
 4117SOL     OW23986   0.116   1.035   4.953 -0.1574  0.6419 -0.3439
 4117SOL    HW123987   0.144   1.106   4.895 -0.0221  0.5402 -0.4041
 4117SOL    HW223988   0.100   1.082   5.035  2.2298 -0.7742  0.9364
 4118SOL     OW23989   2.403   1.612   7.101  0.2440 -0.5308 -0.6880
 4118SOL    HW123990   2.480   1.609   7.159 -1.1938 -0.0363  1.2385
 4118SOL    HW223991   2.435   1.577   7.018 -0.8796  1.3031 -1.8852
 4119SOL     OW23992   4.457   0.940   2.196  0.4023 -0.0945  0.4158
 4119SOL    HW123993   4.455   0.930   2.291 -0.1331 -2.0942  0.1920
 4119SOL    HW223994   4.376   0.985   2.170 -0.9805 -2.2328  1.0328
 4120SOL     OW23995   1.962   3.066   0.747  0.4732  0.1242  0.2686
 4120SOL    HW123996   1.889   3.124   0.765  0.1801  0.0441 -0.6852
 4120SOL    HW223997   1.927   3.009   0.679 -1.1984  1.4418  0.0440
 4121SOL     OW23998   3.480   1.176  16.671  0.1633  0.3767 -0.2147
 4121SOL    HW123999   3.401   1.219  16.703 -1.2156 -3.0152  0.9787
 4121SOL    HW224000   3.444   1.107  16.615  1.3704  0.4698 -1.1002
 4122SOL     OW24001   0.566   4.723   8.103 -0.0809 -0.0030 -0.5385
 4122SOL    HW124002   0.651   0.006   8.064 -0.5687  1.2490 -0.9795
 4122SOL    HW224003   0.559   0.064   8.159 -0.3482 -0.5683  0.2154
 4123SOL     OW24004   2.396   0.228   4.743 -0.0829  0.3435 -0.8009
 4123SOL    HW124005   2.375   0.197   4.655  0.2609  1.3957 -1.2573
 4123SOL    HW224006   2.491   0.227   4.754  0.0477 -1.3300 -2.1764
 4124SOL     OW24007   3.390   0.763   3.687  0.1387  0.2111  0.4012
 4124SOL    HW124008   3.362   0.854   3.688 -1.0800 -0.1751  1.0810
 4124SOL    HW224009   3.390   0.750   3.592 -1.3129  3.1312  0.0181
 4125SOL     OW24010   3.514   0.285  15.752  0.0606  0.5635 -0.0893
 4125SOL    HW124011   3.527   0.240  15.668 -1.9167 -0.7728  0.3247
 4125SOL    HW224012   3.492   0.218  15.816  0.0857 -0.3324 -1.0091
 4126SOL     OW24013   4.397   3.385   1.302  1.1025 -0.2203  0.3371
 4126SOL    HW124014   4.411   3.460   1.244 -0.3848  0.5385  0.9560
 4126SOL    HW224015   4.347   3.428   1.372 -1.1728 -1.4013 -0.5438
 4127SOL     OW24016   2.140   0.840   2.415 -0.6073  0.1552  0.2192
 4127SOL    HW124017   2.048   0.814   2.420  0.1926 -2.8060 -0.0999
 4127SOL    HW224018   2.161   0.863   2.506  0.7705 -0.7091  0.1235
 4128SOL     OW24019   0.624   0.517   3.366 -0.4883 -0.2155  0.2143
 4128SOL    HW124020   0.566   0.470   3.305  0.8184 -0.5654 -0.7491
 4128SOL    HW224021   0.685   0.443   3.369 -1.0665 -0.6716  0.7820
 4129SOL     OW24022   3.746   0.949  16.118  0.4427  0.4529  0.0918
 4129SOL    HW124023   3.789   1.033  16.103  3.0786 -0.6788  1.2234
 4129SOL    HW224024   3.668   0.959  16.063  0.2479 -2.4153 -0.1546
 4130SOL     OW24025   2.296   2.756   0.595 -0.2348  0.6058  0.1041
 4130SOL    HW124026   2.238   2.764   0.520 -0.6222  0.4230  0.3818
 4130SOL    HW224027   2.284   2.666   0.627  0.9419  0.4675  0.1624
 4131SOL     OW24028   4.268   4.235   0.809 -0.2936  0.1578 -0.3326
 4131SOL    HW124029   4.202   4.227   0.740 -2.0159  1.5172  1.1702
 4131SOL    HW224030   4.210   4.253   0.882  0.1344 -0.6298  0.1964
 4132SOL     OW24031   2.725   2.141  16.758  0.0835 -0.4587 -0.5054
 4132SOL    HW124032   2.688   2.227  16.741  0.8953 -0.0315 -0.1161
 4132SOL    HW224033   2.695   2.100  16.677  1.1357  0.4881 -1.3861
 4133SOL     OW24034   3.275   3.627   2.926 -0.0753 -0.3545 -0.0829
 4133SOL    HW124035   3.286   3.576   2.845  3.4591  0.7099 -0.2737
 4133SOL    HW224036   3.311   3.568   2.992  0.9198  1.8435  1.3370
 4134SOL     OW24037   4.529   2.088   2.177 -0.2522  0.0325  0.0757
 4134SOL    HW124038   4.593   2.018   2.188 -1.3182 -1.3459 -2.4071
 4134SOL    HW224039   4.465   2.071   2.245  0.6261 -2.6541  0.2153
 4135SOL     OW24040   2.670   3.209  15.263 -0.0431  0.3493  0.2356
 4135SOL    HW124041   2.645   3.207  15.170  0.0418 -3.0511  0.2935
 4135SOL    HW224042   2.749   3.262  15.261  1.0881 -1.3195  0.6328
 4136SOL     OW24043   1.119   2.840   5.321 -0.2780  0.1132  0.3610
 4136SOL    HW124044   1.180   2.860   5.250 -1.9649  0.1200 -1.0940
 4136SOL    HW224045   1.125   2.746   5.333 -0.5656  0.0671  0.1612
 4137SOL     OW24046   4.286   4.334   5.716 -0.8989 -0.6883 -0.0357
 4137SOL    HW124047   4.322   4.281   5.645 -0.8568  1.3203 -1.4987
 4137SOL    HW224048   4.294   4.416   5.669 -0.0371  0.2948  1.8383
 4138SOL     OW24049   2.206   2.382   5.093 -0.3237  0.7123 -0.6254
 4138SOL    HW124050   2.244   2.349   5.012 -0.3716  1.5644 -0.9938
 4138SOL    HW224051   2.156   2.451   5.050 -2.2912  0.3768  1.1146
 4139SOL     OW24052   2.607   1.002   6.320 -0.6456 -0.0922 -0.0008
 4139SOL    HW124053   2.538   1.063   6.346  0.0336  1.2001 -1.2277
 4139SOL    HW224054   2.598   1.015   6.226  0.1790  0.1782 -0.0446
 4140SOL     OW24055   3.526   4.499   5.672 -0.8122 -0.1212  0.1765
 4140SOL    HW124056   3.496   4.415   5.636  3.5121 -1.4585 -0.2861
 4140SOL    HW224057   3.551   4.560   5.603 -0.2655  1.4609  1.7720
 4141SOL     OW24058   2.310   1.254   5.072 -0.2683 -0.6307 -0.2167
 4141SOL    HW124059   2.348   1.215   4.993  0.3647 -0.3964 -0.0286
 4141SOL    HW224060   2.256   1.322   5.031  2.2695  1.0202 -0.8140
 4142SOL     OW24061   1.279   2.058   6.132 -0.2211 -0.2429  0.2686
 4142SOL    HW124062   1.186   2.037   6.137 -0.4013  0.4391 -0.1611
 4142SOL    HW224063   1.276   2.139   6.183 -1.7778 -0.2704  0.2325
 4143SOL     OW24064   1.987   4.717   5.466 -0.4083  0.4244 -0.4559
 4143SOL    HW124065   1.973   4.622   5.465 -1.0186  0.5441 -2.3197
 4143SOL    HW224066   1.979   0.009   5.557 -0.5563 -2.1006  0.3636
 4144SOL     OW24067   0.309   4.084   3.517  0.9245  0.7561 -0.2404
 4144SOL    HW124068   0.271   4.062   3.432 -1.0008  2.2140  0.2624
 4144SOL    HW224069   0.288   4.008   3.572 -0.9666  0.9370 -0.7254
 4145SOL     OW24070   1.984   4.126   3.657 -0.1428  0.0139  0.0986
 4145SOL    HW124071   2.034   4.192   3.705 -2.7075  2.3398 -0.4144
 4145SOL    HW224072   1.926   4.092   3.725 -0.8597 -1.5767 -1.3140
 4146SOL     OW24073   0.407   2.415   3.613  0.8239 -0.2832 -0.0612
 4146SOL    HW124074   0.499   2.430   3.596  1.0381 -2.2885 -0.7709
 4146SOL    HW224075   0.412   2.363   3.693 -1.5972  0.1706  0.3823
 4147SOL     OW24076   2.387   0.562   7.590  0.3144 -0.2345  0.4539
 4147SOL    HW124077   2.388   0.633   7.655  2.0387  0.1245  0.0404
 4147SOL    HW224078   2.419   0.488   7.642  2.5459  1.3714  1.3680
 4148SOL     OW24079   0.345   0.518   4.470 -0.4662  0.2508  0.2651
 4148SOL    HW124080   0.250   0.517   4.487 -0.2236 -1.0278  1.5381
 4148SOL    HW224081   0.329   0.488   4.381 -0.8091  1.1497  0.0194
 4149SOL     OW24082   4.047   4.676   4.279  0.1115  0.4358  0.1968
 4149SOL    HW124083   4.134   4.671   4.319  0.0052  0.7551  0.4640
 4149SOL    HW224084   4.006   4.604   4.328 -0.7158  0.5265 -0.3521
 4150SOL     OW24085   1.806   4.099   7.335 -0.2484  0.9010 -1.1074
 4150SOL    HW124086   1.754   4.027   7.300  0.0887  1.1761 -2.1764
 4150SOL    HW224087   1.848   4.146   7.263 -0.0600  0.4008 -1.3237
 4151SOL     OW24088   1.858   3.817   1.945  0.3040 -0.4111  0.0437
 4151SOL    HW124089   1.918   3.886   1.916  0.0955  0.4940  1.7649
 4151SOL    HW224090   1.909   3.740   1.922  1.0812  0.0719  0.1633
 4152SOL     OW24091   3.408   1.167  12.479 -0.2667 -0.1222 -0.1118
 4152SOL    HW124092   3.392   1.076  12.505 -0.1473 -0.2751 -0.5721
 4152SOL    HW224093   3.369   1.215  12.552 -0.7989 -0.0887 -0.4169
 4153SOL     OW24094   0.300   3.602   5.012  0.3954 -0.2006  0.9772
 4153SOL    HW124095   0.302   3.606   5.107  1.3449 -0.8088  0.9875
 4153SOL    HW224096   0.275   3.509   5.005  0.5782 -0.0693 -1.4914
 4154SOL     OW24097   1.705   1.919  11.309 -0.3803  0.4558 -0.3422
 4154SOL    HW124098   1.639   1.976  11.270  0.5778  1.4571 -0.5048
 4154SOL    HW224099   1.660   1.835  11.309  0.6080 -0.0700 -0.1154
 4155SOL     OW24100   0.786   2.235   7.668  0.7276  0.2961 -0.2511
 4155SOL    HW124101   0.757   2.212   7.757  0.8064  1.3925  0.0639
 4155SOL    HW224102   0.824   2.150   7.646 -0.6790 -0.1650 -0.8873
 4156SOL     OW24103   4.353   1.304  12.052 -0.2466 -0.3567  0.6200
 4156SOL    HW124104   4.419   1.373  12.063 -1.9346  1.1351  1.4535
 4156SOL    HW224105   4.412   1.232  12.031  0.5382  1.0255 -2.0041
 4157SOL     OW24106   4.060   3.884   0.657  0.1833  0.0547 -0.3503
 4157SOL    HW124107   4.018   3.942   0.720  0.1990  1.1958 -1.3649
 4157SOL    HW224108   4.112   3.953   0.614  0.3813  0.3348  0.3320
 4158SOL     OW24109   2.949   2.476   4.151 -0.2938  0.1490  0.4145
 4158SOL    HW124110   3.002   2.489   4.072 -0.5669  2.6870  0.6568
 4158SOL    HW224111   3.014   2.447   4.215  0.3042  1.6568  0.4915
 4159SOL     OW24112   1.673   2.167   5.733 -0.6095 -0.7524  0.4489
 4159SOL    HW124113   1.622   2.208   5.803 -0.4099 -0.7793  0.6111
 4159SOL    HW224114   1.733   2.119   5.790  0.6782  0.2724 -0.0439
 4160SOL     OW24115   1.128   4.582   3.238  0.2554  0.1122 -0.4956
 4160SOL    HW124116   1.122   4.536   3.322 -0.7828  0.6403 -0.2774
 4160SOL    HW224117   1.140   4.671   3.272 -1.6641 -0.1427  0.8554
 4161SOL     OW24118   1.185   0.422  11.818  0.7513 -0.0298 -0.2271
 4161SOL    HW124119   1.146   0.473  11.890 -0.3722 -0.1011 -0.7760
 4161SOL    HW224120   1.116   0.356  11.806 -2.0332  2.7374  0.4140
 4162SOL     OW24121   4.690   2.521   9.339 -0.2667  0.2472  0.1431
 4162SOL    HW124122   4.643   2.575   9.403  1.3211 -0.6700  2.0995
 4162SOL    HW224123   0.028   2.577   9.324 -1.2770  1.4633 -0.3065
 4163SOL     OW24124   2.427   4.330   4.946 -0.1572  0.1534  0.6572
 4163SOL    HW124125   2.478   4.326   4.865 -1.1919  1.9129 -0.0812
 4163SOL    HW224126   2.359   4.267   4.925  1.5368 -0.9361 -1.5393
 4164SOL     OW24127   2.538   0.528   2.435  0.2203 -0.2542 -0.1531
 4164SOL    HW124128   2.444   0.510   2.442  0.4278 -1.5339 -0.5817
 4164SOL    HW224129   2.575   0.477   2.363  1.7540  0.3003  0.2420
 4165SOL     OW24130   1.973   0.433  11.263 -0.0576 -0.0593  0.0466
 4165SOL    HW124131   1.949   0.372  11.194  0.2979 -0.4724  0.2862
 4165SOL    HW224132   2.033   0.374  11.310 -0.9171 -0.8355  0.1721
 4166SOL     OW24133   1.064   2.219   4.379  0.1153  0.1011  0.2979
 4166SOL    HW124134   1.067   2.313   4.360  1.9017 -0.0281 -0.0086
 4166SOL    HW224135   1.154   2.211   4.410  1.2424 -1.0077 -3.2056
 4167SOL     OW24136   2.467   2.848   6.134  0.4099  0.6087  0.1717
 4167SOL    HW124137   2.415   2.881   6.207 -0.5636  1.5561 -0.9608
 4167SOL    HW224138   2.458   2.915   6.066 -1.5061  0.0192 -0.1432
 4168SOL     OW24139   0.256   1.187   8.639  0.2751 -0.4113 -0.3812
 4168SOL    HW124140   0.199   1.110   8.647 -1.3318  0.7145 -1.0900
 4168SOL    HW224141   0.219   1.247   8.574  2.3710  0.9088 -0.3445
 4169SOL     OW24142   1.718   2.013   4.194  0.2338 -1.1466 -0.3205
 4169SOL    HW124143   1.746   2.101   4.171 -2.7747  0.7563  3.4071
 4169SOL    HW224144   1.788   1.982   4.251 -0.7217  0.2874  1.6245
 4170SOL     OW24145   1.592   1.470  16.481  0.1537  0.2004 -0.2264
 4170SOL    HW124146   1.677   1.428  16.465 -0.2952 -0.6035 -0.4388
 4170SOL    HW224147   1.588   1.529  16.406  1.4988 -0.8129 -1.0935
 4171SOL     OW24148   1.008   3.615   4.567 -0.4706 -0.3629 -0.0197
 4171SOL    HW124149   0.972   3.645   4.651  0.1173  0.4330 -0.0519
 4171SOL    HW224150   1.065   3.542   4.589  0.9152  0.2966 -1.4387
 4172SOL     OW24151   4.134   1.319   0.340  0.3775 -0.1279 -0.0045
 4172SOL    HW124152   4.179   1.340   0.259  0.1012 -1.1823 -0.4294
 4172SOL    HW224153   4.069   1.255   0.311  0.6083 -0.8380  1.0124
 4173SOL     OW24154   3.573   2.942   8.063 -0.0769  0.5655  0.2826
 4173SOL    HW124155   3.561   3.029   8.026 -0.7987  0.1201 -0.5437
 4173SOL    HW224156   3.507   2.957   8.130 -0.6869 -1.1490  0.0810
 4174SOL     OW24157   0.592   2.137   3.357 -0.2625 -0.2471 -0.1993
 4174SOL    HW124158   0.583   2.066   3.420  0.6387  2.2203  2.6687
 4174SOL    HW224159   0.635   2.090   3.285  1.6376 -0.6950  1.2504
 4175SOL     OW24160   4.491   0.914   7.775 -0.3432 -0.1466  0.0104
 4175SOL    HW124161   4.514   0.876   7.859 -2.2151  0.2233  0.7051
 4175SOL    HW224162   4.551   0.988   7.774  0.4683 -0.8046  1.2555
 4176SOL     OW24163   2.249   0.131   5.352  0.6563 -0.8020 -0.0386
 4176SOL    HW124164   2.334   0.097   5.379  0.6234 -1.0197 -0.2134
 4176SOL    HW224165   2.201   0.057   5.387  0.1353 -0.4371  0.0094
 4177SOL     OW24166   1.251   4.691  13.628  0.1349  0.7292 -0.1184
 4177SOL    HW124167   1.216   4.649  13.707 -2.6022  0.2800 -1.5892
 4177SOL    HW224168   1.196   4.653  13.560 -1.1353  1.7668  0.3350
 4178SOL     OW24169   1.853   3.282  12.085  0.2411 -0.5071  0.3192
 4178SOL    HW124170   1.939   3.289  12.125  0.8210 -1.0912 -0.8237
 4178SOL    HW224171   1.802   3.273  12.166  1.4291  0.8688  1.2185
 4179SOL     OW24172   4.177   0.771   4.753 -0.1665  0.2604  0.1140
 4179SOL    HW124173   4.135   0.701   4.803  0.2885 -1.8601 -2.4942
 4179SOL    HW224174   4.101   0.800   4.703  0.1718 -1.4493 -1.3915
 4180SOL     OW24175   1.412   3.105   2.276  0.3962 -0.1984  0.0470
 4180SOL    HW124176   1.477   3.117   2.206  0.5511 -0.1580  0.1976
 4180SOL    HW224177   1.469   3.140   2.344  0.2865  2.6032 -1.3216
 4181SOL     OW24178   1.381   1.702   3.494  0.0635  0.2185  0.3553
 4181SOL    HW124179   1.383   1.640   3.567  1.8438 -0.4327 -0.2648
 4181SOL    HW224180   1.290   1.686   3.469  0.2409 -1.6512  0.8811
 4182SOL     OW24181   0.070   1.338   9.167 -0.0117  0.0229 -0.5094
 4182SOL    HW124182   4.712   1.336   9.165 -0.0335 -0.8113  2.2701
 4182SOL    HW224183   0.083   1.426   9.132 -1.8466  1.6080  2.9011
 4183SOL     OW24184   0.585   3.173   6.821 -0.3494 -0.0614  0.5554
 4183SOL    HW124185   0.616   3.241   6.762  1.2857  0.8097  2.3920
 4183SOL    HW224186   0.490   3.183   6.832 -0.4342 -1.5965  1.2448
 4184SOL     OW24187   2.355   4.241   5.864  0.1225 -0.2752 -0.9906
 4184SOL    HW124188   2.398   4.156   5.871  0.9241  0.1961 -0.2146
 4184SOL    HW224189   2.329   4.226   5.773  0.4327  0.8754 -1.2635
 4185SOL     OW24190   2.884   4.222   3.018 -0.2022 -0.1502 -0.4107
 4185SOL    HW124191   2.946   4.159   3.052 -1.2689  0.1697  2.1411
 4185SOL    HW224192   2.898   4.298   3.075  0.2226  0.3210 -1.1398
 4186SOL     OW24193   3.940   1.346   7.994 -0.4377 -0.1893  0.9806
 4186SOL    HW124194   3.969   1.356   7.904 -0.7850 -2.8899  0.5680
 4186SOL    HW224195   3.849   1.319   7.983 -0.4627  0.8427 -1.2022
 4187SOL     OW24196   2.349   0.070   8.757  0.3498 -0.4162  0.2393
 4187SOL    HW124197   2.271   0.052   8.810  0.4339 -1.1612  0.1077
 4187SOL    HW224198   2.370   4.724   8.715 -0.6053  0.2695 -1.5845
 4188SOL     OW24199   3.133   1.337   5.816  0.2370 -0.2378 -0.1855
 4188SOL    HW124200   3.186   1.258   5.806 -1.2787 -1.4055  0.8677
 4188SOL    HW224201   3.201   1.400   5.791 -0.8549  1.4029  1.0030
 4189SOL     OW24202   3.907   4.027   5.323  0.3087  0.6223 -0.0562
 4189SOL    HW124203   3.875   4.046   5.234 -1.7589  0.8828  0.7381
 4189SOL    HW224204   3.990   3.991   5.293  0.7466 -0.6476  2.7535
 4190SOL     OW24205   2.462   3.331   9.515  0.1473 -0.2134 -0.4007
 4190SOL    HW124206   2.390   3.297   9.461 -1.3818 -1.0889  2.1580
 4190SOL    HW224207   2.406   3.372   9.582 -1.2407 -0.4614 -1.4027
 4191SOL     OW24208   4.725   4.253   3.263 -0.2073 -0.0878  0.0539
 4191SOL    HW124209   0.024   4.197   3.194 -1.2612 -0.6300 -0.0454
 4191SOL    HW224210   0.009   4.335   3.219  1.6746 -0.4735  0.2414
 4192SOL     OW24211   2.479   0.314   7.720 -0.2093  0.2004  0.1187
 4192SOL    HW124212   2.495   0.359   7.803  0.1310 -0.1184  0.2258
 4192SOL    HW224213   2.418   0.254   7.763 -0.7219  0.1417 -0.6979
 4193SOL     OW24214   4.149   2.282   2.654  0.0263 -0.5642 -0.3809
 4193SOL    HW124215   4.209   2.325   2.715 -0.0430 -1.1579  0.1144
 4193SOL    HW224216   4.131   2.201   2.702 -1.0328  0.0697  0.3045
 4194SOL     OW24217   3.097   1.345   5.008 -0.7319  0.7653 -0.7362
 4194SOL    HW124218   3.102   1.286   5.084  0.8118  0.3278 -1.1849
 4194SOL    HW224219   3.113   1.289   4.932  0.7904  1.9309 -1.2663
 4195SOL     OW24220   4.595   3.609   0.245 -0.1624  0.1274  0.2593
 4195SOL    HW124221   4.549   3.679   0.292 -0.7083  0.3001 -0.5283
 4195SOL    HW224222   4.521   3.553   0.221  1.7948 -2.5259  0.5521
 4196SOL     OW24223   4.595   1.781   0.911  0.0982  0.0104 -0.3022
 4196SOL    HW124224   4.658   1.786   0.839 -0.3709  0.8178 -0.6481
 4196SOL    HW224225   4.660   1.738   0.967 -0.4691  0.6940  0.8728
 4197SOL     OW24226   4.209   2.318   1.804  0.4930 -0.6903  0.0863
 4197SOL    HW124227   4.239   2.239   1.759 -1.2001 -0.2469 -1.8301
 4197SOL    HW224228   4.148   2.288   1.871 -2.0889  1.8860 -1.0850
 4198SOL     OW24229   1.223   1.164  13.670  0.0366 -0.3410 -0.5275
 4198SOL    HW124230   1.280   1.215  13.728  1.0661  0.2385 -2.0410
 4198SOL    HW224231   1.274   1.089  13.638  0.0831 -1.7491  2.7896
 4199SOL     OW24232   0.931   2.646  10.568  1.1300  0.0206 -0.0721
 4199SOL    HW124233   0.847   2.672  10.605  2.5514  1.8735  1.8268
 4199SOL    HW224234   0.929   2.671  10.476 -1.4976  2.0908  0.5480
 4200SOL     OW24235   2.689   3.355   3.033  0.2086  0.3413  0.7490
 4200SOL    HW124236   2.673   3.313   3.117  1.8716 -1.5925  0.0919
 4200SOL    HW224237   2.710   3.439   3.075  2.0935 -0.3035  1.0825
 4201SOL     OW24238   2.890   4.644  17.205  0.5989  0.0135 -0.0081
 4201SOL    HW124239   2.914   4.672  17.117 -2.2161  3.2998  0.2699
 4201SOL    HW224240   2.937   4.561  17.198 -1.3573 -1.1304  0.3500
 4202SOL     OW24241   3.810   4.654  11.733  0.1022  0.2557 -0.3916
 4202SOL    HW124242   3.780   4.646  11.823  1.7535  1.6525  0.2811
 4202SOL    HW224243   3.762   4.735  11.713  0.8153  0.7312 -0.1686
 4203SOL     OW24244   2.910   2.116   8.414  0.7464 -0.6709  0.5600
 4203SOL    HW124245   2.921   2.021   8.413  3.6860 -0.2995 -0.9231
 4203SOL    HW224246   2.957   2.144   8.335 -1.0853  1.8279  0.3541
 4204SOL     OW24247   1.614   2.646   4.473 -0.8343 -0.2261  0.1127
 4204SOL    HW124248   1.558   2.691   4.536  0.1805 -1.3986  1.8493
 4204SOL    HW224249   1.547   2.636   4.405 -0.5088  1.2440 -0.4411
 4205SOL     OW24250   1.673   4.417  13.622  0.4923  0.4447  0.1526
 4205SOL    HW124251   1.606   4.479  13.594 -0.9698 -0.8932  0.6803
 4205SOL    HW224252   1.621   4.355  13.673  2.6372 -1.5069 -0.0344
 4206SOL     OW24253   2.661   4.125   2.538 -0.3205 -0.4683 -0.4051
 4206SOL    HW124254   2.582   4.075   2.560 -0.4346 -0.0878  0.0306
 4206SOL    HW224255   2.673   4.082   2.453  0.1928  0.0734 -0.6076
 4207SOL     OW24256   0.954   2.398   1.832 -0.3580 -0.5257 -0.2032
 4207SOL    HW124257   1.029   2.432   1.881 -0.5300 -1.5498  0.7487
 4207SOL    HW224258   0.984   2.307   1.824 -0.8865 -0.2746 -5.0509
 4208SOL     OW24259   4.167   3.970   8.924  0.5672 -0.2071 -0.0757
 4208SOL    HW124260   4.159   4.066   8.928  1.3590 -0.1787  0.8376
 4208SOL    HW224261   4.169   3.943   8.833  2.3293 -0.6839  0.1021
 4209SOL     OW24262   2.722   0.379  15.448  0.0070  0.3990  0.4519
 4209SOL    HW124263   2.799   0.377  15.392 -0.6694 -0.2829 -0.4463
 4209SOL    HW224264   2.666   0.316  15.403 -0.9129  0.9687  0.8069
 4210SOL     OW24265   4.292   3.270   8.098  0.0328  0.5406 -0.4694
 4210SOL    HW124266   4.259   3.360   8.097 -1.6406 -0.0748 -1.1094
 4210SOL    HW224267   4.252   3.247   8.183 -0.0128 -1.7080 -1.1019
 4211SOL     OW24268   1.125   3.981   8.785  0.3284  0.5649 -0.1470
 4211SOL    HW124269   1.063   3.985   8.858  0.8974 -1.0793  0.4338
 4211SOL    HW224270   1.148   4.072   8.767 -0.2509  0.4409 -1.5218
 4212SOL     OW24271   2.161   1.111   4.355 -0.0263 -0.1484 -0.0438
 4212SOL    HW124272   2.137   1.201   4.376 -1.3688 -0.8942  1.6232
 4212SOL    HW224273   2.086   1.061   4.387  0.3147  0.2757  1.4303
 4213SOL     OW24274   2.756   2.028   6.231 -0.4489  0.0358  0.8660
 4213SOL    HW124275   2.755   2.097   6.297  2.1010 -0.5022  1.4403
 4213SOL    HW224276   2.666   1.997   6.244 -0.8702 -0.3710 -2.8454
 4214SOL     OW24277   4.625   1.933   1.167  0.0940 -0.5379  0.7472
 4214SOL    HW124278   4.576   1.937   1.084 -0.3854  2.2102  1.1472
 4214SOL    HW224279   4.687   2.006   1.163  0.0246 -0.3684  2.7489
 4215SOL     OW24280   3.837   0.852   8.452 -0.0837  0.9425 -0.5972
 4215SOL    HW124281   3.866   0.831   8.541  0.7235 -0.0633 -1.0951
 4215SOL    HW224282   3.896   0.809   8.390  1.8271  2.1103  0.4486
 4216SOL     OW24283   2.982   0.501  10.548  0.0456  0.5055 -0.6214
 4216SOL    HW124284   2.987   0.474  10.640 -2.2413 -1.7088 -1.1477
 4216SOL    HW224285   3.026   0.431  10.499 -1.3497  0.4406 -1.7586
 4217SOL     OW24286   2.905   4.084   3.837 -0.0607  0.6754 -0.3185
 4217SOL    HW124287   2.893   4.170   3.877 -0.0140  0.3886  0.2984
 4217SOL    HW224288   2.842   4.028   3.881  1.1674  0.2959  0.9407
 4218SOL     OW24289   0.326   3.061  16.594 -0.5887  0.2106  0.1930
 4218SOL    HW124290   0.299   3.123  16.662 -0.5326  0.5713 -0.1142
 4218SOL    HW224291   0.354   2.989  16.651  0.2978  3.3271  3.6995
 4219SOL     OW24292   3.964   4.333   6.221  0.2263 -0.2830 -0.0204
 4219SOL    HW124293   4.044   4.281   6.211  1.2366  1.0718  1.0244
 4219SOL    HW224294   4.000   4.417   6.250 -1.2276  0.7377 -1.2131
 4220SOL     OW24295   3.391   3.835   6.349  0.5812  0.3385 -0.0331
 4220SOL    HW124296   3.451   3.873   6.285  1.3010 -1.8789 -0.6817
 4220SOL    HW224297   3.335   3.787   6.289  2.0217  0.5845 -1.5638
 4221SOL     OW24298   3.250   0.543   0.882  0.6253  0.4344  0.2572
 4221SOL    HW124299   3.218   0.621   0.928 -1.2296 -1.0706  1.5287
 4221SOL    HW224300   3.211   0.473   0.935 -1.8713  0.8104 -1.1178
 4222SOL     OW24301   0.875   2.619  17.579  0.3040  0.1875 -0.2580
 4222SOL    HW124302   0.956   2.663  17.606  1.6490 -1.7336 -1.1372
 4222SOL    HW224303   0.885   2.543  17.636 -2.2171 -1.0514 -1.4947
 4223SOL     OW24304   2.872   1.051   9.225  0.4148  0.4015  0.2864
 4223SOL    HW124305   2.948   1.035   9.169 -0.9509  0.1900 -1.5009
 4223SOL    HW224306   2.844   1.141   9.214 -1.7868 -0.4687 -1.1834
 4224SOL     OW24307   2.105   1.929   5.519 -0.1085  0.1896  0.4459
 4224SOL    HW124308   2.191   1.895   5.543  0.1608  0.7592  0.2881
 4224SOL    HW224309   2.058   1.845   5.517  3.6939 -1.9969  4.1112
 4225SOL     OW24310   3.270   4.318  10.224 -0.0180  0.1783  0.4159
 4225SOL    HW124311   3.273   4.305  10.130 -3.1142 -1.0651  0.4964
 4225SOL    HW224312   3.213   4.243  10.240 -1.0358  0.9408  0.3781
 4226SOL     OW24313   1.644   2.738   1.158 -0.4322 -0.0610 -0.2173
 4226SOL    HW124314   1.553   2.764   1.139 -2.3445 -3.1257  4.9346
 4226SOL    HW224315   1.652   2.671   1.090  2.3575  1.1868 -1.1042
 4227SOL     OW24316   2.409   1.188   3.906  0.6062 -0.0371 -0.2970
 4227SOL    HW124317   2.414   1.129   3.831 -1.8061  0.0525 -0.5330
 4227SOL    HW224318   2.460   1.264   3.878 -1.0059  0.1111 -2.8321
 4228SOL     OW24319   1.191   3.826   2.407 -0.3337  0.4881 -0.0653
 4228SOL    HW124320   1.276   3.784   2.407 -0.3853  0.3826 -1.6166
 4228SOL    HW224321   1.137   3.757   2.444  0.3110  0.1515  0.2369
 4229SOL     OW24322   2.060   3.142   6.338 -0.3699  0.0942  0.5823
 4229SOL    HW124323   2.127   3.129   6.405  1.1602 -0.2177 -1.0036
 4229SOL    HW224324   1.991   3.190   6.383  0.0875  1.7214 -0.4533
 4230SOL     OW24325   4.529   4.152   6.442  0.3475 -0.3039  0.1801
 4230SOL    HW124326   4.609   4.119   6.482  0.2961  2.2393  2.3201
 4230SOL    HW224327   4.493   4.198   6.518  3.0213  0.2588  1.1068
 4231SOL     OW24328   1.860   2.714   6.588 -0.3016 -0.1625  0.0415
 4231SOL    HW124329   1.877   2.716   6.494 -0.5814 -0.6896 -0.0263
 4231SOL    HW224330   1.765   2.727   6.588 -0.2688  0.0208  1.7310
 4232SOL     OW24331   4.396   2.661   8.605 -0.2572  0.5274 -0.0076
 4232SOL    HW124332   4.344   2.741   8.610 -2.9168 -1.1821 -0.5867
 4232SOL    HW224333   4.355   2.608   8.538  1.1379 -0.1207 -0.3454
 4233SOL     OW24334   4.317   3.262  14.607  0.3816 -0.1846 -0.0870
 4233SOL    HW124335   4.354   3.258  14.519 -0.8467 -0.7177 -0.5861
 4233SOL    HW224336   4.335   3.354  14.626  1.3810 -0.5278  0.6340
 4234SOL     OW24337   0.921   1.776  16.192  0.3310  0.2083 -0.3360
 4234SOL    HW124338   0.940   1.709  16.126 -2.2655  0.3376 -1.1927
 4234SOL    HW224339   0.826   1.771  16.189  0.1184  2.0055  3.2334
 4235SOL     OW24340   4.153   2.218   9.758  0.2190  0.3304 -0.6312
 4235SOL    HW124341   4.120   2.189   9.673  0.7353 -0.6444 -0.5022
 4235SOL    HW224342   4.244   2.198   9.736  0.1455  0.3360 -0.9388
 4236SOL     OW24343   2.365   4.086   3.446 -0.2411  0.3275 -0.1047
 4236SOL    HW124344   2.385   4.043   3.363 -1.1620  2.6778 -1.5561
 4236SOL    HW224345   2.313   4.159   3.412 -0.4041  0.7137  0.9888
 4237SOL     OW24346   2.120   1.671   3.485  0.3802 -0.4401 -1.1116
 4237SOL    HW124347   2.155   1.650   3.398  0.3829  0.5220 -1.3342
 4237SOL    HW224348   2.170   1.610   3.539 -0.6487 -1.6285 -1.4977
 4238SOL     OW24349   1.010   4.382   2.975  0.2114 -0.1490 -0.2442
 4238SOL    HW124350   1.071   4.308   2.965  2.1221  1.0859  2.2575
 4238SOL    HW224351   1.067   4.453   3.004  2.3787 -1.5577 -1.0184
 4239SOL     OW24352   2.031   2.534   2.872  0.0273 -0.6553  0.4300
 4239SOL    HW124353   2.005   2.537   2.964 -3.5489 -0.1016 -0.5923
 4239SOL    HW224354   1.997   2.446   2.854 -4.3268  0.7536  1.8151
 4240SOL     OW24355   0.888   0.117  10.123  0.5580 -0.6871 -0.1413
 4240SOL    HW124356   0.856   0.195  10.077  0.2831  0.6737  2.3717
 4240SOL    HW224357   0.870   0.145  10.213 -2.9286  0.5361 -1.2028
 4241SOL     OW24358   0.836   0.115   5.379  0.3515 -0.7150 -0.6693
 4241SOL    HW124359   0.748   0.152   5.387  2.1793  3.2547  1.3743
 4241SOL    HW224360   0.885   0.197   5.372 -2.3866  1.0251  0.1630
 4242SOL     OW24361   0.649   2.908   9.926  0.4907 -0.0603  0.2040
 4242SOL    HW124362   0.607   2.941   9.847  1.1150 -3.1909 -1.4401
 4242SOL    HW224363   0.720   2.866   9.877 -0.6461 -3.0964  1.1454
 4243SOL     OW24364   2.948   3.526   5.771 -0.5238  0.3611  0.4280
 4243SOL    HW124365   2.876   3.565   5.721  0.7943  1.0723 -0.9249
 4243SOL    HW224366   2.899   3.506   5.851  0.2774 -1.7970  0.3919
 4244SOL     OW24367   2.165   1.767   9.608 -0.0376  0.0472  0.6550
 4244SOL    HW124368   2.097   1.701   9.592 -1.7380  2.0430 -0.4130
 4244SOL    HW224369   2.246   1.719   9.623  0.6344  0.9654 -0.0356
 4245SOL     OW24370   0.227   4.320  14.326 -0.4352  0.1719  0.3833
 4245SOL    HW124371   0.301   4.306  14.266  0.8650  0.9066  1.8340
 4245SOL    HW224372   0.253   4.391  14.384  0.0831  1.5801 -1.5998
 4246SOL     OW24373   4.696   0.895   3.306  0.0019 -0.3550 -0.3552
 4246SOL    HW124374   4.718   0.982   3.274 -3.3927  0.2293 -1.1108
 4246SOL    HW224375   4.658   0.864   3.224 -0.3253  0.4218 -0.4948
 4247SOL     OW24376   4.132   3.662   0.929 -0.2118 -0.1239  0.4535
 4247SOL    HW124377   4.198   3.729   0.939  0.0039  0.0613 -2.1320
 4247SOL    HW224378   4.181   3.610   0.865  0.1002  0.6643  0.0556
 4248SOL     OW24379   3.117   0.355   3.367  0.0090 -0.6041 -0.0865
 4248SOL    HW124380   3.056   0.428   3.378 -0.2611 -0.2760 -3.9734
 4248SOL    HW224381   3.115   0.337   3.273  0.5139 -2.3515  0.2252
 4249SOL     OW24382   3.622   4.692   9.256  0.7415 -0.6004  0.0412
 4249SOL    HW124383   3.526   4.685   9.252  0.6987 -0.9669  2.1204
 4249SOL    HW224384   3.645   4.609   9.298  2.0877 -1.6054 -2.6925
 4250SOL     OW24385   0.780   3.614   5.432  0.2527 -0.0155 -0.1810
 4250SOL    HW124386   0.804   3.521   5.428  0.5148  0.0090  0.9357
 4250SOL    HW224387   0.772   3.624   5.527 -1.0520 -0.4681 -0.2487
 4251SOL     OW24388   0.383   2.384   7.410  0.2122 -0.0132  0.1359
 4251SOL    HW124389   0.320   2.354   7.476 -0.2507  1.4272  0.3569
 4251SOL    HW224390   0.324   2.446   7.367  1.7618  0.5683 -1.1810
 4252SOL     OW24391   1.408   4.660  11.045 -0.7330 -0.0850 -0.3297
 4252SOL    HW124392   1.472   4.589  11.050  0.9410  1.2383 -3.0206
 4252SOL    HW224393   1.370   4.674  11.132 -1.3913  2.8095 -1.0768
 4253SOL     OW24394   2.263   0.090  10.763  0.4633 -0.2776 -0.2097
 4253SOL    HW124395   2.248   0.181  10.739  0.0687  0.1572  1.6349
 4253SOL    HW224396   2.185   0.039  10.743 -2.1278  2.0776  3.6208
 4254SOL     OW24397   3.277   1.783   7.160  0.1079 -0.3797  0.1163
 4254SOL    HW124398   3.228   1.716   7.209 -0.6497  0.3609  0.3675
 4254SOL    HW224399   3.359   1.793   7.208  0.9703  1.0092 -1.6634
 4255SOL     OW24400   0.069   1.930   7.028 -0.2464  0.4232 -0.0303
 4255SOL    HW124401   0.079   1.876   7.107 -0.2640  1.6342  0.8132
 4255SOL    HW224402   0.049   1.868   6.958 -0.8646 -1.1141  1.5120
 4256SOL     OW24403   2.174   0.241   8.081 -0.8296  0.0322 -0.0150
 4256SOL    HW124404   2.137   0.317   8.036 -1.8008 -1.3098 -1.5090
 4256SOL    HW224405   2.224   0.292   8.144 -1.8414 -0.2386  1.0177
 4257SOL     OW24406   3.305   1.214   9.010 -0.3986 -0.2702  0.4205
 4257SOL    HW124407   3.348   1.242   8.929  0.7061 -2.7442  0.1502
 4257SOL    HW224408   3.266   1.294   9.044  1.6144  0.7102  0.3998
 4258SOL     OW24409   3.366   1.554  13.445  0.2512  0.4843 -0.0128
 4258SOL    HW124410   3.350   1.542  13.351 -0.1121  0.6789  0.0261
 4258SOL    HW224411   3.282   1.597  13.460 -0.5492 -0.8378 -0.7164
 4259SOL     OW24412   4.305   2.764   2.712 -0.2519 -0.1412 -0.1558
 4259SOL    HW124413   4.299   2.669   2.701 -1.4675 -0.0743 -0.1252
 4259SOL    HW224414   4.246   2.779   2.638  2.7493  1.3674 -2.2375
 4260SOL     OW24415   2.862   1.731   2.411  0.2556  0.5417  0.9145
 4260SOL    HW124416   2.844   1.638   2.396 -0.1522  0.6895  0.5077
 4260SOL    HW224417   2.935   1.755   2.354 -0.3365 -2.2701 -1.0178
 4261SOL     OW24418   1.445   3.969   2.164 -0.2066 -0.6099  0.0937
 4261SOL    HW124419   1.524   3.918   2.181  0.3650  0.3090  0.1963
 4261SOL    HW224420   1.428   3.990   2.256 -0.2656 -1.7328  0.3372
 4262SOL     OW24421   2.162   0.259   2.955 -0.3013  0.1730  0.0193
 4262SOL    HW124422   2.066   0.260   2.945 -0.0872  0.5695 -1.9080
 4262SOL    HW224423   2.170   0.305   3.039 -1.1154 -1.0038  0.7601
 4263SOL     OW24424   3.947   4.693   6.529 -0.1444  0.2603 -0.9878
 4263SOL    HW124425   3.896   0.023   6.574 -1.8274 -2.5727  1.3184
 4263SOL    HW224426   4.038   4.721   6.540 -1.3639  4.0517 -0.6246
 4264SOL     OW24427   4.144   1.095   5.097 -0.5877 -0.2161  0.1300
 4264SOL    HW124428   4.129   1.153   5.171 -0.4476 -0.5829  0.4482
 4264SOL    HW224429   4.078   1.133   5.039 -0.9832  1.7696  1.9036
 4265SOL     OW24430   3.935   1.132   3.791 -0.2126  0.3587 -0.0077
 4265SOL    HW124431   3.912   1.100   3.879 -0.6594 -1.1752 -0.6846
 4265SOL    HW224432   4.020   1.175   3.803 -0.4218  0.6933  0.2883
 4266SOL     OW24433   4.369   2.962   4.041 -0.0474 -0.6400  0.8533
 4266SOL    HW124434   4.368   3.056   4.020  1.1042 -0.9325 -0.6011
 4266SOL    HW224435   4.388   2.927   3.954 -0.3825  1.1225  0.0638
 4267SOL     OW24436   3.985   4.012  13.950 -0.4777  0.2275 -0.4678
 4267SOL    HW124437   4.000   4.002  13.856 -0.0767 -1.2029 -0.2480
 4267SOL    HW224438   4.074   4.017  13.984 -0.6472 -0.7571  0.1545
 4268SOL     OW24439   1.292   1.807   7.373  0.7610 -0.4525  0.4494
 4268SOL    HW124440   1.309   1.726   7.325 -1.8565 -2.2376  2.5941
 4268SOL    HW224441   1.316   1.785   7.463 -3.0995 -1.7657  1.1669
 4269SOL     OW24442   4.393   0.968   4.749  0.1949 -0.0281 -0.2833
 4269SOL    HW124443   4.327   0.900   4.739  1.4474 -1.6061  2.1693
 4269SOL    HW224444   4.448   0.942   4.675 -2.6570  0.6057 -2.6172
 4270SOL     OW24445   4.595   2.685   2.541 -0.4476  0.3305  0.0015
 4270SOL    HW124446   4.622   2.633   2.466 -3.4947  1.2823 -1.7690
 4270SOL    HW224447   4.513   2.638   2.555  1.8029 -3.1176  1.5485
 4271SOL     OW24448   4.183   3.685  11.910  0.3534 -0.3656 -0.3349
 4271SOL    HW124449   4.253   3.697  11.845  0.4129  0.0230 -0.2029
 4271SOL    HW224450   4.215   3.756  11.967 -2.4945  0.5288  0.1303
 4272SOL     OW24451   2.790   3.476  15.136 -0.3223  0.1745  0.0386
 4272SOL    HW124452   2.853   3.411  15.105  1.4392  1.2957  1.3034
 4272SOL    HW224453   2.793   3.458  15.230 -1.0603  0.1436  0.0599
 4273SOL     OW24454   4.398   0.162   0.973  0.4514  0.3049  0.3117
 4273SOL    HW124455   4.434   0.250   0.973  0.5609  0.2520  1.3534
 4273SOL    HW224456   4.436   0.125   1.052 -2.5900 -1.5488  0.9029
 4274SOL     OW24457   0.317   1.111  16.688 -0.5310 -0.3204 -0.5344
 4274SOL    HW124458   0.224   1.107  16.711  0.1642 -1.8018  2.0521
 4274SOL    HW224459   0.317   1.066  16.603  0.2127 -0.2982 -0.5478
 4275SOL     OW24460   4.333   2.039   6.662  0.3944  0.0844  0.6623
 4275SOL    HW124461   4.308   2.125   6.630  0.6205  0.3383  1.1675
 4275SOL    HW224462   4.260   1.998   6.616  1.5700  0.3819 -1.4836
 4276SOL     OW24463   2.215   2.910   8.250  0.0173  0.1999 -0.4194
 4276SOL    HW124464   2.252   2.824   8.228  0.0552 -0.2263  1.2913
 4276SOL    HW224465   2.291   2.961   8.220 -0.7618  1.3628 -0.3833
 4277SOL     OW24466   1.082   4.462   7.924  0.3909  0.0298 -0.4247
 4277SOL    HW124467   1.105   4.372   7.898  0.1150 -0.4201  0.8660
 4277SOL    HW224468   1.166   4.499   7.952 -0.1886  0.6545  0.4925
 4278SOL     OW24469   4.093   4.269   9.184  0.2328  0.3460 -0.0465
 4278SOL    HW124470   4.055   4.245   9.268  1.7292 -2.1282 -0.0802
 4278SOL    HW224471   4.166   4.207   9.187 -0.6688 -0.7346 -0.5526
 4279SOL     OW24472   2.236   0.626   3.390  0.1275  0.6418  0.0730
 4279SOL    HW124473   2.178   0.599   3.461  1.5603 -0.8090  0.6656
 4279SOL    HW224474   2.196   0.706   3.356  1.0674  0.2757 -1.8551
 4280SOL     OW24475   3.693   0.381   9.844  0.8135  0.2840  0.0916
 4280SOL    HW124476   3.749   0.424   9.909 -0.2152 -0.2546  1.3188
 4280SOL    HW224477   3.736   0.296   9.849 -1.3939 -0.9799 -2.5589
 4281SOL     OW24478   0.558   3.958   4.773 -0.1456  0.2703  0.0381
 4281SOL    HW124479   0.620   3.926   4.838 -2.7871 -2.4389  1.2403
 4281SOL    HW224480   0.473   3.922   4.801 -0.2884 -1.9594 -3.3474
 4282SOL     OW24481   0.424   0.974   9.425  0.1049 -0.0009 -0.1946
 4282SOL    HW124482   0.476   0.898   9.397  1.3453  1.7948 -2.7589
 4282SOL    HW224483   0.380   0.991   9.342 -0.6718  0.0359  0.2309
 4283SOL     OW24484   3.681   2.065   9.163 -0.0662 -0.2481  0.1409
 4283SOL    HW124485   3.734   1.986   9.176  0.5188  0.3496  1.3494
 4283SOL    HW224486   3.746   2.125   9.128 -0.6314  0.0274 -0.4328
 4284SOL     OW24487   2.795   3.673   1.620  0.6431  0.0764 -0.6321
 4284SOL    HW124488   2.862   3.604   1.613  1.6184  0.7233  2.2368
 4284SOL    HW224489   2.823   3.718   1.699 -0.2635 -2.0469  0.9160
 4285SOL     OW24490   4.461   1.080   8.986  0.3738  0.4916 -0.0207
 4285SOL    HW124491   4.551   1.093   9.016  0.7783  4.1701 -2.7930
 4285SOL    HW224492   4.402   1.093   9.060 -1.1461 -0.3571 -1.0941
 4286SOL     OW24493   4.127   3.138   4.202 -0.2034 -0.0838  0.3703
 4286SOL    HW124494   4.117   3.193   4.125  0.3138  0.8633  0.9800
 4286SOL    HW224495   4.200   3.181   4.245 -1.4773  1.4551  0.9868
 4287SOL     OW24496   0.121   3.214  14.579 -0.3928 -0.1621 -0.4243
 4287SOL    HW124497   0.186   3.272  14.620 -2.4197  0.7964  1.4106
 4287SOL    HW224498   0.035   3.255  14.589 -1.6684 -2.6912 -1.2779
 4288SOL     OW24499   0.240   0.389   3.376 -0.1403  0.1698 -0.1341
 4288SOL    HW124500   0.281   0.452   3.316  1.0535 -0.2730  0.2129
 4288SOL    HW224501   0.184   0.348   3.311 -1.4306  1.6894  0.0089
 4289SOL     OW24502   1.925   3.194   7.670 -0.2489 -0.1736 -0.1766
 4289SOL    HW124503   1.832   3.216   7.677 -0.4869 -1.8431  1.6482
 4289SOL    HW224504   1.951   3.262   7.607  0.6635  1.1525  1.6532
 4290SOL     OW24505   2.637   4.231   9.929 -0.3781 -0.1390 -0.0467
 4290SOL    HW124506   2.707   4.177   9.893  0.8487  0.4800  1.3748
 4290SOL    HW224507   2.691   4.305   9.959  0.1402 -0.0586 -1.1881
 4291SOL     OW24508   3.343   4.707   9.315 -0.1736  0.3471  0.1194
 4291SOL    HW124509   3.390   4.705   9.399  1.7063  3.5921 -0.8797
 4291SOL    HW224510   3.283   4.633   9.324  1.4144 -1.0992 -1.0024
 4292SOL     OW24511   3.619   2.712  14.498 -0.2453  0.1739  0.4630
 4292SOL    HW124512   3.527   2.732  14.510 -0.1646 -0.1314  1.5374
 4292SOL    HW224513   3.650   2.801  14.481 -0.2189 -0.2177 -1.6036
 4293SOL     OW24514   4.502   4.267  12.010  0.0851  0.0969 -0.0263
 4293SOL    HW124515   4.485   4.332  12.079  1.2150  0.9858 -0.5801
 4293SOL    HW224516   4.547   4.195  12.055 -0.5874  0.9696  2.0416
 4294SOL     OW24517   1.581   4.021  14.168  0.8615 -0.2677  0.0452
 4294SOL    HW124518   1.508   4.077  14.195 -1.9300 -4.4700  1.2011
 4294SOL    HW224519   1.653   4.070  14.208 -0.5124  0.6400  1.4038
 4295SOL     OW24520   4.064   2.559   5.865  0.1402 -0.3028 -0.1785
 4295SOL    HW124521   3.978   2.567   5.904 -0.6904  0.5095 -2.1466
 4295SOL    HW224522   4.097   2.645   5.891  1.2016 -0.7607  0.0149
 4296SOL     OW24523   0.079   2.455  17.673  0.2837  0.3801  0.3070
 4296SOL    HW124524   0.145   2.414  17.729  0.9681 -0.9474 -1.4962
 4296SOL    HW224525   0.026   2.505  17.736 -1.2645 -0.1029 -0.6063
 4297SOL     OW24526   3.995   3.035  10.771 -0.0508  0.5104 -0.6811
 4297SOL    HW124527   4.035   3.046  10.857 -2.0829  1.6572  0.1072
 4297SOL    HW224528   3.965   2.944  10.772 -0.2887  0.6030  0.6074
 4298SOL     OW24529   4.162   0.572   4.232  0.6427 -0.3826  0.2989
 4298SOL    HW124530   4.169   0.645   4.170 -1.9980 -0.4159 -0.0201
 4298SOL    HW224531   4.237   0.519   4.203  1.6892  1.0568  0.3298
 4299SOL     OW24532   0.170   3.908  12.559 -0.2825  0.3337 -0.4363
 4299SOL    HW124533   0.228   3.932  12.486  0.5299  0.8533  0.3827
 4299SOL    HW224534   0.237   3.912  12.627  0.0755  0.1529 -0.7787
 4300SOL     OW24535   1.311   1.573  15.649 -0.0366  0.4858 -0.0834
 4300SOL    HW124536   1.248   1.631  15.608  0.7249 -0.3458 -2.4185
 4300SOL    HW224537   1.270   1.555  15.734  0.2293 -0.4517 -0.1506
 4301SOL     OW24538   2.115   2.294   7.473  0.2196 -0.2656 -0.1186
 4301SOL    HW124539   2.172   2.370   7.462  0.3676 -0.1550  1.5293
 4301SOL    HW224540   2.033   2.331   7.440 -0.5239 -1.4725  0.3839
 4302SOL     OW24541   0.294   0.809   4.918 -0.2044  0.4777  0.4494
 4302SOL    HW124542   0.253   0.885   4.877  1.5072  1.2235  0.1179
 4302SOL    HW224543   0.236   0.790   4.991  0.7180  2.2328  1.6235
 4303SOL     OW24544   1.978   3.774   7.030  0.1854  0.2505 -0.2797
 4303SOL    HW124545   1.891   3.749   7.000  0.1823 -0.3990  0.2590
 4303SOL    HW224546   2.029   3.695   7.009 -0.9612  0.2354 -2.9527
 4304SOL     OW24547   4.300   3.792   6.095 -0.2049  0.3416  0.2776
 4304SOL    HW124548   4.333   3.870   6.139  1.8166 -0.7994  0.7938
 4304SOL    HW224549   4.213   3.824   6.073 -1.6385 -1.9921  2.5747
 4305SOL     OW24550   2.297   2.578   4.310 -0.1451 -0.2966  0.1604
 4305SOL    HW124551   2.364   2.644   4.326 -0.4675  0.0914 -0.0880
 4305SOL    HW224552   2.275   2.602   4.220  2.7558 -2.2241 -1.0201
 4306SOL     OW24553   0.141   0.806   2.260  0.0623  0.6103 -0.0004
 4306SOL    HW124554   0.211   0.748   2.230  0.6756  1.7042 -0.7057
 4306SOL    HW224555   0.081   0.751   2.311  0.2214 -0.4858 -0.9954
 4307SOL     OW24556   3.428   3.883   3.939  0.1537 -0.2274  0.1598
 4307SOL    HW124557   3.339   3.869   3.972 -0.6087  1.4306 -1.1937
 4307SOL    HW224558   3.431   3.806   3.882 -3.6358  1.2253 -2.0398
 4308SOL     OW24559   3.440   2.728   4.463 -0.5274 -0.1095  0.0991
 4308SOL    HW124560   3.408   2.765   4.545  1.0532 -0.2920  0.7823
 4308SOL    HW224561   3.490   2.654   4.497 -0.0081 -1.3595 -3.3204
 4309SOL     OW24562   4.314   1.438  12.793 -0.9711  0.0018 -0.5035
 4309SOL    HW124563   4.376   1.404  12.856 -0.3776 -0.8994 -1.5642
 4309SOL    HW224564   4.241   1.379  12.809 -1.6197  1.7200  2.7798
 4310SOL     OW24565   0.428   0.970   2.927 -0.5120  0.6929  0.0362
 4310SOL    HW124566   0.450   0.962   2.834 -1.3265 -1.2412  0.0197
 4310SOL    HW224567   0.505   0.933   2.971 -0.1285 -0.6132 -1.7404
 4311SOL     OW24568   3.824   1.866   6.953 -0.0916  0.0233 -0.1596
 4311SOL    HW124569   3.802   1.773   6.960 -1.2933  0.4097  1.1731
 4311SOL    HW224570   3.870   1.874   6.869 -2.0849  0.1285 -1.2393
 4312SOL     OW24571   2.669   0.233   4.806  0.3370  0.2973 -0.1751
 4312SOL    HW124572   2.740   0.169   4.814  1.9828  2.0763 -0.5225
 4312SOL    HW224573   2.687   0.264   4.717 -1.1840 -1.9795 -1.2598
 4313SOL     OW24574   1.964   2.461   4.978 -0.5054 -0.1044  0.3779
 4313SOL    HW124575   1.936   2.436   5.066  0.5384 -1.5969  0.2918
 4313SOL    HW224576   1.928   2.383   4.936  3.1014 -1.4397 -0.2327
 4314SOL     OW24577   2.642   4.613   4.747 -0.5249 -0.1088  0.1148
 4314SOL    HW124578   2.677   4.545   4.804 -1.6478 -0.4064  0.4504
 4314SOL    HW224579   2.578   4.653   4.806  1.2572  2.1208  0.5277
 4315SOL     OW24580   1.883   3.807   4.153 -0.1089 -0.3559 -0.2417
 4315SOL    HW124581   1.960   3.790   4.208  2.0082  1.0211 -2.7603
 4315SOL    HW224582   1.858   3.893   4.185 -0.0529 -0.8227  1.0358
 4316SOL     OW24583   4.392   2.143   9.675  0.0983  0.0274 -0.2116
 4316SOL    HW124584   4.365   2.111   9.589 -0.7774  0.9773 -0.2943
 4316SOL    HW224585   4.464   2.204   9.660  0.1911 -0.0067  0.0931
 4317SOL     OW24586   1.312   4.318   9.940 -0.1826 -0.2581 -0.7574
 4317SOL    HW124587   1.294   4.299   9.848  0.8259 -3.7641 -0.2323
 4317SOL    HW224588   1.235   4.372   9.955  0.6495  0.8706 -0.5384
 4318SOL     OW24589   1.410   3.239  13.212 -0.4464  0.7235  0.1271
 4318SOL    HW124590   1.344   3.295  13.252 -0.5101 -0.9275  2.3234
 4318SOL    HW224591   1.356   3.205  13.140  1.1146 -1.0027 -0.2239
 4319SOL     OW24592   2.039   1.045   9.205  0.1627 -0.4450 -0.6658
 4319SOL    HW124593   2.049   0.966   9.151  2.8293 -0.7686  0.3151
 4319SOL    HW224594   2.030   1.119   9.145  0.2037 -0.2551 -0.4363
 4320SOL     OW24595   3.608   0.645   3.790  0.9304  0.0564  0.2301
 4320SOL    HW124596   3.542   0.672   3.727 -1.7807 -0.2655  2.9105
 4320SOL    HW224597   3.613   0.552   3.768 -0.2510 -0.4424  2.0882
 4321SOL     OW24598   1.897   2.433   2.498 -0.4854  0.3290  0.2050
 4321SOL    HW124599   1.900   2.527   2.515  0.9877  0.5842 -1.3755
 4321SOL    HW224600   1.901   2.386   2.581  0.3998 -0.4440 -0.2686
 4322SOL     OW24601   1.165   1.774  15.472 -0.3375  0.4742  0.4067
 4322SOL    HW124602   1.102   1.802  15.538 -0.7741 -0.5870  0.4457
 4322SOL    HW224603   1.117   1.785  15.389  0.5678  0.8005 -0.0708
 4323SOL     OW24604   0.804   3.802  13.997  0.0200  0.4057  0.3770
 4323SOL    HW124605   0.872   3.869  14.005 -0.4547  1.0510 -0.8631
 4323SOL    HW224606   0.739   3.840  14.055 -1.1430  0.7716 -1.1445
 4324SOL     OW24607   3.762   3.003   6.164 -0.1669 -0.5876 -0.1307
 4324SOL    HW124608   3.823   3.058   6.115  0.5164 -0.3760  0.9561
 4324SOL    HW224609   3.725   3.060   6.232  0.3778  0.6106 -0.8419
 4325SOL     OW24610   0.047   1.626  12.419  0.1900 -0.2684  0.0013
 4325SOL    HW124611   4.703   1.584  12.393  0.8718 -1.0197 -0.9363
 4325SOL    HW224612   0.036   1.707  12.370 -1.9594 -0.0375  0.8921
 4326SOL     OW24613   3.155   4.519   9.404  0.1828 -0.1966  0.5414
 4326SOL    HW124614   3.065   4.535   9.433 -0.0489 -1.1462  0.3340
 4326SOL    HW224615   3.174   4.478   9.489  0.3147 -0.8168  0.2054
 4327SOL     OW24616   2.333   2.158   5.187 -0.2274 -0.6633 -0.0696
 4327SOL    HW124617   2.420   2.148   5.148  0.3607  0.9426  0.8260
 4327SOL    HW224618   2.322   2.250   5.161 -1.6598 -0.5155  1.0308
 4328SOL     OW24619   2.167   4.151  10.062 -0.2978  0.0204 -0.1901
 4328SOL    HW124620   2.253   4.117  10.088  0.4607  1.2975 -1.0142
 4328SOL    HW224621   2.117   4.069  10.059 -1.8167  0.7868  6.1901
 4329SOL     OW24622   1.707   0.924   5.928 -0.2762 -0.6557  0.3940
 4329SOL    HW124623   1.633   0.984   5.927 -1.2851 -1.9163 -0.1438
 4329SOL    HW224624   1.649   0.851   5.908 -0.5737 -0.4224  0.4052
 4330SOL     OW24625   3.511   3.674   6.540 -0.2349 -0.1539  0.1315
 4330SOL    HW124626   3.577   3.741   6.556  0.0515 -0.3697 -0.1615
 4330SOL    HW224627   3.457   3.725   6.479  0.0605 -1.2475 -1.0357
 4331SOL     OW24628   0.030   0.732   5.081 -0.1823 -0.3240 -0.2664
 4331SOL    HW124629   4.693   0.777   5.039  0.3941 -1.8317 -2.9569
 4331SOL    HW224630   4.732   0.706   5.166 -0.6769 -2.7025 -1.1705
 4332SOL     OW24631   1.519   4.419   4.418 -0.1257  0.2928 -0.0989
 4332SOL    HW124632   1.537   4.381   4.504  4.4383  1.3596 -0.5536
 4332SOL    HW224633   1.477   4.339   4.386 -0.3811  0.2819  0.2684
 4333SOL     OW24634   2.449   2.501   7.859 -0.6150  0.7385 -0.1216
 4333SOL    HW124635   2.391   2.577   7.853 -1.7043 -0.0673  0.1877
 4333SOL    HW224636   2.411   2.460   7.937 -0.5916  0.3150 -0.3325
 4334SOL     OW24637   3.116   2.076   1.236 -0.5595  0.2516 -1.2160
 4334SOL    HW124638   3.159   1.991   1.227  0.6822  0.7562 -0.0787
 4334SOL    HW224639   3.043   2.055   1.296 -0.7967 -3.2105 -2.7055
 4335SOL     OW24640   0.357   0.515   6.432  0.0318 -0.0467 -0.1450
 4335SOL    HW124641   0.263   0.506   6.413  0.0777 -1.0272  0.0999
 4335SOL    HW224642   0.362   0.459   6.510  1.8034 -0.4150 -0.5211
 4336SOL     OW24643   4.120   0.551   1.642  0.0498 -0.0425 -0.2571
 4336SOL    HW124644   4.208   0.524   1.666  0.0347 -0.0098 -0.1624
 4336SOL    HW224645   4.106   0.500   1.563 -0.6091 -2.8537  1.6741
 4337SOL     OW24646   1.507   0.174   6.334  0.2318 -0.3889  0.0028
 4337SOL    HW124647   1.503   0.243   6.267  0.0554 -0.0499  0.3608
 4337SOL    HW224648   1.422   0.184   6.376 -0.6084 -0.4422 -1.6874
 4338SOL     OW24649   2.616   0.028   0.424  0.1547 -0.1005 -0.7929
 4338SOL    HW124650   2.562   0.056   0.350 -2.4587 -1.1077  0.7412
 4338SOL    HW224651   2.552   4.706   0.463 -0.5413  2.4038  1.8499
 4339SOL     OW24652   4.103   4.240   4.283  0.2071  0.2051 -0.1832
 4339SOL    HW124653   4.101   4.151   4.249  0.8439 -0.5272  1.6474
 4339SOL    HW224654   4.020   4.283   4.264 -0.0505  0.0686  0.6056
 4340SOL     OW24655   0.349   4.267   1.567 -0.0915 -0.0324  0.2636
 4340SOL    HW124656   0.444   4.256   1.566 -0.1310 -0.1191 -1.3559
 4340SOL    HW224657   0.331   4.185   1.613 -0.3207  0.5139  1.1562
 4341SOL     OW24658   1.890   0.389   5.525 -0.7252  0.3007  0.2729
 4341SOL    HW124659   1.973   0.435   5.536  1.0898 -2.9373  0.4093
 4341SOL    HW224660   1.837   0.453   5.478 -0.5020  0.1209 -0.2291
 4342SOL     OW24661   3.379   4.344   0.233 -0.3008  0.0278  0.4284
 4342SOL    HW124662   3.333   4.411   0.282 -3.8368 -0.2090 -2.5900
 4342SOL    HW224663   3.464   4.370   0.269 -0.5978 -1.4017  2.1544
 4343SOL     OW24664   3.252   2.584   5.761  0.3025 -1.1223 -0.1614
 4343SOL    HW124665   3.263   2.636   5.841 -0.3969 -1.5189  0.1858
 4343SOL    HW224666   3.310   2.512   5.786 -1.0514 -2.0885  0.1608
 4344SOL     OW24667   3.149   0.978   1.443 -0.6438 -0.1452  0.6543
 4344SOL    HW124668   3.234   0.943   1.470  0.2638  1.4440 -0.2089
 4344SOL    HW224669   3.087   0.941   1.506  0.5032  0.1193  1.9323
 4345SOL     OW24670   2.762   3.216   5.312 -0.2045  0.1888 -0.3513
 4345SOL    HW124671   2.715   3.181   5.236  0.9189  2.1274 -1.9215
 4345SOL    HW224672   2.751   3.136   5.365  0.0196  0.5423  0.2346
 4346SOL     OW24673   3.622   0.854   6.940  0.0408 -0.0333  0.0298
 4346SOL    HW124674   3.555   0.861   7.008 -1.5587 -0.2342 -1.5198
 4346SOL    HW224675   3.611   0.931   6.884  0.5789 -2.1933 -3.0666
 4347SOL     OW24676   2.108   1.912   7.327 -0.2365 -0.0449 -0.3407
 4347SOL    HW124677   2.043   1.851   7.291 -1.7798  0.6955  1.2204
 4347SOL    HW224678   2.172   1.912   7.256 -2.6411 -0.2437 -2.5231
 4348SOL     OW24679   1.859   2.161  17.474  0.1511  0.8026  0.5755
 4348SOL    HW124680   1.764   2.163  17.473  0.1552  0.4906 -0.2585
 4348SOL    HW224681   1.870   2.217  17.551 -1.5818 -1.2099  2.2576
 4349SOL     OW24682   4.260   3.878   4.734 -0.2433 -0.9324  0.0264
 4349SOL    HW124683   4.321   3.808   4.759  0.0380 -0.1640  1.4679
 4349SOL    HW224684   4.324   3.941   4.700 -0.1206 -1.2825 -0.4028
 4350SOL     OW24685   1.231   0.351   2.683  0.0996  0.1308 -0.1377
 4350SOL    HW124686   1.289   0.301   2.627 -0.3688 -1.1082  0.4964
 4350SOL    HW224687   1.188   0.406   2.617  1.7639 -1.1985 -2.3170
 4351SOL     OW24688   0.862   2.806   9.795  0.4160 -0.2973  0.2339
 4351SOL    HW124689   0.867   2.723   9.841  0.6704 -1.3165 -1.6165
 4351SOL    HW224690   0.954   2.816   9.769  0.7041 -1.3400  0.8628
 4352SOL     OW24691   0.366   2.104  11.623 -0.1925  0.1284  0.3720
 4352SOL    HW124692   0.354   2.185  11.573 -3.2286 -0.3214  0.3685
 4352SOL    HW224693   0.281   2.059  11.616  0.3198 -0.5762 -1.2943
 4353SOL     OW24694   1.356   1.736   4.962 -0.5272  0.4201  0.0261
 4353SOL    HW124695   1.347   1.699   4.874 -3.0336  0.0638  0.4436
 4353SOL    HW224696   1.270   1.763   4.993 -0.1364 -1.7838  3.0817
 4354SOL     OW24697   3.295   1.261   1.989 -0.1212 -0.6072 -0.5565
 4354SOL    HW124698   3.372   1.267   1.932  0.9068 -2.3032  0.6291
 4354SOL    HW224699   3.319   1.177   2.029  1.6579 -0.1477 -0.6234
 4355SOL     OW24700   4.514   2.958   6.079  0.0679  0.3429 -0.3417
 4355SOL    HW124701   4.493   2.899   6.006  1.1192 -0.9342  0.3919
 4355SOL    HW224702   4.598   2.999   6.061 -0.8268  2.3811  0.1463
 4356SOL     OW24703   4.501   4.131   9.956 -0.6049  0.1624  0.6295
 4356SOL    HW124704   4.474   4.062   9.894 -0.2126 -1.2299  2.0112
 4356SOL    HW224705   4.571   4.089  10.005  0.2286  0.1624 -0.5693
 4357SOL     OW24706   0.725   4.667  12.430  0.0231  0.3743  0.6380
 4357SOL    HW124707   0.698   0.011  12.389  1.6510  1.1164  1.0173
 4357SOL    HW224708   0.724   4.608  12.355 -2.3393  0.6044  0.5041
 4358SOL     OW24709   0.988   1.171   8.757  0.4364  0.5114 -0.6006
 4358SOL    HW124710   1.061   1.165   8.696 -0.2156 -3.2147 -1.0210
 4358SOL    HW224711   1.011   1.088   8.798 -0.4301  0.3702 -0.3896
 4359SOL     OW24712   0.987   1.702   4.074 -0.9704 -0.0817 -0.0798
 4359SOL    HW124713   1.039   1.695   4.154 -0.8930  2.7721  0.1074
 4359SOL    HW224714   0.908   1.653   4.096 -1.8079  0.3456 -2.1432
 4360SOL     OW24715   4.006   2.574  13.916  0.1231 -0.1809  0.1277
 4360SOL    HW124716   3.973   2.484  13.923 -0.8486  0.2361  0.8998
 4360SOL    HW224717   4.084   2.572  13.861  0.7271  0.5819  0.9544
 4361SOL     OW24718   0.713   0.684   6.318  0.1805 -0.5613  0.2372
 4361SOL    HW124719   0.782   0.667   6.383  0.0304 -0.7968  0.3357
 4361SOL    HW224720   0.670   0.602   6.292 -0.8229  0.3628 -1.0384
 4362SOL     OW24721   3.842   4.566   0.607  0.0965 -0.4727  0.3646
 4362SOL    HW124722   3.797   4.607   0.681  0.2530  3.1059 -1.5167
 4362SOL    HW224723   3.933   4.567   0.633  0.2344  0.2119 -0.1259
 4363SOL     OW24724   0.479   2.940   7.798  0.1512  0.1232 -0.5954
 4363SOL    HW124725   0.400   2.888   7.788  0.1126  0.3737 -1.5539
 4363SOL    HW224726   0.549   2.893   7.753 -0.4239 -0.1818 -1.1714
 4364SOL     OW24727   2.521   1.890   8.548 -0.2854  0.4017 -0.6214
 4364SOL    HW124728   2.503   1.819   8.610 -2.0472 -0.1426 -1.7414
 4364SOL    HW224729   2.612   1.876   8.523 -0.0600  2.3381 -0.8896
 4365SOL     OW24730   4.678   1.908   1.487  0.1911  0.2465 -0.3827
 4365SOL    HW124731   0.024   1.863   1.504  1.3425  1.2708 -3.2220
 4365SOL    HW224732   4.671   1.913   1.391 -1.8538  2.5774 -0.1169
 4366SOL     OW24733   1.222   2.912   0.834  0.8205 -0.0116  0.4933
 4366SOL    HW124734   1.173   2.936   0.913 -0.0275 -0.4238  0.0887
 4366SOL    HW224735   1.305   2.960   0.841  0.8210 -0.2196  1.7827
 4367SOL     OW24736   1.172   2.533   0.576 -0.1227 -0.4648  0.4423
 4367SOL    HW124737   1.196   2.579   0.657 -1.1559 -0.1656  0.5701
 4367SOL    HW224738   1.117   2.596   0.531 -0.1922 -0.4572  0.5385
 4368SOL     OW24739   2.341   1.581   1.114 -0.0183 -1.0457 -0.1445
 4368SOL    HW124740   2.374   1.550   1.030  2.0050 -0.0117  0.2762
 4368SOL    HW224741   2.409   1.637   1.149 -1.8739  0.5496  0.9160
 4369SOL     OW24742   3.345   2.088   5.266 -0.1163  0.1261 -0.0698
 4369SOL    HW124743   3.361   2.056   5.178 -2.4642  0.0299 -0.4505
 4369SOL    HW224744   3.431   2.115   5.300 -0.2504  1.2646 -0.6399
 4370SOL     OW24745   0.783   2.083   3.802  0.0533 -0.4524  0.2757
 4370SOL    HW124746   0.857   2.031   3.833  0.5852  1.0841  1.6169
 4370SOL    HW224747   0.746   2.022   3.739  0.7193 -0.9526  0.3704
 4371SOL     OW24748   1.501   4.127   3.320  0.0375 -0.2306  0.2572
 4371SOL    HW124749   1.534   4.095   3.237 -2.4980 -1.3433 -0.3230
 4371SOL    HW224750   1.447   4.201   3.291  0.8040 -0.3680 -1.4795
 4372SOL     OW24751   0.317   1.369   2.661 -0.1018  0.2223 -0.0596
 4372SOL    HW124752   0.402   1.389   2.701  0.9284 -1.3916 -1.4513
 4372SOL    HW224753   0.345   1.299   2.602  2.1595  2.1848 -1.2832
 4373SOL     OW24754   3.997   2.432  13.577  0.0324 -0.0791  0.2949
 4373SOL    HW124755   4.031   2.519  13.556 -1.1685  0.4526  0.5941
 4373SOL    HW224756   3.929   2.416  13.512  2.3387 -2.4463 -1.5414
 4374SOL     OW24757   1.590   0.375  11.898 -0.4942  0.1655 -0.2520
 4374SOL    HW124758   1.629   0.463  11.899 -1.5193  0.6116  2.4667
 4374SOL    HW224759   1.505   0.382  11.854  0.3668 -1.9809 -2.1866
 4375SOL     OW24760   3.115   1.471  14.547  0.4257 -0.7221  0.6973
 4375SOL    HW124761   3.110   1.562  14.575  0.3448 -0.3504 -0.4868
 4375SOL    HW224762   3.177   1.435  14.609  1.5567 -1.1986 -0.6981
 4376SOL     OW24763   0.211   1.701   6.549  0.0948  0.1566 -0.7020
 4376SOL    HW124764   0.180   1.616   6.516 -2.1800  0.7978 -0.2409
 4376SOL    HW224765   0.291   1.672   6.592  0.7126  0.4087 -1.6737
 4377SOL     OW24766   4.457   2.712   7.723 -0.1032 -0.5323 -0.0209
 4377SOL    HW124767   4.478   2.748   7.809 -1.3803  0.1368  0.0052
 4377SOL    HW224768   4.542   2.717   7.680 -0.8470  0.3412 -1.3612
 4378SOL     OW24769   1.905   1.379  13.016  0.3649 -0.5341  0.2839
 4378SOL    HW124770   1.980   1.397  12.960  0.3848  2.2496  1.2240
 4378SOL    HW224771   1.901   1.283  13.015 -2.7537 -0.3993  0.9224
 4379SOL     OW24772   2.143   4.354   6.016 -0.0471  0.0072  0.0333
 4379SOL    HW124773   2.186   4.312   5.942  1.8829  1.1604  0.4996
 4379SOL    HW224774   2.158   4.288   6.084 -3.5622 -1.5156 -0.6742
 4380SOL     OW24775   2.209   4.054   6.100 -0.0589  0.4084 -0.3520
 4380SOL    HW124776   2.162   3.998   6.162  0.3819  0.0103 -0.3773
 4380SOL    HW224777   2.164   4.049   6.016 -0.2355 -1.0179 -0.1618
 4381SOL     OW24778   1.783   0.533   7.069 -0.0540 -0.0573  0.0155
 4381SOL    HW124779   1.852   0.500   7.126  0.1974 -0.6856 -0.6452
 4381SOL    HW224780   1.812   0.507   6.981  1.2327  1.0517  0.1113
 4382SOL     OW24781   1.814   1.331   1.888  0.0208  0.3617 -0.0383
 4382SOL    HW124782   1.825   1.402   1.825 -0.2517 -0.8590 -1.4675
 4382SOL    HW224783   1.861   1.258   1.848 -2.8299 -1.7274  0.4468
 4383SOL     OW24784   1.428   0.162   4.222  0.1993  0.3873  0.2514
 4383SOL    HW124785   1.503   0.129   4.271 -1.1928 -0.7318  1.6339
 4383SOL    HW224786   1.477   0.217   4.161  0.4587  1.4979  1.4419
 4384SOL     OW24787   3.242   0.615   5.891  0.1809  0.2811  0.1980
 4384SOL    HW124788   3.335   0.639   5.891  0.3556 -0.3716 -0.5833
 4384SOL    HW224789   3.251   0.537   5.835 -2.1929 -0.8082  1.3564
 4385SOL     OW24790   0.080   0.747   0.071 -0.1030 -0.5455 -0.3957
 4385SOL    HW124791   0.028   0.697   0.134  0.0847 -0.0599  0.1414
 4385SOL    HW224792   0.126   0.677   0.023  0.3915 -0.5270  0.0514
 4386SOL     OW24793   2.121   3.340   8.834 -0.0164 -0.8059  0.7308
 4386SOL    HW124794   2.087   3.279   8.769  2.0079  1.7780 -2.7876
 4386SOL    HW224795   2.043   3.364   8.885 -1.4472 -2.1940 -0.7905
 4387SOL     OW24796   1.412   0.093  12.858  0.0333  0.3432  0.3425
 4387SOL    HW124797   1.454   0.167  12.901 -1.3714  1.8020 -0.7851
 4387SOL    HW224798   1.350   0.142  12.803 -0.1620 -0.0644  0.1898
 4388SOL     OW24799   3.668   3.827  13.193  0.2923  0.1537 -0.0241
 4388SOL    HW124800   3.716   3.844  13.113  0.1350  2.9892  0.4837
 4388SOL    HW224801   3.580   3.816  13.157  0.5889 -1.3270 -0.2802
 4389SOL     OW24802   0.211   3.854   8.392  0.6917 -0.0397 -0.2455
 4389SOL    HW124803   0.276   3.919   8.365  0.9113  0.1981  0.8869
 4389SOL    HW224804   0.235   3.782   8.334  2.3507  0.6148 -0.3549
 4390SOL     OW24805   1.139   2.479   3.681 -0.2618  0.1448 -0.4102
 4390SOL    HW124806   1.211   2.477   3.619  1.0357  0.6956  1.0787
 4390SOL    HW224807   1.187   2.464   3.763  0.8869 -0.6767 -1.2358
 4391SOL     OW24808   2.457   2.773  11.253  0.4230 -0.1113  0.0819
 4391SOL    HW124809   2.363   2.757  11.263  0.5393 -0.4143  0.6797
 4391SOL    HW224810   2.460   2.869  11.261 -0.3486  0.2584 -4.0630
 4392SOL     OW24811   0.339   0.915   9.177  0.0737 -0.8291 -0.0217
 4392SOL    HW124812   0.307   0.875   9.095 -3.2639  0.3582  0.7057
 4392SOL    HW224813   0.270   0.877   9.232 -0.8948  0.1112 -0.5916
 4393SOL     OW24814   2.717   4.696   9.657 -0.0094  0.3190 -0.0215
 4393SOL    HW124815   2.654   4.624   9.664 -0.4006  0.8907  2.0917
 4393SOL    HW224816   2.683   0.001   9.735  0.0885  0.3247  0.0172
 4394SOL     OW24817   2.174   1.401   0.095  0.2260 -0.2119  0.0554
 4394SOL    HW124818   2.137   1.326   0.048  0.7997 -0.8533  0.6326
 4394SOL    HW224819   2.247   1.425   0.039  0.6393  0.9025  1.0733
 4395SOL     OW24820   3.265   1.123   6.819 -0.0932 -0.5672  0.0458
 4395SOL    HW124821   3.226   1.197   6.774  2.2896 -0.1275 -1.2947
 4395SOL    HW224822   3.342   1.161   6.860 -1.3414  2.4950 -0.4294
 4396SOL     OW24823   1.636   3.455   2.081  0.3792 -0.0889 -0.0466
 4396SOL    HW124824   1.613   3.465   1.988 -0.4860 -0.4171  0.1336
 4396SOL    HW224825   1.584   3.521   2.126  2.2954  2.1599 -1.1089
 4397SOL     OW24826   4.588   2.114  15.480  0.4002  0.1153 -0.0136
 4397SOL    HW124827   4.556   2.204  15.475  1.0371  0.4024  1.0145
 4397SOL    HW224828   4.573   2.096  15.387 -0.5946  0.9064 -0.0144
 4398SOL     OW24829   0.218   0.504   6.020  0.3573  0.5568 -0.1047
 4398SOL    HW124830   0.231   0.410   6.028  0.2845  0.7531  2.1461
 4398SOL    HW224831   0.150   0.527   6.083  0.4021 -1.4761  0.6686
 4399SOL     OW24832   1.156   0.146   9.080 -0.0500  0.0647  0.5166
 4399SOL    HW124833   1.127   0.193   9.158 -2.1071  0.6761 -0.6436
 4399SOL    HW224834   1.077   0.102   9.049 -0.3334 -1.0778  2.8848
 4400SOL     OW24835   0.562   2.190   6.094 -0.1511  0.0127 -0.5490
 4400SOL    HW124836   0.502   2.122   6.128  1.1141 -0.7395  0.1841
 4400SOL    HW224837   0.521   2.273   6.119  1.4564  0.4099  0.7934
 4401SOL     OW24838   3.667   1.563  15.759 -0.2032  0.6082  0.8027
 4401SOL    HW124839   3.581   1.548  15.720 -0.2516 -0.5822  1.3958
 4401SOL    HW224840   3.706   1.600  15.679 -0.9797  0.1250  0.1989
 4402SOL     OW24841   3.579   2.131  12.656  0.4108  0.2666  0.0691
 4402SOL    HW124842   3.647   2.163  12.715  1.0558 -0.9179 -0.0235
 4402SOL    HW224843   3.554   2.042  12.684  2.9463 -0.2187  0.7818
 4403SOL     OW24844   0.207   3.744   0.790 -0.2518 -0.3092 -0.2474
 4403SOL    HW124845   0.261   3.759   0.868  1.9719 -0.3525 -1.7684
 4403SOL    HW224846   0.125   3.780   0.822  0.3554  1.0867 -0.2593
 4404SOL     OW24847   4.135   2.388   4.007 -0.7423 -0.4437  0.0209
 4404SOL    HW124848   4.097   2.436   4.081  0.7508 -0.1826  0.6101
 4404SOL    HW224849   4.080   2.309   4.007  0.3017 -1.1700 -0.3237
 4405SOL     OW24850   1.469   2.654   1.508  0.9632  0.5760  0.2961
 4405SOL    HW124851   1.432   2.670   1.421 -0.4103 -2.0599  0.3944
 4405SOL    HW224852   1.424   2.713   1.568 -0.8637 -0.6538  0.1298
 4406SOL     OW24853   1.648   1.083   5.412  0.1067  0.0433  0.1371
 4406SOL    HW124854   1.680   1.010   5.358  0.1327 -1.3709  2.0716
 4406SOL    HW224855   1.569   1.042   5.448  0.2710 -0.7318 -0.3820
 4407SOL     OW24856   2.715   4.398   6.407  0.0462 -0.2449 -0.1456
 4407SOL    HW124857   2.764   4.357   6.335 -3.5019 -2.2860 -1.4364
 4407SOL    HW224858   2.739   4.490   6.399  2.6386 -1.0213 -1.3889
 4408SOL     OW24859   3.042   4.065   5.830  0.0981 -0.2595 -0.2160
 4408SOL    HW124860   3.004   4.129   5.769  2.7140 -0.2079 -1.7774
 4408SOL    HW224861   2.976   3.995   5.830 -1.5222  1.2563  0.1892
 4409SOL     OW24862   3.003   1.625  12.088  0.1492  0.4934 -0.2135
 4409SOL    HW124863   3.021   1.711  12.050 -0.9515  0.7746 -0.0825
 4409SOL    HW224864   3.040   1.627  12.176  0.0194 -1.2060 -0.1238
 4410SOL     OW24865   4.306   4.121   1.246  0.4659  0.2134  0.1322
 4410SOL    HW124866   4.257   4.077   1.176  0.5969  1.8585 -1.0030
 4410SOL    HW224867   4.323   4.209   1.212 -5.0033  1.7876  1.3331
 4411SOL     OW24868   3.713   2.591   9.986 -0.0133  0.4482 -0.2687
 4411SOL    HW124869   3.731   2.503   9.954  0.8539  0.4254  0.2716
 4411SOL    HW224870   3.654   2.575  10.060 -2.3855 -0.2747 -2.3377
 4412SOL     OW24871   4.211   0.164  11.953  0.2203  0.3562  0.4476
 4412SOL    HW124872   4.194   0.209  11.870 -0.1003  0.2069  0.4305
 4412SOL    HW224873   4.222   0.240  12.010  0.3790 -1.5668  3.0108
 4413SOL     OW24874   0.496   3.451   6.527  0.0227 -0.3731  0.3777
 4413SOL    HW124875   0.474   3.383   6.463  2.3300  0.1765 -1.0254
 4413SOL    HW224876   0.569   3.411   6.575  2.1699  0.0241 -2.5360
 4414SOL     OW24877   4.063   4.380   2.345  0.4129 -0.2621  0.9425
 4414SOL    HW124878   4.062   4.457   2.402 -3.4316  0.0198  0.5175
 4414SOL    HW224879   4.036   4.307   2.400 -2.2909  0.2554  0.3024
 4415SOL     OW24880   0.178   2.657   5.885 -0.3736  0.0988 -0.3644
 4415SOL    HW124881   0.260   2.617   5.856  0.1797  0.4256  0.7189
 4415SOL    HW224882   0.146   2.574   5.921 -1.2202  0.1725 -0.9321
 4416SOL     OW24883   0.932   4.086  10.668 -0.2632 -0.0242  0.0692
 4416SOL    HW124884   0.995   4.015  10.658 -0.2488  0.6603 -4.9347
 4416SOL    HW224885   0.854   4.040  10.699 -0.2078 -0.3598 -0.2890
 4417SOL     OW24886   4.005   3.638   6.846  0.4374  0.1587 -0.3650
 4417SOL    HW124887   4.079   3.578   6.836  0.2988  0.1179 -1.1370
 4417SOL    HW224888   3.928   3.586   6.821  0.3841 -0.1883  0.5170
 4418SOL     OW24889   1.750   2.904  11.236 -0.0324  0.0482 -0.6166
 4418SOL    HW124890   1.734   2.829  11.179  2.6277 -1.6840  0.9049
 4418SOL    HW224891   1.774   2.860  11.318 -1.2350 -0.4434 -0.5369
 4419SOL     OW24892   1.976   1.642   5.083 -0.0248  0.1914 -0.0195
 4419SOL    HW124893   2.041   1.688   5.136  0.9215 -2.0539  0.7401
 4419SOL    HW224894   1.965   1.558   5.126 -1.1451 -0.6689 -1.9703
 4420SOL     OW24895   1.488   3.607   4.137 -0.3650 -0.0586  0.1705
 4420SOL    HW124896   1.584   3.606   4.131 -0.2009  1.8296  2.2732
 4420SOL    HW224897   1.473   3.512   4.138 -0.2574 -0.0733  0.4656
 4421SOL     OW24898   3.397   3.936   6.759  0.2424 -0.1151  0.5404
 4421SOL    HW124899   3.489   3.917   6.745  0.1857  1.2486 -1.5968
 4421SOL    HW224900   3.383   4.005   6.695  1.3582 -0.3769  0.0143
 4422SOL     OW24901   0.455   1.353  16.774  0.0390 -0.4091 -0.4616
 4422SOL    HW124902   0.484   1.390  16.690 -0.2476 -0.1382 -0.4404
 4422SOL    HW224903   0.407   1.277  16.743  1.5809 -1.8517  0.6977
 4423SOL     OW24904   2.647   0.113   4.372 -0.1262 -0.2019 -0.1597
 4423SOL    HW124905   2.634   0.188   4.430 -0.7047  0.2878 -0.9134
 4423SOL    HW224906   2.742   0.103   4.376 -0.1688 -1.7093 -2.7609
 4424SOL     OW24907   2.745   4.644   8.907 -0.0331 -0.5484 -0.2740
 4424SOL    HW124908   2.769   4.565   8.955  1.5383  0.4388  0.5720
 4424SOL    HW224909   2.680   4.689   8.960 -0.2853 -0.8103 -0.3625
 4425SOL     OW24910   1.974   2.061  13.781 -0.1389 -0.8323 -0.6600
 4425SOL    HW124911   2.011   2.076  13.868  0.3790 -1.0496 -0.8467
 4425SOL    HW224912   1.882   2.043  13.802 -1.0369  1.2320 -2.8133
 4426SOL     OW24913   3.665   1.467   8.656  0.5103 -0.2136  0.0173
 4426SOL    HW124914   3.584   1.438   8.615  0.9290  1.2278 -1.8224
 4426SOL    HW224915   3.688   1.389   8.706 -3.6765 -1.3443  0.1506
 4427SOL     OW24916   0.623   1.434   2.606 -0.2278  0.1957 -0.1632
 4427SOL    HW124917   0.707   1.447   2.562  0.6575 -3.1513  0.5302
 4427SOL    HW224918   0.576   1.514   2.581 -0.5988 -0.3046 -1.0637
 4428SOL     OW24919   4.735   1.103   8.821 -0.0609  0.4777  0.8305
 4428SOL    HW124920   0.052   1.043   8.770 -1.0680 -1.7635  2.3470
 4428SOL    HW224921   4.731   1.063   8.908  0.7526 -1.0010  0.1859
 4429SOL     OW24922   2.386   2.491   1.116  0.1737 -0.0657  0.5243
 4429SOL    HW124923   2.412   2.403   1.089 -0.5479 -0.7492  2.0531
 4429SOL    HW224924   2.459   2.549   1.093  0.6990 -0.9238  0.0296
 4430SOL     OW24925   4.498   0.108   8.199 -0.1328  0.2951 -0.6175
 4430SOL    HW124926   4.460   0.032   8.242  2.0770 -0.2762  0.3186
 4430SOL    HW224927   4.558   0.063   8.139 -1.6572 -1.9764 -0.4193
 4431SOL     OW24928   4.083   2.801   4.635 -0.1960  0.7787 -0.2969
 4431SOL    HW124929   4.112   2.730   4.692 -3.0300 -0.2134 -0.0909
 4431SOL    HW224930   4.160   2.788   4.579  1.5510  0.6079  2.1545
 4432SOL     OW24931   2.769   3.475  11.452  0.1061  0.2187  0.3125
 4432SOL    HW124932   2.703   3.456  11.386  0.6386 -1.3637  0.2403
 4432SOL    HW224933   2.730   3.547  11.503 -0.1676  1.8717 -2.2267
 4433SOL     OW24934   2.431   0.305   8.214 -0.3134 -0.7751  0.0717
 4433SOL    HW124935   2.511   0.322   8.163  0.2818 -2.1228  0.5396
 4433SOL    HW224936   2.459   0.246   8.284 -1.6344 -0.7879  0.5802
 4434SOL     OW24937   2.531   4.515  14.551  0.9110 -0.1411  0.2325
 4434SOL    HW124938   2.540   4.444  14.615  0.0657  2.3698  3.1437
 4434SOL    HW224939   2.436   4.525  14.558  0.7420 -0.6131 -1.3965
 4435SOL     OW24940   1.465   0.714  13.408  0.2798  0.6040  0.1117
 4435SOL    HW124941   1.508   0.663  13.477 -0.3513 -1.6906 -1.1856
 4435SOL    HW224942   1.539   0.747  13.358 -2.0595  2.6239 -2.0302
 4436SOL     OW24943   3.264   0.902   4.712 -0.2908  0.1071  0.4724
 4436SOL    HW124944   3.351   0.872   4.684 -0.3189 -1.4908  2.1069
 4436SOL    HW224945   3.274   0.927   4.803  1.1534  2.1293 -0.2292
 4437SOL     OW24946   4.604   1.602   3.853  0.5966  0.1200  0.5313
 4437SOL    HW124947   4.523   1.576   3.896  0.6464 -1.5558 -0.3983
 4437SOL    HW224948   4.580   1.568   3.767 -1.1966 -0.9435  1.4741
 4438SOL     OW24949   3.614   4.720   0.132  0.3469 -0.1146 -0.1429
 4438SOL    HW124950   3.523   0.003   0.155 -0.1943 -1.1577 -1.3605
 4438SOL    HW224951   3.641   4.666   0.206  0.4726 -1.0598 -0.8750
 4439SOL     OW24952   1.711   4.609   9.013  0.0356  0.1524 -0.3317
 4439SOL    HW124953   1.634   4.553   9.004 -0.6425  0.4779  3.6843
 4439SOL    HW224954   1.768   4.560   9.072 -0.5617 -1.5096 -1.1223
 4440SOL     OW24955   4.288   0.560  11.977  0.0967 -0.4578 -1.6180
 4440SOL    HW124956   4.299   0.492  12.044 -1.9711  1.3863  0.6062
 4440SOL    HW224957   4.193   0.562  11.968  0.0009 -2.7482 -1.1351
 4441SOL     OW24958   1.337   2.267  10.175 -0.6208 -0.5521  0.0413
 4441SOL    HW124959   1.261   2.315  10.209  0.4226 -0.0314  1.6127
 4441SOL    HW224960   1.287   2.186  10.173  0.3185 -1.1417  0.4056
 4442SOL     OW24961   3.025   3.544   7.159  0.5517 -0.3638  0.3200
 4442SOL    HW124962   3.022   3.631   7.121  0.9986  0.3127  1.8222
 4442SOL    HW224963   3.100   3.525   7.102 -0.0608 -0.0984 -0.5662
 4443SOL     OW24964   4.509   2.004   7.325  0.0574  0.3679  0.1628
 4443SOL    HW124965   4.549   1.919   7.310  0.2445  0.4452  0.2224
 4443SOL    HW224966   4.506   1.994   7.420 -0.1314 -0.6811  0.0447
 4444SOL     OW24967   2.163   3.011   7.098  0.2932 -0.0307  0.2725
 4444SOL    HW124968   2.071   2.995   7.079  0.4736 -2.2604  1.2972
 4444SOL    HW224969   2.171   3.105   7.081 -0.7001 -0.3512 -1.9066
 4445SOL     OW24970   1.979   4.212   9.052  0.0634 -0.2778 -0.0893
 4445SOL    HW124971   2.056   4.192   8.998 -2.6189 -2.3499 -3.1320
 4445SOL    HW224972   1.987   4.153   9.127  2.1528 -0.9718 -0.8441
 4446SOL     OW24973   0.745   1.031  14.478 -0.0747  0.0530  0.3579
 4446SOL    HW124974   0.798   1.035  14.398 -1.1771 -2.1784 -0.4989
 4446SOL    HW224975   0.686   1.106  14.469 -1.5658 -1.0191  1.2107
 4447SOL     OW24976   2.385   3.091  16.805  0.3300 -0.1401  0.0537
 4447SOL    HW124977   2.309   3.047  16.769  0.4458 -0.5249  0.2763
 4447SOL    HW224978   2.427   3.149  16.741  0.3323  1.6001  1.6124
 4448SOL     OW24979   3.321   3.685   6.843  0.4001 -0.4016 -0.1754
 4448SOL    HW124980   3.413   3.661   6.854 -0.0545 -1.7084  0.9083
 4448SOL    HW224981   3.323   3.773   6.806 -1.0992  0.1041  0.9355
 4449SOL     OW24982   4.453   3.975  15.744 -0.1880 -0.0215  0.1614
 4449SOL    HW124983   4.456   4.019  15.659 -1.4502  0.2929  0.2776
 4449SOL    HW224984   4.544   3.948  15.760 -0.2956 -0.1023  0.6380
 4450SOL     OW24985   0.851   0.868   9.450  0.0344  0.1121  0.6172
 4450SOL    HW124986   0.883   0.920   9.524  1.6948 -0.4638  0.3000
 4450SOL    HW224987   0.797   0.932   9.403  1.3955  1.4214  0.8432
 4451SOL     OW24988   0.173   4.628   0.906  0.2342  0.0681 -0.5161
 4451SOL    HW124989   0.242   4.567   0.881 -0.9362 -0.2140 -3.0259
 4451SOL    HW224990   0.170   4.626   1.001  1.3707  3.4017 -0.4146
 4452SOL     OW24991   1.968   1.974   3.871 -0.0423 -0.2948  0.1093
 4452SOL    HW124992   2.009   1.938   3.793  1.7210 -0.7120  1.2314
 4452SOL    HW224993   1.881   1.933   3.867  0.9014 -2.2840  0.0406
 4453SOL     OW24994   1.740   1.668   4.120  0.2111  0.0703 -0.4667
 4453SOL    HW124995   1.666   1.617   4.152  0.9764 -1.5043 -1.1822
 4453SOL    HW224996   1.781   1.696   4.202  0.0930  2.4521 -1.2339
 4454SOL     OW24997   3.561   4.679  13.715  0.5721  0.4315  0.7093
 4454SOL    HW124998   3.635   4.651  13.662  0.4827  0.5246  0.5362
 4454SOL    HW224999   3.580   0.035  13.707  0.2524  0.5479  1.2891
 4455SOL     OW25000   0.067   3.547  10.669  0.1011 -0.0171  0.0577
 4455SOL    HW125001   4.731   3.526  10.727  0.5070 -1.9349 -0.1244
 4455SOL    HW225002   0.125   3.599  10.725  0.7737  0.6990 -1.3036
 4456SOL     OW25003   4.380   4.047   5.546 -0.4997 -0.1929 -0.2088
 4456SOL    HW125004   4.377   4.005   5.632  1.5384  0.9140  0.4012
 4456SOL    HW225005   4.441   3.991   5.498  0.9741  0.0622  1.3582
 4457SOL     OW25006   1.153   3.226  16.020  0.7495  0.4108  0.3551
 4457SOL    HW125007   1.186   3.172  16.092  0.2434 -1.7268 -1.0330
 4457SOL    HW225008   1.077   3.258  16.070  1.7489  1.7797  0.9804
 4458SOL     OW25009   1.039   2.447  14.040  0.2612  0.1173 -0.4575
 4458SOL    HW125010   1.078   2.458  13.953  0.1524 -0.7742 -0.6125
 4458SOL    HW225011   1.111   2.457  14.102  0.7595  0.9397 -1.1719
 4459SOL     OW25012   0.291   2.015  16.141 -0.3043 -0.6490 -0.6042
 4459SOL    HW125013   0.197   2.033  16.131 -0.2614  0.1514  0.4450
 4459SOL    HW225014   0.311   2.025  16.048  1.4195  0.1574 -0.1452
 4460SOL     OW25015   0.804   3.115  13.028 -0.0941 -0.3038 -0.1264
 4460SOL    HW125016   0.823   3.169  12.951  3.0910 -0.9314  0.1912
 4460SOL    HW225017   0.877   3.144  13.084 -0.4982  1.3740 -0.4686
 4461SOL     OW25018   1.951   2.928   4.850  0.3009  0.2499  0.1748
 4461SOL    HW125019   1.981   2.838   4.865 -0.4023  0.2034  1.3517
 4461SOL    HW225020   1.957   2.964   4.939  1.2605  0.9788 -0.1855
 4462SOL     OW25021   3.105   4.584  12.615 -0.0940  0.3558  0.6679
 4462SOL    HW125022   3.125   4.572  12.708 -0.9701 -0.2005  0.7830
 4462SOL    HW225023   3.100   4.680  12.614 -1.2229  0.2651 -2.1904
 4463SOL     OW25024   2.464   3.507   6.008  0.3844 -0.7645  0.9815
 4463SOL    HW125025   2.500   3.596   6.006 -1.8926  0.2030  1.7226
 4463SOL    HW225026   2.438   3.491   6.099 -1.8921 -1.6153  0.1853
 4464SOL     OW25027   4.258   1.305   4.359  0.0909 -0.3026  0.1220
 4464SOL    HW125028   4.263   1.253   4.439 -0.0600 -0.5109 -0.0015
 4464SOL    HW225029   4.315   1.251   4.304  1.4882  0.4904  0.8008
 4465SOL     OW25030   0.912   0.985  12.978  0.6801 -0.2957 -0.0041
 4465SOL    HW125031   0.964   1.065  12.968 -0.8011  0.5635 -0.9875
 4465SOL    HW225032   0.953   0.961  13.061 -0.2485 -0.6617  0.3446
 4466SOL     OW25033   1.613   3.871   5.971  0.4684  0.7456 -0.4216
 4466SOL    HW125034   1.692   3.827   6.004 -0.2473  0.1389  0.4832
 4466SOL    HW225035   1.544   3.837   6.028  1.7468  1.9807  1.8603
 4467SOL     OW25036   4.513   0.328  17.092  0.0988  0.2529  0.2721
 4467SOL    HW125037   4.563   0.334  17.011  2.7305 -1.9498  1.7081
 4467SOL    HW225038   4.428   0.363  17.067 -1.1385 -1.3712  2.1875
 4468SOL     OW25039   4.491   4.388   0.157 -0.0797  0.2934 -0.2264
 4468SOL    HW125040   4.475   4.379   0.063 -0.7112  2.6064 -0.3266
 4468SOL    HW225041   4.493   4.293   0.170  0.3877  0.1026 -1.6537
 4469SOL     OW25042   1.519   3.309   4.123 -0.3993  0.6988  0.1948
 4469SOL    HW125043   1.578   3.303   4.048 -1.0670  1.4491 -0.3907
 4469SOL    HW225044   1.556   3.238   4.174  2.1709  1.7271 -0.2222
 4470SOL     OW25045   1.106   3.841   0.922  0.6273 -0.1523  0.0580
 4470SOL    HW125046   1.142   3.801   1.002 -0.0840 -0.3613  0.2768
 4470SOL    HW225047   1.110   3.773   0.855  0.5224 -0.7935  0.6894
 4471SOL     OW25048   4.124   1.811   4.077  0.3111 -0.5633  0.5501
 4471SOL    HW125049   4.182   1.748   4.034 -0.9642 -0.9959 -0.5211
 4471SOL    HW225050   4.080   1.845   3.999  0.9502  1.5396  1.0941
 4472SOL     OW25051   0.911   2.768   1.211 -0.1784  0.2830 -0.5586
 4472SOL    HW125052   0.852   2.778   1.286  0.4578 -0.0118 -0.0188
 4472SOL    HW225053   0.994   2.800   1.245 -0.1402  3.0103 -3.3148
 4473SOL     OW25054   4.245   4.440   1.761  0.1654  0.3439 -0.2912
 4473SOL    HW125055   4.169   4.395   1.725 -1.4446  1.1677  2.1113
 4473SOL    HW225056   4.225   4.447   1.855 -0.6704 -0.4452 -0.4185
 4474SOL     OW25057   2.384   0.672   9.017  0.1851 -0.8833 -0.1309
 4474SOL    HW125058   2.468   0.636   9.044 -0.4912 -1.3976  1.2581
 4474SOL    HW225059   2.374   0.614   8.942 -0.6480  1.1426 -1.6002
 4475SOL     OW25060   4.729   4.490   5.978 -0.0894 -0.6928  0.0549
 4475SOL    HW125061   0.087   4.495   5.988 -0.3630  0.8418  1.8469
 4475SOL    HW225062   4.724   4.424   5.908 -2.0777  1.3705 -1.7244
 4476SOL     OW25063   1.833   1.939   5.633 -0.3198  0.3032  0.5041
 4476SOL    HW125064   1.871   1.988   5.705 -1.2915 -1.7360  2.3989
 4476SOL    HW225065   1.845   2.002   5.561 -0.4615  0.0056  0.2188
 4477SOL     OW25066   4.108   3.930  12.335 -0.0121 -0.3233 -0.2654
 4477SOL    HW125067   4.137   3.977  12.413  1.3878 -0.2236 -0.8462
 4477SOL    HW225068   4.074   3.853  12.380 -0.6499  1.0906  1.6764
 4478SOL     OW25069   2.242   1.206   4.615  0.4217 -0.3063 -0.0061
 4478SOL    HW125070   2.319   1.157   4.586  0.6068 -0.2551  0.4047
 4478SOL    HW225071   2.237   1.180   4.707  0.4335 -1.0056 -0.2106
 4479SOL     OW25072   1.875   3.267   1.785 -0.9512 -0.9594  0.3746
 4479SOL    HW125073   1.898   3.235   1.873  1.1999  0.8373  0.4809
 4479SOL    HW225074   1.861   3.361   1.798  1.2700 -0.6098  0.2303
 4480SOL     OW25075   3.993   4.703   4.894  0.0860  0.7747  0.3160
 4480SOL    HW125076   3.945   4.654   4.961 -0.0474  2.4474  1.4372
 4480SOL    HW225077   3.972   0.056   4.919  0.1939  0.7579  0.4667
 4481SOL     OW25078   3.913   2.186   9.358 -0.1852 -0.3994  0.2467
 4481SOL    HW125079   3.917   2.109   9.300 -0.3606  1.3800 -2.1194
 4481SOL    HW225080   3.974   2.154   9.425  0.7904  0.5285 -0.1895
 4482SOL     OW25081   3.009   3.333   4.046  0.4416 -0.4063  0.1422
 4482SOL    HW125082   3.015   3.238   4.054 -0.3626 -0.3829  1.0131
 4482SOL    HW225083   2.967   3.353   4.130  1.3719  1.1815  0.2194
 4483SOL     OW25084   2.570   3.843   3.038 -0.4221 -0.2402  0.0586
 4483SOL    HW125085   2.545   3.849   2.946 -0.4358 -1.8001 -0.0430
 4483SOL    HW225086   2.607   3.930   3.052 -1.2605  0.1391 -0.1151
 4484SOL     OW25087   1.968   0.174  10.084  0.2130  0.1953 -0.2100
 4484SOL    HW125088   2.001   0.084  10.092  1.0467  0.6226  1.0906
 4484SOL    HW225089   1.951   0.191  10.177 -1.9984 -0.1528 -0.5528
 4485SOL     OW25090   2.843   1.993   5.532  0.2153  0.0921  0.2646
 4485SOL    HW125091   2.846   1.992   5.436  0.9028  1.2911  0.2711
 4485SOL    HW225092   2.778   2.061   5.543  0.5701  0.4759 -0.0006
 4486SOL     OW25093   4.699   4.308   7.604 -0.1998  0.2443 -0.0585
 4486SOL    HW125094   0.024   4.378   7.584 -0.4415  0.6311  0.5256
 4486SOL    HW225095   4.623   4.357   7.573  1.4880  3.2268  0.4668
 4487SOL     OW25096   3.626   2.811   3.731  0.0825 -0.5108 -0.2413
 4487SOL    HW125097   3.560   2.811   3.801 -0.3208 -0.5969 -0.6168
 4487SOL    HW225098   3.686   2.881   3.755  0.3885 -0.2264 -1.8916
 4488SOL     OW25099   1.955   0.413   0.189  0.1983 -0.2621  0.4829
 4488SOL    HW125100   1.875   0.465   0.198 -0.9922 -2.0406  0.2101
 4488SOL    HW225101   2.002   0.430   0.270  2.6950  0.0725 -1.0561
 4489SOL     OW25102   3.511   3.716   3.116  0.4181 -0.0022 -0.2154
 4489SOL    HW125103   3.534   3.647   3.055  0.4869 -0.6517  0.5433
 4489SOL    HW225104   3.501   3.668   3.198  0.4694 -0.8401 -0.7018
 4490SOL     OW25105   3.104   0.826   2.287 -0.5871  0.3304  0.2478
 4490SOL    HW125106   3.061   0.797   2.368 -0.3155 -0.8262 -0.0212
 4490SOL    HW225107   3.094   0.754   2.225  0.0376 -0.2006  0.7602
 4491SOL     OW25108   3.790   3.654   2.495  0.5894 -0.1322 -0.2469
 4491SOL    HW125109   3.767   3.622   2.407  2.7748  0.7751 -1.1496
 4491SOL    HW225110   3.873   3.613   2.520  1.2865  1.0333 -0.6441
 4492SOL     OW25111   2.550   0.988   6.943  0.0331  0.3032 -0.0459
 4492SOL    HW125112   2.635   0.995   6.985  0.3704 -0.8819 -0.5330
 4492SOL    HW225113   2.576   0.963   6.854  1.7685  2.3991 -0.1308
 4493SOL     OW25114   0.945   2.684   2.714 -0.1092  0.7193  0.0137
 4493SOL    HW125115   0.905   2.733   2.785 -1.7784  0.4939 -0.7854
 4493SOL    HW225116   1.037   2.699   2.735  0.5487 -0.2103 -2.1919
 4494SOL     OW25117   2.089   2.456   4.459 -0.2963 -0.1486  0.1136
 4494SOL    HW125118   2.082   2.379   4.403  0.5764 -0.6546  0.7016
 4494SOL    HW225119   2.175   2.493   4.439  0.6204 -1.1943  2.1626
 4495SOL     OW25120   4.665   0.566  11.917  0.0049  0.8349 -0.0461
 4495SOL    HW125121   4.608   0.509  11.864  2.0004 -1.5442  0.3592
 4495SOL    HW225122   4.675   0.641  11.859 -0.9108 -0.1297 -1.4733
 4496SOL     OW25123   2.145   0.017  14.057  0.0337 -0.0448 -1.0507
 4496SOL    HW125124   2.194   0.029  13.976  0.9719 -0.3143 -0.5272
 4496SOL    HW225125   2.215   4.731  14.119 -0.8213 -0.5516 -0.2684
 4497SOL     OW25126   3.380   0.739   6.676 -0.2867  0.3155  0.6401
 4497SOL    HW125127   3.460   0.765   6.722  1.0934 -1.4842 -0.6988
 4497SOL    HW225128   3.344   0.819   6.636  0.8120  1.5256  2.0711
 4498SOL     OW25129   2.008   3.721   3.605  0.2949  0.1448  0.7617
 4498SOL    HW125130   1.933   3.713   3.546  1.5100  1.1951 -0.9356
 4498SOL    HW225131   2.037   3.811   3.587 -0.4885  0.3348  0.4655
 4499SOL     OW25132   2.872   1.581  13.048  0.3612  0.3679 -0.2705
 4499SOL    HW125133   2.929   1.536  13.110 -2.0463  0.9186  2.3390
 4499SOL    HW225134   2.879   1.667  13.090 -2.1772  0.3368  0.1969
 4500SOL     OW25135   2.127   4.648  10.967  0.1325 -0.1036 -0.6686
 4500SOL    HW125136   2.073   4.649  10.888  0.2430 -2.1282 -0.7600
 4500SOL    HW225137   2.185   4.722  10.947 -0.9018  0.3041 -2.1720
 4501SOL     OW25138   2.128   4.055   2.594  0.5000  0.4244  0.6412
 4501SOL    HW125139   2.142   4.075   2.687  2.5672  3.4317 -0.2825
 4501SOL    HW225140   2.221   4.044   2.572  0.4976  0.6305  0.5261
 4502SOL     OW25141   4.252   0.392  17.053  0.8081 -0.3547 -0.0434
 4502SOL    HW125142   4.179   0.335  17.079  1.0714 -2.1100 -3.1071
 4502SOL    HW225143   4.249   0.462  17.118 -0.0267 -0.3936 -0.0480
 4503SOL     OW25144   2.867   3.325   3.436 -0.1098  0.1618  0.5256
 4503SOL    HW125145   2.900   3.388   3.372  2.0424  0.0797  1.5658
 4503SOL    HW225146   2.791   3.285   3.395  1.1798 -2.1068  0.3322
 4504SOL     OW25147   1.691   1.197   9.259 -0.1405 -0.0058  0.0173
 4504SOL    HW125148   1.660   1.112   9.227 -1.4855  0.3748  0.3425
 4504SOL    HW225149   1.722   1.238   9.178 -2.2342  0.2585 -0.6400
 4505SOL     OW25150   3.563   0.170   4.727 -0.2691  0.4180  0.4006
 4505SOL    HW125151   3.472   0.198   4.739  0.2776  2.1636  0.3456
 4505SOL    HW225152   3.591   0.148   4.816 -0.1308 -0.3441  0.1732
 4506SOL     OW25153   0.772   2.414   8.135  0.1374  0.0874  0.3776
 4506SOL    HW125154   0.835   2.343   8.124  0.4927  0.5869 -0.7569
 4506SOL    HW225155   0.722   2.374   8.207 -1.6559 -1.1701 -1.5600
 4507SOL     OW25156   2.368   1.408  10.069 -0.5168  0.2463 -0.1189
 4507SOL    HW125157   2.392   1.345  10.002  0.2727  1.1607 -0.6944
 4507SOL    HW225158   2.300   1.360  10.116 -0.3692  1.7368  1.6052
 4508SOL     OW25159   3.916   3.500   8.018  0.0956  0.1406 -0.1191
 4508SOL    HW125160   3.956   3.456   7.943  1.7534  0.8580  0.3468
 4508SOL    HW225161   3.825   3.471   8.010  0.2254 -0.5937  1.0487
 4509SOL     OW25162   2.576   0.909   6.050  0.2088 -0.0081  0.4257
 4509SOL    HW125163   2.629   0.982   6.018  1.8610 -1.8580 -1.0542
 4509SOL    HW225164   2.648   0.846   6.054  0.2944  0.0771  0.2288
 4510SOL     OW25165   1.896   4.170   2.474 -0.1418 -0.0914 -0.5912
 4510SOL    HW125166   1.984   4.141   2.498  0.8666  3.2220 -0.3682
 4510SOL    HW225167   1.842   4.161   2.552 -0.1094  1.3127 -0.4018
 4511SOL     OW25168   4.313   2.291  14.754  0.5687 -0.1756  0.1754
 4511SOL    HW125169   4.294   2.384  14.754  1.3082 -0.0333  1.2598
 4511SOL    HW225170   4.229   2.254  14.782  0.8547 -1.5752 -0.7894
 4512SOL     OW25171   1.644   4.479   9.583 -0.1045 -0.2701 -0.7466
 4512SOL    HW125172   1.553   4.506   9.595  0.1519 -0.2309  1.0121
 4512SOL    HW225173   1.671   4.551   9.525  1.7123 -1.3549 -1.2492
 4513SOL     OW25174   4.436   1.658   0.558  0.0938  0.1360  0.1850
 4513SOL    HW125175   4.493   1.676   0.632  0.1702  5.2924 -1.0940
 4513SOL    HW225176   4.347   1.650   0.594 -0.0075  2.2298  0.3738
 4514SOL     OW25177   3.104   0.814   3.576 -0.0263  0.1341 -0.3871
 4514SOL    HW125178   3.085   0.867   3.499  1.9266 -0.3106 -1.1784
 4514SOL    HW225179   3.135   0.729   3.543 -2.2782  0.1887 -2.6468
 4515SOL     OW25180   4.140   3.993   0.182  0.1427  0.3373 -0.2687
 4515SOL    HW125181   4.180   4.060   0.127 -0.2952 -0.8232 -1.9932
 4515SOL    HW225182   4.048   4.009   0.163 -0.3148 -3.1772 -1.1327
 4516SOL     OW25183   1.777   3.001   5.793  0.1785  0.6508 -0.4823
 4516SOL    HW125184   1.819   2.919   5.766  0.1949  1.0821 -1.7598
 4516SOL    HW225185   1.757   3.031   5.704 -1.5855  1.5650  0.2292
 4517SOL     OW25186   0.022   1.817   6.746  0.3320 -0.1907 -0.1472
 4517SOL    HW125187   4.733   1.726   6.731  1.2116 -0.3801 -0.5322
 4517SOL    HW225188   0.092   1.828   6.682  1.1512 -1.5670  0.5291
 4518SOL     OW25189   3.934   3.796  10.358  0.6065  0.3933  0.4926
 4518SOL    HW125190   4.014   3.810  10.308  0.5165 -1.8385 -0.2851
 4518SOL    HW225191   3.925   3.879  10.406 -0.6019  1.6999 -2.0067
 4519SOL     OW25192   4.041   4.358   9.728 -0.4233  0.3447 -0.1675
 4519SOL    HW125193   3.969   4.418   9.745 -1.1192 -1.4350  3.1298
 4519SOL    HW225194   3.986   4.287   9.695  0.7621 -1.5912  1.9974
 4520SOL     OW25195   4.583   2.461   4.423 -0.5030  0.4079  0.0097
 4520SOL    HW125196   4.596   2.369   4.404 -0.3454  0.0982  1.6020
 4520SOL    HW225197   4.517   2.482   4.356 -1.8576  0.6875  1.4151
 4521SOL     OW25198   0.010   1.610  10.116 -0.2826 -0.9424  0.3382
 4521SOL    HW125199   0.103   1.632  10.118 -0.5302  0.0590  0.9130
 4521SOL    HW225200   4.715   1.674  10.179  0.9438  0.5028 -0.4938
 4522SOL     OW25201   3.611   1.560  10.647  0.4434 -0.0639 -0.9541
 4522SOL    HW125202   3.632   1.652  10.630 -0.3642  0.3172  0.1602
 4522SOL    HW225203   3.536   1.568  10.706  2.5239 -1.8019  1.9104
 4523SOL     OW25204   1.448   0.610   8.436  1.1255  0.3292 -0.0810
 4523SOL    HW125205   1.435   0.679   8.371 -0.7967  0.0800  0.0381
 4523SOL    HW225206   1.417   0.658   8.512 -0.9133  2.0644 -2.0139
 4524SOL     OW25207   1.096   3.356   1.276 -0.6065 -0.3285  0.3039
 4524SOL    HW125208   1.078   3.372   1.369 -2.0932 -2.8092  0.4422
 4524SOL    HW225209   1.125   3.445   1.255  0.5822 -0.9579 -0.6896
 4525SOL     OW25210   2.922   1.768  10.999  0.2072  0.2521  0.1742
 4525SOL    HW125211   2.847   1.780  11.057 -0.4612  1.2292 -0.8915
 4525SOL    HW225212   2.936   1.857  10.964  0.6365  0.5433  1.0652
 4526SOL     OW25213   1.321   0.937   7.028 -0.8654 -0.0470  0.0049
 4526SOL    HW125214   1.366   0.943   7.112  0.6887  0.9825 -0.8984
 4526SOL    HW225215   1.243   0.987   7.054 -0.6117 -0.2330  1.1272
 4527SOL     OW25216   4.662   1.159   8.136  0.2025 -0.3644  0.4936
 4527SOL    HW125217   4.677   1.253   8.136 -0.3097 -0.2855 -1.4647
 4527SOL    HW225218   4.578   1.163   8.091 -0.4860 -0.1905  1.8269
 4528SOL     OW25219   2.138   0.944   3.780 -0.4140  0.4502 -0.3613
 4528SOL    HW125220   2.058   0.996   3.773 -0.9897 -0.5162 -0.9432
 4528SOL    HW225221   2.133   0.907   3.869  0.8239 -2.1184 -1.3559
 4529SOL     OW25222   1.472   3.739   2.788 -0.5775 -0.2303  0.3380
 4529SOL    HW125223   1.532   3.665   2.777 -0.5023  0.2506 -2.3251
 4529SOL    HW225224   1.535   3.810   2.802 -0.8607  0.2935 -1.1220
 4530SOL     OW25225   1.286   1.386  13.835 -0.2707  0.4780 -1.0660
 4530SOL    HW125226   1.226   1.436  13.891  0.6649  2.1195 -1.5363
 4530SOL    HW225227   1.307   1.442  13.761 -0.2043  1.3924 -0.3679
 4531SOL     OW25228   2.693   0.091   0.669  0.3717 -0.4365  0.1030
 4531SOL    HW125229   2.758   0.037   0.624 -0.4058 -1.2235 -0.0821
 4531SOL    HW225230   2.629   0.109   0.599 -0.4014 -0.9845  0.6724
 4532SOL     OW25231   3.734   3.820   7.743 -0.3842 -0.2327  0.2435
 4532SOL    HW125232   3.802   3.869   7.789 -0.8131 -0.6545  1.3214
 4532SOL    HW225233   3.752   3.842   7.652  0.3807  1.0505  0.7062
 4533SOL     OW25234   2.022   2.998   1.978  0.1385  0.6617  0.6700
 4533SOL    HW125235   1.975   2.924   1.940 -1.5979  1.2186  1.7474
 4533SOL    HW225236   2.112   2.982   1.947  0.0125  2.1570 -0.4778
 4534SOL     OW25237   1.831   2.411  12.632  0.8555 -0.3128 -0.1290
 4534SOL    HW125238   1.859   2.448  12.716  3.0958 -0.9211 -0.6172
 4534SOL    HW225239   1.841   2.317  12.643 -1.4176 -0.5478  0.0095
 4535SOL     OW25240   3.284   2.119   2.848 -0.8655 -0.1188  0.1429
 4535SOL    HW125241   3.252   2.185   2.786 -2.1393 -1.6406 -0.7994
 4535SOL    HW225242   3.299   2.044   2.791  0.7747 -1.9382  2.9519
 4536SOL     OW25243   3.959   3.168   3.856 -0.4109 -0.0642 -0.1453
 4536SOL    HW125244   3.991   3.078   3.852  5.1227  1.8858 -0.5881
 4536SOL    HW225245   4.032   3.219   3.819 -0.4235 -1.0810 -1.5482
 4537SOL     OW25246   1.747   0.332   9.699  0.0525 -0.1401  0.3856
 4537SOL    HW125247   1.730   0.304   9.609  1.9269 -0.5277  0.1712
 4537SOL    HW225248   1.742   0.248   9.743  0.8796 -1.3824 -1.9250
 4538SOL     OW25249   0.106   2.315   4.638  0.7497 -0.1053 -0.2816
 4538SOL    HW125250   0.145   2.247   4.694 -0.4079 -0.7517 -0.2698
 4538SOL    HW225251   0.099   2.266   4.556  1.2630 -0.8245  0.1004
 4539SOL     OW25252   1.390   1.435   8.800 -0.0671 -0.3915  0.0279
 4539SOL    HW125253   1.399   1.344   8.829 -0.6125 -1.0239 -1.7396
 4539SOL    HW225254   1.450   1.451   8.727  1.9979  0.0649  1.8423
 4540SOL     OW25255   0.528   3.729   7.508 -0.3538  0.4651 -0.0161
 4540SOL    HW125256   0.612   3.712   7.466 -0.8292  0.9832 -1.1939
 4540SOL    HW225257   0.542   3.820   7.533 -0.7801  0.8125 -1.0130
 4541SOL     OW25258   1.070   2.871   7.632 -0.3680 -0.4040  0.4245
 4541SOL    HW125259   1.104   2.828   7.710 -0.1175  0.6633  0.9093
 4541SOL    HW225260   0.999   2.928   7.660  1.2025  2.3118 -1.0198
 4542SOL     OW25261   1.103   4.655   1.360  0.3016 -0.0179 -0.7457
 4542SOL    HW125262   1.119   4.565   1.331 -0.6588 -1.0827  2.0627
 4542SOL    HW225263   1.015   4.674   1.326  1.0554  1.2287 -2.0247
 4543SOL     OW25264   4.155   0.396   2.574  0.4111  0.1593  0.0736
 4543SOL    HW125265   4.075   0.440   2.545  0.1104 -0.6477 -0.3364
 4543SOL    HW225266   4.132   0.377   2.665 -0.7257 -0.6462 -0.3775
 4544SOL     OW25267   1.605   2.559  14.405  0.1091 -0.1029 -0.0660
 4544SOL    HW125268   1.618   2.594  14.317 -1.4319  0.7187  0.0408
 4544SOL    HW225269   1.554   2.480  14.385 -0.1775 -0.2072  1.0639
 4545SOL     OW25270   3.063   0.755   9.652 -0.3510 -0.5207 -0.2875
 4545SOL    HW125271   2.968   0.754   9.663 -0.2679 -0.2356  0.4458
 4545SOL    HW225272   3.090   0.732   9.740 -0.7477  2.1674  0.5218
 4546SOL     OW25273   2.843   1.974   0.058  0.1216 -0.1498  0.8667
 4546SOL    HW125274   2.825   2.058   0.100  0.2078  1.1453 -1.6776
 4546SOL    HW225275   2.813   1.993  17.716  2.1750 -1.0000 -0.0149
 4547SOL     OW25276   3.654   3.997   5.572  0.0940 -0.2873  0.5017
 4547SOL    HW125277   3.612   4.076   5.607 -2.5906 -1.6678  0.3850
 4547SOL    HW225278   3.731   4.038   5.531 -0.1181 -1.1423 -0.7378
 4548SOL     OW25279   2.121   1.510   5.428  0.7676 -0.1142  0.5515
 4548SOL    HW125280   2.059   1.486   5.496 -1.1399  0.6745 -0.8975
 4548SOL    HW225281   2.206   1.479   5.457 -0.6963 -3.8271  0.8340
 4549SOL     OW25282   1.795   2.386   8.535 -0.6332  0.2233  0.2999
 4549SOL    HW125283   1.835   2.382   8.621 -0.9278 -1.3055  0.3617
 4549SOL    HW225284   1.704   2.355   8.538 -1.5166  2.5285 -2.6127
 4550SOL     OW25285   0.209   3.316  17.512  0.4919 -0.0870  0.1370
 4550SOL    HW125286   0.207   3.267  17.430 -1.6335 -2.4722  1.6353
 4550SOL    HW225287   0.116   3.338  17.519  1.3959  3.1011  2.3118
 4551SOL     OW25288   1.483   3.524   6.161 -0.4181 -0.2126  0.1076
 4551SOL    HW125289   1.442   3.470   6.228  0.1904  0.3338  0.9186
 4551SOL    HW225290   1.447   3.484   6.082 -0.2946  3.4811 -1.7994
 4552SOL     OW25291   3.709   4.079   0.717  0.2649  0.2485 -0.4552
 4552SOL    HW125292   3.688   4.076   0.623 -0.8568  0.8219 -0.2207
 4552SOL    HW225293   3.631   4.048   0.761 -1.0659  1.2603 -2.0842
 4553SOL     OW25294   2.756   0.977   3.335 -0.4287  0.2980  0.1264
 4553SOL    HW125295   2.746   0.925   3.415 -1.5518 -0.3213 -0.4281
 4553SOL    HW225296   2.846   1.006   3.351 -0.3607  0.4988 -0.6233
 4554SOL     OW25297   0.234   3.836   0.321 -0.2459  0.8376 -0.3128
 4554SOL    HW125298   0.300   3.812   0.385 -3.3134 -0.4995  2.3693
 4554SOL    HW225299   0.223   3.920   0.366  2.2078  0.5837  0.7062
 4555SOL     OW25300   2.061   2.374   9.098 -0.4627 -0.1192 -0.1645
 4555SOL    HW125301   2.053   2.306   9.031 -2.3322  1.1599 -1.2541
 4555SOL    HW225302   2.050   2.316   9.173  0.2396 -1.2887 -0.9731
 4556SOL     OW25303   3.355   3.830   2.116  0.1616  0.0044  0.2166
 4556SOL    HW125304   3.350   3.901   2.180  0.9204 -0.0165  0.2976
 4556SOL    HW225305   3.439   3.852   2.076 -1.0955  1.0558 -1.8843
 4557SOL     OW25306   3.097   2.840   9.318  0.1792 -0.5024  0.0845
 4557SOL    HW125307   3.186   2.849   9.352  0.5943  0.1735 -1.1684
 4557SOL    HW225308   3.088   2.745   9.323 -2.9757 -0.2946 -1.1714
 4558SOL     OW25309   1.174   3.817   5.391 -0.0254 -0.0373  0.0569
 4558SOL    HW125310   1.085   3.848   5.406 -0.8255 -2.3145 -0.0224
 4558SOL    HW225311   1.202   3.887   5.333 -0.3673  2.0431  2.3638
 4559SOL     OW25312   1.364   0.747   6.586 -1.0519 -0.2185 -0.7405
 4559SOL    HW125313   1.391   0.837   6.605  1.2420 -0.3343 -3.4284
 4559SOL    HW225314   1.270   0.756   6.598 -0.6596  0.0343  1.9542
 4560SOL     OW25315   4.045   3.579   2.540  0.3153 -0.0860 -0.1280
 4560SOL    HW125316   4.114   3.603   2.601  0.7107 -0.1833 -0.5402
 4560SOL    HW225317   4.042   3.650   2.476  2.9752 -0.5868 -0.7902
 4561SOL     OW25318   3.540   2.995  17.217 -0.0765 -0.5953  0.4930
 4561SOL    HW125319   3.449   2.996  17.244 -0.3562  1.7940 -0.4860
 4561SOL    HW225320   3.577   2.938  17.284  0.6695 -1.2460 -0.4746
 4562SOL     OW25321   1.536   3.248   3.654 -0.3948  0.0007  0.3148
 4562SOL    HW125322   1.632   3.249   3.653 -0.3584 -1.7960  2.2203
 4562SOL    HW225323   1.532   3.303   3.732 -1.8718  1.8740 -1.0761
 4563SOL     OW25324   1.247   0.091   8.727 -0.5896 -0.0746  0.3872
 4563SOL    HW125325   1.264   0.164   8.787  0.9387  0.4628 -0.6836
 4563SOL    HW225326   1.324   0.106   8.672  1.5009 -4.0859  2.2699
 4564SOL     OW25327   2.120   0.778   2.125  0.1243  0.2871  0.7497
 4564SOL    HW125328   2.215   0.780   2.114  0.1412 -0.6901  0.7032
 4564SOL    HW225329   2.115   0.786   2.220  2.8600  0.3654  0.8837
 4565SOL     OW25330   2.590   3.129   5.090  0.3487 -0.3815 -0.0690
 4565SOL    HW125331   2.498   3.103   5.090  0.0284  0.7560 -1.3474
 4565SOL    HW225332   2.635   3.058   5.044  0.6064  0.2916 -0.8392
 4566SOL     OW25333   4.602   4.388   2.220  0.6235 -0.1869  0.0056
 4566SOL    HW125334   4.629   4.336   2.296 -1.1827 -3.4318 -1.5794
 4566SOL    HW225335   4.672   4.453   2.222  0.9506 -0.5042 -1.0955
 4567SOL     OW25336   2.612   1.456  13.101 -0.7018 -0.5747 -0.3320
 4567SOL    HW125337   2.701   1.489  13.113 -0.8292  0.1949 -1.5070
 4567SOL    HW225338   2.575   1.497  13.023  0.9909  0.9493 -0.3264
 4568SOL     OW25339   2.019   1.853   0.193 -0.6786 -0.2556 -0.7503
 4568SOL    HW125340   2.024   1.757   0.195 -1.2936 -0.2545  1.3501
 4568SOL    HW225341   2.110   1.880   0.183 -0.6012 -0.9485 -1.8797
 4569SOL     OW25342   2.059   2.935  10.503 -0.3242 -0.4078  0.1350
 4569SOL    HW125343   2.070   2.841  10.515  2.4290  0.0178  0.8631
 4569SOL    HW225344   2.092   2.973  10.585 -2.3978 -0.8530  1.1674
 4570SOL     OW25345   2.851   4.362  16.866 -0.5778 -0.2836  0.1800
 4570SOL    HW125346   2.838   4.364  16.961 -3.9827  0.3706 -0.3019
 4570SOL    HW225347   2.911   4.288  16.861 -0.2178 -0.0706  1.3705
 4571SOL     OW25348   1.871   3.776   6.087  0.1715  0.8858  1.0408
 4571SOL    HW125349   1.890   3.831   6.163  1.1676  0.4438  1.1101
 4571SOL    HW225350   1.958   3.738   6.075 -0.5006  0.4768 -2.6734
 4572SOL     OW25351   0.131   4.322  16.558  0.2468 -0.1742  0.4794
 4572SOL    HW125352   0.225   4.316  16.546  0.2294 -0.7928  0.6408
 4572SOL    HW225353   0.109   4.415  16.558 -0.7838 -0.4160  0.4344
 4573SOL     OW25354   4.384   2.710   5.621 -0.4234  0.0516 -0.2499
 4573SOL    HW125355   4.404   2.617   5.628 -1.1986 -0.1068 -0.1946
 4573SOL    HW225356   4.328   2.713   5.543 -0.0358  2.3621 -0.4597
 4574SOL     OW25357   1.051   3.051   4.133  0.4911  0.2120  0.7779
 4574SOL    HW125358   1.004   3.015   4.208 -2.4420  0.8784 -0.7830
 4574SOL    HW225359   1.090   3.133   4.163  0.3812  0.7238 -0.4745
 4575SOL     OW25360   3.639   0.681  12.223  0.0091  0.4235 -0.3634
 4575SOL    HW125361   3.692   0.649  12.150 -1.7586 -1.1577 -0.9383
 4575SOL    HW225362   3.703   0.691  12.294  1.3092  2.2691 -1.7973
 4576SOL     OW25363   4.208   0.524  10.828 -0.6976 -0.0698 -0.6887
 4576SOL    HW125364   4.290   0.531  10.780 -0.1943  1.1766  0.4086
 4576SOL    HW225365   4.182   0.616  10.829 -3.1085 -0.7405 -0.1714
 4577SOL     OW25366   4.446   0.221   1.632  0.4497  0.1728 -0.1022
 4577SOL    HW125367   4.369   0.171   1.658  0.4675 -0.5703 -1.4662
 4577SOL    HW225368   4.405   0.300   1.669 -1.9060 -0.6022 -1.0203
 4578SOL     OW25369   1.332   3.482   1.011 -0.2224 -0.5004 -0.4327
 4578SOL    HW125370   1.321   3.394   0.975  2.1174 -0.8130 -0.3864
 4578SOL    HW225371   1.255   3.532   0.987  0.8957  1.1863 -0.4781
 4579SOL     OW25372   3.854   0.259   7.164  0.3413 -0.6809 -0.5285
 4579SOL    HW125373   3.831   0.205   7.239  2.5093  0.4484  0.9509
 4579SOL    HW225374   3.785   0.237   7.101  1.2158 -1.1517 -1.3217
 4580SOL     OW25375   3.104   2.453  12.179  0.7696  0.0138  0.1343
 4580SOL    HW125376   3.131   2.527  12.234 -2.4293  1.3598 -0.1121
 4580SOL    HW225377   3.038   2.484  12.118 -0.9649  0.0326  2.0078
 4581SOL     OW25378   1.335   3.594  16.525  0.4663  0.1916  0.4801
 4581SOL    HW125379   1.315   3.506  16.557 -2.6357  0.8099  0.2816
 4581SOL    HW225380   1.246   3.621  16.502 -0.7304 -3.7360  0.5295
 4582SOL     OW25381   2.249   0.599   7.137 -0.1343  0.2495 -0.2736
 4582SOL    HW125382   2.207   0.566   7.216  0.0639 -1.0606 -0.7150
 4582SOL    HW225383   2.306   0.671   7.162 -1.0829  0.4379  1.3242
 4583SOL     OW25384   1.915   2.765  11.401  0.7165 -0.9447  0.5305
 4583SOL    HW125385   1.979   2.832  11.427  0.1795  0.2520 -1.2702
 4583SOL    HW225386   1.931   2.693  11.463  0.8476 -1.1098  0.3026
 4584SOL     OW25387   3.564   3.864   7.214  0.2108  0.6090 -0.6084
 4584SOL    HW125388   3.492   3.918   7.181 -2.1480 -2.6400 -0.7738
 4584SOL    HW225389   3.552   3.876   7.308  0.2348  0.4333 -0.5826
 4585SOL     OW25390   1.108   3.754   4.340 -0.1849 -0.1127 -0.4038
 4585SOL    HW125391   1.191   3.707   4.335  0.5367  0.9666  1.4922
 4585SOL    HW225392   1.076   3.696   4.410  0.7343 -1.5994 -1.2300
 4586SOL     OW25393   3.879   2.308  10.832 -0.4711  0.2189 -0.8201
 4586SOL    HW125394   3.785   2.291  10.843 -0.2828 -0.2742  0.0533
 4586SOL    HW225395   3.913   2.222  10.857 -1.3934  0.1290  0.0982
 4587SOL     OW25396   1.607   3.608   8.495  0.0298  0.1311  0.3496
 4587SOL    HW125397   1.572   3.694   8.471 -1.8415 -1.0141 -0.9968
 4587SOL    HW225398   1.687   3.610   8.442 -0.1752 -0.8335  0.0141
 4588SOL     OW25399   4.274   1.533   8.619 -0.4241  0.5635  0.4929
 4588SOL    HW125400   4.300   1.513   8.709 -0.2549  1.3611  0.6222
 4588SOL    HW225401   4.257   1.626   8.630 -0.1386  1.0708 -3.2522
 4589SOL     OW25402   4.264   0.048   7.603 -0.1364 -0.7892 -0.4138
 4589SOL    HW125403   4.184   0.095   7.629  0.9300  2.0882 -2.3481
 4589SOL    HW225404   4.324   0.082   7.669  1.7680 -0.3873 -2.3935
 4590SOL     OW25405   4.295   0.319   6.490 -0.7049 -0.7989 -0.5999
 4590SOL    HW125406   4.352   0.312   6.567 -0.5921  3.8982 -0.2672
 4590SOL    HW225407   4.243   0.398   6.501  1.3673  0.7215 -1.6475
 4591SOL     OW25408   3.693   0.399  12.069  0.0487 -0.0327  0.0893
 4591SOL    HW125409   3.736   0.339  12.009  0.2272 -0.6545  0.8343
 4591SOL    HW225410   3.707   0.486  12.032  3.1423 -0.2381  0.8291
 4592SOL     OW25411   1.502   1.954   5.612  0.3230  0.9991  0.1449
 4592SOL    HW125412   1.494   1.889   5.682 -2.4563  2.3616  1.1186
 4592SOL    HW225413   1.551   2.019   5.661  0.1111  0.4391  1.0960
 4593SOL     OW25414   1.106   2.470  11.641 -0.1442 -0.0665  0.1440
 4593SOL    HW125415   1.113   2.470  11.736  1.3695 -0.8173  0.0271
 4593SOL    HW225416   1.136   2.381  11.625 -0.1105  0.1391 -0.9413
 4594SOL     OW25417   2.059   4.155   4.230 -0.7265 -0.4415 -0.0604
 4594SOL    HW125418   2.037   4.239   4.190  2.4717  0.3623 -0.1331
 4594SOL    HW225419   2.049   4.185   4.320  0.5958 -2.0295  0.6148
 4595SOL     OW25420   2.315   3.302  11.791 -0.1417 -0.0564 -0.6838
 4595SOL    HW125421   2.387   3.309  11.854 -0.7919 -1.1329  0.1769
 4595SOL    HW225422   2.241   3.278  11.847  0.1507 -1.1508 -0.7654
 4596SOL     OW25423   3.146   0.581   4.913 -0.1294  0.3631 -0.0472
 4596SOL    HW125424   3.194   0.642   4.969  0.0707  0.5742 -0.4459
 4596SOL    HW225425   3.057   0.611   4.932 -0.8113  0.1596 -2.9313
 4597SOL     OW25426   0.138   1.451   6.463 -0.5055  0.2986  0.3133
 4597SOL    HW125427   0.159   1.474   6.373  2.1523 -0.9667  0.6245
 4597SOL    HW225428   0.116   1.360   6.440 -1.3725  0.5598  0.0977
 4598SOL     OW25429   3.446   1.692   1.841 -0.5030 -0.1656 -0.1050
 4598SOL    HW125430   3.378   1.633   1.872 -2.2921  2.9227  1.8983
 4598SOL    HW225431   3.473   1.660   1.755  1.0975 -0.1112  0.3661
 4599SOL     OW25432   3.464   0.056  15.886 -0.5314  0.0344  0.7419
 4599SOL    HW125433   3.492   4.707  15.919 -0.1101 -0.8272 -1.8017
 4599SOL    HW225434   3.392   0.087  15.941 -1.7674  1.9392 -1.9717
 4600SOL     OW25435   0.679   1.574   3.331 -0.0358  0.2759 -0.6055
 4600SOL    HW125436   0.618   1.528   3.389 -1.2262  1.8895 -0.5721
 4600SOL    HW225437   0.766   1.570   3.370  0.4088 -1.3197 -1.7670
 4601SOL     OW25438   4.313   0.737   4.447 -0.0152 -0.1343 -0.3387
 4601SOL    HW125439   4.289   0.825   4.420  0.4921  0.7432  2.0928
 4601SOL    HW225440   4.255   0.687   4.389  0.8228 -2.0059  0.4259
 4602SOL     OW25441   0.493   0.806  10.744 -0.6159  0.4855 -0.1052
 4602SOL    HW125442   0.537   0.742  10.800  0.9794  0.5699 -1.2763
 4602SOL    HW225443   0.530   0.773  10.662  0.5201  0.7573  0.3044
 4603SOL     OW25444   2.587   0.209   5.912 -0.1722  0.1188  0.0953
 4603SOL    HW125445   2.495   0.210   5.937 -0.0954  2.7151  0.2731
 4603SOL    HW225446   2.595   0.303   5.931 -2.3286 -0.0808  1.9434
 4604SOL     OW25447   2.825   1.175   0.523  0.1055  0.4505 -0.8053
 4604SOL    HW125448   2.831   1.091   0.567  1.2390  1.4724  0.9938
 4604SOL    HW225449   2.760   1.156   0.455 -1.0805  3.2336 -0.4604
 4605SOL     OW25450   1.110   2.367  13.740  0.1426 -0.0900 -0.0917
 4605SOL    HW125451   1.183   2.322  13.697  1.0497 -0.4107  1.7509
 4605SOL    HW225452   1.051   2.292  13.746  0.7169 -0.7104 -2.2049
 4606SOL     OW25453   0.189   1.150   3.661 -0.7152 -0.2694 -0.0228
 4606SOL    HW125454   0.202   1.084   3.594  1.6163  0.8732 -0.6905
 4606SOL    HW225455   0.094   1.163   3.657 -0.7812 -0.1228  1.7427
 4607SOL     OW25456   3.930   3.443   0.302  0.5374  0.2258 -0.2332
 4607SOL    HW125457   3.987   3.519   0.290  2.0275 -0.9610 -0.6452
 4607SOL    HW225458   3.947   3.384   0.229 -0.8325 -0.2713 -0.1537
 4608SOL     OW25459   1.620   1.984   4.743 -0.3052  0.3896 -0.2049
 4608SOL    HW125460   1.712   1.960   4.736 -0.1011  1.1610 -0.1640
 4608SOL    HW225461   1.603   1.961   4.835 -1.5564  0.4401 -0.4259
 4609SOL     OW25462   2.800   2.927   1.759  0.4465  0.8565  0.2361
 4609SOL    HW125463   2.734   2.993   1.780  2.0791  2.5968 -0.0745
 4609SOL    HW225464   2.812   2.943   1.665  2.2583 -0.7653  0.1782
 4610SOL     OW25465   1.808   4.711   2.363  0.2171 -0.6806  0.5494
 4610SOL    HW125466   1.790   4.617   2.369  0.4548 -0.7593 -0.0027
 4610SOL    HW225467   1.805   4.725   2.268  0.3827 -2.2770  0.3126
 4611SOL     OW25468   3.487   2.849   6.213 -0.4202 -0.8023  0.2313
 4611SOL    HW125469   3.435   2.878   6.288  1.9605 -0.6689  1.8318
 4611SOL    HW225470   3.493   2.932   6.165 -0.9443 -0.4206  0.8319
 4612SOL     OW25471   2.152   2.034  11.638  0.2247 -0.6407 -0.8058
 4612SOL    HW125472   2.074   2.082  11.607  0.5253  0.5383  0.2807
 4612SOL    HW225473   2.164   2.069  11.726 -1.8558  0.3735 -0.9063
 4613SOL     OW25474   3.005   2.666   1.299 -0.4043  0.5397  0.0723
 4613SOL    HW125475   2.998   2.761   1.308 -3.3629  0.4829 -1.5807
 4613SOL    HW225476   2.979   2.646   1.389 -3.0019  3.0764 -0.1442
 4614SOL     OW25477   4.648   3.234  12.092  0.3441 -0.2465 -0.1011
 4614SOL    HW125478   4.631   3.145  12.123 -2.1990  0.0455 -0.6600
 4614SOL    HW225479   4.591   3.232  12.016 -0.5405 -0.3454  0.5627
 4615SOL     OW25480   0.962   1.693  15.304  0.4522 -0.2266 -0.3385
 4615SOL    HW125481   0.904   1.630  15.347 -1.8064  0.3984 -2.4841
 4615SOL    HW225482   0.907   1.748  15.248 -1.7124  0.1694  2.1922
 4616SOL     OW25483   1.168   1.689   5.738  0.3307 -0.2817 -0.3998
 4616SOL    HW125484   1.102   1.645   5.793  0.3855  1.6839  1.2056
 4616SOL    HW225485   1.235   1.705   5.804  1.5657 -1.4422 -1.3614
 4617SOL     OW25486   0.157   3.582   3.019 -0.3086  0.0384 -0.3320
 4617SOL    HW125487   0.222   3.581   2.948 -0.9902 -1.9144 -0.9156
 4617SOL    HW225488   0.206   3.612   3.096 -2.9953  1.2253  0.9037
 4618SOL     OW25489   3.532   3.594   6.150  0.8337  1.2145 -0.0031
 4618SOL    HW125490   3.575   3.659   6.095 -0.5594  0.0680 -2.5017
 4618SOL    HW225491   3.465   3.549   6.098  0.9680  0.4183  0.5061
 4619SOL     OW25492   2.450   3.120   3.711  0.4005  0.0187  0.1580
 4619SOL    HW125493   2.487   3.054   3.652 -1.5174  0.7254 -1.7983
 4619SOL    HW225494   2.392   3.063   3.762 -1.7206  1.5520 -0.5348
 4620SOL     OW25495   1.031   4.473   7.461  0.0146  0.2742  0.1200
 4620SOL    HW125496   0.953   4.481   7.515 -1.1343 -3.4825 -1.0323
 4620SOL    HW225497   1.009   4.532   7.389  2.1340  1.4112  0.3785
 4621SOL     OW25498   3.020   4.321  14.332  0.0374 -0.4144  0.2438
 4621SOL    HW125499   3.061   4.290  14.412  0.3475  1.7002  0.8966
 4621SOL    HW225500   2.936   4.344  14.372 -0.3698 -1.9506  0.2649
 4622SOL     OW25501   3.879   3.255  15.849 -0.3450  0.1709 -0.2693
 4622SOL    HW125502   3.962   3.207  15.843 -0.6428 -0.5739  1.5163
 4622SOL    HW225503   3.898   3.348  15.855  1.3751 -0.1468 -0.7748
 4623SOL     OW25504   2.960   3.890   9.316  0.8511  0.0896  0.1556
 4623SOL    HW125505   3.031   3.834   9.348  0.7223  0.3558  0.9077
 4623SOL    HW225506   2.896   3.824   9.293  1.2700 -0.5149  0.7163
 4624SOL     OW25507   2.913   0.486   7.016 -0.0312 -0.5632  0.1888
 4624SOL    HW125508   2.993   0.444   6.985 -0.4456 -0.2685 -1.2845
 4624SOL    HW225509   2.847   0.417   7.027  1.1331 -1.5363  1.0388
 4625SOL     OW25510   3.943   1.234   2.903  0.3266 -0.2338  0.9961
 4625SOL    HW125511   3.902   1.234   2.990  1.8575  2.7006  1.7239
 4625SOL    HW225512   3.867   1.220   2.847 -1.0082  1.2054  2.4219
 4626SOL     OW25513   0.899   3.640   1.856 -0.3749 -0.1053 -0.0686
 4626SOL    HW125514   0.826   3.655   1.916 -0.8258 -1.6637 -0.2200
 4626SOL    HW225515   0.968   3.691   1.899 -1.6442  4.1154 -3.1405
 4627SOL     OW25516   0.823   3.231   6.937  0.0791 -0.2856 -0.0943
 4627SOL    HW125517   0.752   3.194   6.884  1.3568 -1.5729 -0.8956
 4627SOL    HW225518   0.893   3.170   6.912 -0.2164 -0.8315  0.4077
 4628SOL     OW25519   3.171   1.013   6.234  0.0706 -0.1148 -0.0137
 4628SOL    HW125520   3.259   0.980   6.220 -0.3417 -1.2695  0.0731
 4628SOL    HW225521   3.168   1.066   6.314 -0.1931  0.8121 -0.6466
 4629SOL     OW25522   2.012   2.948   3.780 -0.2121 -0.0182 -0.1636
 4629SOL    HW125523   1.952   3.023   3.780 -0.0652  0.1004 -0.7892
 4629SOL    HW225524   1.986   2.920   3.868 -0.9762  0.9793 -0.0644
 4630SOL     OW25525   3.768   4.132   6.474 -0.1621 -0.1317  0.2129
 4630SOL    HW125526   3.847   4.115   6.526  0.0821 -0.0854 -0.1440
 4630SOL    HW225527   3.789   4.108   6.384  3.2220  0.6975  0.7823
 4631SOL     OW25528   3.904   0.448   7.742 -0.3457 -0.0425  0.9736
 4631SOL    HW125529   3.809   0.450   7.740 -0.2911 -0.3955 -1.6055
 4631SOL    HW225530   3.921   0.453   7.836 -0.0091  0.7580  0.8708
 4632SOL     OW25531   0.797   0.468   3.143  0.5006 -0.6760 -0.5399
 4632SOL    HW125532   0.824   0.556   3.169  0.0543 -0.3273 -1.2448
 4632SOL    HW225533   0.812   0.452   3.050  2.3218 -2.7552  0.1040
 4633SOL     OW25534   2.296   3.193  15.658 -0.6081  0.2952  0.4158
 4633SOL    HW125535   2.240   3.132  15.706  0.9536  0.0736  1.9813
 4633SOL    HW225536   2.376   3.143  15.646  1.2306  2.9327  1.7114
 4634SOL     OW25537   1.935   2.546   2.096  0.1474 -0.2802 -0.4622
 4634SOL    HW125538   1.914   2.473   2.038  0.5423  0.7036 -1.8812
 4634SOL    HW225539   2.028   2.528   2.104  0.3481  2.3698  3.1406
 4635SOL     OW25540   2.476   0.871   4.744  0.4909  0.5620  0.4113
 4635SOL    HW125541   2.412   0.803   4.724  0.2320  1.7764 -2.8652
 4635SOL    HW225542   2.558   0.822   4.734  0.0180 -0.3501  0.9172
 4636SOL     OW25543   2.253   4.336   2.946  0.2976 -0.3850 -0.3114
 4636SOL    HW125544   2.162   4.311   2.961 -0.7062  2.1960 -2.0930
 4636SOL    HW225545   2.287   4.273   2.882 -0.0762 -0.4053 -0.4899
 4637SOL     OW25546   3.337   1.145   7.214  0.3519  0.0946  0.2808
 4637SOL    HW125547   3.263   1.197   7.246 -0.3745 -1.0504  0.4548
 4637SOL    HW225548   3.402   1.210   7.187  1.8876 -1.0223  1.2725
 4638SOL     OW25549   3.614   4.389   0.830 -0.4638  0.4257  0.2123
 4638SOL    HW125550   3.610   4.389   0.734  0.8889 -1.7197  0.1693
 4638SOL    HW225551   3.628   4.483   0.835 -0.4588  0.2865  2.9560
 4639SOL     OW25552   3.677   3.057  17.522  0.2134 -0.2124  0.0669
 4639SOL    HW125553   3.736   3.024  17.455 -0.5356  0.2906 -0.8388
 4639SOL    HW225554   3.643   2.972  17.552  0.2100  0.1086  0.9657
 4640SOL     OW25555   2.474   2.681   9.320  0.3853  0.3108 -0.1393
 4640SOL    HW125556   2.509   2.601   9.358  1.4483  0.5707 -0.5564
 4640SOL    HW225557   2.407   2.646   9.262  1.5585 -0.2312 -1.1729
 4641SOL     OW25558   3.726   0.023   7.300 -0.7281 -0.0661 -0.1419
 4641SOL    HW125559   3.698   4.696   7.234  1.0297  1.2654 -2.1587
 4641SOL    HW225560   3.779   4.700   7.353 -3.1519 -0.6290  1.6646
 4642SOL     OW25561   0.832   0.508   4.015  0.3291  0.0014  0.0702
 4642SOL    HW125562   0.776   0.453   4.070  2.8323 -3.6013 -0.9933
 4642SOL    HW225563   0.879   0.438   3.969  1.1861  0.1780  0.6861
 4643SOL     OW25564   1.811   3.993  10.072  0.2013 -0.4104  0.1013
 4643SOL    HW125565   1.784   4.085  10.077  0.9642 -0.1150 -1.3066
 4643SOL    HW225566   1.762   3.955  10.000  0.5318 -1.8052  0.6135
 4644SOL     OW25567   3.754   1.547   2.653  0.0852  0.3418  0.0561
 4644SOL    HW125568   3.779   1.570   2.563  0.9926 -3.4250 -0.6522
 4644SOL    HW225569   3.679   1.605   2.666 -1.0034 -1.2850  0.9634
 4645SOL     OW25570   2.992   0.709  16.960  0.0009  0.1745 -0.5408
 4645SOL    HW125571   3.054   0.636  16.949  0.7644  0.7217  0.1658
 4645SOL    HW225572   2.927   0.664  17.014 -0.6409  0.8567 -0.7544
 4646SOL     OW25573   1.233   0.431  13.054  0.3316 -0.5451 -0.1882
 4646SOL    HW125574   1.151   0.475  13.031  0.0454  0.1316  2.1674
 4646SOL    HW225575   1.222   0.423  13.149  1.8906  0.0226  0.0524
 4647SOL     OW25576   2.939   4.678   7.374 -0.3982 -0.1389  0.2696
 4647SOL    HW125577   3.019   4.679   7.426 -2.4293 -1.3384  3.3917
 4647SOL    HW225578   2.934   4.590   7.337  2.2750  0.5236 -1.6743
 4648SOL     OW25579   2.006   4.301   1.754 -0.3075 -0.0001 -0.7536
 4648SOL    HW125580   1.948   4.375   1.772  0.1784  0.6620 -1.9726
 4648SOL    HW225581   2.080   4.334   1.805 -1.3296  1.6935 -0.3620
 4649SOL     OW25582   1.760   3.787   7.487 -0.1368 -0.5143  0.4305
 4649SOL    HW125583   1.849   3.759   7.464  0.2034  0.1594  0.9514
 4649SOL    HW225584   1.744   3.831   7.404 -0.7805 -0.9715  0.3109
 4650SOL     OW25585   0.275   3.883   5.012  0.3922 -0.2139 -0.4008
 4650SOL    HW125586   0.248   3.900   5.103  2.7420  0.7956  0.1062
 4650SOL    HW225587   0.240   3.795   4.996  0.0710 -0.2735  0.6418
 4651SOL     OW25588   3.778   0.523   5.279 -0.0965 -0.0022  0.3201
 4651SOL    HW125589   3.856   0.565   5.243  0.4475 -1.7702 -0.5945
 4651SOL    HW225590   3.727   0.603   5.289 -0.3522 -0.1379  0.0892
 4652SOL     OW25591   4.597   0.513   5.382 -0.4349  0.2945  0.3530
 4652SOL    HW125592   4.594   0.467   5.298  1.8680  0.6651  0.0592
 4652SOL    HW225593   4.693   0.516   5.386 -0.3386  0.6528 -2.0058
 4653SOL     OW25594   3.559   1.229   8.911  0.0471 -0.1008  0.0186
 4653SOL    HW125595   3.609   1.171   8.853  1.6270  1.9121 -0.6322
 4653SOL    HW225596   3.568   1.181   8.993 -2.7093 -0.3539  0.1797
 4654SOL     OW25597   0.606   4.243   1.479 -0.5720 -0.0330  0.5642
 4654SOL    HW125598   0.621   4.170   1.540 -2.3166 -1.3844 -0.6279
 4654SOL    HW225599   0.614   4.320   1.535 -3.9633 -0.1668  1.2454
 4655SOL     OW25600   2.058   3.759   5.103  0.5812  0.1975 -0.0367
 4655SOL    HW125601   2.139   3.781   5.058  1.3622  0.4289  1.4700
 4655SOL    HW225602   1.996   3.820   5.063  0.4184  0.9614  1.3818
 4656SOL     OW25603   4.160   1.163  11.212  0.8562  0.5175 -0.1302
 4656SOL    HW125604   4.076   1.203  11.235 -0.5827 -1.8867 -1.0973
 4656SOL    HW225605   4.183   1.118  11.293 -2.0532  2.0124  1.5090
 4657SOL     OW25606   4.022   3.640   2.929  0.1398  0.2160  0.8232
 4657SOL    HW125607   3.982   3.558   2.955 -2.2035  1.3315  0.7654
 4657SOL    HW225608   3.952   3.679   2.876 -0.0871  0.7544  1.5193
 4658SOL     OW25609   3.862   1.734  16.435  0.2049 -0.0236  0.0147
 4658SOL    HW125610   3.887   1.822  16.408  1.3473 -0.1378  0.6836
 4658SOL    HW225611   3.937   1.711  16.490  0.3214  0.1585 -0.0679
 4659SOL     OW25612   1.203   4.035   3.781 -0.1863  0.2624  0.2050
 4659SOL    HW125613   1.228   3.954   3.738  0.7932 -0.7631  2.6984
 4659SOL    HW225614   1.285   4.077   3.809  0.4727  0.2550 -1.7547
 4660SOL     OW25615   3.313   1.117   5.489  0.9330 -0.4687  0.1548
 4660SOL    HW125616   3.296   1.103   5.582  1.3735 -0.3928  0.2455
 4660SOL    HW225617   3.406   1.142   5.493  0.5022  1.3096 -1.1326
 4661SOL     OW25618   3.758   4.220   1.000  0.1637  0.4771  0.0313
 4661SOL    HW125619   3.718   4.262   0.923 -1.0748  0.9607  0.9374
 4661SOL    HW225620   3.695   4.149   1.014 -1.7884  2.5280  1.6100
 4662SOL     OW25621   1.743   0.117   4.865 -0.1652  0.2207 -0.2501
 4662SOL    HW125622   1.710   0.144   4.951 -1.5889 -2.8788  0.1946
 4662SOL    HW225623   1.684   0.165   4.808 -1.0225 -0.3176  0.1832
 4663SOL     OW25624   1.851   2.428   6.635  0.5237  0.0872 -0.4374
 4663SOL    HW125625   1.870   2.522   6.628  2.2074 -0.1853  0.4709
 4663SOL    HW225626   1.759   2.441   6.658  1.1439  0.9154  1.6270
 4664SOL     OW25627   3.609   4.460   2.384  0.1799  0.1376 -0.2453
 4664SOL    HW125628   3.666   4.448   2.460 -0.1924 -0.5056 -0.0668
 4664SOL    HW225629   3.604   4.369   2.355  0.8292 -0.2155  0.7188
 4665SOL     OW25630   3.512   2.630  17.185 -0.0264 -0.0492 -0.4101
 4665SOL    HW125631   3.521   2.694  17.255  0.1546  1.2563 -1.6211
 4665SOL    HW225632   3.437   2.665  17.137 -1.3867 -2.0503  0.2141
 4666SOL     OW25633   4.629   2.224  10.634 -0.1240 -0.4715  0.2660
 4666SOL    HW125634   4.601   2.207  10.543  3.0452 -1.2122 -0.5728
 4666SOL    HW225635   4.611   2.318  10.638 -1.0408 -0.7393  1.9643
 4667SOL     OW25636   2.628   4.681   2.239 -0.0627 -0.0759  0.1851
 4667SOL    HW125637   2.560   4.615   2.226  0.1986 -0.7757  2.3370
 4667SOL    HW225638   2.697   4.619   2.265 -0.6539 -0.9892 -0.4200
 4668SOL     OW25639   0.343   0.383   1.138  0.0597 -0.3541 -0.0979
 4668SOL    HW125640   0.346   0.445   1.211 -2.7156  1.1479 -1.2707
 4668SOL    HW225641   0.248   0.385   1.131 -0.1068  1.0483  2.7028
 4669SOL     OW25642   4.409   1.139   4.238  0.0417 -0.2360  0.5321
 4669SOL    HW125643   4.496   1.113   4.269  0.8871  0.9446 -0.8991
 4669SOL    HW225644   4.395   1.062   4.183 -0.7736  0.4709 -0.2417
 4670SOL     OW25645   4.420   3.411   2.375  0.1259 -0.0763  0.0195
 4670SOL    HW125646   4.506   3.435   2.339  0.7434 -0.4292  1.2610
 4670SOL    HW225647   4.407   3.486   2.433  1.2840  0.2218 -0.0967
 4671SOL     OW25648   0.063   4.555   2.261  0.3882  0.0799  0.5279
 4671SOL    HW125649   0.062   4.650   2.265  0.2813  0.1573 -1.5739
 4671SOL    HW225650   0.153   4.535   2.289  0.9624  1.8782 -0.0264
 4672SOL     OW25651   0.229   2.763   4.732 -0.5169  0.6304 -0.1651
 4672SOL    HW125652   0.312   2.802   4.703  0.0778 -1.0874 -0.7606
 4672SOL    HW225653   0.176   2.807   4.665 -1.9386  0.8561  1.1021
 4673SOL     OW25654   3.586   3.915   6.159 -0.5007 -0.6600  0.4034
 4673SOL    HW125655   3.652   3.984   6.164  2.1931 -3.1117 -1.3051
 4673SOL    HW225656   3.637   3.836   6.179  1.0123  0.3403  0.5244
 4674SOL     OW25657   0.566   3.936   9.262 -0.3116 -0.5370 -0.0385
 4674SOL    HW125658   0.615   3.936   9.180  1.6485 -1.6046  1.1358
 4674SOL    HW225659   0.558   4.031   9.273  1.1343 -0.7607  2.9460
 4675SOL     OW25660   3.946   2.976   4.432  0.1352  0.0911 -0.1131
 4675SOL    HW125661   4.023   3.014   4.389 -0.5893  1.1930 -0.4545
 4675SOL    HW225662   3.965   2.938   4.517  0.7703 -1.2623 -0.8527
 4676SOL     OW25663   1.477   4.636  16.567  0.3679  0.5909 -0.1282
 4676SOL    HW125664   1.503   4.680  16.486  1.8712 -2.5609 -1.3461
 4676SOL    HW225665   1.534   4.559  16.567 -1.9470 -1.1201  0.4447
 4677SOL     OW25666   0.444   2.668  15.480 -0.4474 -0.4435  0.1481
 4677SOL    HW125667   0.425   2.753  15.441  1.6144 -1.1106 -2.3213
 4677SOL    HW225668   0.480   2.695  15.564  0.5007  1.9089 -1.0011
 4678SOL     OW25669   1.263   2.344   7.948 -0.0201  0.0447  0.5931
 4678SOL    HW125670   1.187   2.308   7.994 -1.1768  1.3798 -0.2821
 4678SOL    HW225671   1.274   2.419   8.005  0.0692  1.7588 -1.6822
 4679SOL     OW25672   1.139   2.091   2.863 -0.0001 -0.2527  0.5366
 4679SOL    HW125673   1.228   2.061   2.844 -0.2645  0.1278 -1.2596
 4679SOL    HW225674   1.143   2.184   2.886  1.4802 -0.9107  2.8980
 4680SOL     OW25675   1.761   0.437   8.740  0.1100  0.0338  0.5434
 4680SOL    HW125676   1.800   0.433   8.827  0.1766 -2.7138  0.3997
 4680SOL    HW225677   1.804   0.368   8.690 -3.4463 -2.1469  0.5497
 4681SOL     OW25678   4.171   1.480   5.616 -0.1388  0.1058 -0.6489
 4681SOL    HW125679   4.175   1.532   5.696  0.6443 -1.8218  0.5664
 4681SOL    HW225680   4.262   1.451   5.612  0.4667  1.8129  0.7858
 4682SOL     OW25681   0.392   3.766  14.053 -0.1099 -0.4990  0.5507
 4682SOL    HW125682   0.443   3.783  14.132  0.4610 -0.7837  0.2454
 4682SOL    HW225683   0.401   3.853  14.013 -1.9232 -1.0956 -1.0968
 4683SOL     OW25684   2.202   0.462   5.967 -0.6773  0.4945 -0.0105
 4683SOL    HW125685   2.246   0.536   6.009 -3.2534  1.9300  0.2192
 4683SOL    HW225686   2.164   0.428   6.049 -1.2213  2.0544  0.3931
 4684SOL     OW25687   2.101   3.439   6.597  0.2506  1.1330  0.1354
 4684SOL    HW125688   2.023   3.382   6.600  1.1637 -0.0343  2.5321
 4684SOL    HW225689   2.153   3.403   6.670 -0.8311 -3.3818 -1.3185
 4685SOL     OW25690   2.292   0.882   1.718  0.3752 -0.0859 -0.0750
 4685SOL    HW125691   2.319   0.911   1.631 -0.5949 -3.4782 -1.5319
 4685SOL    HW225692   2.203   0.869   1.685  1.5512 -1.4847 -2.7334
 4686SOL     OW25693   0.003   2.438   3.718  0.2334  0.6135 -0.2529
 4686SOL    HW125694   0.035   2.494   3.789 -1.7425 -0.4496  1.5288
 4686SOL    HW225695   0.055   2.360   3.739 -1.2760 -0.1818  0.5588
 4687SOL     OW25696   3.683   0.420   1.185  0.7176  0.1542  0.5059
 4687SOL    HW125697   3.665   0.499   1.135  0.0035  0.2200  0.8824
 4687SOL    HW225698   3.662   0.464   1.267 -0.1426 -1.2050  1.0165
 4688SOL     OW25699   0.151   3.902   7.875  0.2050 -0.1135 -0.5702
 4688SOL    HW125700   0.168   3.973   7.813 -0.8530  0.4104 -0.2472
 4688SOL    HW225701   0.224   3.840   7.867 -0.1674 -0.6301  0.0222
 4689SOL     OW25702   0.231   4.088   7.079  0.4070 -0.1397 -0.0275
 4689SOL    HW125703   0.247   3.995   7.093 -3.2343 -1.0349 -1.7177
 4689SOL    HW225704   0.141   4.097   7.109  0.2779 -0.3876 -0.3374
 4690SOL     OW25705   4.106   0.838   1.624  0.2214 -0.1222  0.1130
 4690SOL    HW125706   4.141   0.818   1.537 -2.3409 -1.6301 -0.5594
 4690SOL    HW225707   4.102   0.752   1.665  0.1770  0.1051  0.5800
 4691SOL     OW25708   4.380   0.477   1.685  0.1059  0.2082 -0.4556
 4691SOL    HW125709   4.448   0.531   1.725 -2.1541  2.7244 -0.0006
 4691SOL    HW225710   4.408   0.484   1.594 -0.6772  1.2412 -0.6132
 4692SOL     OW25711   3.683   2.037  15.021  0.2921 -0.6796  0.4283
 4692SOL    HW125712   3.593   2.065  15.000 -0.0020 -1.0511  1.2069
 4692SOL    HW225713   3.712   2.126  15.044  2.5096 -1.4332  0.5372
 4693SOL     OW25714   2.506   4.051   4.905  0.0415  0.0097 -0.4813
 4693SOL    HW125715   2.593   4.015   4.922 -0.2721 -1.8120 -2.6795
 4693SOL    HW225716   2.514   4.090   4.818  1.2524  3.4336  1.1614
 4694SOL     OW25717   0.508   4.672   7.356 -0.4066 -0.6115  0.0248
 4694SOL    HW125718   0.443   4.674   7.286  0.6675  0.2723 -0.9675
 4694SOL    HW225719   0.591   4.705   7.322 -1.3562  1.5811 -0.1906
 4695SOL     OW25720   0.249   2.590   7.271  0.4875 -0.7743  0.5655
 4695SOL    HW125721   0.325   2.579   7.214  0.9129  2.9243  0.4155
 4695SOL    HW225722   0.198   2.652   7.219 -0.1906 -2.8865 -1.3003
 4696SOL     OW25723   4.453   3.813  12.292  0.4383  0.3029 -0.4927
 4696SOL    HW125724   4.434   3.780  12.380  0.0855  1.2361 -0.2249
 4696SOL    HW225725   4.529   3.759  12.271  1.1072  1.0185  0.0975
 4697SOL     OW25726   2.771   3.156   3.815 -0.1161  0.0209 -0.1069
 4697SOL    HW125727   2.784   3.117   3.902 -3.2014 -0.0787  0.3241
 4697SOL    HW225728   2.684   3.192   3.828  0.7944  1.3926  2.1480
 4698SOL     OW25729   0.630   4.487   6.194  0.0033 -0.3363  0.4073
 4698SOL    HW125730   0.602   4.403   6.232  1.7870 -1.1725 -0.1458
 4698SOL    HW225731   0.723   4.470   6.180 -0.3655 -0.6178 -1.5982
 4699SOL     OW25732   0.681   3.620   6.945 -0.0780  0.1161 -0.9304
 4699SOL    HW125733   0.653   3.700   6.900  0.4473 -0.0038 -1.4648
 4699SOL    HW225734   0.601   3.569   6.937 -0.1692  0.1341 -0.2015
 4700SOL     OW25735   2.717   3.654   7.632 -0.7146  0.5418 -0.1028
 4700SOL    HW125736   2.786   3.711   7.664 -0.4898  0.6743 -0.8350
 4700SOL    HW225737   2.751   3.625   7.548  0.1170 -0.8028  0.7027
 4701SOL     OW25738   4.507   3.890  14.873 -0.7024 -0.0543  0.7074
 4701SOL    HW125739   4.429   3.903  14.819 -2.2676  1.8153  3.4477
 4701SOL    HW225740   4.567   3.958  14.843 -1.8851  0.5199 -0.3551
 4702SOL     OW25741   2.318   3.725  15.948 -0.4728  0.3016 -0.2869
 4702SOL    HW125742   2.227   3.706  15.925 -0.2561 -1.8100  0.6433
 4702SOL    HW225743   2.315   3.728  16.043  0.9943 -2.5126 -0.1600
 4703SOL     OW25744   1.215   1.716  14.005  0.0192  0.0468 -0.1566
 4703SOL    HW125745   1.181   1.627  14.003  2.5094 -0.8892  0.2720
 4703SOL    HW225746   1.226   1.726  14.099  2.1295 -0.7677 -0.3236
 4704SOL     OW25747   3.159   0.285  11.114  0.2279 -0.7439 -0.0362
 4704SOL    HW125748   3.194   0.373  11.129 -1.9527 -0.0070  0.7996
 4704SOL    HW225749   3.211   0.258  11.039  0.4818  0.3543 -0.2490
 4705SOL     OW25750   3.696   3.351  17.328 -0.2059 -0.4661 -0.4494
 4705SOL    HW125751   3.632   3.298  17.377 -1.5888  0.3703 -1.3713
 4705SOL    HW225752   3.761   3.280  17.332 -0.1281 -0.4344 -1.1648
 4706SOL     OW25753   1.845   0.399  10.000  0.2816 -0.1763 -0.4727
 4706SOL    HW125754   1.811   0.394   9.911  2.2004 -2.5053 -1.0674
 4706SOL    HW225755   1.896   0.319   9.994  0.1173 -0.2687 -0.6297
 4707SOL     OW25756   1.087   3.679   3.294  0.1079 -0.5333  0.1378
 4707SOL    HW125757   1.052   3.755   3.248  3.5991  1.3037  0.5204
 4707SOL    HW225758   1.162   3.712   3.342 -0.7822  0.6674  0.7012
 4708SOL     OW25759   0.906   4.196   9.338  0.0080  0.4005  0.1549
 4708SOL    HW125760   0.829   4.226   9.291  0.3920 -0.1251 -0.8246
 4708SOL    HW225761   0.975   4.254   9.306  0.9486  0.6526  2.6483
 4709SOL     OW25762   2.991   0.766   3.905  0.1763  0.0426 -0.2851
 4709SOL    HW125763   2.919   0.719   3.947  0.7198 -0.0478  0.5487
 4709SOL    HW225764   2.957   0.847   3.869  0.5274 -0.5893 -2.0211
 4710SOL     OW25765   3.868   2.916   5.231  0.1295 -0.7363  0.3670
 4710SOL    HW125766   3.795   2.857   5.248 -1.4515  0.1731 -3.2885
 4710SOL    HW225767   3.839   2.962   5.152  0.2073 -0.6731  0.3750
 4711SOL     OW25768   3.302   0.507   4.490  0.0267  0.0862 -0.5667
 4711SOL    HW125769   3.242   0.564   4.537 -2.4349 -1.9749 -1.2166
 4711SOL    HW225770   3.239   0.474   4.426  0.5883  0.9455 -1.5612
 4712SOL     OW25771   2.896   3.038  10.822  0.1480  0.6939 -0.4339
 4712SOL    HW125772   2.846   3.044  10.741  2.1813 -1.1758 -1.8121
 4712SOL    HW225773   2.934   2.956  10.793 -1.1764  0.2277 -0.8365
 4713SOL     OW25774   0.962   0.656  17.578 -0.4721 -0.2319  0.2869
 4713SOL    HW125775   0.880   0.630  17.621 -0.1567 -1.0225  0.4028
 4713SOL    HW225776   1.017   0.641  17.655  0.9247  1.2562 -0.4282
 4714SOL     OW25777   1.918   4.420  11.338 -0.0829 -0.0135 -0.0377
 4714SOL    HW125778   1.993   4.439  11.282 -0.4845  2.7375  0.3740
 4714SOL    HW225779   1.934   4.462  11.422 -0.0349 -1.3630  0.6314
 4715SOL     OW25780   0.137   1.724   7.546 -0.2218 -0.2183  0.4272
 4715SOL    HW125781   0.215   1.775   7.566 -0.7077  0.1118  1.4957
 4715SOL    HW225782   0.086   1.734   7.627 -0.7303 -1.9845  0.3209
 4716SOL     OW25783   3.344   2.895   2.488 -0.0694 -0.4262 -0.1314
 4716SOL    HW125784   3.264   2.863   2.529 -0.9127  0.8952 -0.7382
 4716SOL    HW225785   3.395   2.817   2.509 -0.2661 -0.5467 -0.1084
 4717SOL     OW25786   2.800   2.984   1.481  0.3055  0.3905 -0.2655
 4717SOL    HW125787   2.742   3.059   1.493 -0.9727 -0.7663  0.6823
 4717SOL    HW225788   2.743   2.914   1.450  2.3410 -1.8847  1.1300
 4718SOL     OW25789   2.519   1.862   7.310  0.8263 -0.3313 -0.0872
 4718SOL    HW125790   2.444   1.864   7.251 -1.0391  0.2612  2.2806
 4718SOL    HW225791   2.543   1.954   7.296  0.1299 -0.2431 -0.7192
 4719SOL     OW25792   0.265   3.520   3.431 -0.2517 -0.4684 -0.1053
 4719SOL    HW125793   0.170   3.522   3.439 -0.2443 -3.9715  0.5968
 4719SOL    HW225794   0.263   3.596   3.372  0.5631  1.4050  2.2789
 4720SOL     OW25795   2.523   3.297  13.288 -0.2322  0.3103 -0.2193
 4720SOL    HW125796   2.609   3.335  13.271 -0.2331 -0.6229 -2.3900
 4720SOL    HW225797   2.542   3.280  13.380 -0.5708  0.9358 -0.0313
 4721SOL     OW25798   2.557   2.012   6.690 -0.3400 -0.0778 -0.7996
 4721SOL    HW125799   2.543   2.086   6.630  1.8564  2.7812  2.2002
 4721SOL    HW225800   2.510   1.950   6.634 -0.6565  1.7486 -2.5924
 4722SOL     OW25801   4.181   2.319   8.280  0.0970  0.3222  0.1503
 4722SOL    HW125802   4.105   2.346   8.229  0.0237  0.3228  0.2595
 4722SOL    HW225803   4.136   2.290   8.359 -1.9202 -0.2479 -1.2165
 4723SOL     OW25804   4.251   2.935   6.223 -0.1412  0.2908  0.0602
 4723SOL    HW125805   4.343   2.927   6.198 -0.3712 -0.4121 -0.5741
 4723SOL    HW225806   4.223   3.017   6.182  0.2729 -1.4840 -3.8140
 4724SOL     OW25807   4.437   0.845   9.819  0.1155  0.3360 -0.1719
 4724SOL    HW125808   4.445   0.825   9.726 -0.0981  1.0769 -0.3495
 4724SOL    HW225809   4.523   0.809   9.840  0.6441  2.0318  0.6041
 4725SOL     OW25810   2.349   3.700   6.226 -0.2692 -0.4320  0.4012
 4725SOL    HW125811   2.444   3.703   6.239 -0.3134 -1.6470  1.0437
 4725SOL    HW225812   2.327   3.776   6.280  0.3603  0.4255 -0.5537
 4726SOL     OW25813   1.588   1.939   5.019  0.3997  0.0007 -0.5392
 4726SOL    HW125814   1.639   1.896   5.087  1.3830  2.0976  0.0408
 4726SOL    HW225815   1.511   1.881   5.016 -0.0505  0.5440  0.5769
 4727SOL     OW25816   3.829   2.291   8.395  0.2857 -0.6158 -0.0195
 4727SOL    HW125817   3.836   2.200   8.423  0.4409  0.3991  3.2444
 4727SOL    HW225818   3.857   2.284   8.304 -0.4459  2.4689 -0.4848
 4728SOL     OW25819   0.728   0.501   4.640 -0.5646  0.1650  0.7514
 4728SOL    HW125820   0.683   0.512   4.556  1.3663 -1.2677 -0.4581
 4728SOL    HW225821   0.775   0.584   4.648  1.5881 -0.8077 -1.9277
 4729SOL     OW25822   1.088   4.660  10.164  0.3685 -0.1640  0.1614
 4729SOL    HW125823   1.098   4.634  10.072  1.2725 -0.1249  0.2452
 4729SOL    HW225824   1.027   4.733  10.149 -1.0821 -1.7345 -1.6220
 4730SOL     OW25825   3.646   3.173   4.816 -0.3001 -0.2613  0.2210
 4730SOL    HW125826   3.727   3.162   4.866 -0.9707 -0.0231  1.3599
 4730SOL    HW225827   3.677   3.221   4.740  1.0245  0.0407  0.9525
 4731SOL     OW25828   3.731   2.414   3.366  0.0621  0.4532 -0.2650
 4731SOL    HW125829   3.681   2.377   3.293  3.8653 -4.4642 -0.3454
 4731SOL    HW225830   3.684   2.493   3.394  0.3082  0.3102  0.5517
 4732SOL     OW25831   3.411   4.317   3.112 -0.1721 -0.1844 -0.6581
 4732SOL    HW125832   3.455   4.341   3.194 -1.7840 -2.3698  0.8439
 4732SOL    HW225833   3.365   4.237   3.137 -0.1301  0.7012  2.2537
 4733SOL     OW25834   4.426   1.313   6.689 -0.0869  0.9836  0.6685
 4733SOL    HW125835   4.386   1.390   6.649 -3.1374  1.9476  5.5565
 4733SOL    HW225836   4.377   1.238   6.655 -0.5642  1.9661 -0.8024
 4734SOL     OW25837   2.492   1.249   6.079 -0.2497  0.3591  0.0908
 4734SOL    HW125838   2.522   1.244   5.988  1.7908  0.3510  0.7780
 4734SOL    HW225839   2.410   1.201   6.087 -0.6082  0.4619 -2.9575
 4735SOL     OW25840   2.303   1.886   1.009  0.0977 -0.4519  0.0697
 4735SOL    HW125841   2.278   1.931   1.090 -0.6672 -1.5781  0.4502
 4735SOL    HW225842   2.237   1.929   0.954  0.1006 -0.4016  0.1056
 4736SOL     OW25843   1.718   0.397   9.260 -0.0295 -0.3892 -0.2135
 4736SOL    HW125844   1.711   0.388   9.165  2.4370  1.8201 -0.6220
 4736SOL    HW225845   1.778   0.472   9.258  1.8885 -1.8791  2.8430
 4737SOL     OW25846   2.980   1.004   9.473 -0.0131 -0.4546  0.1852
 4737SOL    HW125847   2.934   1.017   9.390  0.8664  1.8273  0.0469
 4737SOL    HW225848   2.912   0.977   9.534  0.3984 -1.7759  0.0449
 4738SOL     OW25849   0.968   3.401  12.289 -0.3651 -0.3586  0.0497
 4738SOL    HW125850   1.061   3.396  12.310 -0.1707  0.3562 -0.6464
 4738SOL    HW225851   0.950   3.307  12.298 -2.3468  0.1023  0.8908
 4739SOL     OW25852   3.026   1.445  12.644  0.2317 -0.1060  0.2762
 4739SOL    HW125853   3.040   1.443  12.549  0.6960 -1.4714  0.3780
 4739SOL    HW225854   2.933   1.426  12.655 -0.0811  0.8819 -0.6774
 4740SOL     OW25855   4.024   4.424  16.248  0.5089 -0.1002  0.3300
 4740SOL    HW125856   3.977   4.348  16.282  3.5401 -1.9222  0.5121
 4740SOL    HW225857   4.014   4.416  16.153 -0.2419  0.2633  0.3825
 4741SOL     OW25858   3.735   3.687   8.337  0.1558  0.2616  0.1597
 4741SOL    HW125859   3.768   3.732   8.415  2.5513  0.3719 -0.9176
 4741SOL    HW225860   3.812   3.684   8.280  0.2742 -1.1239  0.3910
 4742SOL     OW25861   4.607   0.097   6.971 -0.8670  0.1787  0.2831
 4742SOL    HW125862   4.601   0.074   7.064  2.3963  0.1879  0.5013
 4742SOL    HW225863   4.628   0.189   6.984  1.0443  0.2859 -3.5249
 4743SOL     OW25864   1.868   3.438   7.921  0.3181 -0.0823 -0.1205
 4743SOL    HW125865   1.938   3.375   7.903  0.0207 -1.0262  2.0230
 4743SOL    HW225866   1.785   3.397   7.899 -0.6332  0.8703  1.6790
 4744SOL     OW25867   1.746   4.061   6.203  0.2701  0.4640 -0.3427
 4744SOL    HW125868   1.752   3.969   6.174  1.3389  0.3476  0.2364
 4744SOL    HW225869   1.714   4.102   6.122 -2.8984  1.7893  1.5940
 4745SOL     OW25870   0.523   1.968   9.580 -0.4348 -0.3669  0.5729
 4745SOL    HW125871   0.483   1.945   9.496 -3.6439 -2.6092  2.7003
 4745SOL    HW225872   0.494   2.059   9.586 -0.2375 -0.2428 -0.4366
 4746SOL     OW25873   4.473   1.058  12.006 -0.3923  0.3099  0.5247
 4746SOL    HW125874   4.433   0.979  12.042 -0.5210 -0.4796 -1.3477
 4746SOL    HW225875   4.484   1.036  11.914  0.8706 -0.2330  0.7956
 4747SOL     OW25876   1.566   1.510  16.054 -0.2403 -0.3502  0.0940
 4747SOL    HW125877   1.547   1.577  16.120 -1.9384  0.4061 -1.1511
 4747SOL    HW225878   1.656   1.534  16.033 -0.3435 -0.1082 -0.0770
 4748SOL     OW25879   2.966   3.943   8.735  0.0465  0.2941 -0.4882
 4748SOL    HW125880   3.012   4.007   8.682  2.7718  1.4521  3.3177
 4748SOL    HW225881   2.950   3.875   8.669  1.0259 -1.6502  1.2587
 4749SOL     OW25882   2.555   1.345   0.389 -0.9929  0.5964  0.2613
 4749SOL    HW125883   2.620   1.407   0.422  0.7326 -1.6923  1.1075
 4749SOL    HW225884   2.596   1.259   0.395  0.2144  1.0322 -1.6468
 4750SOL     OW25885   3.421   1.720   3.306 -0.0212 -0.2117 -0.2299
 4750SOL    HW125886   3.425   1.762   3.220  2.2522  0.0930  0.0076
 4750SOL    HW225887   3.368   1.784   3.353 -2.4855 -2.6152  0.2395
 4751SOL     OW25888   4.131   4.374  12.381 -0.0542  0.2449 -0.5201
 4751SOL    HW125889   4.226   4.375  12.365 -0.4661  2.1553 -2.7767
 4751SOL    HW225890   4.106   4.465  12.362 -0.3504 -0.0740 -1.6564
 4752SOL     OW25891   1.035   1.541  12.352  0.7497 -0.1204 -0.1123
 4752SOL    HW125892   0.955   1.568  12.307  0.1626 -2.2607 -0.3413
 4752SOL    HW225893   1.077   1.613  12.399  1.7246  0.9223 -2.5482
 4753SOL     OW25894   4.364   0.645   5.077 -0.0278 -0.0004 -0.1156
 4753SOL    HW125895   4.351   0.605   5.163  0.4192  1.0834  0.4549
 4753SOL    HW225896   4.410   0.725   5.102  3.4329 -2.0289  0.0910
 4754SOL     OW25897   2.806   0.657   4.117 -0.2174 -0.2478 -0.3364
 4754SOL    HW125898   2.815   0.562   4.122 -2.4133 -0.4298  0.2948
 4754SOL    HW225899   2.710   0.657   4.114 -0.1982 -1.4701 -0.8534
 4755SOL     OW25900   2.833   2.267   6.394  0.0125 -0.0216 -0.4963
 4755SOL    HW125901   2.816   2.270   6.488 -2.1083  1.1421 -0.9044
 4755SOL    HW225902   2.887   2.346   6.391 -1.1302  0.7244 -1.2361
 4756SOL     OW25903   2.745   2.098   2.705  0.2857 -0.1709 -0.4041
 4756SOL    HW125904   2.831   2.134   2.684 -0.0510  0.7608 -0.1980
 4756SOL    HW225905   2.695   2.115   2.625  0.1464  1.3480  0.0022
 4757SOL     OW25906   0.312   2.144   1.766 -0.2802  0.1225  0.5057
 4757SOL    HW125907   0.364   2.221   1.788  0.3375 -0.0195 -0.4865
 4757SOL    HW225908   0.377   2.075   1.776  0.6854  0.8545 -0.7533
 4758SOL     OW25909   3.861   0.944   3.184 -0.3667  0.0043  0.1270
 4758SOL    HW125910   3.834   0.858   3.217  1.3690 -0.9132 -0.8758
 4758SOL    HW225911   3.941   0.950   3.236  0.8651  1.4743 -1.9442
 4759SOL     OW25912   1.281   2.728   7.420  0.4327  0.0816 -0.4890
 4759SOL    HW125913   1.211   2.737   7.485  0.4180 -0.1534 -0.4696
 4759SOL    HW225914   1.329   2.809   7.436 -0.2457  0.3994 -0.0398
 4760SOL     OW25915   1.111   3.222   2.169 -0.0327  0.3683 -0.2172
 4760SOL    HW125916   1.144   3.144   2.125 -0.8887 -0.8044  1.2320
 4760SOL    HW225917   1.175   3.289   2.143 -0.0334  0.4486 -0.0122
 4761SOL     OW25918   3.918   1.591   0.406 -0.3191  0.1558 -0.0856
 4761SOL    HW125919   3.985   1.536   0.367  0.3399  0.5782  0.4514
 4761SOL    HW225920   3.951   1.681   0.401  0.4850 -0.3116 -3.1211
 4762SOL     OW25921   0.156   0.154   2.575  0.0139  0.9465 -0.8098
 4762SOL    HW125922   0.236   0.154   2.524  1.1832 -0.9741  1.0442
 4762SOL    HW225923   0.133   0.247   2.569 -1.0564  0.8347  1.4096
 4763SOL     OW25924   2.865   0.798   7.162  0.1688  0.2529  0.1871
 4763SOL    HW125925   2.951   0.761   7.144 -0.1288  0.0072 -0.7822
 4763SOL    HW225926   2.871   0.811   7.256 -0.9056  0.3620  0.2421
 4764SOL     OW25927   4.726   2.415   7.528 -0.3258  0.1229  0.1873
 4764SOL    HW125928   4.658   2.467   7.485  0.0694  0.5987  0.1468
 4764SOL    HW225929   0.024   2.366   7.454 -0.3860  1.3137 -0.6270
 4765SOL     OW25930   0.918   0.902  13.484 -0.1051  0.4744  0.4846
 4765SOL    HW125931   0.840   0.957  13.493  0.5285  1.6410 -1.0177
 4765SOL    HW225932   0.930   0.867  13.572 -0.8203 -0.2587  0.2927
 4766SOL     OW25933   0.499   4.325   3.355 -0.0201  0.2312 -0.0455
 4766SOL    HW125934   0.537   4.393   3.300 -0.3054  0.3350 -0.1140
 4766SOL    HW225935   0.428   4.286   3.304  0.0999  0.6937 -0.5665
 4767SOL     OW25936   1.030   1.830   7.270  0.0330 -0.1358 -0.1159
 4767SOL    HW125937   1.120   1.850   7.294  0.4475 -0.0886 -1.6571
 4767SOL    HW225938   1.047   1.747   7.224  2.7922  0.4667 -0.1909
 4768SOL     OW25939   2.528   3.147   8.693  0.1471 -0.1933  0.0946
 4768SOL    HW125940   2.571   3.126   8.776  1.0803  1.4943  0.0522
 4768SOL    HW225941   2.476   3.223   8.719 -2.6774 -1.9920 -0.3529
 4769SOL     OW25942   4.158   3.584   7.795 -0.6357 -0.0023 -0.1417
 4769SOL    HW125943   4.250   3.563   7.810 -1.0473 -0.2493  2.0875
 4769SOL    HW225944   4.159   3.628   7.710  0.7869 -0.7373 -0.4963
 4770SOL     OW25945   0.825   1.803   2.793 -0.0872 -0.0072 -1.1050
 4770SOL    HW125946   0.747   1.784   2.846  2.2035  2.3885  3.0682
 4770SOL    HW225947   0.882   1.816   2.868 -0.3688 -0.0709 -0.8802
 4771SOL     OW25948   2.843   3.720  16.823 -0.2061 -0.2399  0.0677
 4771SOL    HW125949   2.866   3.778  16.896  1.2933 -2.7480  1.5768
 4771SOL    HW225950   2.747   3.716  16.823 -0.1525 -1.4685  1.1652
 4772SOL     OW25951   4.302   0.221   2.016 -0.9591 -0.2100  0.2422
 4772SOL    HW125952   4.226   0.238   2.071 -1.0789  1.8550 -0.5619
 4772SOL    HW225953   4.287   0.283   1.945 -1.4787  1.7424  2.0645
 4773SOL     OW25954   2.577   4.666   3.090  0.0678  0.1942 -0.6629
 4773SOL    HW125955   2.600   4.584   3.046 -1.1076 -0.1598 -0.6092
 4773SOL    HW225956   2.617   4.736   3.038  1.1999  0.9486  1.2442
 4774SOL     OW25957   4.736   0.438   6.813  0.2529  0.7922  0.4981
 4774SOL    HW125958   4.643   0.423   6.796  0.7201 -0.4957 -0.9757
 4774SOL    HW225959   4.735   0.411   6.905 -0.5023 -0.7597  0.0406
 4775SOL     OW25960   4.485   0.743  16.184 -0.0180 -0.5647  0.0641
 4775SOL    HW125961   4.478   0.839  16.182  2.0415 -0.4294  0.0253
 4775SOL    HW225962   4.410   0.718  16.130  0.2593 -0.1589 -0.5043
 4776SOL     OW25963   0.222   4.146  13.910 -0.1171  0.4187 -0.2639
 4776SOL    HW125964   0.175   4.135  13.828 -0.1389 -1.4761 -0.0042
 4776SOL    HW225965   0.287   4.076  13.901 -0.6342 -0.0408 -0.3770
 4777SOL     OW25966   3.745   3.963   1.637 -0.0078  0.4567 -0.3453
 4777SOL    HW125967   3.689   3.894   1.673  3.2531 -1.0763  1.8185
 4777SOL    HW225968   3.829   3.922   1.614 -1.1435 -2.6479  0.9541
 4778SOL     OW25969   2.567   2.057   5.036 -0.1226 -0.0564 -0.2562
 4778SOL    HW125970   2.609   2.106   5.107 -1.2647 -0.7401  0.9051
 4778SOL    HW225971   2.622   2.085   4.963  0.2846  1.1570  0.5135
 4779SOL     OW25972   3.828   4.464  12.445  0.1383  0.8016 -0.4450
 4779SOL    HW125973   3.908   4.508  12.418  0.0020  1.8618  0.8534
 4779SOL    HW225974   3.859   4.391  12.498 -0.4948  1.6042  1.0459
 4780SOL     OW25975   4.731   3.118   2.399  0.4511  0.7652  0.3198
 4780SOL    HW125976   0.007   3.108   2.304  0.4303 -2.1932  0.6486
 4780SOL    HW225977   4.638   3.095   2.406 -0.1341  3.3094  0.9041
 4781SOL     OW25978   4.622   2.762   2.125  0.1372 -0.2457 -0.0018
 4781SOL    HW125979   4.707   2.806   2.136 -0.4263  0.9041 -0.2041
 4781SOL    HW225980   4.571   2.809   2.191 -1.9209 -0.5972 -1.3572
 4782SOL     OW25981   0.018   3.269  12.395  0.0246  0.0103  0.4761
 4782SOL    HW125982   4.709   3.269  12.311  2.8979  0.3850 -1.0932
 4782SOL    HW225983   0.107   3.284  12.364 -0.3282 -0.1650 -0.6089
 4783SOL     OW25984   0.708   0.029  11.200  1.0372  0.5462 -0.0481
 4783SOL    HW125985   0.692   0.121  11.218  0.2997  0.6666 -1.3093
 4783SOL    HW225986   0.742   4.727  11.281  0.9666  0.2062 -0.1810
 4784SOL     OW25987   1.812   1.739   4.881  0.0207 -0.0501  0.3911
 4784SOL    HW125988   1.730   1.700   4.909 -0.6866  0.1812 -1.3362
 4784SOL    HW225989   1.871   1.698   4.945  2.2144  0.5148 -1.2399
 4785SOL     OW25990   0.475   0.443  13.811  0.5790 -1.0160  0.6748
 4785SOL    HW125991   0.439   0.376  13.869 -1.4854 -0.0452  0.5072
 4785SOL    HW225992   0.486   0.516  13.873  1.8493  0.2720 -1.0946
 4786SOL     OW25993   1.297   0.879   2.763 -0.1370  0.1183  0.6241
 4786SOL    HW125994   1.282   0.902   2.671  2.6062 -0.9549 -0.0849
 4786SOL    HW225995   1.224   0.817   2.768 -0.4571  0.6845  2.7100
 4787SOL     OW25996   2.741   0.120   9.406  0.2255  0.2758 -0.0504
 4787SOL    HW125997   2.729   0.091   9.496 -0.1068 -0.9729 -0.4991
 4787SOL    HW225998   2.826   0.165   9.407  0.5757 -0.4184  1.1843
 4788SOL     OW25999   0.435   0.865  16.783 -0.0731 -0.6148 -0.6952
 4788SOL    HW126000   0.446   0.960  16.782 -1.7050 -0.4051  1.4983
 4788SOL    HW226001   0.410   0.841  16.694 -1.8700 -3.8469  0.6957
 4789SOL     OW26002   1.795   4.446   2.346 -0.0499 -0.3902 -0.5873
 4789SOL    HW126003   1.706   4.424   2.374 -0.9223  2.7817 -0.9124
 4789SOL    HW226004   1.846   4.379   2.393 -0.4972  1.5291  2.6606
 4790SOL     OW26005   2.194   4.183   4.853 -0.2545  0.0604 -0.4032
 4790SOL    HW126006   2.174   4.095   4.822 -4.0202  0.0849  1.8993
 4790SOL    HW226007   2.116   4.199   4.906 -0.7362  1.1539 -1.4808
 4791SOL     OW26008   1.710   3.842   2.168  0.5203 -0.3236  0.5196
 4791SOL    HW126009   1.752   3.832   2.083  0.6804 -0.2299  0.5880
 4791SOL    HW226010   1.746   3.930   2.179 -0.8857 -0.0157  2.6469
 4792SOL     OW26011   2.178   2.428   6.735 -0.3396 -0.2743 -0.1135
 4792SOL    HW126012   2.120   2.353   6.749 -0.4694 -0.1977 -0.2457
 4792SOL    HW226013   2.147   2.492   6.799  0.8195  0.3080 -0.1394
 4793SOL     OW26014   2.865   3.593   1.301 -0.1645  0.8020 -0.0678
 4793SOL    HW126015   2.911   3.647   1.365 -0.8135 -0.1904  1.2461
 4793SOL    HW226016   2.892   3.632   1.218 -0.4153  0.4872 -0.2988
 4794SOL     OW26017   0.235   4.363   7.908 -0.6143  0.0398  0.5137
 4794SOL    HW126018   0.272   4.450   7.893  1.4691 -1.0294 -0.5823
 4794SOL    HW226019   0.193   4.363   7.994 -1.3794  2.3877  0.1452
 4795SOL     OW26020   3.262   1.322  12.679 -0.2869 -0.8851  0.0435
 4795SOL    HW126021   3.178   1.366  12.669 -0.2505 -0.6978  0.5557
 4795SOL    HW226022   3.322   1.397  12.683  0.3523 -1.2838 -2.1236
 4796SOL     OW26023   3.098   3.022   5.243 -0.0881  0.4901  0.4738
 4796SOL    HW126024   3.182   3.048   5.205  0.3660  0.4159  1.4123
 4796SOL    HW226025   3.095   2.937   5.200 -1.6427  0.3148  0.9267
 4797SOL     OW26026   1.723   3.958   8.756  0.1333 -0.0390  0.0680
 4797SOL    HW126027   1.723   4.047   8.720  2.5977 -0.4948 -1.0486
 4797SOL    HW226028   1.817   3.942   8.764  0.4859  1.1031 -1.8471
 4798SOL     OW26029   3.570   2.230   5.383 -0.1782  0.1300 -0.0403
 4798SOL    HW126030   3.658   2.191   5.376 -0.2437 -0.0662  0.2264
 4798SOL    HW226031   3.587   2.318   5.351 -2.7343  0.3830 -0.6686
 4799SOL     OW26032   3.520   3.606   4.644  0.2656 -0.1447 -0.1504
 4799SOL    HW126033   3.438   3.652   4.659  0.3904  0.0474 -0.0435
 4799SOL    HW226034   3.578   3.674   4.611  1.6133 -1.6629 -0.9510
 4800SOL     OW26035   2.284   0.776   4.157  0.4698 -0.8765  0.4085
 4800SOL    HW126036   2.224   0.848   4.136  0.4811 -0.8222  0.5646
 4800SOL    HW226037   2.296   0.791   4.251 -0.9384  0.5675  0.3529
 4801SOL     OW26038   0.838   0.300  12.115  1.1909 -0.0927  0.4978
 4801SOL    HW126039   0.839   0.387  12.076  2.0755 -0.4226 -0.2254
 4801SOL    HW226040   0.905   0.314  12.182 -0.1463 -1.4093  2.1150
 4802SOL     OW26041   4.193   1.629   7.799  0.0066 -0.2527  0.1529
 4802SOL    HW126042   4.130   1.557   7.800  2.6466 -2.6027  0.0183
 4802SOL    HW226043   4.125   1.696   7.798 -0.3813 -0.7640 -5.2864
 4803SOL     OW26044   4.355   0.753   9.129  0.1535 -0.4309 -0.4651
 4803SOL    HW126045   4.262   0.730   9.124  0.0655  0.0661 -1.0721
 4803SOL    HW226046   4.350   0.821   9.196 -0.9558  0.0837 -1.0742
 4804SOL     OW26047   0.704   2.844   3.819  0.4154  0.7267  0.0590
 4804SOL    HW126048   0.729   2.857   3.728  1.4374 -0.4112  0.1852
 4804SOL    HW226049   0.724   2.934   3.845 -1.3907  1.1351  0.0835
 4805SOL     OW26050   2.896   2.901  13.760 -0.6818 -0.0011 -0.2662
 4805SOL    HW126051   2.867   2.939  13.843 -1.1276  3.3909 -1.9705
 4805SOL    HW226052   2.916   2.985  13.719 -1.4627  0.9550  1.3350
 4806SOL     OW26053   2.759   4.342   3.407  0.2500 -0.0655 -0.5828
 4806SOL    HW126054   2.739   4.435   3.410  0.9631  0.0420  0.7093
 4806SOL    HW226055   2.831   4.343   3.344 -1.0007 -2.8230 -2.0924
 4807SOL     OW26056   1.731   2.955   2.533 -0.2777 -0.3838  0.4836
 4807SOL    HW126057   1.743   3.002   2.616 -1.2087 -0.9138  0.9225
 4807SOL    HW226058   1.819   2.921   2.518 -0.6514  0.0756 -2.5438
 4808SOL     OW26059   0.672   0.521   5.089  0.3326 -0.0299 -0.5673
 4808SOL    HW126060   0.621   0.593   5.051 -0.0332  0.9249  1.7206
 4808SOL    HW226061   0.662   0.448   5.028 -0.0306 -0.5456  0.1037
 4809SOL     OW26062   3.602   1.548   2.325 -0.3093 -0.6629  0.3573
 4809SOL    HW126063   3.665   1.616   2.347 -1.0857  0.2694 -0.3453
 4809SOL    HW226064   3.539   1.570   2.394 -0.4645  0.9323 -0.3044
 4810SOL     OW26065   4.099   2.987  11.005  0.2090  0.0740 -0.4240
 4810SOL    HW126066   4.097   2.903  11.050 -2.0401 -0.3692 -1.3365
 4810SOL    HW226067   4.158   3.033  11.065  1.0286 -2.7761  0.9329
 4811SOL     OW26068   4.687   3.361   1.346 -0.0090 -0.0685 -0.1644
 4811SOL    HW126069   4.706   3.273   1.316  0.3519 -0.9213  2.5812
 4811SOL    HW226070   4.594   3.378   1.330 -0.0139  1.2798  1.2637
 4812SOL     OW26071   1.652   1.605   7.835  0.1858  0.2772 -0.2279
 4812SOL    HW126072   1.744   1.578   7.831  0.0522 -0.2249  0.2214
 4812SOL    HW226073   1.641   1.700   7.828 -1.7036  0.3074  3.4254
 4813SOL     OW26074   0.910   4.711   7.573  0.1617  0.2119  0.3226
 4813SOL    HW126075   0.866   0.051   7.609  0.0762  0.9276 -1.3084
 4813SOL    HW226076   0.980   0.020   7.527 -0.9743  0.8965 -0.7343
 4814SOL     OW26077   2.681   1.209   8.507  0.5548  0.0431 -0.0442
 4814SOL    HW126078   2.669   1.136   8.445  2.1545  0.8517 -1.3198
 4814SOL    HW226079   2.775   1.216   8.527  0.4319  0.4449  0.3841
 4815SOL     OW26080   3.311   3.792   4.672 -0.2875 -0.8352 -0.2994
 4815SOL    HW126081   3.295   3.816   4.763  1.7092 -1.3557  0.1852
 4815SOL    HW226082   3.348   3.870   4.631  0.1921 -1.7072 -1.5308
 4816SOL     OW26083   2.195   2.179  11.867 -0.3586 -0.1302 -0.0161
 4816SOL    HW126084   2.131   2.241  11.902  2.0557  1.3949  1.6253
 4816SOL    HW226085   2.277   2.228  11.876 -0.3444 -0.2136  0.2922
 4817SOL     OW26086   0.993   4.695   6.054  0.7917 -0.0759  0.0591
 4817SOL    HW126087   0.979   4.622   6.114  1.0010  0.5305  0.8459
 4817SOL    HW226088   1.015   4.646   5.974  1.2860 -1.2455  0.9192
 4818SOL     OW26089   1.533   4.406   9.021 -0.0329 -0.1392  0.2196
 4818SOL    HW126090   1.458   4.348   9.028  0.9327 -1.3125  0.8003
 4818SOL    HW226091   1.546   4.422   9.114 -1.3277 -1.5688  0.6351
 4819SOL     OW26092   2.019   4.727  10.727 -0.1946 -0.3097  0.2438
 4819SOL    HW126093   1.970   0.016  10.649 -0.6438 -2.3822 -0.1610
 4819SOL    HW226094   1.973   0.041  10.794 -0.5357  0.6888 -0.7518
 4820SOL     OW26095   4.044   2.190   5.697 -0.4345  0.2185 -0.1053
 4820SOL    HW126096   3.966   2.219   5.650 -0.9118  1.1443  1.2604
 4820SOL    HW226097   4.023   2.096   5.696 -2.4744  0.6755 -0.4570
 4821SOL     OW26098   3.539   0.135   5.770 -0.4964 -0.2448  0.6688
 4821SOL    HW126099   3.607   0.188   5.727  0.0044 -1.2235  0.2399
 4821SOL    HW226100   3.581   0.102   5.849  2.2984  1.0347 -0.2899
 4822SOL     OW26101   1.201   2.645   0.229  0.0960 -0.2995  0.7017
 4822SOL    HW126102   1.281   2.683   0.263  0.0541 -0.8724  1.4434
 4822SOL    HW226103   1.143   2.661   0.303  0.0255 -2.4454  1.0971
 4823SOL     OW26104   4.066   2.378  16.466 -0.0920 -0.0267 -0.0461
 4823SOL    HW126105   4.066   2.457  16.520  0.9765 -0.1037  0.0669
 4823SOL    HW226106   4.043   2.313  16.533  2.2313 -1.3416 -0.5093
 4824SOL     OW26107   4.153   0.236   9.006 -0.9634  0.0219 -0.4046
 4824SOL    HW126108   4.176   0.143   9.015  2.4862  1.1915  3.1293
 4824SOL    HW226109   4.218   0.269   8.944  0.3791 -2.8512 -0.5264
 4825SOL     OW26110   0.875   1.181  10.125  0.7339  0.1066  0.5960
 4825SOL    HW126111   0.784   1.162  10.150 -0.0165  2.0193 -0.7247
 4825SOL    HW226112   0.868   1.193  10.031  0.6097  1.2098  0.7485
 4826SOL     OW26113   4.651   2.406   4.937  0.0373  0.4338 -0.6842
 4826SOL    HW126114   4.608   2.379   5.018 -1.0587 -1.0301 -1.7654
 4826SOL    HW226115   0.005   2.424   4.962  0.9310 -0.9007 -2.9844
 4827SOL     OW26116   4.056   1.789   6.024 -0.2990  0.3554  0.1111
 4827SOL    HW126117   4.066   1.884   6.022  1.1168  0.2042 -0.0699
 4827SOL    HW226118   4.126   1.758   6.082  0.6372 -0.2195 -1.3209
 4828SOL     OW26119   2.427   0.178  14.423 -0.7622  0.7522 -0.0966
 4828SOL    HW126120   2.403   0.181  14.516  0.4013 -0.3141  0.2394
 4828SOL    HW226121   2.506   0.125  14.433 -0.8864  0.5072 -0.4423
 4829SOL     OW26122   0.129   3.738   1.815 -0.0636 -0.2671  0.6460
 4829SOL    HW126123   0.089   3.821   1.791  2.1066  0.0939 -1.6517
 4829SOL    HW226124   0.151   3.710   1.726  0.3782  2.6906 -0.1569
 4830SOL     OW26125   1.104   3.302   9.572  0.1513 -0.2143 -0.2932
 4830SOL    HW126126   1.092   3.381   9.519 -0.6352  0.3398  0.7180
 4830SOL    HW226127   1.171   3.317   9.638  0.0001 -0.1021 -0.1640
 4831SOL     OW26128   1.936   4.231   9.540  0.1256 -0.0414 -0.2187
 4831SOL    HW126129   1.897   4.318   9.532 -3.6099 -1.5745  1.3625
 4831SOL    HW226130   1.959   4.219   9.632  1.1039 -1.5470 -0.6567
 4832SOL     OW26131   4.724   3.066  13.705 -0.4970  0.3191 -0.0697
 4832SOL    HW126132   4.736   2.997  13.771  0.6022  0.1083 -0.5021
 4832SOL    HW226133   4.631   3.055  13.682 -1.0732  1.5342  1.6510
 4833SOL     OW26134   2.896   3.822   4.647  0.8099  0.0057  0.3638
 4833SOL    HW126135   2.867   3.738   4.613  1.0449  0.0512  0.0533
 4833SOL    HW226136   2.939   3.794   4.728  0.5260 -0.4775  0.3433
 4834SOL     OW26137   0.812   0.390  12.754  0.4707  0.0460  0.3907
 4834SOL    HW126138   0.852   0.431  12.831  1.0014 -0.5685  0.4420
 4834SOL    HW226139   0.844   0.453  12.689  0.1896 -1.4127 -1.1315
 4835SOL     OW26140   3.350   3.338   7.500 -0.0427 -0.1141  0.1531
 4835SOL    HW126141   3.375   3.406   7.437 -1.4028  0.8472  0.6452
 4835SOL    HW226142   3.256   3.345   7.483 -0.2655  0.2564  1.5930
 4836SOL     OW26143   4.399   3.391   5.164 -0.2965  0.2643  0.4344
 4836SOL    HW126144   4.423   3.387   5.257  0.3306  1.7233  0.3354
 4836SOL    HW226145   4.480   3.352   5.133 -0.9875 -0.6113 -0.2619
 4837SOL     OW26146   4.720   3.023  15.697  0.1983 -0.0812 -0.8348
 4837SOL    HW126147   4.723   2.959  15.627 -1.5065 -3.0096  1.7805
 4837SOL    HW226148   4.668   3.097  15.666 -2.1228 -1.1204  0.6094
 4838SOL     OW26149   2.709   2.350   2.820 -0.3873  0.6093 -0.1945
 4838SOL    HW126150   2.795   2.340   2.779 -0.4331  1.4731 -0.4993
 4838SOL    HW226151   2.678   2.261   2.803  1.5079  0.0236 -0.5319
 4839SOL     OW26152   2.227   1.687   8.906 -0.2072 -0.1457  0.0474
 4839SOL    HW126153   2.250   1.594   8.906 -0.5003 -0.2213  0.5480
 4839SOL    HW226154   2.224   1.712   8.814  1.6541 -0.2704 -0.0365
 4840SOL     OW26155   4.308   1.262   8.780  0.1428  0.0795  0.0474
 4840SOL    HW126156   4.382   1.243   8.838 -0.7114  0.8785  1.4183
 4840SOL    HW226157   4.353   1.269   8.696  2.2429  1.1009  1.2788
 4841SOL     OW26158   0.682   0.856  11.704 -0.1317 -0.0113  0.2783
 4841SOL    HW126159   0.662   0.890  11.791 -1.2042 -1.0591  0.4340
 4841SOL    HW226160   0.759   0.910  11.686 -0.9666  1.2491  0.5357
 4842SOL     OW26161   0.321   0.042  13.134 -0.1986  0.1928  0.1224
 4842SOL    HW126162   0.235   0.035  13.094  0.0657 -2.2105 -0.0333
 4842SOL    HW226163   0.337   4.697  13.182 -1.8856 -2.0098 -3.0750
 4843SOL     OW26164   3.998   0.877   5.105 -0.5226  0.0834  0.4644
 4843SOL    HW126165   4.003   0.880   5.200  1.0346  1.4677  0.3257
 4843SOL    HW226166   4.069   0.938   5.086 -1.7804  1.0916 -0.9472
 4844SOL     OW26167   1.707   3.732   2.965  0.1668  0.4020 -0.1106
 4844SOL    HW126168   1.751   3.782   2.897  2.3461  2.0418  2.4991
 4844SOL    HW226169   1.630   3.781   2.995 -1.0147 -0.3295 -1.9901
 4845SOL     OW26170   0.616   2.329   7.882  0.1756 -0.1005  0.0954
 4845SOL    HW126171   0.566   2.405   7.852  0.7129  0.5389  0.8073
 4845SOL    HW226172   0.636   2.348   7.973  1.9475  2.0401 -0.7212
 4846SOL     OW26173   2.904   0.837   0.899 -0.5242  0.1752  0.0364
 4846SOL    HW126174   2.969   0.769   0.882 -1.6300 -0.9456  0.3156
 4846SOL    HW226175   2.823   0.793   0.925  0.1800 -0.5013  1.0711
 4847SOL     OW26176   2.530   2.253   7.728  0.1031 -0.7297 -0.0910
 4847SOL    HW126177   2.457   2.195   7.747 -0.2291 -0.4979 -0.6760
 4847SOL    HW226178   2.508   2.325   7.788 -0.1091 -0.4327 -0.5256
 4848SOL     OW26179   2.704   1.445  15.380  0.1480 -0.5632  0.0257
 4848SOL    HW126180   2.708   1.368  15.437 -3.0234 -0.6137  0.1844
 4848SOL    HW226181   2.617   1.440  15.340  0.8825 -1.3127 -1.4854
 4849SOL     OW26182   2.342   0.154  11.904  0.5131 -0.2428 -0.1618
 4849SOL    HW126183   2.310   0.188  11.820 -0.8210 -1.1919 -0.0376
 4849SOL    HW226184   2.265   0.100  11.923  1.6512 -1.3122  1.3671
 4850SOL     OW26185   2.005   0.982   0.996  0.3808 -0.3545  0.4916
 4850SOL    HW126186   1.944   1.049   1.027  1.6467 -0.0063  2.2349
 4850SOL    HW226187   1.950   0.906   0.977 -0.8865  0.9594 -1.0654
 4851SOL     OW26188   4.065   3.381   4.590  0.1278 -0.3434 -0.5118
 4851SOL    HW126189   4.132   3.400   4.656  0.1270 -0.9733 -0.3278
 4851SOL    HW226190   4.033   3.468   4.568  3.8301  0.8844 -1.0173
 4852SOL     OW26191   3.480   1.355   3.817 -0.4539 -0.0785 -0.3059
 4852SOL    HW126192   3.548   1.287   3.815  0.3782  0.7650 -0.6326
 4852SOL    HW226193   3.533   1.432   3.835  0.1276 -0.5776  0.1419
 4853SOL     OW26194   4.618   3.600  17.177 -0.3733 -0.0779 -0.4812
 4853SOL    HW126195   4.669   3.555  17.246 -0.5927  1.7009  0.8305
 4853SOL    HW226196   4.566   3.535  17.130  0.9768 -1.2632 -0.3664
 4854SOL     OW26197   0.265   1.431   3.848  0.2126  0.0383 -0.3241
 4854SOL    HW126198   0.274   1.525   3.861  0.2667 -0.0838  0.4847
 4854SOL    HW226199   0.171   1.415   3.842 -0.0179  1.6739 -1.3111
 4855SOL     OW26200   3.834   0.391  17.018 -1.1054  0.5420 -0.0129
 4855SOL    HW126201   3.885   0.427  16.945 -1.9716 -1.4746 -1.6360
 4855SOL    HW226202   3.761   0.453  17.012 -1.7671 -0.4989 -2.8900
 4856SOL     OW26203   2.351   4.428   4.223  0.7770  0.0958 -0.0222
 4856SOL    HW126204   2.415   4.401   4.289  0.3206 -2.1595 -0.4798
 4856SOL    HW226205   2.268   4.403   4.263 -1.0466 -1.0501 -4.4604
 4857SOL     OW26206   3.673   2.261  16.878 -0.1326  0.5124  0.4033
 4857SOL    HW126207   3.671   2.245  16.973 -0.5233 -0.0339  0.3083
 4857SOL    HW226208   3.578   2.255  16.864  0.6673 -2.8901 -3.5812
 4858SOL     OW26209   3.770   3.094   6.813 -0.4668  0.3536  0.1013
 4858SOL    HW126210   3.685   3.090   6.769 -0.9179  0.7536  0.9327
 4858SOL    HW226211   3.767   3.019   6.873 -0.3230  0.4808  0.2692
 4859SOL     OW26212   1.725   0.795   4.537 -0.2078 -0.2740 -0.0105
 4859SOL    HW126213   1.661   0.758   4.597  1.3916 -0.8142  1.3719
 4859SOL    HW226214   1.712   0.736   4.463  1.3581 -0.4687 -0.1213
 4860SOL     OW26215   2.232   1.638   7.445  0.1783 -0.2425  0.1936
 4860SOL    HW126216   2.236   1.732   7.431  1.3705 -0.6032 -1.9095
 4860SOL    HW226217   2.288   1.632   7.522  0.3227 -1.6364 -0.0158
 4861SOL     OW26218   4.421   3.578   3.699  0.5245  0.1344 -0.7717
 4861SOL    HW126219   4.330   3.560   3.676  0.1057 -0.0618  1.0389
 4861SOL    HW226220   4.463   3.498   3.729 -1.9631 -1.2767 -1.0728
 4862SOL     OW26221   0.536   1.112   7.131  0.7158 -0.0610 -0.2515
 4862SOL    HW126222   0.531   1.087   7.223 -1.7637  0.7136 -0.1570
 4862SOL    HW226223   0.445   1.141   7.123  1.0828  0.7463 -1.5861
 4863SOL     OW26224   3.997   2.001   8.820 -0.1997  0.2527  0.0986
 4863SOL    HW126225   3.954   1.936   8.875  0.7137 -1.0580 -0.7214
 4863SOL    HW226226   3.923   2.039   8.773 -0.4205  0.1796  0.3906
 4864SOL     OW26227   1.942   2.642   4.609  0.0257  0.5906  0.4497
 4864SOL    HW126228   1.952   2.727   4.567 -1.2395  0.1356 -0.7522
 4864SOL    HW226229   1.987   2.597   4.538 -0.4856  0.0917  0.4464
 4865SOL     OW26230   2.372   3.235   8.919 -0.3846 -0.7178  0.0035
 4865SOL    HW126231   2.293   3.275   8.883 -0.8403  1.1451  3.0173
 4865SOL    HW226232   2.350   3.229   9.012 -3.7720  0.4733 -0.7477
 4866SOL     OW26233   3.665   0.504  11.245 -0.5753 -0.1305 -0.1080
 4866SOL    HW126234   3.754   0.476  11.266 -0.4712 -1.0921 -1.8459
 4866SOL    HW226235   3.650   0.474  11.155 -3.3694  2.8213 -0.6170
 4867SOL     OW26236   0.094   2.332  12.279 -0.3504 -0.3625  0.0081
 4867SOL    HW126237   0.057   2.328  12.367 -0.7828  2.0614 -0.0714
 4867SOL    HW226238   0.085   2.426  12.263 -0.2723 -0.2108  0.8519
 4868SOL     OW26239   1.571   1.465   3.205  0.1605 -0.4450  0.3251
 4868SOL    HW126240   1.598   1.538   3.148  1.6664 -1.2755 -0.0391
 4868SOL    HW226241   1.615   1.387   3.171  4.4742  2.8516 -1.8197
 4869SOL     OW26242   1.947   3.433   4.940  0.4793 -0.0207 -0.0196
 4869SOL    HW126243   2.001   3.483   4.879  0.1584  0.6802  0.2780
 4869SOL    HW226244   1.878   3.497   4.953 -0.0851 -1.0614  2.0789
 4870SOL     OW26245   2.049   1.398   3.022 -0.6637 -0.2242  0.1453
 4870SOL    HW126246   2.107   1.325   3.042  1.0834  1.2618  0.4898
 4870SOL    HW226247   2.004   1.407   3.106  2.6166 -1.1139  1.9779
 4871SOL     OW26248   4.025   0.555  11.925 -0.4044  0.5783  0.0719
 4871SOL    HW126249   3.963   0.550  11.851  0.2561  1.3801 -0.5396
 4871SOL    HW226250   3.966   0.558  12.000  0.2747  2.3511  0.5364
 4872SOL     OW26251   4.609   1.998   5.399  0.3263 -0.5720 -0.0135
 4872SOL    HW126252   4.593   1.961   5.485  1.2383  2.1833  1.3491
 4872SOL    HW226253   4.682   1.940   5.377  0.8346 -0.6757  1.9975
 4873SOL     OW26254   0.733   1.609   6.092  0.0565 -0.3606  0.3546
 4873SOL    HW126255   0.763   1.631   6.004 -2.3836  2.1049  0.1580
 4873SOL    HW226256   0.740   1.514   6.096 -1.9977 -0.5266 -0.4492
 4874SOL     OW26257   4.073   0.330   6.731 -0.0170 -0.1773 -0.2686
 4874SOL    HW126258   3.986   0.323   6.771  0.2385  0.8053  0.4353
 4874SOL    HW226259   4.096   0.423   6.730  2.2518 -0.7490 -1.2437
 4875SOL     OW26260   1.898   2.579   6.919 -0.0733  0.2184 -0.1739
 4875SOL    HW126261   1.971   2.617   6.969  1.3446  1.2101 -2.9962
 4875SOL    HW226262   1.868   2.506   6.974  0.1830  1.5242  1.6921
 4876SOL     OW26263   1.752   2.323   3.193 -0.1446 -0.1342 -0.7395
 4876SOL    HW126264   1.719   2.236   3.169  0.5583 -0.2221 -1.3959
 4876SOL    HW226265   1.669   2.367   3.210 -0.7188 -1.1121 -0.9673
 4877SOL     OW26266   1.739   2.986   1.247 -0.7567 -0.2701 -0.2971
 4877SOL    HW126267   1.712   2.895   1.230  0.3422 -1.1699  2.7724
 4877SOL    HW226268   1.800   2.995   1.174  0.0394 -2.3908  0.1026
 4878SOL     OW26269   3.485   3.243   9.481  0.3145  0.0401  0.0518
 4878SOL    HW126270   3.536   3.280   9.554  2.2533  0.0784 -1.3192
 4878SOL    HW226271   3.398   3.282   9.486  1.1396  1.9948 -1.0190
 4879SOL     OW26272   4.063   4.357   3.627  0.4914  0.1009  0.2913
 4879SOL    HW126273   4.026   4.315   3.704  1.0059 -0.7814  0.0516
 4879SOL    HW226274   4.154   4.345   3.653  0.3127 -2.5227 -0.3105
 4880SOL     OW26275   1.379   1.363  16.621 -0.3293 -0.4326  0.3760
 4880SOL    HW126276   1.445   1.425  16.589  0.4734 -2.2234 -1.4194
 4880SOL    HW226277   1.296   1.410  16.613  0.1495  0.4314  0.3430
 4881SOL     OW26278   0.649   1.897   5.022 -0.1143 -0.1797  0.1788
 4881SOL    HW126279   0.724   1.955   5.037 -1.8514  2.0578  0.3416
 4881SOL    HW226280   0.695   1.817   5.000  0.1680 -0.6819  2.5496
 4882SOL     OW26281   3.704   1.838   5.652  0.7816  0.8216 -0.3578
 4882SOL    HW126282   3.748   1.833   5.737 -0.6824  0.0961  0.3449
 4882SOL    HW226283   3.633   1.777   5.671  0.6712  0.8733 -0.6012
 4883SOL     OW26284   3.705   1.981   6.111 -0.1092 -0.0716 -0.2850
 4883SOL    HW126285   3.614   2.007   6.127 -0.6355 -1.5211 -0.8896
 4883SOL    HW226286   3.735   2.025   6.032  0.6888 -0.5093 -0.2232
 4884SOL     OW26287   1.926   4.078  10.738  0.2995 -0.1848 -0.4376
 4884SOL    HW126288   1.996   4.107  10.679  0.5648  1.7006  0.7865
 4884SOL    HW226289   1.935   4.141  10.810 -0.4369  0.9948 -1.3776
 4885SOL     OW26290   0.114   1.734   8.258  0.3070  0.2183 -0.0355
 4885SOL    HW126291   0.107   1.825   8.287  1.6517  0.0485  0.8035
 4885SOL    HW226292   0.028   1.707   8.289  0.3387 -0.5835 -0.6499
 4886SOL     OW26293   1.688   0.979  14.880 -0.2645  0.3104 -0.5248
 4886SOL    HW126294   1.598   0.970  14.913 -0.2374  0.2779 -0.4608
 4886SOL    HW226295   1.688   0.900  14.827 -1.4124  0.5265 -0.8497
 4887SOL     OW26296   1.442   4.529  11.449  0.2675 -0.1398  0.9699
 4887SOL    HW126297   1.533   4.558  11.446  0.6495 -1.2318  1.8216
 4887SOL    HW226298   1.437   4.464  11.379 -2.1107  2.5506 -1.3769
 4888SOL     OW26299   1.586   0.318   4.026 -0.1606  0.6362  0.4047
 4888SOL    HW126300   1.669   0.270   4.027  0.0162  0.9427  0.5673
 4888SOL    HW226301   1.562   0.290   3.938 -1.3620 -1.2111  1.3291
 4889SOL     OW26302   1.718   3.094   5.526  0.2361  0.2407 -0.6518
 4889SOL    HW126303   1.756   3.031   5.466  0.9251 -0.2965  0.3505
 4889SOL    HW226304   1.771   3.174   5.520  1.0609 -0.1236  2.0061
 4890SOL     OW26305   0.590   0.807   3.369  0.4391  0.3132  0.3668
 4890SOL    HW126306   0.614   0.715   3.365  0.3561  0.3537 -0.9248
 4890SOL    HW226307   0.608   0.832   3.278  1.3581  2.1942  1.0650
 4891SOL     OW26308   1.244   4.231  13.125  0.4337  0.5728 -0.1005
 4891SOL    HW126309   1.185   4.218  13.199  1.5818  0.3570  0.7748
 4891SOL    HW226310   1.179   4.223  13.056  0.9792 -1.1502 -0.4181
 4892SOL     OW26311   0.144   3.983  17.325  0.6040 -0.2497 -0.1879
 4892SOL    HW126312   0.160   4.076  17.338 -0.5109 -0.0108 -0.5250
 4892SOL    HW226313   0.141   3.972  17.230  0.0026  0.3546 -0.2398
 4893SOL     OW26314   3.405   0.946  16.529  0.5888 -0.0193 -0.3918
 4893SOL    HW126315   3.411   0.862  16.573  0.0550 -0.1381 -0.5436
 4893SOL    HW226316   3.388   0.903  16.446 -0.1451 -0.7990  0.1668
 4894SOL     OW26317   2.146   4.320   5.279 -0.1715  0.2376 -0.2591
 4894SOL    HW126318   2.130   4.360   5.193 -1.4194  2.5803  1.0566
 4894SOL    HW226319   2.218   4.262   5.255  1.9479  2.3060  1.2450
 4895SOL     OW26320   3.201   2.538   2.955  0.0777 -0.0861  0.7757
 4895SOL    HW126321   3.195   2.463   3.014  0.9271 -1.4536 -0.8804
 4895SOL    HW226322   3.250   2.604   3.004 -0.4601 -0.3725  1.7083
 4896SOL     OW26323   3.553   3.463   3.002 -0.1061 -0.3232  0.4265
 4896SOL    HW126324   3.495   3.427   3.069  0.5232 -2.4051 -0.1515
 4896SOL    HW226325   3.506   3.422   2.929 -0.7235 -2.5244  2.0827
 4897SOL     OW26326   1.821   0.484   4.622 -0.3450 -0.3003  0.1808
 4897SOL    HW126327   1.755   0.450   4.562 -0.2635 -0.9123  0.4441
 4897SOL    HW226328   1.775   0.483   4.705 -0.6103 -2.3480  0.0136
 4898SOL     OW26329   4.334   2.499   4.296 -0.3842  0.5200  0.1523
 4898SOL    HW126330   4.248   2.515   4.257 -1.0437  0.0011  1.4079
 4898SOL    HW226331   4.322   2.412   4.334 -0.0946  0.8124  0.9042
 4899SOL     OW26332   3.079   1.221   1.362 -0.4560 -0.2158  0.2062
 4899SOL    HW126333   3.098   1.132   1.390  0.7487 -0.0149  0.0339
 4899SOL    HW226334   3.017   1.238   1.433 -1.5517  0.1095 -0.8347
 4900SOL     OW26335   4.517   4.001  17.400  0.5885  0.5231  0.6019
 4900SOL    HW126336   4.522   3.914  17.360  1.0927  0.9784 -0.3117
 4900SOL    HW226337   4.586   4.041  17.348 -0.7808  0.5907 -1.1460
 4901SOL     OW26338   4.598   3.538   2.764 -0.0878 -0.5603 -0.2671
 4901SOL    HW126339   4.672   3.479   2.779 -0.8848 -0.5637  3.5660
 4901SOL    HW226340   4.531   3.480   2.727 -0.6087  2.4328 -4.0065
 4902SOL     OW26341   1.664   1.156   5.708  0.0084  0.6277 -0.2552
 4902SOL    HW126342   1.597   1.094   5.738 -0.7037  2.0564  1.1056
 4902SOL    HW226343   1.674   1.137   5.615 -2.0475  2.5562 -0.8619
 4903SOL     OW26344   3.306   0.886  16.945 -0.3241  0.6520 -0.0035
 4903SOL    HW126345   3.298   0.976  16.977 -2.4687  0.6546 -0.5305
 4903SOL    HW226346   3.226   0.884  16.893 -1.7457 -3.6590  2.4151
 4904SOL     OW26347   3.957   1.988  16.307 -0.4370  0.3273 -0.3170
 4904SOL    HW126348   3.978   2.061  16.365 -1.1018 -1.3694  2.0928
 4904SOL    HW226349   3.933   2.032  16.226 -0.3739 -0.6902 -0.8857
 4905SOL     OW26350   2.283   4.572  11.978 -0.6111 -0.3111  0.0332
 4905SOL    HW126351   2.379   4.568  11.975 -0.5880 -0.1067  0.4424
 4905SOL    HW226352   2.256   4.587  12.069 -0.1847  0.1787  0.0782
 4906SOL     OW26353   4.132   0.541   6.478  0.3487  0.0807  0.4465
 4906SOL    HW126354   4.038   0.544   6.497 -0.0530  0.3920 -1.5932
 4906SOL    HW226355   4.125   0.522   6.385 -1.7892  0.3739  0.5460
 4907SOL     OW26356   3.076   0.023  10.607  0.0488  0.0269 -0.4923
 4907SOL    HW126357   3.096   4.672  10.576  0.5974  0.0859 -0.2957
 4907SOL    HW226358   2.982   0.013  10.595  0.0474 -0.1414 -0.3326
 4908SOL     OW26359   1.678   1.212   8.175  0.4240  0.2667  0.6442
 4908SOL    HW126360   1.656   1.144   8.112 -2.3895  1.9667 -0.1844
 4908SOL    HW226361   1.645   1.174   8.257 -0.5071 -0.0578  0.1099
 4909SOL     OW26362   2.511   3.857  11.232  0.3272 -0.5127 -0.3273
 4909SOL    HW126363   2.483   3.876  11.143 -0.0117 -1.0963 -0.3425
 4909SOL    HW226364   2.432   3.846  11.285  1.6119 -1.4901  1.4039
 4910SOL     OW26365   3.622   3.569   1.391 -0.4175 -0.1619  0.4637
 4910SOL    HW126366   3.563   3.495   1.408 -1.3417  0.4223 -0.1747
 4910SOL    HW226367   3.599   3.590   1.301 -0.7807 -3.2897 -0.1846
 4911SOL     OW26368   4.297   1.488  12.494  0.2570  0.0087 -0.0645
 4911SOL    HW126369   4.238   1.432  12.444  1.0491  0.1911 -1.2039
 4911SOL    HW226370   4.275   1.460  12.583  0.4181  0.3118  0.0700
 4912SOL     OW26371   0.462   3.971   6.561  0.7936 -0.1758 -0.0612
 4912SOL    HW126372   0.473   3.989   6.467  1.3336  0.3600  0.1029
 4912SOL    HW226373   0.427   3.882   6.556  0.5853 -0.1609  1.1698
 4913SOL     OW26374   2.010   1.214   4.957  0.3585 -0.3452  0.4090
 4913SOL    HW126375   2.060   1.288   4.923 -0.8245  0.4937  0.4922
 4913SOL    HW226376   2.034   1.149   4.891 -0.0104 -0.2396  0.1702
 4914SOL     OW26377   4.636   1.063   2.821  0.0298  0.3766  0.1561
 4914SOL    HW126378   4.658   1.135   2.880 -1.1979  0.4763  0.4966
 4914SOL    HW226379   4.721   1.037   2.786 -0.7349 -1.4347 -0.3569
 4915SOL     OW26380   2.014   0.463   3.964  0.6705  0.1015 -0.3863
 4915SOL    HW126381   1.969   0.534   3.918  0.0686  1.2000  1.9005
 4915SOL    HW226382   2.104   0.470   3.930  0.4531  1.1114 -0.7314
 4916SOL     OW26383   2.953   0.130   3.818 -0.1815 -0.5267  0.1445
 4916SOL    HW126384   3.033   0.182   3.831 -0.7433  0.6738 -1.2619
 4916SOL    HW226385   2.934   0.085   3.901 -1.7153 -0.4042 -0.1403
 4917SOL     OW26386   3.386   4.213  10.858  0.2288  0.1466  0.3492
 4917SOL    HW126387   3.478   4.188  10.849  0.0236  0.2371 -1.9119
 4917SOL    HW226388   3.339   4.144  10.811 -0.1338 -0.6817  1.9333
 4918SOL     OW26389   3.692   1.243   2.756 -0.3054 -0.1879 -0.5602
 4918SOL    HW126390   3.680   1.148   2.748 -1.6356 -0.2184  1.5297
 4918SOL    HW226391   3.653   1.289   2.682 -0.2562  1.9616  0.7515
 4919SOL     OW26392   4.732   2.015   9.536 -0.5939 -0.5289  0.2228
 4919SOL    HW126393   4.684   2.090   9.571 -1.9610 -1.1989 -0.2070
 4919SOL    HW226394   0.054   2.007   9.611 -0.3394 -2.0245 -0.1360
 4920SOL     OW26395   2.931   1.213   4.180 -0.1119  0.1653 -0.2107
 4920SOL    HW126396   2.979   1.292   4.206 -0.3373  0.5011 -0.8051
 4920SOL    HW226397   2.844   1.249   4.164  0.1749  1.1022  0.3456
 4921SOL     OW26398   4.708   1.172  13.686  0.2734  0.3162  0.4927
 4921SOL    HW126399   4.670   1.084  13.690  1.8998 -0.3719  0.7107
 4921SOL    HW226400   0.059   1.158  13.652  0.6317  2.1730  0.6450
 4922SOL     OW26401   3.956   4.173  12.514 -0.1418 -0.1162 -0.6185
 4922SOL    HW126402   4.045   4.208  12.511 -0.4227  0.5921 -0.6767
 4922SOL    HW226403   3.953   4.153  12.421 -1.9081 -0.4322 -0.4804
 4923SOL     OW26404   4.635   2.844   1.377  0.1795  0.0352  0.0872
 4923SOL    HW126405   4.547   2.850   1.338  0.4838 -2.1808 -0.9183
 4923SOL    HW226406   4.624   2.751   1.399  1.3441  0.1947  1.3428
 4924SOL     OW26407   2.579   4.454   1.458 -0.1433  0.3202 -0.0754
 4924SOL    HW126408   2.568   4.534   1.406 -0.0480 -0.4685 -1.3307
 4924SOL    HW226409   2.486   4.444   1.479  0.0821 -2.0550 -0.1493
 4925SOL     OW26410   4.731   4.690   4.777 -0.1268 -0.0540  0.0359
 4925SOL    HW126411   4.666   4.681   4.707 -1.0292 -1.7317  1.0884
 4925SOL    HW226412   0.087   4.695   4.754 -0.3956  2.3090 -0.5471
 4926SOL     OW26413   2.644   1.489   8.386  0.6052  0.0901  0.1576
 4926SOL    HW126414   2.604   1.402   8.381  1.0483 -0.1138  0.1078
 4926SOL    HW226415   2.581   1.541   8.337  0.7804 -0.5142 -0.7088
 4927SOL     OW26416   2.136   0.542   5.695  0.2301 -0.2888 -0.0223
 4927SOL    HW126417   2.167   0.633   5.697  0.1817 -0.2826  0.7662
 4927SOL    HW226418   2.172   0.494   5.769 -0.0091  0.0627  0.3295
 4928SOL     OW26419   3.417   3.970   8.770  0.2013  0.1790  0.3833
 4928SOL    HW126420   3.400   4.062   8.753  1.4615  0.6480  1.6652
 4928SOL    HW226421   3.359   3.964   8.845  0.1995  3.1171  0.5974
 4929SOL     OW26422   0.454   3.773   7.856 -0.1168 -0.2503  0.4054
 4929SOL    HW126423   0.470   3.865   7.838 -0.9144  0.2084  2.1165
 4929SOL    HW226424   0.465   3.739   7.767 -3.4450 -1.1541  0.3271
 4930SOL     OW26425   0.863   3.794   2.325 -0.3769 -0.3334 -0.7236
 4930SOL    HW126426   0.828   3.868   2.375  1.4727 -0.3710  0.6366
 4930SOL    HW226427   0.933   3.755   2.377  1.9569  3.8500 -0.6774
 4931SOL     OW26428   2.804   0.646   7.507 -0.2584  0.5115 -0.4886
 4931SOL    HW126429   2.847   0.565   7.534 -0.8606 -0.1758 -1.5977
 4931SOL    HW226430   2.745   0.609   7.442 -0.8434  1.0637 -0.2696
 4932SOL     OW26431   0.196   3.553   5.922 -0.4003  1.0580 -0.8178
 4932SOL    HW126432   0.159   3.499   5.992  0.3363  0.4407 -0.9095
 4932SOL    HW226433   0.194   3.499   5.843 -0.2023  0.2188 -0.2454
 4933SOL     OW26434   1.867   4.309  17.611  0.4389 -0.2969 -0.5008
 4933SOL    HW126435   1.932   4.363  17.658 -1.2284  0.4847  0.9338
 4933SOL    HW226436   1.893   4.222  17.643  0.9733 -0.0546 -0.2692
 4934SOL     OW26437   2.545   2.700   4.314  0.3647 -0.2403 -0.6393
 4934SOL    HW126438   2.557   2.763   4.386  1.4482 -0.2786 -0.8021
 4934SOL    HW226439   2.634   2.666   4.314  0.7638  0.7774  0.4084
 4935SOL     OW26440   4.535   4.227   1.984  0.0604 -0.5731  0.0600
 4935SOL    HW126441   4.608   4.264   1.934 -1.5005  1.7527 -0.5193
 4935SOL    HW226442   4.523   4.285   2.059 -1.3185 -0.6376 -0.1209
 4936SOL     OW26443   3.579   3.276   1.831  0.1488  0.0585 -0.3973
 4936SOL    HW126444   3.669   3.279   1.864  0.0015  1.4374 -0.1437
 4936SOL    HW226445   3.590   3.363   1.792 -0.2228  0.2497 -0.0733
 4937SOL     OW26446   3.310   4.059   2.283 -0.8915  0.0211  0.4758
 4937SOL    HW126447   3.315   3.983   2.341 -0.6120 -1.1057 -1.0363
 4937SOL    HW226448   3.296   4.132   2.344  0.2138 -2.6039  3.8358
 4938SOL     OW26449   4.682   0.102   5.012  0.0417 -0.3322  0.4805
 4938SOL    HW126450   4.733   0.084   4.933  1.0731  0.6368  0.9185
 4938SOL    HW226451   4.598   0.067   4.984  0.8814 -2.1271  0.2307
 4939SOL     OW26452   1.667   3.081   8.941  0.0675  1.0239  0.0476
 4939SOL    HW126453   1.605   3.084   9.014  1.3013  1.8235  1.0755
 4939SOL    HW226454   1.607   3.101   8.869 -1.3658  1.8941  1.4959
 4940SOL     OW26455   0.848   3.426   3.658  0.4334  0.2395 -0.0371
 4940SOL    HW126456   0.807   3.511   3.644  0.0728 -0.3523 -2.6150
 4940SOL    HW226457   0.773   3.366   3.651  1.4239 -0.8434 -1.3184
 4941SOL     OW26458   1.618   1.397   0.381  0.3446 -0.2217  0.0930
 4941SOL    HW126459   1.594   1.424   0.470  1.5816  0.3899  0.2418
 4941SOL    HW226460   1.710   1.371   0.391  1.0687  1.3135 -2.5531
 4942SOL     OW26461   0.353   0.597  12.771  0.5601 -0.7306 -0.6392
 4942SOL    HW126462   0.291   0.639  12.830  1.0503  3.0656 -2.8325
 4942SOL    HW226463   0.380   0.677  12.727  1.0718 -0.8317 -0.5058
 4943SOL     OW26464   3.771   3.476   7.323  0.0239  0.0621 -0.2113
 4943SOL    HW126465   3.800   3.499   7.412  1.4277 -0.3867 -0.5548
 4943SOL    HW226466   3.841   3.414   7.301 -0.4357  0.2262 -2.0960
 4944SOL     OW26467   4.684   4.330   2.524 -0.3858  0.0438  0.7298
 4944SOL    HW126468   4.722   4.253   2.564  0.1707 -1.1699 -2.1157
 4944SOL    HW226469   4.634   4.351   2.603  0.0664  0.2378  0.9600
 4945SOL     OW26470   2.941   3.269  10.183  0.0649 -0.2934 -0.1315
 4945SOL    HW126471   2.912   3.360  10.174 -4.1457 -1.4661  1.7030
 4945SOL    HW226472   3.020   3.258  10.130  2.0992  1.1267  2.5553
 4946SOL     OW26473   2.112   3.987   5.776  0.5328 -0.1568 -0.1117
 4946SOL    HW126474   2.031   4.025   5.810  0.7689  1.5673 -1.4532
 4946SOL    HW226475   2.096   3.893   5.778 -0.1631 -0.0649 -1.4762
 4947SOL     OW26476   2.184   0.289  13.745 -0.3651 -0.4064  0.2528
 4947SOL    HW126477   2.270   0.328  13.763  0.2167 -1.2523 -0.6854
 4947SOL    HW226478   2.194   0.198  13.772  0.7395  0.1512  1.7171
 4948SOL     OW26479   3.872   3.555   2.215 -0.0427  0.0295  0.1078
 4948SOL    HW126480   3.809   3.484   2.198  0.0140 -0.1066  0.4586
 4948SOL    HW226481   3.956   3.510   2.207 -1.3263 -2.7537  2.2713
 4949SOL     OW26482   4.709   0.054   2.880 -0.2528  0.3230 -0.3523
 4949SOL    HW126483   4.730   0.104   2.958 -2.1527 -1.0452  1.0348
 4949SOL    HW226484   0.055   0.012   2.857 -0.3130  0.0244 -0.0313
 4950SOL     OW26485   2.055   2.696   4.938 -0.0342  0.3704  0.3199
 4950SOL    HW126486   2.013   2.610   4.930  0.3417  0.2973 -0.7893
 4950SOL    HW226487   2.067   2.691   5.033  0.8969 -2.3120  0.0564
 4951SOL     OW26488   3.092   2.020   2.418 -0.1798 -0.0067  0.1644
 4951SOL    HW126489   3.096   1.930   2.388 -0.1443 -0.6605  2.1306
 4951SOL    HW226490   2.998   2.035   2.410 -0.2903 -0.6207  0.3546
 4952SOL     OW26491   0.596   3.399   7.559  0.6394 -0.2773  0.3437
 4952SOL    HW126492   0.671   3.363   7.511  0.3798  0.7863 -0.8442
 4952SOL    HW226493   0.558   3.447   7.486 -3.5550 -1.1675  1.9541
 4953SOL     OW26494   1.604   0.692   8.931 -0.1575  0.4773  0.0217
 4953SOL    HW126495   1.546   0.616   8.936  0.3836  0.1973  2.1036
 4953SOL    HW226496   1.590   0.728   9.019 -0.4283 -1.6167  0.8406
 4954SOL     OW26497   0.602   2.392   9.469  0.1528  0.2679  0.3370
 4954SOL    HW126498   0.588   2.332   9.395 -2.0817  3.1099 -1.5775
 4954SOL    HW226499   0.572   2.472   9.425  0.6454  0.2081 -0.1089
 4955SOL     OW26500   4.321   3.196   4.686  0.2708  0.0579 -0.2555
 4955SOL    HW126501   4.362   3.131   4.630  1.9118 -1.1463  2.3311
 4955SOL    HW226502   4.396   3.241   4.726  1.2464 -0.8731 -1.0747
 4956SOL     OW26503   0.902   0.749  14.328 -0.0745  0.1968 -0.0043
 4956SOL    HW126504   0.904   0.839  14.295  0.6569  0.4702  0.7807
 4956SOL    HW226505   0.963   0.749  14.401 -1.7685  0.0817  1.4134
 4957SOL     OW26506   4.591   3.871   6.911 -0.3027 -0.3046 -0.2695
 4957SOL    HW126507   4.637   3.924   6.846  0.4258  0.2541  0.7064
 4957SOL    HW226508   4.653   3.841   6.978  0.2858  1.1507 -0.1583
 4958SOL     OW26509   4.458   2.558  16.144 -0.2543 -0.3688  0.9305
 4958SOL    HW126510   4.423   2.487  16.090  2.3626 -0.9649  0.0027
 4958SOL    HW226511   4.447   2.529  16.234  0.3966 -0.3650  1.0119
 4959SOL     OW26512   4.233   0.724   5.817  0.2682  0.1531  0.1798
 4959SOL    HW126513   4.267   0.814   5.810 -0.3074  0.2815 -1.0502
 4959SOL    HW226514   4.288   0.679   5.753  0.0519 -1.6142  1.2671
 4960SOL     OW26515   3.118   0.271  12.898  0.2491 -0.0858  0.2592
 4960SOL    HW126516   3.149   0.196  12.950  0.3022 -0.9022 -0.9569
 4960SOL    HW226517   3.031   0.242  12.872 -0.0001  0.1010  0.8836
 4961SOL     OW26518   3.501   3.052   6.721  0.3103  0.4950 -0.1730
 4961SOL    HW126519   3.435   2.994   6.759 -0.9954  1.6518 -0.6662
 4961SOL    HW226520   3.441   3.123   6.698 -0.0177  0.0157 -0.7845
 4962SOL     OW26521   1.481   0.873   7.250  0.8835 -0.1091 -0.3213
 4962SOL    HW126522   1.561   0.926   7.242  1.2807 -0.3997  1.7060
 4962SOL    HW226523   1.510   0.786   7.226  1.1018 -0.4044  1.0161
 4963SOL     OW26524   3.310   3.227   6.606  0.2905 -0.7555  0.1903
 4963SOL    HW126525   3.276   3.314   6.627 -1.1850 -1.0767 -0.9016
 4963SOL    HW226526   3.234   3.174   6.631 -0.4016  0.8005  1.3984
 4964SOL     OW26527   3.096   3.141   2.484  0.1410 -0.1492 -0.0553
 4964SOL    HW126528   3.047   3.118   2.563  2.5727 -0.7583  1.2506
 4964SOL    HW226529   3.058   3.072   2.429 -0.5999  0.4591 -0.3035
 4965SOL     OW26530   3.557   0.271   1.483 -0.2957 -0.1353 -0.3012
 4965SOL    HW126531   3.493   0.293   1.550  2.6970 -0.9034  2.8514
 4965SOL    HW226532   3.589   0.359   1.460 -0.7165  0.2110  0.4454
 4966SOL     OW26533   0.651   0.227  10.911 -0.7798 -0.2158 -0.4703
 4966SOL    HW126534   0.734   0.180  10.917 -1.5790 -1.5969 -0.1012
 4966SOL    HW226535   0.634   0.263  10.998  1.0549 -1.5411  0.4458
 4967SOL     OW26536   0.562   2.823   5.251 -0.0196 -0.2394  0.2580
 4967SOL    HW126537   0.539   2.738   5.287 -0.7580 -0.0692  0.1878
 4967SOL    HW226538   0.656   2.831   5.266  0.3371  0.0749 -2.0639
 4968SOL     OW26539   3.689   0.826   3.995  0.0895 -0.4853 -0.4552
 4968SOL    HW126540   3.660   0.893   3.933 -1.3088 -1.1255 -0.5106
 4968SOL    HW226541   3.650   0.751   3.950 -0.8851 -0.6298  0.6238
 4969SOL     OW26542   0.987   1.181  13.300 -0.3408 -0.0937  0.3345
 4969SOL    HW126543   1.030   1.129  13.232 -2.3647 -0.2169 -0.8739
 4969SOL    HW226544   0.918   1.122  13.331 -0.2970 -0.0802  0.4535
 4970SOL     OW26545   4.663   3.901   2.240 -0.0846  0.2200 -0.1274
 4970SOL    HW126546   4.582   3.882   2.192 -0.6042  0.2763  0.7185
 4970SOL    HW226547   4.725   3.830   2.221  0.0686  0.9652 -2.3257
 4971SOL     OW26548   2.856   1.517  10.240 -0.1476  0.1849 -0.1225
 4971SOL    HW126549   2.830   1.467  10.163  0.8166  0.9316 -0.9386
 4971SOL    HW226550   2.808   1.479  10.313  1.5550 -1.3727  0.2005
 4972SOL     OW26551   1.003   2.292   5.248  0.3722  0.3974  0.3331
 4972SOL    HW126552   1.013   2.309   5.154  1.6947  0.4836  0.4959
 4972SOL    HW226553   1.092   2.293   5.282  1.0104  3.2066 -1.3677
 4973SOL     OW26554   3.412   1.417   5.409  0.1772  0.2530 -0.2130
 4973SOL    HW126555   3.396   1.360   5.484 -2.3913 -1.5928 -2.1302
 4973SOL    HW226556   3.330   1.465   5.414 -0.3189 -0.9750  3.0439
 4974SOL     OW26557   3.078   0.719   4.155  0.9380  0.9820 -0.0141
 4974SOL    HW126558   3.008   0.678   4.205  1.3279  0.7736  0.3683
 4974SOL    HW226559   3.036   0.735   4.071 -1.7963 -0.0984  1.1560
 4975SOL     OW26560   2.541   4.518   5.675  0.1371  0.2877 -0.6606
 4975SOL    HW126561   2.452   4.490   5.694  0.5798 -0.9059 -0.3222
 4975SOL    HW226562   2.559   4.568   5.754 -3.8074  1.6258 -0.6211
 4976SOL     OW26563   0.824   1.822  13.052 -0.3719  0.5320  0.2771
 4976SOL    HW126564   0.799   1.734  13.025  1.7739 -0.2143  0.7204
 4976SOL    HW226565   0.820   1.868  12.968 -1.6446 -0.3757 -0.1670
 4977SOL     OW26566   3.493   0.026  11.541  0.0326  0.1785  0.2389
 4977SOL    HW126567   3.551   4.689  11.561  1.2128  0.7033 -1.2348
 4977SOL    HW226568   3.541   0.096  11.586 -0.6480  1.3323 -0.8412
 4978SOL     OW26569   1.385   3.038   4.363 -0.4857 -0.2504  0.2263
 4978SOL    HW126570   1.335   3.051   4.443 -0.2382  0.2532  0.3024
 4978SOL    HW226571   1.331   3.076   4.294  0.5324  0.3666 -0.2398
 4979SOL     OW26572   0.293   3.295   4.987  0.3865 -0.3308 -0.4138
 4979SOL    HW126573   0.302   3.203   4.961  2.1625 -0.3924  0.4217
 4979SOL    HW226574   0.257   3.325   4.903  1.4891 -0.7256 -1.0337
 4980SOL     OW26575   3.671   4.260  12.117 -0.5754  0.2601  0.9277
 4980SOL    HW126576   3.658   4.238  12.025 -0.6902  0.2423  0.9478
 4980SOL    HW226577   3.757   4.225  12.137  0.1401  1.6437  0.2738
 4981SOL     OW26578   4.398   0.031   8.460 -0.4727 -0.0701  0.6622
 4981SOL    HW126579   4.488   0.062   8.462 -0.2912 -0.6773  2.7194
 4981SOL    HW226580   4.401   4.690   8.405  0.7619 -0.1956  0.9123
 4982SOL     OW26581   4.729   2.840  15.899  0.1682  0.4750 -0.6799
 4982SOL    HW126582   0.017   2.886  15.979  0.6927  0.2019 -0.6882
 4982SOL    HW226583   0.003   2.913  15.838  0.3042 -0.2351 -1.4949
 4983SOL     OW26584   4.188   0.467   5.889  0.4633  0.4708  0.2723
 4983SOL    HW126585   4.191   0.547   5.941 -1.2708  0.6910  0.0244
 4983SOL    HW226586   4.246   0.485   5.815  1.8828  0.1392  1.2895
 4984SOL     OW26587   4.060   1.375  17.400 -0.1805  0.0662 -0.4395
 4984SOL    HW126588   4.085   1.466  17.415  2.7720 -1.2405  2.6507
 4984SOL    HW226589   4.142   1.352  17.356 -0.2352 -0.1457 -0.4305
 4985SOL     OW26590   3.424   2.110   7.064 -0.2031 -0.0077 -0.5009
 4985SOL    HW126591   3.501   2.063   7.097 -0.0365 -0.2525 -1.2362
 4985SOL    HW226592   3.443   2.192   7.110  3.6372 -0.5935 -0.9822
 4986SOL     OW26593   4.183   3.563   6.301  0.2415 -0.5816  0.0447
 4986SOL    HW126594   4.182   3.599   6.212  2.3125  0.3985  0.4312
 4986SOL    HW226595   4.251   3.498   6.287 -0.6887 -1.2784 -1.2143
 4987SOL     OW26596   2.724   0.663   8.153 -0.2723 -0.4614 -0.0732
 4987SOL    HW126597   2.741   0.627   8.240 -0.4976  1.1464  0.6367
 4987SOL    HW226598   2.782   0.617   8.093  0.7121  2.0306 -1.0066
 4988SOL     OW26599   3.569   2.273  15.349  0.0073  0.0679 -0.4193
 4988SOL    HW126600   3.589   2.271  15.256 -1.0163 -0.7253 -0.6346
 4988SOL    HW226601   3.616   2.200  15.390 -1.8654 -1.3143 -0.7056
 4989SOL     OW26602   3.567   4.470   2.038 -0.0017 -0.0127  0.9449
 4989SOL    HW126603   3.512   4.468   2.116 -0.5630 -0.7879  0.5253
 4989SOL    HW226604   3.644   4.432   2.080  1.1507  2.4396  1.0481
 4990SOL     OW26605   1.840   3.533   4.506 -0.0650 -0.1068 -0.0179
 4990SOL    HW126606   1.764   3.589   4.520  0.2210  0.3859 -0.3938
 4990SOL    HW226607   1.812   3.473   4.437 -0.6268 -0.7648  0.7998
 4991SOL     OW26608   1.022   3.565   7.867  0.3931 -0.2358 -0.5691
 4991SOL    HW126609   0.976   3.517   7.936 -0.7270  3.1389  1.0398
 4991SOL    HW226610   0.950   3.614   7.826  0.4722  1.4481  1.2875
 4992SOL     OW26611   3.110   2.201  16.992  0.7800 -0.0026 -0.0776
 4992SOL    HW126612   3.071   2.283  16.960 -0.1788 -0.4986 -0.1736
 4992SOL    HW226613   3.031   2.166  17.032  1.4999 -0.0620  1.2985
 4993SOL     OW26614   1.569   4.353   2.619  0.3825 -0.0970  0.4378
 4993SOL    HW126615   1.509   4.414   2.661 -1.3174  0.1642 -2.3183
 4993SOL    HW226616   1.546   4.382   2.530 -0.1649  1.7495  1.1923
 4994SOL     OW26617   3.610   1.550   1.588  0.1463  0.0380  0.2430
 4994SOL    HW126618   3.677   1.518   1.527  0.5397  0.6805  0.3390
 4994SOL    HW226619   3.537   1.504   1.547 -1.7582  1.9525  1.4962
 4995SOL     OW26620   2.846   1.172   8.075  0.4173  0.1940  0.2822
 4995SOL    HW126621   2.822   1.081   8.061 -1.2673  1.0774 -2.5647
 4995SOL    HW226622   2.926   1.154   8.123 -1.0368 -3.0005  1.5244
 4996SOL     OW26623   3.201   2.184   0.372 -0.0439 -0.2097  0.3772
 4996SOL    HW126624   3.264   2.118   0.343  2.1764  2.7597 -1.6417
 4996SOL    HW226625   3.122   2.134   0.353  0.9525 -1.9418  0.8116
 4997SOL     OW26626   2.450   4.312   3.118 -0.1243  0.1023 -0.1979
 4997SOL    HW126627   2.506   4.367   3.064 -0.1156  1.7073  1.4696
 4997SOL    HW226628   2.365   4.313   3.073  0.5387 -2.5230 -1.5256
 4998SOL     OW26629   4.040   4.291   0.962 -0.0256 -0.6435  0.1572
 4998SOL    HW126630   3.962   4.282   1.016 -1.7582 -0.0840 -2.2335
 4998SOL    HW226631   4.031   4.385   0.942  2.8071 -0.3192  0.4722
 4999SOL     OW26632   0.800   0.801   7.222  0.0121 -0.3576 -0.5988
 4999SOL    HW126633   0.852   0.721   7.221 -0.2795 -0.5501 -0.4108
 4999SOL    HW226634   0.758   0.798   7.308 -0.4800 -0.1542 -0.8335
 5000SOL     OW26635   2.385   3.380   2.476  0.2263 -0.4718 -0.4375
 5000SOL    HW126636   2.416   3.310   2.418 -0.2318 -0.5134 -0.6306
 5000SOL    HW226637   2.364   3.338   2.560  0.3481  1.0881  0.3770
 5001SOL     OW26638   1.448   3.143   5.525 -0.1588  0.5979  0.1136
 5001SOL    HW126639   1.425   3.210   5.461 -0.1597  0.6686  0.1875
 5001SOL    HW226640   1.544   3.148   5.532 -0.1433 -1.2729  1.2523
 5002SOL     OW26641   2.286   0.449   6.379 -0.0518 -0.4421  0.0539
 5002SOL    HW126642   2.369   0.485   6.350 -0.7908  0.8755 -0.4206
 5002SOL    HW226643   2.300   0.457   6.474 -1.0411 -1.1871  0.2698
 5003SOL     OW26644   2.754   2.740   6.206 -0.2610  0.3367 -0.3432
 5003SOL    HW126645   2.741   2.806   6.137 -1.5511  1.8806  1.3655
 5003SOL    HW226646   2.850   2.732   6.202 -0.4706 -1.2878 -2.1614
 5004SOL     OW26647   3.113   3.250   3.786 -0.2526 -0.0958  0.3799
 5004SOL    HW126648   3.120   3.262   3.881 -0.0108 -0.7465  0.4464
 5004SOL    HW226649   3.019   3.235   3.773 -0.2022  1.0702 -1.3703
 5005SOL     OW26650   1.380   0.516   5.147  0.0090 -0.3629 -0.1102
 5005SOL    HW126651   1.328   0.459   5.091 -0.4414  0.1640 -0.2268
 5005SOL    HW226652   1.428   0.559   5.076  1.3129 -0.6995  0.5571
 5006SOL     OW26653   4.699   3.743   8.448 -0.9687 -0.7664  0.2435
 5006SOL    HW126654   4.730   3.668   8.396  2.2191  0.6738  0.0668
 5006SOL    HW226655   0.018   3.813   8.414 -0.5983  0.0830  2.6531
 5007SOL     OW26656   1.103   1.659   3.376 -0.3101 -0.1823 -0.0983
 5007SOL    HW126657   1.150   1.603   3.314  0.5504  1.8865 -1.3300
 5007SOL    HW226658   1.040   1.600   3.417 -0.8097 -0.5031 -1.3058
 5008SOL     OW26659   0.973   0.701  11.549 -0.0481  0.2466 -0.3286
 5008SOL    HW126660   1.019   0.722  11.630 -1.7511 -1.0646  0.9913
 5008SOL    HW226661   0.910   0.772  11.546 -0.9624 -0.6808 -3.0445
 5009SOL     OW26662   4.544   2.471   2.328  0.4923  0.1673  0.4275
 5009SOL    HW126663   4.623   2.476   2.274  0.0533 -1.2932 -0.3688
 5009SOL    HW226664   4.543   2.376   2.340 -0.2749 -0.0465 -1.2249
 5010SOL     OW26665   3.444   2.426   8.127  0.3924 -0.0310 -0.3742
 5010SOL    HW126666   3.396   2.507   8.113 -0.8304 -0.9654 -1.6175
 5010SOL    HW226667   3.391   2.387   8.197  0.0799  1.9535  0.5017
 5011SOL     OW26668   1.453   4.620   8.751 -0.1259 -0.0927 -0.6199
 5011SOL    HW126669   1.537   4.577   8.736 -1.0604 -2.4790  1.0672
 5011SOL    HW226670   1.410   4.620   8.666 -0.0804  0.7777 -0.6413
 5012SOL     OW26671   1.117   2.443   6.318 -0.2703 -0.0898 -0.0671
 5012SOL    HW126672   1.114   2.459   6.412  1.3742 -2.5460  0.4068
 5012SOL    HW226673   1.090   2.351   6.326 -1.1452  0.2693  1.0154
 5013SOL     OW26674   2.083   4.718   8.135 -0.2248  0.2282 -0.4370
 5013SOL    HW126675   2.148   4.684   8.073  0.0376 -0.0372 -0.0187
 5013SOL    HW226676   2.118   0.067   8.157 -0.2002 -0.2705  1.4136
 5014SOL     OW26677   0.872   0.209   9.440  0.4671  0.6489 -0.0643
 5014SOL    HW126678   0.945   0.163   9.482  0.3864  1.1974  0.6738
 5014SOL    HW226679   0.804   0.194   9.506 -0.9874  2.7422 -1.0834
 5015SOL     OW26680   2.385   0.366   8.937 -0.1376  0.1567  0.0815
 5015SOL    HW126681   2.446   0.385   8.866  1.1974 -1.4681  0.7760
 5015SOL    HW226682   2.440   0.318   8.998  3.3875 -0.4722 -3.5798
 5016SOL     OW26683   3.607   4.111   7.391  0.2319 -0.4656 -0.1652
 5016SOL    HW126684   3.516   4.136   7.407  0.3447 -0.8337  0.9794
 5016SOL    HW226685   3.607   4.019   7.415  0.8553  0.1691  2.2439
 5017SOL     OW26686   2.721   2.615   8.786 -0.1550 -0.0548  0.2358
 5017SOL    HW126687   2.786   2.681   8.812  0.9265 -0.9000 -0.3432
 5017SOL    HW226688   2.637   2.656   8.810 -0.2997  0.1718 -0.6689
 5018SOL     OW26689   3.651   4.159  12.968  0.5468  0.6483 -0.3186
 5018SOL    HW126690   3.639   4.081  12.914 -0.6099  0.1038  0.7527
 5018SOL    HW226691   3.711   4.125  13.034  0.8779 -2.0422 -2.0074
 5019SOL     OW26692   4.167   0.742  10.105  0.3944  0.5661  0.5877
 5019SOL    HW126693   4.238   0.806  10.117 -0.2834  1.3155  0.5592
 5019SOL    HW226694   4.138   0.713  10.191  1.4213  0.2243  0.8260
 5020SOL     OW26695   4.247   3.055   5.848  0.2586  0.6977 -0.7422
 5020SOL    HW126696   4.342   3.057   5.838  0.6635 -1.0818  2.6681
 5020SOL    HW226697   4.219   3.146   5.856 -0.8490  0.2431  0.4422
 5021SOL     OW26698   3.923   0.757   2.235  0.9136  0.6951  0.0848
 5021SOL    HW126699   3.917   0.837   2.288 -0.6040 -0.6905  1.9954
 5021SOL    HW226700   3.886   0.801   2.158  1.3637  2.3847  0.8224
 5022SOL     OW26701   1.885   4.042   7.007 -0.1867  0.1851  0.0833
 5022SOL    HW126702   1.858   4.055   6.916 -1.7010 -2.5933  0.1153
 5022SOL    HW226703   1.910   3.950   7.016  1.8016  0.7278 -0.0131
 5023SOL     OW26704   1.500   0.726   2.420 -0.2255 -0.0509 -0.0994
 5023SOL    HW126705   1.548   0.671   2.359  0.2508 -0.3946  0.5887
 5023SOL    HW226706   1.505   0.678   2.502  1.4695 -2.6601 -1.7373
 5024SOL     OW26707   3.066   1.442   3.048 -0.0187  0.4292  0.0579
 5024SOL    HW126708   3.064   1.440   2.953  1.0906 -0.2663  0.0531
 5024SOL    HW226709   3.159   1.456   3.069  0.3777 -2.6571  0.2664
 5025SOL     OW26710   1.980   3.125   8.168 -0.5028 -0.3529  0.1210
 5025SOL    HW126711   2.068   3.112   8.204 -0.6926 -1.0725  0.3185
 5025SOL    HW226712   2.016   3.184   8.102  0.3789 -0.6743  0.3100
 5026SOL     OW26713   3.955   2.476  14.578 -0.4207  0.3489 -0.5859
 5026SOL    HW126714   4.050   2.485  14.573 -0.0327 -2.3361  2.3720
 5026SOL    HW226715   3.938   2.392  14.534  0.8844 -0.6611  0.8548
 5027SOL     OW26716   4.265   3.702   5.019  0.0660 -0.0191 -0.5624
 5027SOL    HW126717   4.253   3.609   4.999  2.4958 -0.3050 -0.6308
 5027SOL    HW226718   4.290   3.700   5.111 -1.2378  0.2060 -0.1917
 5028SOL     OW26719   2.666   1.368   3.381  0.0106 -0.4714  0.3004
 5028SOL    HW126720   2.726   1.335   3.314  1.7281  1.2278  0.9985
 5028SOL    HW226721   2.637   1.443   3.330  0.3373 -0.6934 -0.2111
 5029SOL     OW26722   3.976   1.259   4.929  0.0266 -0.0355  0.3968
 5029SOL    HW126723   4.053   1.283   4.879 -1.3336  1.0884 -1.1439
 5029SOL    HW226724   3.934   1.345   4.937  0.5802  0.2789 -0.1223
 5030SOL     OW26725   2.899   3.578  13.404  0.3592  0.3771  0.1845
 5030SOL    HW126726   2.882   3.626  13.322 -0.4780 -0.4614 -0.1365
 5030SOL    HW226727   2.980   3.618  13.436  0.6612 -0.8092  0.8991
 5031SOL     OW26728   3.215   1.240  16.752 -0.0932  0.3994 -0.0378
 5031SOL    HW126729   3.198   1.198  16.836 -0.2965  3.3721  1.4337
 5031SOL    HW226730   3.156   1.314  16.769  0.1815  0.3504  1.1401
 5032SOL     OW26731   4.481   4.095   3.292 -0.4687 -0.5101  0.1054
 5032SOL    HW126732   4.421   4.163   3.261  0.6865 -0.2745 -1.6025
 5032SOL    HW226733   4.566   4.128   3.263 -1.0624  0.9521  0.0125
 5033SOL     OW26734   1.001   0.115  12.933 -0.1786 -0.0994  0.3516
 5033SOL    HW126735   0.958   0.094  13.016 -2.6532  1.8934 -0.4197
 5033SOL    HW226736   0.926   0.097  12.876 -2.2570  1.0884  2.7126
 5034SOL     OW26737   2.474   0.806  17.403  0.5652  0.0696 -0.1707
 5034SOL    HW126738   2.530   0.742  17.448 -3.7726 -2.7830  1.1034
 5034SOL    HW226739   2.523   0.801  17.321  0.5375 -0.9414 -0.1298
 5035SOL     OW26740   3.885   4.541   1.496  0.2755 -0.1800  0.3334
 5035SOL    HW126741   3.860   4.598   1.423 -1.9090 -0.8055  0.5883
 5035SOL    HW226742   3.817   4.560   1.561 -0.5989 -1.1736 -0.2870
 5036SOL     OW26743   4.484   2.310  17.648 -0.2402 -0.3653 -0.0094
 5036SOL    HW126744   4.452   2.388  17.602  0.6502  1.4368  2.3877
 5036SOL    HW226745   4.407   2.259  17.672 -1.4041  1.1788 -0.4749
 5037SOL     OW26746   0.772   1.654   5.044 -0.0613 -0.4370 -0.3000
 5037SOL    HW126747   0.763   1.583   4.980 -1.6253  1.2150 -1.8808
 5037SOL    HW226748   0.841   1.622   5.103 -0.1194  0.3610  0.1940
 5038SOL     OW26749   4.401   0.774   8.404 -0.2863  0.2440  0.3191
 5038SOL    HW126750   4.491   0.795   8.380 -0.6995 -1.7050 -2.8792
 5038SOL    HW226751   4.364   0.852   8.446 -1.9780 -0.7844  0.7417
 5039SOL     OW26752   3.876   0.010   0.993 -0.0466 -0.2155  0.8944
 5039SOL    HW126753   3.810   0.068   1.031 -0.8413 -0.5529  0.0195
 5039SOL    HW226754   3.956   0.061   1.005 -1.7187  2.8651 -1.1636
 5040SOL     OW26755   3.513   4.414   7.782  0.9424 -0.3020 -0.5013
 5040SOL    HW126756   3.461   4.380   7.855  1.0845  1.2759  0.3494
 5040SOL    HW226757   3.521   4.508   7.797 -0.5097 -0.2460 -0.1002
 5041SOL     OW26758   2.253   1.686   8.494 -0.2624 -0.3760  0.6658
 5041SOL    HW126759   2.257   1.626   8.569  1.7860  0.1114  0.9542
 5041SOL    HW226760   2.233   1.771   8.534  2.4971  1.5210 -2.0110
 5042SOL     OW26761   3.679   4.712   2.368 -0.2199  0.1204 -0.1121
 5042SOL    HW126762   3.697   4.698   2.461  2.3177 -0.1107 -0.6329
 5042SOL    HW226763   3.650   4.623   2.347 -0.1901 -0.2326  1.3668
 5043SOL     OW26764   4.095   3.072  13.074 -0.4472 -0.4005  0.5803
 5043SOL    HW126765   4.001   3.055  13.081 -0.7310  0.4527 -1.0963
 5043SOL    HW226766   4.120   2.980  13.064  1.5100  0.3839 -1.9699
 5044SOL     OW26767   1.502   1.415   6.264  0.4418 -0.1652  0.0117
 5044SOL    HW126768   1.456   1.464   6.196 -0.1863  0.1539  0.6556
 5044SOL    HW226769   1.569   1.480   6.286  1.5170 -0.3384 -2.8004
 5045SOL     OW26770   3.372   0.639   1.758  0.1743  0.3450  0.2108
 5045SOL    HW126771   3.459   0.678   1.751  0.6484 -0.3466  2.4384
 5045SOL    HW226772   3.405   0.551   1.739 -2.8963 -0.9114  0.7717
 5046SOL     OW26773   2.296   0.396  14.247 -0.0698 -1.0876  0.7881
 5046SOL    HW126774   2.344   0.319  14.278  1.0364 -0.9426 -0.5883
 5046SOL    HW226775   2.321   0.456  14.317  0.0437  0.3114 -0.4427
 5047SOL     OW26776   2.607   4.439   5.137 -0.3298 -0.5835 -0.2609
 5047SOL    HW126777   2.542   4.396   5.082  1.0130 -0.5138 -1.8706
 5047SOL    HW226778   2.561   4.459   5.219  1.1991  5.8359 -0.9532
 5048SOL     OW26779   2.195   3.662   2.629 -0.4538 -0.3790 -0.0129
 5048SOL    HW126780   2.199   3.674   2.534  1.7374  2.2746  0.4277
 5048SOL    HW226781   2.285   3.641   2.653  0.4089  0.3335 -2.6583
 5049SOL     OW26782   3.800   4.111   2.136 -0.3864  0.1363  0.0297
 5049SOL    HW126783   3.781   4.024   2.100 -0.9601 -0.4764  1.7644
 5049SOL    HW226784   3.813   4.162   2.057 -1.6263 -1.0596 -0.9448
 5050SOL     OW26785   2.386   1.197   6.640  0.0589  0.1040  0.9639
 5050SOL    HW126786   2.315   1.211   6.576  0.6956  0.2854  0.2930
 5050SOL    HW226787   2.373   1.105   6.663 -0.2099 -0.2371 -0.4930
 5051SOL     OW26788   4.520   0.683   6.761  0.1700  0.9940  0.4162
 5051SOL    HW126789   4.596   0.719   6.715  0.6827 -2.1714 -1.2112
 5051SOL    HW226790   4.461   0.759   6.768  1.8424  1.9797  3.7610
 5052SOL     OW26791   0.026   2.283   2.390 -0.7997 -0.3203 -0.3495
 5052SOL    HW126792   0.107   2.275   2.441 -1.1783 -1.6868  0.0416
 5052SOL    HW226793   0.066   2.317   2.310 -1.8957 -1.5125 -1.4094
 5053SOL     OW26794   4.534   1.389   9.111  0.3935 -0.0816 -1.0278
 5053SOL    HW126795   4.483   1.459   9.071 -0.6570 -0.1570  0.1810
 5053SOL    HW226796   4.460   1.339   9.145  1.5986 -0.3795  1.1599
 5054SOL     OW26797   4.373   0.677  16.430 -0.2364  0.2285 -0.4794
 5054SOL    HW126798   4.459   0.694  16.469  0.2875 -2.8099 -0.3089
 5054SOL    HW226799   4.389   0.713  16.342 -0.2319  0.2213 -0.4816
 5055SOL     OW26800   0.293   2.433  11.957  0.7053 -0.8597 -0.3968
 5055SOL    HW126801   0.349   2.376  11.905 -0.0432 -1.7090 -0.2701
 5055SOL    HW226802   0.222   2.376  11.988 -0.6084  0.7056 -0.5102
 5056SOL     OW26803   0.394   1.297   9.827 -0.8518 -0.2274 -0.1955
 5056SOL    HW126804   0.327   1.237   9.861  1.4159 -3.1521 -0.8015
 5056SOL    HW226805   0.386   1.266   9.736 -1.2899  0.1034 -0.2700
 5057SOL     OW26806   4.496   2.552   2.010  0.3613 -0.1203  0.1318
 5057SOL    HW126807   4.543   2.634   2.028 -2.7541  1.6335  0.3750
 5057SOL    HW226808   4.540   2.491   2.069 -0.6010 -1.3157 -0.3917
 5058SOL     OW26809   1.765   4.718   4.603  0.6147  0.0153  0.1617
 5058SOL    HW126810   1.757   0.030   4.685 -1.7923 -3.0868  1.7685
 5058SOL    HW226811   1.773   4.626   4.628 -0.9156  0.2259  1.4600
 5059SOL     OW26812   2.078   2.594   6.077  0.1282  0.0670  0.2619
 5059SOL    HW126813   2.173   2.591   6.067 -0.0800  0.2114 -1.6546
 5059SOL    HW226814   2.066   2.562   6.167 -0.7783  0.3705  0.2528
 5060SOL     OW26815   0.595   3.069   9.409 -0.7517  0.0553 -0.0213
 5060SOL    HW126816   0.652   3.070   9.332 -2.0689 -1.2733 -1.0281
 5060SOL    HW226817   0.588   3.164   9.414 -0.3699  0.0644  0.3750
 5061SOL     OW26818   3.048   0.992   6.937  0.2598 -0.3340 -0.3496
 5061SOL    HW126819   3.125   1.046   6.916  0.9695 -0.7690  1.1848
 5061SOL    HW226820   3.098   0.918   6.968 -0.1064 -0.6561 -0.5281
 5062SOL     OW26821   3.771   1.873  13.186  0.0865 -0.2073 -1.0460
 5062SOL    HW126822   3.691   1.925  13.189 -0.5135 -1.0845 -1.8283
 5062SOL    HW226823   3.829   1.932  13.139  1.3004 -0.0285  0.6772
 5063SOL     OW26824   3.751   4.722  14.366 -0.6793  0.5160  0.0724
 5063SOL    HW126825   3.819   0.009  14.304  0.4964 -0.1764  1.0716
 5063SOL    HW226826   3.706   0.068  14.380 -1.5809 -0.1805  1.3558
 5064SOL     OW26827   3.496   0.641   0.797  0.6190  0.1546  0.2719
 5064SOL    HW126828   3.495   0.603   0.709 -0.1706 -0.6164  0.6208
 5064SOL    HW226829   3.412   0.604   0.825  0.5298 -0.8939 -1.3891
 5065SOL     OW26830   1.422   1.325   4.095 -0.3446 -0.6781 -0.0973
 5065SOL    HW126831   1.472   1.402   4.121 -2.2536 -0.5202  3.1040
 5065SOL    HW226832   1.333   1.354   4.116  0.4530  1.2397  0.6017
 5066SOL     OW26833   2.984   0.898  17.155 -0.8015  0.7806 -0.2383
 5066SOL    HW126834   2.988   0.850  17.073  1.5923 -0.4207  0.5601
 5066SOL    HW226835   2.981   0.833  17.225 -0.0215 -0.1914 -1.1056
 5067SOL     OW26836   3.487   1.600   4.491 -0.3990 -0.6995  0.2440
 5067SOL    HW126837   3.508   1.603   4.397 -2.6577  0.0069 -0.2309
 5067SOL    HW226838   3.574   1.585   4.529 -0.5823 -0.0923  0.8936
 5068SOL     OW26839   3.089   0.342  11.920 -0.3053 -0.0746  0.1836
 5068SOL    HW126840   3.130   0.280  11.860 -0.8473  1.9678 -2.2916
 5068SOL    HW226841   3.161   0.389  11.961 -0.2905  0.3345 -0.3104
 5069SOL     OW26842   0.984   0.404   4.570 -0.1962  0.4522 -0.0867
 5069SOL    HW126843   0.943   0.328   4.529  0.4112  0.4948 -0.7644
 5069SOL    HW226844   0.910   0.443   4.616 -0.4921 -1.4017  1.0348
 5070SOL     OW26845   1.885   1.275   4.333  0.3017 -0.4234 -0.1983
 5070SOL    HW126846   1.846   1.226   4.260  0.1096 -0.0166 -0.3650
 5070SOL    HW226847   1.812   1.272   4.394  0.7375 -2.1439  0.2623
 5071SOL     OW26848   2.142   1.642   5.701 -0.4309 -0.1000  0.6965
 5071SOL    HW126849   2.053   1.653   5.669  0.4182 -1.3831 -2.0933
 5071SOL    HW226850   2.182   1.719   5.661 -3.2134  0.0026 -1.8784
 5072SOL     OW26851   2.349   3.796   2.875  0.2851 -0.0728  0.5512
 5072SOL    HW126852   2.270   3.753   2.910  1.7291 -0.8367  2.8774
 5072SOL    HW226853   2.381   3.726   2.818 -0.1271  0.3543 -0.2132
 5073SOL     OW26854   0.555   1.757   2.958 -0.0825  0.9338 -0.3275
 5073SOL    HW126855   0.579   1.669   2.987  0.4796  1.5159  0.9818
 5073SOL    HW226856   0.474   1.750   2.907 -1.3860  2.0429  1.5880
 5074SOL     OW26857   4.226   1.578   6.960 -0.8451  0.5076 -0.7444
 5074SOL    HW126858   4.216   1.650   6.897 -0.6571 -0.3612 -1.7534
 5074SOL    HW226859   4.320   1.566   6.970 -1.2184 -0.0664  2.0539
 5075SOL     OW26860   0.715   0.373   9.261  0.0040  0.1371 -0.0151
 5075SOL    HW126861   0.721   0.303   9.326 -2.3013  0.1243  0.1876
 5075SOL    HW226862   0.787   0.431   9.286  1.6852 -2.1688  0.4089
 5076SOL     OW26863   4.534   3.527  16.492  0.2647 -0.0161 -0.3608
 5076SOL    HW126864   4.451   3.570  16.474 -1.1556 -2.1254  1.1790
 5076SOL    HW226865   4.541   3.464  16.420 -1.3479 -0.3605 -0.2104
 5077SOL     OW26866   1.601   3.865   8.268 -0.6528 -0.7247 -0.4718
 5077SOL    HW126867   1.683   3.834   8.307 -1.1334 -1.2407  0.1313
 5077SOL    HW226868   1.625   3.925   8.197 -0.5455  1.3652  1.3534
 5078SOL     OW26869   3.130   4.325   0.027 -0.0154  0.4507 -0.2965
 5078SOL    HW126870   3.131   4.419   0.008 -2.6889  0.9249  1.9458
 5078SOL    HW226871   3.189   4.322   0.102  0.3182 -1.2680 -0.6255
 5079SOL     OW26872   2.106   1.505   7.992  0.4124 -0.0920 -0.3564
 5079SOL    HW126873   2.178   1.456   7.953 -0.6498 -0.6868 -1.5854
 5079SOL    HW226874   2.049   1.430   8.009 -0.1111  0.4391  0.2462
 5080SOL     OW26875   4.241   4.268   8.905  0.6463 -0.5317 -0.4186
 5080SOL    HW126876   4.190   4.347   8.926  1.2466  0.4726 -2.7509
 5080SOL    HW226877   4.287   4.282   8.822 -0.7110  2.4051 -0.6648
 5081SOL     OW26878   1.057   2.963  14.995  0.3798  0.1762  0.5017
 5081SOL    HW126879   1.051   3.050  15.033  1.1153  0.6105 -0.3850
 5081SOL    HW226880   1.042   2.915  15.077  1.4466 -1.3790 -0.2065
 5082SOL     OW26881   3.192   4.348   9.206 -0.4243 -0.2153  0.4855
 5082SOL    HW126882   3.188   4.392   9.291 -0.1031  0.5404  0.1102
 5082SOL    HW226883   3.124   4.282   9.218 -1.0622  0.7938  2.3340
 5083SOL     OW26884   4.529   1.251  11.760  0.5322  0.5460 -0.2990
 5083SOL    HW126885   4.514   1.157  11.758  0.5418  0.5339  0.3221
 5083SOL    HW226886   4.474   1.276  11.685 -0.3446  0.2432  0.2440
 5084SOL     OW26887   1.242   2.644   1.284 -0.3855  0.3899  0.4575
 5084SOL    HW126888   1.245   2.548   1.289 -0.0754  0.3717 -0.0440
 5084SOL    HW226889   1.189   2.674   1.358  1.3851 -0.3910  2.0561
 5085SOL     OW26890   2.346   0.987   2.637 -0.1899 -0.4064  0.2292
 5085SOL    HW126891   2.330   0.893   2.627 -0.0544 -0.4908  0.8271
 5085SOL    HW226892   2.405   0.975   2.711  1.3784 -1.8188 -1.2266
 5086SOL     OW26893   1.339   3.606   4.391 -0.0187  0.1252  0.1940
 5086SOL    HW126894   1.383   3.609   4.306  0.3083 -0.1276  0.3535
 5086SOL    HW226895   1.352   3.518   4.426  0.4209 -0.1071 -0.5509
 5087SOL     OW26896   2.926   1.355   1.810 -0.4066 -0.1573  0.0649
 5087SOL    HW126897   2.920   1.267   1.847  0.2414 -0.5991 -0.8518
 5087SOL    HW226898   2.848   1.398   1.843  0.2692  1.0950  0.0495
 5088SOL     OW26899   2.977   2.078   1.667 -0.4095 -0.1122 -0.0762
 5088SOL    HW126900   2.924   2.092   1.745  0.7713 -0.2432  0.7375
 5088SOL    HW226901   3.012   1.991   1.688  0.5398  0.8287  2.1335
 5089SOL     OW26902   2.870   3.360   7.806 -0.0464  0.3844 -0.1518
 5089SOL    HW126903   2.925   3.302   7.754  1.5551  0.8141  1.0704
 5089SOL    HW226904   2.903   3.336   7.893  0.0977  1.0896 -0.0167
 5090SOL     OW26905   3.429   1.090   3.604 -0.8837 -0.4696  0.0590
 5090SOL    HW126906   3.406   1.057   3.691 -2.6003  1.0280  0.1675
 5090SOL    HW226907   3.515   1.048   3.606 -0.3607  0.4982 -2.2184
 5091SOL     OW26908   3.528   2.260   6.004  0.3597 -0.1613 -0.1725
 5091SOL    HW126909   3.481   2.292   5.927  1.1565  1.0571 -0.1377
 5091SOL    HW226910   3.475   2.192   6.048  2.1089  0.0346  2.2076
 5092SOL     OW26911   3.683   1.042   3.696 -0.3870  0.0627  0.2338
 5092SOL    HW126912   3.761   1.085   3.731 -1.0785 -0.8824  2.9930
 5092SOL    HW226913   3.719   0.954   3.689  0.0586  0.0812  2.2912
 5093SOL     OW26914   4.015   0.122  13.675 -0.0373 -0.2526  0.4479
 5093SOL    HW126915   4.014   0.179  13.751 -0.8075 -1.4958  1.3757
 5093SOL    HW226916   4.068   0.053  13.714  0.3675 -0.3328 -0.2434
 5094SOL     OW26917   2.035   1.724  10.750 -0.2777 -0.2355  0.2616
 5094SOL    HW126918   2.124   1.751  10.773 -0.1106 -1.3745  0.9320
 5094SOL    HW226919   2.005   1.815  10.740 -1.5762 -0.4712  2.1451
 5095SOL     OW26920   3.067   4.630   4.934 -0.1499 -0.6847 -0.2983
 5095SOL    HW126921   3.147   4.609   4.885  0.9237  1.4278  0.5172
 5095SOL    HW226922   3.041   4.539   4.946 -1.2984  0.1075  3.1302
 5096SOL     OW26923   3.604   3.789   1.826  0.0116 -0.2650 -0.0256
 5096SOL    HW126924   3.660   3.833   1.890 -2.1921  0.7250  1.2473
 5096SOL    HW226925   3.568   3.713   1.873  0.1670  0.4764  1.2858
 5097SOL     OW26926   0.294   4.277   3.160  0.1246  0.1911 -0.3398
 5097SOL    HW126927   0.237   4.263   3.084  0.1944 -1.4133 -0.0938
 5097SOL    HW226928   0.370   4.330   3.135 -0.4087  0.8290 -0.6023
 5098SOL     OW26929   3.650   2.191  17.152  0.0915  0.4388  0.1384
 5098SOL    HW126930   3.582   2.126  17.169  1.3480 -1.3731 -1.7125
 5098SOL    HW226931   3.727   2.156  17.198  0.6416  0.6126 -0.6565
 5099SOL     OW26932   2.601   3.960   6.377  0.1880 -0.1518 -0.4394
 5099SOL    HW126933   2.619   4.042   6.424 -1.7309  0.0721 -0.0794
 5099SOL    HW226934   2.670   3.901   6.405  1.0567  1.5838  1.0712
 5100SOL     OW26935   0.183   4.093   3.901  0.4012  0.1107 -0.1164
 5100SOL    HW126936   0.110   4.148   3.873  1.7237  1.6987 -0.4715
 5100SOL    HW226937   0.195   4.050   3.816  0.8397  0.8589 -0.4424
 5101SOL     OW26938   2.219   1.697   8.162 -0.7366 -0.6307 -0.2752
 5101SOL    HW126939   2.172   1.649   8.094 -1.3287 -0.9985  0.3946
 5101SOL    HW226940   2.276   1.744   8.101 -0.0490  1.4534  1.9965
 5102SOL     OW26941   0.418   1.201   9.576  0.0731  0.0229 -0.1697
 5102SOL    HW126942   0.454   1.121   9.538 -0.2010 -0.2021  0.0509
 5102SOL    HW226943   0.330   1.202   9.540 -0.1457 -1.3880  0.3350
 5103SOL     OW26944   4.535   1.734   7.158  0.3961 -0.1399  0.7090
 5103SOL    HW126945   4.494   1.796   7.097  0.1150 -0.9720  0.0525
 5103SOL    HW226946   4.500   1.652   7.122  2.1818 -0.9394  0.8103
 5104SOL     OW26947   0.946   4.309   6.972 -0.0808  0.4326 -0.0548
 5104SOL    HW126948   0.888   4.250   7.021  1.5693  0.1077  1.5094
 5104SOL    HW226949   1.035   4.287   7.001  0.2963  2.1863  0.1098
 5105SOL     OW26950   2.150   3.023   5.893  0.1665  0.2732  0.2358
 5105SOL    HW126951   2.066   3.067   5.877  1.1690  1.9476 -0.3714
 5105SOL    HW226952   2.125   2.973   5.971 -0.2459 -2.3401 -1.5776
 5106SOL     OW26953   4.430   2.158   1.195  0.3538  0.2064  0.0486
 5106SOL    HW126954   4.364   2.197   1.252  0.9483  2.0793 -0.5481
 5106SOL    HW226955   4.499   2.223   1.209  1.2378 -0.6961 -0.1379
 5107SOL     OW26956   2.331   1.600   2.124  0.0421  0.1952 -0.7846
 5107SOL    HW126957   2.364   1.514   2.150  0.8062  0.8953  0.5768
 5107SOL    HW226958   2.278   1.578   2.047 -1.4923 -0.3276  0.4245
 5108SOL     OW26959   0.993   0.534   3.670 -0.1005  0.3582 -0.0035
 5108SOL    HW126960   1.083   0.520   3.699  0.0985  0.3864 -0.6226
 5108SOL    HW226961   0.959   0.604   3.726 -1.8169  0.2402 -0.8925
 5109SOL     OW26962   3.064   4.045   3.150 -0.3141  0.3491  0.0973
 5109SOL    HW126963   3.126   3.975   3.131 -2.2718 -0.8633 -1.8997
 5109SOL    HW226964   3.117   4.091   3.214  0.1608 -1.5405  1.0523
 5110SOL     OW26965   3.116   2.338   3.736  0.2285  0.0671  0.8517
 5110SOL    HW126966   3.040   2.287   3.763  0.7303 -1.1866 -0.1252
 5110SOL    HW226967   3.181   2.278   3.698  0.1818  1.9872 -2.2745
 5111SOL     OW26968   1.632   1.485   8.680  0.0363 -0.0790  0.2520
 5111SOL    HW126969   1.667   1.546   8.616  3.3004 -1.7784  0.3493
 5111SOL    HW226970   1.715   1.460   8.722  1.0512  0.3941 -1.4642
 5112SOL     OW26971   1.418   2.815   4.953 -0.1865 -0.3651  0.0863
 5112SOL    HW126972   1.327   2.787   4.957 -0.3368  0.1556  0.2180
 5112SOL    HW226973   1.461   2.748   4.900  1.4672 -0.3912  1.4386
 5113SOL     OW26974   0.671   0.299   3.543  0.0726 -0.0211 -0.3720
 5113SOL    HW126975   0.619   0.220   3.554  0.7772 -0.4364 -0.0454
 5113SOL    HW226976   0.675   0.341   3.629  0.6426 -3.8461  1.4281
 5114SOL     OW26977   2.448   0.484   2.785 -0.5725 -0.1013  0.6070
 5114SOL    HW126978   2.471   0.432   2.708 -0.0647 -0.8570  1.2772
 5114SOL    HW226979   2.515   0.553   2.785  1.1449 -1.7956  0.8372
 5115SOL     OW26980   2.421   0.774   6.304  0.0538  0.4280  0.4065
 5115SOL    HW126981   2.502   0.825   6.291 -0.2115  1.1567  1.6431
 5115SOL    HW226982   2.398   0.788   6.396  1.2283 -3.2093  1.2399
 5116SOL     OW26983   2.105   4.492   6.357 -0.9592 -0.0337 -0.1338
 5116SOL    HW126984   2.084   4.506   6.265 -2.3579 -1.7177 -0.0810
 5116SOL    HW226985   2.200   4.488   6.351 -0.9518 -0.7200  0.5278
 5117SOL     OW26986   1.693   2.165   1.200  0.0087  0.0841 -0.1595
 5117SOL    HW126987   1.608   2.203   1.178 -0.0352 -0.4190 -0.8538
 5117SOL    HW226988   1.676   2.144   1.292  0.3862  0.2289 -0.0574
 5118SOL     OW26989   3.311   0.649  11.356  0.1992  0.2699 -0.5241
 5118SOL    HW126990   3.394   0.698  11.361  1.3755 -1.7443 -0.5273
 5118SOL    HW226991   3.352   0.563  11.364  0.9251  0.7500  0.9239
 5119SOL     OW26992   4.003   3.751   4.246 -0.5450  0.4079  0.5289
 5119SOL    HW126993   4.083   3.776   4.200  0.3152 -0.5777  1.4770
 5119SOL    HW226994   3.945   3.823   4.221 -0.2574  0.7207  0.7702
 5120SOL     OW26995   1.237   3.444   2.747  0.4002  0.3043  0.2078
 5120SOL    HW126996   1.241   3.359   2.702  1.7483  0.5028 -0.0450
 5120SOL    HW226997   1.312   3.485   2.706  0.5664  1.6549  1.8900
 5121SOL     OW26998   4.633   3.382  17.696  0.2751  0.2613 -0.2696
 5121SOL    HW126999   4.563   3.439  17.728 -0.2333  0.5254 -1.8805
 5121SOL    HW227000   4.687   3.384   0.028 -1.4408  1.8501  0.8752
 5122SOL     OW27001   1.939   2.506   4.034  0.3455 -0.6588  0.3745
 5122SOL    HW127002   1.935   2.431   4.094  0.0045  1.3216  2.8309
 5122SOL    HW227003   1.872   2.569   4.061  1.7534  1.0037 -0.0323
 5123SOL     OW27004   4.513   3.150   0.522 -0.6528 -0.0979 -0.2196
 5123SOL    HW127005   4.461   3.127   0.599 -0.5701  0.0572 -0.1197
 5123SOL    HW227006   4.549   3.067   0.489  1.9806  0.9252  0.0540
 5124SOL     OW27007   0.332   4.519  14.838 -0.0893  0.4151 -0.2952
 5124SOL    HW127008   0.353   4.598  14.889 -2.3002 -0.5968  2.1882
 5124SOL    HW227009   0.369   4.444  14.883  2.8922  1.3219 -1.2087
 5125SOL     OW27010   3.296   1.282  17.492  0.0117  0.2089 -0.0228
 5125SOL    HW127011   3.317   1.189  17.485 -1.1803 -0.1597  1.2708
 5125SOL    HW227012   3.340   1.295  17.576 -1.2814  0.1003  0.6666
 5126SOL     OW27013   4.058   1.391   8.613 -0.3188  0.4006  0.6077
 5126SOL    HW127014   4.000   1.466   8.598 -2.5138 -1.6250 -0.9884
 5126SOL    HW227015   4.135   1.441   8.586  0.1697 -0.4812  0.3843
 5127SOL     OW27016   0.740   3.639  10.829 -0.0515  0.3995  0.1939
 5127SOL    HW127017   0.727   3.556  10.783 -0.2595  0.0356  0.9232
 5127SOL    HW227018   0.770   3.703  10.764  0.2685 -0.1815 -0.2359
 5128SOL     OW27019   3.517   3.701  13.668 -0.4561  0.3195 -0.2615
 5128SOL    HW127020   3.574   3.707  13.591  1.2305 -1.0227  0.8961
 5128SOL    HW227021   3.573   3.665  13.737 -0.7839 -0.0512 -0.1933
 5129SOL     OW27022   0.410   1.187   2.510  0.1041 -0.1974 -0.1711
 5129SOL    HW127023   0.428   1.246   2.437 -0.5506 -2.0663 -1.8634
 5129SOL    HW227024   0.360   1.121   2.462 -0.0494 -0.3575  0.2094
 5130SOL     OW27025   3.621   2.127   7.551 -0.2901 -0.6491  0.5145
 5130SOL    HW127026   3.686   2.058   7.539  2.1488  2.1666 -2.4529
 5130SOL    HW227027   3.556   2.103   7.485  0.3659  0.4848 -0.5283
 5131SOL     OW27028   3.358   1.162   5.783 -0.5948  0.5478  0.1467
 5131SOL    HW127029   3.411   1.104   5.729 -2.2606 -0.1482 -0.7487
 5131SOL    HW227030   3.407   1.169   5.866 -1.0757  0.5802  0.4289
 5132SOL     OW27031   4.404   2.892  11.413  0.1334  0.2423  0.3345
 5132SOL    HW127032   4.363   2.966  11.458  0.2185  0.2363  0.4209
 5132SOL    HW227033   4.336   2.824  11.420  0.1560  0.3826  2.0391
 5133SOL     OW27034   3.069   2.464   8.373 -0.2438  0.3543 -0.4392
 5133SOL    HW127035   2.974   2.462   8.364 -0.5272  0.1887  2.5418
 5133SOL    HW227036   3.092   2.546   8.329  0.0527  0.6046  0.1788
 5134SOL     OW27037   3.187   3.636   2.241  0.4455  0.1296  0.0780
 5134SOL    HW127038   3.172   3.691   2.318  0.9473  0.4256 -0.0368
 5134SOL    HW227039   3.252   3.687   2.192 -1.2232  2.3429  0.1653
 5135SOL     OW27040   0.014   1.315   3.869  0.3313  0.4525  0.5589
 5135SOL    HW127041   4.715   1.399   3.840  1.2893  0.7234  0.1654
 5135SOL    HW227042   4.714   1.249   3.812  1.0384  0.0504  0.5707
 5136SOL     OW27043   3.708   0.814   5.984  0.0392 -0.6420  0.1400
 5136SOL    HW127044   3.678   0.821   6.074  1.1049  0.8641  0.3644
 5136SOL    HW227045   3.788   0.762   5.977 -0.2366 -1.0607  0.1033
 5137SOL     OW27046   0.454   1.885  10.277  0.2070  0.2930  0.1756
 5137SOL    HW127047   0.365   1.849  10.275 -0.5303  2.1573 -0.6079
 5137SOL    HW227048   0.473   1.891  10.370 -0.9958 -0.6792  0.4855
 5138SOL     OW27049   3.041   0.178   7.565 -0.1808 -0.9784  0.2371
 5138SOL    HW127050   2.979   0.136   7.505  0.2558 -0.9685 -0.2194
 5138SOL    HW227051   2.985   0.198   7.640  0.1720  4.4998 -0.9838
 5139SOL     OW27052   1.995   2.712   3.659 -0.1245 -0.2036 -0.5807
 5139SOL    HW127053   2.013   2.800   3.692  0.4174 -1.1687  1.6985
 5139SOL    HW227054   2.028   2.654   3.728 -0.6670 -1.5546 -1.4613
 5140SOL     OW27055   2.629   0.600   9.160  0.4629  0.3620 -0.3132
 5140SOL    HW127056   2.668   0.687   9.147  1.5645 -0.5066 -2.9141
 5140SOL    HW227057   2.705   0.550   9.131 -0.2447 -0.0306 -1.5164
 5141SOL     OW27058   4.387   1.088  14.159 -0.0655 -0.2434 -0.1193
 5141SOL    HW127059   4.370   1.181  14.171  0.8154  0.1452 -1.9788
 5141SOL    HW227060   4.318   1.072  14.094  0.0838  1.0506 -0.5903
 5142SOL     OW27061   0.966   0.554  14.150 -0.5058  0.1150 -0.2489
 5142SOL    HW127062   1.046   0.515  14.185  0.1598  0.3080 -1.5644
 5142SOL    HW227063   0.956   0.628  14.209  0.7400 -1.4218  1.8847
 5143SOL     OW27064   1.708   4.585  11.513  0.5930 -0.4029 -0.1609
 5143SOL    HW127065   1.786   4.538  11.543  1.4489  0.7451 -0.6232
 5143SOL    HW227066   1.690   4.621  11.600 -0.7110 -0.7513 -0.2799
 5144SOL     OW27067   3.053   2.141   6.202 -0.1152 -0.2501 -0.5843
 5144SOL    HW127068   3.096   2.151   6.287 -0.4076 -4.1897  0.0614
 5144SOL    HW227069   2.979   2.089   6.234  0.5055 -0.5318  0.3890
 5145SOL     OW27070   2.314   0.314   5.590 -0.0786 -0.5580 -0.0799
 5145SOL    HW127071   2.259   0.391   5.598  0.6862 -0.0925  0.6608
 5145SOL    HW227072   2.299   0.296   5.497  0.6568  0.6678 -0.4337
 5146SOL     OW27073   3.103   0.097   8.744 -0.8569 -0.3864  0.5158
 5146SOL    HW127074   3.148   0.156   8.804 -1.7145  1.3256 -0.5477
 5146SOL    HW227075   3.015   0.105   8.781 -1.6499 -0.3042 -1.4036
 5147SOL     OW27076   3.347   3.216  13.504  0.3036 -0.0495  0.0746
 5147SOL    HW127077   3.440   3.193  13.512  0.2741  0.0300  0.5890
 5147SOL    HW227078   3.346   3.204  13.409  2.3158 -1.4844  0.2285
 5148SOL     OW27079   0.166   4.020  10.286 -0.2335  1.2265  0.6274
 5148SOL    HW127080   0.214   4.102  10.294 -1.3278  1.9837 -0.4938
 5148SOL    HW227081   0.086   4.059  10.250 -0.4353  0.8531  0.6699
 5149SOL     OW27082   0.385   3.701   6.516 -0.5241  0.5792 -0.2147
 5149SOL    HW127083   0.418   3.613   6.529 -0.1638  0.7059 -0.2922
 5149SOL    HW227084   0.289   3.695   6.513 -0.7236  2.1596  2.5565
 5150SOL     OW27085   1.083   4.125  10.914  0.0505  0.6046  0.0529
 5150SOL    HW127086   1.049   4.101  11.000 -0.5620 -0.5053 -0.4881
 5150SOL    HW227087   1.029   4.074  10.853 -1.2704  0.2016  1.5577
 5151SOL     OW27088   2.289   3.113   6.505 -0.0523  0.6782  0.3378
 5151SOL    HW127089   2.312   3.206   6.503 -1.0546  0.9254  0.9932
 5151SOL    HW227090   2.337   3.085   6.583 -0.5043 -0.7458  0.1056
 5152SOL     OW27091   4.510   2.349   6.779  0.0207  0.8985  0.0457
 5152SOL    HW127092   4.497   2.344   6.685  1.3768 -1.5164 -0.0105
 5152SOL    HW227093   4.566   2.272   6.783  0.3497  1.0967 -0.7446
 5153SOL     OW27094   2.095   1.453   4.635  0.4686  0.0161  0.0741
 5153SOL    HW127095   2.108   1.519   4.568  2.2332 -1.1132 -0.6973
 5153SOL    HW227096   2.154   1.384   4.605  0.4756 -0.3357  0.8808
 5154SOL     OW27097   3.639   0.677  10.602 -0.0251  0.1736 -0.2575
 5154SOL    HW127098   3.646   0.648  10.511 -0.1135  0.6931 -0.4307
 5154SOL    HW227099   3.654   0.770  10.584 -0.8625 -0.1571 -2.6339
 5155SOL     OW27100   1.058   3.726  15.854  0.2454 -0.5547 -0.3015
 5155SOL    HW127101   1.074   3.669  15.929 -1.0703 -1.6461 -0.8498
 5155SOL    HW227102   1.122   3.793  15.874 -0.4793 -0.1641  0.6911
 5156SOL     OW27103   0.165   3.723   2.682  0.4190  0.4881 -0.8074
 5156SOL    HW127104   0.103   3.675   2.629  1.0214 -0.2352 -0.8547
 5156SOL    HW227105   0.189   3.793   2.621 -0.0002  0.3846 -1.0852
 5157SOL     OW27106   1.528   0.898  11.817  0.2042  0.1252 -0.3873
 5157SOL    HW127107   1.565   0.913  11.730  0.8868  0.0839 -0.0990
 5157SOL    HW227108   1.602   0.928  11.869 -0.2542 -2.2563  1.6136
 5158SOL     OW27109   2.530   0.133   8.399  0.0062  0.6384 -0.1803
 5158SOL    HW127110   2.619   0.163   8.415  0.1723  0.0135  0.0356
 5158SOL    HW227111   2.554   0.045   8.370 -0.4393 -0.1665  1.8855
 5159SOL     OW27112   3.525   0.776  13.170 -0.2199 -0.1382 -0.3553
 5159SOL    HW127113   3.444   0.826  13.159 -0.9498 -1.5984 -1.7876
 5159SOL    HW227114   3.576   0.843  13.215  1.4827 -0.9650 -1.0740
 5160SOL     OW27115   0.822   2.006   7.222  0.3102 -0.2885 -0.1009
 5160SOL    HW127116   0.847   2.090   7.259  1.6777 -0.5635 -0.3855
 5160SOL    HW227117   0.893   1.946   7.247  1.0338  0.8570  0.5654
 5161SOL     OW27118   1.917   3.362   8.993  0.1311 -0.4150  0.0002
 5161SOL    HW127119   1.911   3.357   9.088  0.5648  3.7143  0.2442
 5161SOL    HW227120   1.837   3.402   8.960  0.7715 -0.9067 -2.1479
 5162SOL     OW27121   2.138   4.413  10.154  0.4457 -0.7142  0.1480
 5162SOL    HW127122   2.232   4.431  10.152  0.0623  1.2676 -0.0455
 5162SOL    HW227123   2.144   4.318  10.163  0.0056 -0.9217 -1.7431
 5163SOL     OW27124   4.488   3.990   1.779 -0.1207 -0.2522 -0.1541
 5163SOL    HW127125   4.509   4.045   1.854  0.2700 -1.8760  0.9231
 5163SOL    HW227126   4.434   4.055   1.734 -0.4953  0.8003  1.8300
 5164SOL     OW27127   2.991   0.328   8.234  0.3676  0.1490  0.8250
 5164SOL    HW127128   2.951   0.302   8.317 -0.5662  0.8230  0.5925
 5164SOL    HW227129   3.008   0.247   8.187  0.6352  1.5994 -1.5441
 5165SOL     OW27130   2.531   1.411   2.635 -0.2151  0.3251  0.2004
 5165SOL    HW127131   2.556   1.320   2.648  0.7297  0.4537 -0.8125
 5165SOL    HW227132   2.439   1.388   2.652 -0.3909  0.0712 -1.1257
 5166SOL     OW27133   0.140   0.327   5.679  0.5405  0.1794  0.0313
 5166SOL    HW127134   0.185   0.245   5.700 -2.2420 -1.0422  1.1422
 5166SOL    HW227135   0.113   0.317   5.588 -4.2886 -2.6412  1.7740
 5167SOL     OW27136   3.394   3.835   2.483  0.3120 -0.0279  0.0742
 5167SOL    HW127137   3.356   3.832   2.571 -2.3709 -1.3831 -1.1245
 5167SOL    HW227138   3.488   3.848   2.497  0.6116 -1.6650 -0.4225
 5168SOL     OW27139   0.775   0.031   7.311 -0.5754 -0.3614 -0.3403
 5168SOL    HW127140   0.860   0.026   7.268 -1.2312 -0.0287 -1.6577
 5168SOL    HW227141   0.780   0.098   7.378 -1.7416  0.5377 -1.1550
 5169SOL     OW27142   3.218   2.988  11.689  0.1813 -0.4322 -0.6639
 5169SOL    HW127143   3.234   2.912  11.634  1.6357 -0.2458 -0.4916
 5169SOL    HW227144   3.198   3.058  11.628 -0.4012  1.6353  1.9035
 5170SOL     OW27145   1.803   0.782   0.847  0.1154 -0.0573 -0.4813
 5170SOL    HW127146   1.791   0.719   0.776 -1.7861 -0.7292  0.4413
 5170SOL    HW227147   1.733   0.839   0.815 -0.5422 -0.1064  0.8794
 5171SOL     OW27148   1.159   1.516  16.165 -0.0827 -0.2346 -0.2868
 5171SOL    HW127149   1.147   1.516  16.260  0.6496 -1.3643 -0.2039
 5171SOL    HW227150   1.071   1.504  16.129 -0.4402 -0.0874  0.5290
 5172SOL     OW27151   3.649   4.254   4.748 -0.2536  0.3366 -0.0359
 5172SOL    HW127152   3.734   4.250   4.704  0.0922 -0.1694  0.6759
 5172SOL    HW227153   3.664   4.177   4.803 -0.6713  0.3868  0.1479
 5173SOL     OW27154   2.094   0.953  11.259  0.1362  0.8779  0.2250
 5173SOL    HW127155   2.158   0.883  11.256  1.4884  2.0284  2.0592
 5173SOL    HW227156   2.012   0.906  11.245  0.9245 -0.1727 -0.8303
 5174SOL     OW27157   2.066   1.714   6.020 -0.3984  0.5547  0.6190
 5174SOL    HW127158   2.082   1.723   5.926 -1.2517 -1.1741  0.3207
 5174SOL    HW227159   2.003   1.643   6.008  0.1568 -0.5156  3.8832
 5175SOL     OW27160   1.282   2.194   8.629 -0.4404 -0.4994 -0.4666
 5175SOL    HW127161   1.284   2.249   8.707  1.2675  1.3162 -1.7966
 5175SOL    HW227162   1.233   2.248   8.567  1.1989  0.7163 -0.6894
 5176SOL     OW27163   3.693   0.137   5.211  0.2157 -0.5544 -0.0345
 5176SOL    HW127164   3.696   0.041   5.214 -2.0567 -0.6231 -0.0843
 5176SOL    HW227165   3.599   0.154   5.213 -0.0078 -1.8075 -0.1315
 5177SOL     OW27166   0.929   3.027   2.732 -0.6491 -0.1173 -0.2597
 5177SOL    HW127167   0.991   3.002   2.800  0.4654  2.3829 -0.3380
 5177SOL    HW227168   0.883   3.105   2.764 -0.4946  0.1706 -0.7345
 5178SOL     OW27169   4.673   1.475   9.390 -0.6685  0.0682 -0.9157
 5178SOL    HW127170   4.588   1.506   9.359 -1.5748 -1.9613 -0.4805
 5178SOL    HW227171   4.726   1.511   9.320 -1.2096 -0.7942 -1.7767
 5179SOL     OW27172   0.006   4.584   7.090  0.2085 -0.1435 -0.0853
 5179SOL    HW127173   4.721   4.674   7.112  1.7760 -0.2124  1.7313
 5179SOL    HW227174   4.687   4.571   7.014  0.4040  1.6253 -0.5184
 5180SOL     OW27175   4.638   3.648  14.937 -0.2582  0.7987 -0.3962
 5180SOL    HW127176   4.572   3.607  14.993  0.6466  2.5083  1.9144
 5180SOL    HW227177   4.589   3.718  14.895 -2.4090 -0.3839  0.1661
 5181SOL     OW27178   3.555   2.888   2.069  0.5079  0.5948  0.0181
 5181SOL    HW127179   3.645   2.920   2.074  1.2576 -1.2141 -1.6435
 5181SOL    HW227180   3.524   2.925   2.152  2.0608  1.7185  0.0821
 5182SOL     OW27181   0.736   0.881   8.847  0.8017  0.0038  0.5623
 5182SOL    HW127182   0.727   0.812   8.913  1.3602 -2.1740 -1.6384
 5182SOL    HW227183   0.708   0.960   8.895  1.2953 -0.3641  1.4673
 5183SOL     OW27184   0.033   4.597   8.504  0.7338 -0.8826  0.0813
 5183SOL    HW127185   0.090   4.554   8.568  1.5491 -1.7568 -1.2327
 5183SOL    HW227186   0.064   4.546   8.429  0.9755 -1.1421  0.3559
 5184SOL     OW27187   2.899   2.018  10.881 -0.1322  0.0670 -0.7226
 5184SOL    HW127188   2.968   2.045  10.820  0.4548  1.0529  0.3725
 5184SOL    HW227189   2.839   2.092  10.871  0.3570  0.5154 -0.3896
 5185SOL     OW27190   0.575   2.876   4.406  0.2880 -0.0835 -0.2194
 5185SOL    HW127191   0.644   2.933   4.373 -0.4447  0.9554  0.0452
 5185SOL    HW227192   0.620   2.793   4.392  0.8411  0.3835 -1.2175
 5186SOL     OW27193   0.073   1.946  13.705 -0.6526 -0.1344  0.1586
 5186SOL    HW127194   0.139   1.941  13.636 -1.6039 -0.5548 -0.7110
 5186SOL    HW227195   0.002   1.987  13.655 -2.1629 -4.2743 -1.0342
 5187SOL     OW27196   1.023   3.211   3.676  1.0227  0.1412 -0.0737
 5187SOL    HW127197   0.951   3.274   3.662  1.5325  0.2635 -2.1954
 5187SOL    HW227198   1.092   3.262   3.635  1.2077 -1.0458 -1.2262
 5188SOL     OW27199   2.524   3.639   7.336  0.1464  0.2458 -0.3198
 5188SOL    HW127200   2.508   3.719   7.385 -3.2508  0.9481 -2.4772
 5188SOL    HW227201   2.531   3.585   7.414  1.5132  0.1151 -0.5349
 5189SOL     OW27202   2.956   4.603  12.065  0.2601 -0.2401  0.1173
 5189SOL    HW127203   3.006   4.613  12.146 -0.4016  1.3455  0.3258
 5189SOL    HW227204   2.878   4.559  12.097  1.4537 -1.4068  1.4499
 5190SOL     OW27205   0.194   2.135  10.295  0.1099 -0.1552 -0.6708
 5190SOL    HW127206   0.289   2.150  10.291  0.1447  0.8675  3.5154
 5190SOL    HW227207   0.186   2.084  10.376  0.1613 -1.1276 -1.2852
 5191SOL     OW27208   1.785   3.848   5.330  0.4593  0.2289 -0.6095
 5191SOL    HW127209   1.878   3.829   5.318  1.0471  1.3976  2.1005
 5191SOL    HW227210   1.795   3.939   5.359  1.8995 -0.8964  2.3878
 5192SOL     OW27211   3.679   3.467   6.324  0.4804 -0.1471  0.1440
 5192SOL    HW127212   3.627   3.501   6.252  0.2780  0.1131  0.4126
 5192SOL    HW227213   3.665   3.535   6.390 -2.3428  0.1266 -0.7679
 5193SOL     OW27214   0.246   1.696   3.888 -0.1713 -0.6451  0.8108
 5193SOL    HW127215   0.194   1.749   3.828 -1.6568 -1.4663  1.3695
 5193SOL    HW227216   0.246   1.756   3.962 -1.1423 -1.0262  1.1229
 5194SOL     OW27217   0.519   2.316  11.854  0.3268 -0.5032 -0.1952
 5194SOL    HW127218   0.521   2.222  11.870  1.3633 -0.2235  1.3338
 5194SOL    HW227219   0.609   2.341  11.834  0.2848 -0.3148 -0.1537
 5195SOL     OW27220   0.844   4.560   9.778  0.4482 -0.1916  0.3331
 5195SOL    HW127221   0.802   4.625   9.722  3.7009  0.3736 -1.3947
 5195SOL    HW227222   0.923   4.601   9.812  0.5362 -0.7999  0.8600
 5196SOL     OW27223   2.720   2.889   5.067  0.4299 -0.0227 -0.2274
 5196SOL    HW127224   2.811   2.865   5.087  0.0332 -1.7582 -0.4967
 5196SOL    HW227225   2.668   2.811   5.088 -0.4683  0.1443 -1.8620
 5197SOL     OW27226   4.252   4.079  17.181 -0.2423 -0.1148  0.4135
 5197SOL    HW127227   4.168   4.091  17.136 -0.1483  0.5801  0.4173
 5197SOL    HW227228   4.286   4.168  17.176  2.4164 -1.2831 -1.9469
 5198SOL     OW27229   3.546   4.729   1.966  0.3747 -0.7031 -0.4187
 5198SOL    HW127230   3.562   4.636   1.982  0.6385 -0.1798  2.3644
 5198SOL    HW227231   3.635   0.022   1.948  0.1102 -1.5369 -3.1174
 5199SOL     OW27232   0.675   0.886   5.287  0.0962 -0.6652  0.4936
 5199SOL    HW127233   0.627   0.908   5.206 -0.2836 -0.2336  0.8376
 5199SOL    HW227234   0.630   0.938   5.353  0.5875  0.0585  0.2597
 5200SOL     OW27235   2.790   1.863   7.372  0.8291  0.4481  0.6276
 5200SOL    HW127236   2.832   1.780   7.399  0.9304  0.9486  2.0396
 5200SOL    HW227237   2.698   1.848   7.350  0.7317 -0.6926  1.7587
 5201SOL     OW27238   3.424   0.286   6.751 -0.0063 -0.2077 -0.3708
 5201SOL    HW127239   3.400   0.372   6.716 -1.9879 -0.2471  0.8699
 5201SOL    HW227240   3.506   0.271   6.705  0.3272 -1.7600  0.7559
 5202SOL     OW27241   2.246   3.252   7.510  0.5186  0.2848  0.0172
 5202SOL    HW127242   2.174   3.311   7.533 -0.4260 -1.1387  0.6729
 5202SOL    HW227243   2.199   3.183   7.464 -1.0588  2.8680 -2.2125
 5203SOL     OW27244   3.850   3.052   3.472  0.0981  0.5580  0.4105
 5203SOL    HW127245   3.813   3.140   3.471  1.7654  1.3009  2.3587
 5203SOL    HW227246   3.819   3.028   3.559  1.5423  0.1039  0.7968
 5204SOL     OW27247   2.985   1.461   3.980 -0.2089 -0.1964 -0.1871
 5204SOL    HW127248   3.060   1.442   4.036 -1.2391 -0.8415  0.9760
 5204SOL    HW227249   2.950   1.545   4.010 -0.5682 -1.3002  2.5241
 5205SOL     OW27250   2.284   1.827  15.345  0.2577 -0.0779 -0.2274
 5205SOL    HW127251   2.279   1.835  15.250 -0.8624  2.2079  0.0235
 5205SOL    HW227252   2.259   1.734  15.346 -2.6557  0.7058  0.1918
 5206SOL     OW27253   0.960   4.009   6.539 -0.1495  0.0714  0.0327
 5206SOL    HW127254   1.026   3.958   6.586  2.2414  2.6615 -0.5733
 5206SOL    HW227255   0.880   3.987   6.586  0.4846 -1.3779  0.4248
 5207SOL     OW27256   3.305   0.089   9.032  0.2286  0.1355  0.5744
 5207SOL    HW127257   3.325   0.056   9.119  0.0366  1.0302  0.9552
 5207SOL    HW227258   3.280   0.007   8.990 -1.8501  0.8187  0.4709
 5208SOL     OW27259   1.469   1.923   3.369  0.1874 -0.7864  0.4111
 5208SOL    HW127260   1.407   1.979   3.416 -0.3592 -1.7548  0.8359
 5208SOL    HW227261   1.447   1.833   3.391 -1.5189  0.4150  3.5628
 5209SOL     OW27262   4.429   2.597   6.790 -0.1335 -0.9568 -0.0480
 5209SOL    HW127263   4.505   2.634   6.744 -1.0448  1.6299  0.5178
 5209SOL    HW227264   4.455   2.505   6.790 -0.5707 -1.0873  1.3349
 5210SOL     OW27265   3.845   3.868   7.509  0.5252  0.3841 -0.4341
 5210SOL    HW127266   3.940   3.859   7.500  0.3618  1.1233 -2.7686
 5210SOL    HW227267   3.816   3.834   7.425  1.9102 -0.1214 -0.7042
 5211SOL     OW27268   1.019   3.193   4.902 -0.3399 -0.0029  0.0373
 5211SOL    HW127269   0.983   3.272   4.942  0.5412  0.6171 -0.4031
 5211SOL    HW227270   1.072   3.151   4.970  0.7909 -0.4420 -1.1217
 5212SOL     OW27271   2.532   0.646   4.016 -0.0662  0.2541  0.3089
 5212SOL    HW127272   2.468   0.633   4.086 -3.0148 -1.1605 -2.6039
 5212SOL    HW227273   2.502   0.579   3.954 -1.9706  1.3232  0.0728
 5213SOL     OW27274   4.569   4.276  17.420  0.1146 -0.0702  0.2067
 5213SOL    HW127275   4.626   4.240  17.351  2.5468  2.9882  0.6010
 5213SOL    HW227276   4.494   4.217  17.412 -0.8001  1.1125  0.1964
 5214SOL     OW27277   2.145   2.231   6.470 -0.4812  0.6039 -0.2242
 5214SOL    HW127278   2.225   2.283   6.476 -0.0009 -0.1653  0.0840
 5214SOL    HW227279   2.141   2.181   6.552  0.2050  2.1381  0.7397
 5215SOL     OW27280   2.547   2.239   9.678 -0.1845 -0.1027  0.1043
 5215SOL    HW127281   2.612   2.179   9.715 -0.7637 -0.3269  0.7460
 5215SOL    HW227282   2.530   2.200   9.592  1.3780 -1.3030  0.3421
 5216SOL     OW27283   1.753   3.062   3.564  0.2442  0.2488  0.1373
 5216SOL    HW127284   1.774   3.072   3.657 -0.4314  3.2002 -0.0303
 5216SOL    HW227285   1.834   3.088   3.521  0.2660 -0.5630 -0.3186
 5217SOL     OW27286   2.734   3.484   5.409  0.1850  0.2277  0.0467
 5217SOL    HW127287   2.717   3.512   5.319 -1.9528  0.1756  0.4303
 5217SOL    HW227288   2.767   3.396   5.393  0.6420  0.8456 -2.3713
 5218SOL     OW27289   4.643   2.768   3.826 -0.1390 -0.4539 -0.3302
 5218SOL    HW127290   4.636   2.860   3.853 -1.2528 -0.7056  0.2484
 5218SOL    HW227291   4.727   2.773   3.780 -1.2857 -0.4555 -2.4512
 5219SOL     OW27292   3.047   0.064   0.903 -0.7937  0.1113 -0.1997
 5219SOL    HW127293   2.979   0.038   0.965  0.4933 -0.3829  0.9862
 5219SOL    HW227294   3.096   4.719   0.908 -1.2562 -0.0551  1.5153
 5220SOL     OW27295   3.280   1.305   2.514 -0.5236  0.4236  0.5129
 5220SOL    HW127296   3.214   1.240   2.540  0.2824  0.6178  3.0331
 5220SOL    HW227297   3.330   1.269   2.441 -1.6057  2.2073 -1.1199
 5221SOL     OW27298   1.997   0.937   4.468  0.3778  0.3029 -0.2109
 5221SOL    HW127299   2.029   0.849   4.448 -1.8965 -0.3829 -0.7317
 5221SOL    HW227300   1.903   0.919   4.469  0.1706  1.4769  1.2285
 5222SOL     OW27301   0.356   1.688   5.026 -0.2350  0.0602 -0.3931
 5222SOL    HW127302   0.355   1.768   5.078  0.0061  0.5921 -1.1987
 5222SOL    HW227303   0.266   1.655   5.025 -0.0421 -0.4291 -2.0886
 5223SOL     OW27304   3.896   3.596  15.469 -0.3616  0.2448 -0.9007
 5223SOL    HW127305   3.870   3.511  15.505  1.6509  0.6424  1.5149
 5223SOL    HW227306   3.991   3.589  15.463 -0.3102  0.9322 -0.9041
 5224SOL     OW27307   3.436   2.803   2.861  0.0277  0.5182 -0.0908
 5224SOL    HW127308   3.432   2.793   2.956 -0.9916 -0.4093 -0.2340
 5224SOL    HW227309   3.428   2.898   2.862  0.0268  0.4994  1.6443
 5225SOL     OW27310   2.712   4.668   6.317  0.5635 -0.8376 -0.0237
 5225SOL    HW127311   2.747   4.734   6.257  0.1791 -0.5312  0.0865
 5225SOL    HW227312   2.640   4.642   6.259 -0.6394 -0.2415  1.2166
 5226SOL     OW27313   2.694   4.381   9.178 -0.2466  0.1865  0.1271
 5226SOL    HW127314   2.647   4.431   9.244 -3.0824  1.1878 -2.6227
 5226SOL    HW227315   2.724   4.309   9.233 -1.8981 -1.9405 -1.7567
 5227SOL     OW27316   4.432   3.924  17.041 -0.5086 -0.1792  0.9869
 5227SOL    HW127317   4.360   3.946  17.101 -0.2632  1.3010  0.7389
 5227SOL    HW227318   4.469   4.007  17.012 -0.2484  0.0674  1.9997
 5228SOL     OW27319   4.318   3.927   2.590 -0.3943 -0.1365  0.6530
 5228SOL    HW127320   4.376   3.979   2.534  0.8418 -1.0184  1.1036
 5228SOL    HW227321   4.338   3.966   2.675  0.3347  1.3215 -0.2006
 5229SOL     OW27322   4.112   0.051  12.526  0.6653 -0.1580 -0.0057
 5229SOL    HW127323   4.180   4.723  12.511 -0.1599 -1.0575  0.1961
 5229SOL    HW227324   4.090   0.050  12.619 -0.8701  1.9295 -0.3355
 5230SOL     OW27325   0.082   3.429   7.030  0.8509  0.0581  0.1413
 5230SOL    HW127326   4.730   3.430   6.996  1.8149  0.1115 -2.3992
 5230SOL    HW227327   0.121   3.389   6.952  1.4409  0.3814  0.2722
 5231SOL     OW27328   0.758   2.402  15.190 -0.1248 -0.1468 -0.0781
 5231SOL    HW127329   0.717   2.324  15.227 -0.2988 -0.4401 -0.8973
 5231SOL    HW227330   0.730   2.395  15.099 -1.1125 -1.8652  0.3420
 5232SOL     OW27331   4.102   0.450  12.690  0.0410  0.3792  0.1721
 5232SOL    HW127332   4.186   0.415  12.719 -0.6304 -0.4345  1.1360
 5232SOL    HW227333   4.076   0.489  12.774 -0.8019  0.2840 -0.0454
 5233SOL     OW27334   1.428   4.068  10.074  0.9794  0.1832  0.2704
 5233SOL    HW127335   1.360   4.065  10.141 -2.4057  1.0583 -3.0960
 5233SOL    HW227336   1.433   4.161  10.055 -1.3030  0.6422  1.9260
 5234SOL     OW27337   2.876   2.243  13.272  0.3698  0.1212  0.0352
 5234SOL    HW127338   2.884   2.337  13.287 -0.8047  0.2475 -0.1912
 5234SOL    HW227339   2.799   2.218  13.322 -0.9950  0.0404 -2.1237
 5235SOL     OW27340   3.201   1.314  14.326 -0.3694 -0.4852 -0.4556
 5235SOL    HW127341   3.164   1.353  14.405  1.1619  1.0644 -0.4944
 5235SOL    HW227342   3.231   1.230  14.359  2.0010  0.9487  1.0431
 5236SOL     OW27343   3.270   1.573   8.630 -0.1464 -0.9565 -0.3442
 5236SOL    HW127344   3.179   1.590   8.654  0.5708  0.0869  1.6483
 5236SOL    HW227345   3.319   1.642   8.675 -2.2796 -0.6242  1.5127
 5237SOL     OW27346   3.278   1.952   1.943 -0.4332  0.1275  0.3925
 5237SOL    HW127347   3.353   1.960   2.002  1.4962 -2.1808 -1.7361
 5237SOL    HW227348   3.280   1.861   1.912 -3.3150 -0.6966  2.6330
 5238SOL     OW27349   3.882   3.684   3.514 -0.1303 -0.8485  0.1517
 5238SOL    HW127350   3.910   3.708   3.425 -0.9623  1.2259  0.4607
 5238SOL    HW227351   3.822   3.617   3.483 -0.2900 -0.6888  0.1160
 5239SOL     OW27352   2.079   3.760  17.129  0.1000  0.3502  0.3283
 5239SOL    HW127353   2.092   3.722  17.042  0.7323  1.0334  0.1207
 5239SOL    HW227354   2.053   3.850  17.107  1.4670  0.1191 -2.1984
 5240SOL     OW27355   0.725   4.701  12.004 -0.6103 -0.0545 -0.1338
 5240SOL    HW127356   0.695   0.037  11.950  3.3460  0.0514 -2.1892
 5240SOL    HW227357   0.818   4.707  11.985 -0.4884  0.5851  0.6687
 5241SOL     OW27358   0.585   0.864   4.713 -0.0826  0.1347  0.2954
 5241SOL    HW127359   0.671   0.839   4.747 -0.4619 -0.2410  0.9666
 5241SOL    HW227360   0.529   0.787   4.702 -0.8344  0.9587 -1.5432
 5242SOL     OW27361   3.604   3.516  14.761 -0.7103  0.5225 -0.2447
 5242SOL    HW127362   3.517   3.520  14.721 -1.9174 -1.0350  2.2545
 5242SOL    HW227363   3.630   3.431  14.726 -0.0005  0.6548 -0.0342
 5243SOL     OW27364   2.344   3.486   8.122 -0.3821 -0.1707  0.6064
 5243SOL    HW127365   2.391   3.430   8.061 -1.3106 -0.0713 -0.2093
 5243SOL    HW227366   2.402   3.562   8.124  2.0637 -1.9688 -2.0597
 5244SOL     OW27367   3.712   3.507  13.786 -0.1066 -0.2001 -0.5872
 5244SOL    HW127368   3.783   3.560  13.824 -1.1574  0.5012  0.3923
 5244SOL    HW227369   3.732   3.425  13.831  1.5799  0.6657  0.2558
 5245SOL     OW27370   4.557   1.802   3.496  0.2417 -0.2212 -0.0914
 5245SOL    HW127371   4.632   1.742   3.490  1.4690  1.3790 -0.9259
 5245SOL    HW227372   4.503   1.770   3.424 -0.5386 -0.8949  0.7937
 5246SOL     OW27373   1.947   2.650   8.597 -0.0445 -0.6781  0.6276
 5246SOL    HW127374   1.932   2.556   8.596 -1.1991 -0.4818  0.0526
 5246SOL    HW227375   1.904   2.677   8.678 -1.0690  2.5891 -1.0146
 5247SOL     OW27376   3.888   2.696   2.927  0.0931  0.0776  0.2077
 5247SOL    HW127377   3.847   2.621   2.885  0.9995  0.5149 -1.4539
 5247SOL    HW227378   3.952   2.721   2.860  1.6160 -2.5104  0.7250
 5248SOL     OW27379   2.663   3.014   8.948 -0.0479  0.1603  0.1711
 5248SOL    HW127380   2.758   3.021   8.946 -0.2154  3.0161  1.7159
 5248SOL    HW227381   2.637   2.959   9.022 -0.4247  0.8172  0.5273
 5249SOL     OW27382   0.962   0.494   9.647  0.0120  0.5040  0.0718
 5249SOL    HW127383   0.973   0.522   9.738  0.2993  1.6935 -0.3310
 5249SOL    HW227384   0.989   0.403   9.658  3.3015  1.3092 -1.2317
 5250SOL     OW27385   1.852   2.017   7.938  0.0613  0.2872 -0.3676
 5250SOL    HW127386   1.899   2.050   8.015  2.6488  0.8533 -2.1685
 5250SOL    HW227387   1.802   2.089   7.901 -1.1976 -2.3729 -3.7945
 5251SOL     OW27388   3.718   0.391  14.840  0.0351  0.0229 -0.4752
 5251SOL    HW127389   3.736   0.338  14.917 -0.8790 -0.5317 -0.6393
 5251SOL    HW227390   3.633   0.358  14.810 -0.0660  1.8583 -2.1810
 5252SOL     OW27391   4.539   1.932   9.785 -0.2340  0.6081  0.4109
 5252SOL    HW127392   4.494   2.007   9.747 -0.1516  0.9793  1.0573
 5252SOL    HW227393   4.470   1.899   9.842  0.7447 -2.7179 -0.2734
 5253SOL     OW27394   4.204   2.642   6.131  0.0901  0.1812  0.1035
 5253SOL    HW127395   4.194   2.549   6.154  0.8414 -0.1104 -0.7819
 5253SOL    HW227396   4.142   2.680   6.194  1.0194  1.1425  0.4265
 5254SOL     OW27397   0.846   3.198  14.029 -0.1875 -0.3098  0.4045
 5254SOL    HW127398   0.857   3.114  14.074  0.4962  0.4225  1.5979
 5254SOL    HW227399   0.781   3.173  13.964 -0.1405  1.0447 -0.1706
 5255SOL     OW27400   1.237   0.493   3.984  0.6054 -0.1417  1.0338
 5255SOL    HW127401   1.179   0.423   3.954 -1.0147  0.4559  2.7510
 5255SOL    HW227402   1.285   0.516   3.905  0.5342  1.2538  1.4025
 5256SOL     OW27403   3.755   4.449   1.146  0.2889  0.0083  0.6292
 5256SOL    HW127404   3.762   4.365   1.101  0.6727 -0.7550  2.0975
 5256SOL    HW227405   3.691   4.423   1.213  0.3556  0.0881  0.7241
 5257SOL     OW27406   3.307   4.169   2.535 -0.4847  0.0846  0.3462
 5257SOL    HW127407   3.322   4.260   2.508 -1.1158 -0.9211 -3.4711
 5257SOL    HW227408   3.284   4.189   2.625  0.3919  1.9877  0.1596
 5258SOL     OW27409   0.127   3.235   8.609 -0.5661 -0.4136 -0.6777
 5258SOL    HW127410   0.165   3.220   8.522  0.2064  1.8296 -0.7349
 5258SOL    HW227411   0.177   3.312   8.635  0.5691 -1.2870 -0.3031
 5259SOL     OW27412   3.303   2.807   1.947  0.0394 -0.4975  0.1538
 5259SOL    HW127413   3.374   2.840   2.003  1.9071  1.5560 -3.4511
 5259SOL    HW227414   3.342   2.738   1.893  0.9789 -1.6538  2.2923
 5260SOL     OW27415   4.716   3.454   2.517 -0.1560 -0.3517  0.0646
 5260SOL    HW127416   4.689   3.422   2.430  0.2004  1.1838 -0.6169
 5260SOL    HW227417   0.006   3.376   2.564 -2.2468 -1.1500 -0.0676
 5261SOL     OW27418   1.210   2.119   4.922  0.3556 -0.2731 -0.0380
 5261SOL    HW127419   1.141   2.095   4.985  1.9257 -1.7666  1.0870
 5261SOL    HW227420   1.253   2.035   4.909  1.1679  0.2702 -0.8447
 5262SOL     OW27421   2.021   3.558  12.240 -0.2612  0.0606 -0.0890
 5262SOL    HW127422   2.028   3.463  12.243 -1.2388 -0.1826 -5.6271
 5262SOL    HW227423   2.102   3.589  12.282  1.2160 -1.9833 -1.4751
 5263SOL     OW27424   2.018   4.407   4.617  0.7877 -0.6112 -0.6670
 5263SOL    HW127425   2.034   4.500   4.636  1.2824  0.1799 -4.9740
 5263SOL    HW227426   1.929   4.397   4.651  0.9924 -2.0416 -0.5670
 5264SOL     OW27427   2.790   2.688   9.087 -0.8438  0.0458 -0.3747
 5264SOL    HW127428   2.871   2.691   9.036  0.0239  1.8968  1.0917
 5264SOL    HW227429   2.745   2.616   9.043  0.4150 -0.9628 -0.0353
 5265SOL     OW27430   1.234   3.426   5.181  0.1776  0.7053 -0.6031
 5265SOL    HW127431   1.301   3.436   5.113 -0.2150  0.6658 -0.9922
 5265SOL    HW227432   1.293   3.408   5.255  2.5680 -2.5956 -3.2748
 5266SOL     OW27433   3.996   2.179  15.373 -0.6256  0.0088 -0.4767
 5266SOL    HW127434   4.055   2.193  15.446 -0.2462 -0.5607 -0.6833
 5266SOL    HW227435   4.057   2.173  15.300  0.6711  1.7240  0.4548
 5267SOL     OW27436   3.739   3.873   0.279 -0.3816  0.7981  0.9322
 5267SOL    HW127437   3.723   3.783   0.253 -1.4773  1.5768 -1.1350
 5267SOL    HW227438   3.815   3.902   0.229  0.2812 -1.2100  0.7930
 5268SOL     OW27439   1.150   3.770  14.320  0.0378  0.2172  0.4453
 5268SOL    HW127440   1.223   3.711  14.300  1.5975  2.0834  0.6749
 5268SOL    HW227441   1.096   3.755  14.242  1.4896 -1.1016 -0.2949
 5269SOL     OW27442   2.267   3.229   8.601 -0.3215 -0.4590  0.2969
 5269SOL    HW127443   2.173   3.216   8.617 -0.8341 -1.3386 -3.3519
 5269SOL    HW227444   2.275   3.135   8.589  0.6517 -0.5461  1.6486
 5270SOL     OW27445   3.729   2.142   8.782  0.6465 -0.0424 -0.3870
 5270SOL    HW127446   3.766   2.175   8.864  1.2359  1.1165 -1.1173
 5270SOL    HW227447   3.654   2.096   8.819  1.6060 -1.8518 -0.6858
 5271SOL     OW27448   3.740   0.155   7.698  0.3609 -0.7795 -0.3715
 5271SOL    HW127449   3.654   0.114   7.687 -0.0601 -0.0936  0.3470
 5271SOL    HW227450   3.718   0.236   7.744 -2.0099 -1.0089 -1.1312
 5272SOL     OW27451   1.939   2.367   8.744  0.7100 -0.0955  0.2036
 5272SOL    HW127452   1.964   2.282   8.780  0.1600  0.1296  1.1322
 5272SOL    HW227453   1.945   2.432   8.815  1.2853 -0.8927  0.8904
 5273SOL     OW27454   1.831   0.441  16.649 -0.0369 -0.3813 -0.6654
 5273SOL    HW127455   1.746   0.404  16.669 -0.9985  1.8039 -0.7113
 5273SOL    HW227456   1.806   0.519  16.599 -0.6225  0.4845  0.9810
 5274SOL     OW27457   2.251   4.346   7.637 -0.3026  0.0140  0.1572
 5274SOL    HW127458   2.231   4.368   7.546  0.0404 -2.5468 -0.5509
 5274SOL    HW227459   2.168   4.372   7.679  1.2377  2.9659  1.3712
 5275SOL     OW27460   2.047   2.544  11.054 -0.3513  0.0103 -0.0344
 5275SOL    HW127461   2.099   2.514  10.980  3.1435 -0.8073  2.6988
 5275SOL    HW227462   1.959   2.511  11.036 -0.5442 -0.5819  1.9902
 5276SOL     OW27463   2.548   1.725   2.701 -0.0166  0.6243  0.5809
 5276SOL    HW127464   2.623   1.782   2.720 -1.4790  2.1162  1.8832
 5276SOL    HW227465   2.576   1.654   2.758  1.0685 -0.9695 -1.9292
 5277SOL     OW27466   1.392   0.496   4.342 -0.4485  0.6078  0.3475
 5277SOL    HW127467   1.346   0.509   4.424 -1.5389 -0.1688 -0.1395
 5277SOL    HW227468   1.351   0.552   4.276  1.3540  0.8089 -0.6296
 5278SOL     OW27469   3.152   0.318   2.711 -0.0643  0.1855 -0.1850
 5278SOL    HW127470   3.246   0.311   2.693 -0.1118 -0.5584 -0.1590
 5278SOL    HW227471   3.144   0.413   2.719  1.7363  0.4953 -2.0662
 5279SOL     OW27472   1.070   0.785  11.784  0.4805  0.2700 -0.0699
 5279SOL    HW127473   1.041   0.870  11.816  0.5795 -0.8789  3.0769
 5279SOL    HW227474   1.152   0.790  11.833  0.3109  3.6788 -0.1777
 5280SOL     OW27475   1.771   4.676   5.089  0.6201  0.5326  0.0081
 5280SOL    HW127476   1.853   4.723   5.074  1.4304 -0.5376  1.1178
 5280SOL    HW227477   1.724   4.704   5.011 -1.7343  0.7410  1.5006
 5281SOL     OW27478   0.246   0.207   8.574 -0.1779 -0.5656 -0.1290
 5281SOL    HW127479   0.338   0.229   8.591 -0.7859 -0.4604  2.9524
 5281SOL    HW227480   0.261   0.186   8.481 -3.4572 -2.7418 -0.1556
 5282SOL     OW27481   4.488   3.485  16.777 -0.0659  0.5324  0.6079
 5282SOL    HW127482   4.506   3.529  16.694  3.0141  1.3307  1.7246
 5282SOL    HW227483   4.423   3.418  16.757  0.6685  0.3506 -1.1554
 5283SOL     OW27484   3.384   3.884  14.901  0.4323 -0.0038  0.0947
 5283SOL    HW127485   3.431   3.968  14.893 -0.8336  0.6769 -0.1259
 5283SOL    HW227486   3.392   3.874  14.996  0.5842 -1.4356 -0.0701
 5284SOL     OW27487   3.438   0.603   0.456  0.6434 -0.1762 -0.4787
 5284SOL    HW127488   3.496   0.672   0.423  1.7995 -1.2093 -0.5995
 5284SOL    HW227489   3.354   0.649   0.466  1.3687  0.6117  1.9704
 5285SOL     OW27490   3.945   3.267   7.393 -0.2061  0.2916 -0.3106
 5285SOL    HW127491   3.920   3.187   7.347 -1.6656  0.9166 -0.6221
 5285SOL    HW227492   3.916   3.246   7.481  0.0975 -0.7114 -0.4484
 5286SOL     OW27493   1.240   0.551  11.455 -0.2227 -0.0876  0.0421
 5286SOL    HW127494   1.164   0.595  11.492  0.8050 -0.4800  2.6372
 5286SOL    HW227495   1.205   0.549  11.366 -3.1331  0.2897  1.1582
 5287SOL     OW27496   0.389   0.748  10.223 -0.4126 -0.1999 -0.3480
 5287SOL    HW127497   0.388   0.699  10.140  1.5840 -1.3317  0.2987
 5287SOL    HW227498   0.308   0.727  10.269 -0.8628  0.4978 -0.8213
 5288SOL     OW27499   2.707   1.567   2.936  0.0477 -0.1481  0.2965
 5288SOL    HW127500   2.761   1.601   3.007  1.1591 -2.0629  0.3729
 5288SOL    HW227501   2.638   1.509   2.969 -2.1025  2.0620 -0.2759
 5289SOL     OW27502   1.840   2.260   4.899 -0.4202  0.3791 -0.3144
 5289SOL    HW127503   1.843   2.171   4.864  1.6472 -0.5836  2.2475
 5289SOL    HW227504   1.747   2.281   4.898 -0.0189  2.1225 -0.4497
 5290SOL     OW27505   1.289   3.739   9.326 -0.5200 -0.0989  0.0165
 5290SOL    HW127506   1.319   3.812   9.272 -2.0529  0.4023 -0.1527
 5290SOL    HW227507   1.341   3.730   9.406  0.8861  0.4932 -0.8328
 5291SOL     OW27508   2.031   2.525   6.337  0.0719 -0.5984 -0.3047
 5291SOL    HW127509   1.995   2.439   6.361 -0.6873 -0.5531 -1.2510
 5291SOL    HW227510   1.957   2.576   6.303 -0.4251  0.3187  2.1616
 5292SOL     OW27511   4.001   1.445  17.069  0.0938  0.2357 -0.0653
 5292SOL    HW127512   3.932   1.409  17.013 -0.0690  0.3685  0.0490
 5292SOL    HW227513   3.951   1.520  17.100  1.3009  0.8849  0.2914
 5293SOL     OW27514   0.038   4.641   5.187  0.5402  0.0187 -0.5689
 5293SOL    HW127515   0.105   4.624   5.121  0.5841 -2.7114  0.1964
 5293SOL    HW227516   4.729   4.718   5.153 -0.6400 -0.3684  0.1523
 5294SOL     OW27517   3.754   1.210   5.324  0.5207 -0.2655 -0.6201
 5294SOL    HW127518   3.706   1.129   5.314 -0.0371 -0.2577  1.8603
 5294SOL    HW227519   3.765   1.201   5.419 -1.3936 -0.3461 -0.4096
 5295SOL     OW27520   4.097   3.616  17.736  0.0781  0.2010  0.2034
 5295SOL    HW127521   4.094   3.694  17.681  3.1689  0.6529  0.6763
 5295SOL    HW227522   4.071   3.546  17.677 -1.1296  0.0556  0.9060
 5296SOL     OW27523   0.580   2.969   9.674 -0.6633  0.4034  0.4377
 5296SOL    HW127524   0.606   3.003   9.588 -0.7008  1.4982  0.8681
 5296SOL    HW227525   0.506   2.916   9.644  0.3015 -0.5963 -0.2371
 5297SOL     OW27526   3.913   2.678   7.508 -0.0408  0.1441 -0.6658
 5297SOL    HW127527   4.009   2.685   7.508 -0.0651  0.4501 -0.3823
 5297SOL    HW227528   3.907   2.672   7.604  2.0050 -0.0514 -0.5503
 5298SOL     OW27529   3.008   4.377   4.969 -0.3619 -0.1534  0.0611
 5298SOL    HW127530   2.960   4.383   5.052 -2.3949  0.2683 -1.1237
 5298SOL    HW227531   3.034   4.285   4.963 -1.8637 -0.5550 -0.3619
 5299SOL     OW27532   1.145   0.962   9.393  0.0425 -0.2937  0.1498
 5299SOL    HW127533   1.121   0.968   9.486 -2.1882  1.0632 -0.4879
 5299SOL    HW227534   1.237   0.937   9.396 -0.0783 -1.0414 -2.5868
 5300SOL     OW27535   1.122   4.019   2.601  0.0818 -0.2158 -0.1761
 5300SOL    HW127536   1.153   3.959   2.532 -3.4614 -1.8369 -0.3419
 5300SOL    HW227537   1.117   3.974   2.685 -0.7302  0.5902  0.1990
 5301SOL     OW27538   4.518   0.414  13.992 -0.1256  0.2657 -0.1418
 5301SOL    HW127539   4.538   0.360  13.915  0.7594  0.0891  0.2136
 5301SOL    HW227540   4.467   0.350  14.041  0.1763  0.1451  0.0141
 5302SOL     OW27541   4.213   1.968   7.054  0.3417 -0.2960 -0.2236
 5302SOL    HW127542   4.279   1.942   6.989  1.5012 -0.5085  1.0521
 5302SOL    HW227543   4.191   1.881   7.086  0.9744  0.0910  1.2610
 5303SOL     OW27544   2.022   1.635  10.158  0.0122 -0.1406  0.0225
 5303SOL    HW127545   2.026   1.698  10.086 -0.9079 -1.9440 -1.5907
 5303SOL    HW227546   1.999   1.560  10.104  0.5609  0.0598 -0.4831
 5304SOL     OW27547   3.686   4.652   0.383  0.6871 -0.1806 -0.0316
 5304SOL    HW127548   3.611   4.696   0.422 -0.0091 -0.1195 -1.4459
 5304SOL    HW227549   3.738   4.631   0.460  1.5949  0.0275 -0.5876
 5305SOL     OW27550   3.831   1.782   7.296 -0.0474 -0.0152  0.6573
 5305SOL    HW127551   3.920   1.786   7.261 -0.6525  3.0520 -0.4753
 5305SOL    HW227552   3.823   1.686   7.303 -0.5465 -0.0450 -0.4018
 5306SOL     OW27553   1.695   2.134  12.850 -0.0029  0.0907  0.0909
 5306SOL    HW127554   1.628   2.154  12.784 -0.6409 -0.9969  0.4078
 5306SOL    HW227555   1.770   2.150  12.792  1.5900 -0.7658  1.9240
 5307SOL     OW27556   0.254   0.980   3.460 -0.1577 -0.3058 -0.3675
 5307SOL    HW127557   0.340   0.964   3.498 -0.0596  0.6538 -0.1839
 5307SOL    HW227558   0.264   0.935   3.376  0.0979 -2.3911  0.7771
 5308SOL     OW27559   1.440   1.331   2.915  0.4396 -0.1001  0.4237
 5308SOL    HW127560   1.366   1.272   2.927 -0.6851  2.3244  5.3460
 5308SOL    HW227561   1.505   1.289   2.971 -1.0629 -0.9973  1.5114
 5309SOL     OW27562   2.930   1.832  13.186  0.1025 -0.3413 -0.2622
 5309SOL    HW127563   3.007   1.821  13.242  0.6468  0.0716 -0.9414
 5309SOL    HW227564   2.889   1.903  13.236  1.2371  0.5279 -0.5692
 5310SOL     OW27565   1.536   1.515   4.244 -0.0844  0.0167  0.3624
 5310SOL    HW127566   1.453   1.562   4.250  1.6017  3.0348 -0.0610
 5310SOL    HW227567   1.544   1.479   4.332 -0.3459 -0.0899  0.3416
 5311SOL     OW27568   2.074   2.522  12.436  0.0358 -0.1085 -0.5410
 5311SOL    HW127569   2.061   2.431  12.464 -2.6311 -0.0641 -1.5781
 5311SOL    HW227570   1.987   2.560  12.422  0.4632  1.1095  0.1467
 5312SOL     OW27571   3.719   0.119  17.684 -0.5132 -0.3835 -0.2137
 5312SOL    HW127572   3.791   0.055  17.692 -0.9699 -1.0395 -1.3171
 5312SOL    HW227573   3.661   0.090   0.006 -0.5467  0.6370  0.1795
 5313SOL     OW27574   3.468   2.858   0.909 -0.2814 -0.2140  0.0574
 5313SOL    HW127575   3.407   2.788   0.886  1.1469 -1.8025  1.1060
 5313SOL    HW227576   3.456   2.868   1.003 -1.3990 -0.3377 -0.0774
 5314SOL     OW27577   4.720   3.251   8.177 -0.6046  0.0720 -0.1127
 5314SOL    HW127578   0.076   3.237   8.196 -0.8476 -3.3718 -1.6263
 5314SOL    HW227579   4.678   3.205   8.249  1.0517  0.8571  1.3609
 5315SOL     OW27580   1.233   0.697  13.245 -0.2072  0.5314  0.3916
 5315SOL    HW127581   1.310   0.736  13.285  0.7802 -0.6008 -0.4211
 5315SOL    HW227582   1.242   0.611  13.286 -1.7896  0.6970  1.0867
 5316SOL     OW27583   3.108   2.561   3.935  0.0480 -0.1299  0.0556
 5316SOL    HW127584   3.185   2.595   3.890  0.6461 -1.7742 -0.1718
 5316SOL    HW227585   3.076   2.504   3.865 -0.3033 -1.3998  1.2455
 5317SOL     OW27586   3.391   3.549  17.261  0.0071 -0.3120 -0.6519
 5317SOL    HW127587   3.423   3.569  17.349  0.1304 -0.9010 -0.5592
 5317SOL    HW227588   3.390   3.639  17.230 -0.2949 -0.7144 -1.7920
 5318SOL     OW27589   3.821   0.647  13.281  0.1737 -0.1540  0.8344
 5318SOL    HW127590   3.789   0.570  13.233 -1.9192  0.6636  0.9193
 5318SOL    HW227591   3.756   0.710  13.249 -0.5684 -1.1602  0.3592
 5319SOL     OW27592   1.490   2.708   3.780  0.0216 -0.2046  0.2337
 5319SOL    HW127593   1.483   2.802   3.766 -2.9611 -0.5190 -0.4342
 5319SOL    HW227594   1.544   2.676   3.708 -2.8980  0.0671 -2.0493
 5320SOL     OW27595   3.832   2.145  12.782  0.3715 -0.3146  0.6096
 5320SOL    HW127596   3.839   2.089  12.860 -0.1829 -0.7079  0.3741
 5320SOL    HW227597   3.915   2.131  12.736 -0.2375 -0.3019 -0.4771
 5321SOL     OW27598   1.573   4.446  11.127  0.5875 -0.8315  0.4869
 5321SOL    HW127599   1.627   4.380  11.084  1.5414  0.2686 -0.0194
 5321SOL    HW227600   1.503   4.397  11.170 -1.9614 -0.2305 -3.0248
 5322SOL     OW27601   2.019   2.689   0.943 -0.4524  0.6659  0.2201
 5322SOL    HW127602   1.953   2.743   0.900  2.4089  2.0673 -2.4929
 5322SOL    HW227603   2.061   2.640   0.872 -2.8958  0.1838 -0.8587
 5323SOL     OW27604   3.834   1.803   8.892  0.0811 -0.4710  0.7893
 5323SOL    HW127605   3.781   1.775   8.966  0.0889 -1.1312  0.5402
 5323SOL    HW227606   3.785   1.774   8.815  0.7990 -0.4800  0.3384
 5324SOL     OW27607   3.728   0.403  17.713 -0.6346  0.4674  0.0880
 5324SOL    HW127608   3.747   0.312  17.691  0.9837  0.6977  0.5579
 5324SOL    HW227609   3.632   0.400  17.715 -0.6958  0.3949 -2.0187
 5325SOL     OW27610   0.234   1.417   2.013 -0.3621 -0.3660  0.6152
 5325SOL    HW127611   0.279   1.332   2.017  0.7015  0.1394 -0.3570
 5325SOL    HW227612   0.174   1.408   2.087  0.7990 -2.4991  1.2891
 5326SOL     OW27613   1.893   0.452   2.551 -0.4268  0.0105 -0.4294
 5326SOL    HW127614   1.959   0.471   2.483 -0.2380 -0.1371 -0.2888
 5326SOL    HW227615   1.867   0.541   2.575  0.5183  0.1273  0.1717
 5327SOL     OW27616   3.230   0.126   8.057 -0.1883  0.2093 -0.3228
 5327SOL    HW127617   3.257   0.165   7.973 -2.8254  1.4488 -0.5879
 5327SOL    HW227618   3.177   0.054   8.023 -0.5161  0.2981  0.0075
 5328SOL     OW27619   3.573   2.203   6.442 -0.0740  0.6329  0.1427
 5328SOL    HW127620   3.568   2.247   6.357 -1.5225 -0.4762 -0.3567
 5328SOL    HW227621   3.541   2.272   6.500  0.1738  0.6108  0.3090
 5329SOL     OW27622   2.099   3.491   5.600 -0.3376 -0.4896  0.1926
 5329SOL    HW127623   2.141   3.493   5.514 -1.5295  0.6805 -0.3638
 5329SOL    HW227624   2.160   3.450   5.661 -2.7402 -0.4961  2.5667
 5330SOL     OW27625   3.120   0.341   6.881  0.2912  0.0427  0.2102
 5330SOL    HW127626   3.173   0.351   6.803  0.9554  1.1701  0.8040
 5330SOL    HW227627   3.188   0.371   6.942  0.5190 -1.2203  0.5903
 5331SOL     OW27628   4.527   3.095   5.376  0.1452  0.3103  0.0054
 5331SOL    HW127629   4.509   3.078   5.468  2.2610 -0.7926  0.2223
 5331SOL    HW227630   4.538   3.190   5.376  0.2958  0.2930 -0.1666
 5332SOL     OW27631   0.851   2.387  11.461  0.1651 -0.5124  0.5177
 5332SOL    HW127632   0.862   2.311  11.404 -0.4392 -0.6661  0.6053
 5332SOL    HW227633   0.939   2.389  11.500  1.1758 -0.7560 -1.7563
 5333SOL     OW27634   2.567   1.269   2.221 -0.2906 -0.3657 -0.1853
 5333SOL    HW127635   2.515   1.316   2.286  0.5597 -0.3975  0.5265
 5333SOL    HW227636   2.523   1.287   2.138 -2.6730 -0.1372  1.1053
 5334SOL     OW27637   3.127   3.802   8.943 -0.0655  0.0168 -0.0954
 5334SOL    HW127638   3.199   3.834   8.997  0.4340  1.3804 -1.5695
 5334SOL    HW227639   3.081   3.883   8.920 -0.0881 -0.1794 -0.7457
 5335SOL     OW27640   0.911   2.680   4.171  0.3075 -0.3163 -0.0992
 5335SOL    HW127641   0.873   2.767   4.169 -0.9196 -0.9090 -2.0982
 5335SOL    HW227642   0.899   2.648   4.081 -0.7541  1.2243 -0.4873
 5336SOL     OW27643   2.676   3.377   9.183 -0.0944 -0.3317 -0.5625
 5336SOL    HW127644   2.639   3.292   9.205 -1.4517  0.5948  0.7703
 5336SOL    HW227645   2.650   3.385   9.091  0.4475  2.6764 -0.4619
 5337SOL     OW27646   1.561   3.891   6.758 -0.7331 -0.3895 -0.1661
 5337SOL    HW127647   1.645   3.899   6.713 -1.0736 -2.8056 -1.2532
 5337SOL    HW227648   1.560   3.981   6.789 -0.3054 -0.6825  0.7302
 5338SOL     OW27649   4.366   4.092   9.152  1.0456  0.1179  0.2549
 5338SOL    HW127650   4.432   4.139   9.100  0.7205 -2.0157 -2.0875
 5338SOL    HW227651   4.317   4.045   9.084 -0.3902  0.4905  1.0498
 5339SOL     OW27652   0.028   3.161  12.663 -0.3189 -0.3927 -0.0716
 5339SOL    HW127653   0.050   3.074  12.631  1.1450 -0.1450  0.2360
 5339SOL    HW227654   4.726   3.201  12.586  0.6839  0.6274 -0.0526
 5340SOL     OW27655   3.967   0.416   4.710  0.2522  0.4274 -0.8349
 5340SOL    HW127656   3.911   0.476   4.760 -1.1101 -0.6326 -1.0968
 5340SOL    HW227657   3.894   0.361   4.682  1.3963 -0.9283 -1.1048
 5341SOL     OW27658   3.240   2.516   9.027 -0.2139  0.3542 -0.4761
 5341SOL    HW127659   3.187   2.526   9.106 -1.5871  1.7940 -1.5783
 5341SOL    HW227660   3.195   2.585   8.978 -1.0321  0.4585  0.4282
 5342SOL     OW27661   3.484   1.571   9.670  0.3050 -0.1934  0.3197
 5342SOL    HW127662   3.427   1.496   9.658 -0.4378  0.3684  0.3651
 5342SOL    HW227663   3.422   1.643   9.677 -0.5792 -0.8305 -0.9458
 5343SOL     OW27664   3.482   4.314   5.138 -0.7075  0.4406  0.4100
 5343SOL    HW127665   3.437   4.371   5.201 -0.8089  1.4831 -0.5975
 5343SOL    HW227666   3.550   4.371   5.103 -1.0409  0.5970  0.0120
 5344SOL     OW27667   4.297   3.551   4.680 -0.3918 -0.2387 -0.3153
 5344SOL    HW127668   4.299   3.559   4.776 -0.1304 -0.8380 -0.2766
 5344SOL    HW227669   4.390   3.541   4.661  0.4481  2.9963  1.9925
 5345SOL     OW27670   0.019   1.860   9.037  0.1265  0.1196  0.2691
 5345SOL    HW127671   0.040   1.949   9.066 -1.5073  0.5749  0.0513
 5345SOL    HW227672   4.667   1.867   9.004  1.1927 -0.4661 -2.7129
 5346SOL     OW27673   1.883   4.010   0.919  0.7663  0.0266 -0.6682
 5346SOL    HW127674   1.952   4.039   0.980 -0.5377  1.7099  0.0123
 5346SOL    HW227675   1.917   3.934   0.872 -0.4605 -1.7994  1.3539
 5347SOL     OW27676   2.029   1.572  11.333 -0.7491 -0.7159 -0.1220
 5347SOL    HW127677   2.015   1.667  11.333 -0.6931 -0.7018  1.2338
 5347SOL    HW227678   1.986   1.539  11.254 -1.2644  1.3097 -0.6856
 5348SOL     OW27679   1.370   3.756   8.284 -0.5693 -0.6992 -0.3535
 5348SOL    HW127680   1.335   3.766   8.195  1.5918  0.2758 -1.0942
 5348SOL    HW227681   1.454   3.801   8.279 -0.7668 -0.1864  1.1733
 5349SOL     OW27682   2.117   3.291   8.003 -0.3422  0.3447  0.7312
 5349SOL    HW127683   2.135   3.224   7.938  1.8728 -0.5406  2.2622
 5349SOL    HW227684   2.208   3.311   8.023  0.1934 -1.6375  0.2162
 5350SOL     OW27685   0.602   0.726  10.452  0.2037  0.1736 -0.4950
 5350SOL    HW127686   0.643   0.809  10.426 -3.6263  2.0532 -0.5615
 5350SOL    HW227687   0.528   0.720  10.392 -0.9657  2.5448  0.6968
 5351SOL     OW27688   0.172   2.290   6.554 -0.0490  0.2084  0.2896
 5351SOL    HW127689   0.230   2.364   6.537  1.0832 -0.6914  0.2180
 5351SOL    HW227690   0.201   2.221   6.494 -1.5924 -1.6290  1.6685
 5352SOL     OW27691   3.463   3.273  16.444  0.1029  0.3023  0.2037
 5352SOL    HW127692   3.484   3.244  16.533 -0.5576  1.0162  0.5952
 5352SOL    HW227693   3.546   3.284  16.398  0.8333 -1.7884  1.0395
 5353SOL     OW27694   4.324   4.264   6.914 -0.4451  0.2570  0.1703
 5353SOL    HW127695   4.344   4.300   7.001 -0.4061  0.2859  0.1494
 5353SOL    HW227696   4.339   4.170   6.922  0.8903  0.2957 -1.8606
 5354SOL     OW27697   1.507   0.322   7.507  0.0804 -0.1532  0.2634
 5354SOL    HW127698   1.546   0.408   7.492 -0.7227 -0.0112 -0.9991
 5354SOL    HW227699   1.457   0.338   7.588 -2.7022 -1.6588 -1.1291
 5355SOL     OW27700   3.893   0.762  11.555 -0.6295  0.2960 -0.1627
 5355SOL    HW127701   3.805   0.728  11.566 -0.4366  0.6867  2.6793
 5355SOL    HW227702   3.889   0.823  11.481  0.8230  0.1335 -0.3774
 5356SOL     OW27703   1.012   0.831   9.079  0.0057 -0.4786  0.0378
 5356SOL    HW127704   1.004   0.923   9.101  0.9812 -0.2185 -0.6868
 5356SOL    HW227705   1.105   0.806   9.085  0.2191  0.2765 -0.1241
 5357SOL     OW27706   4.273   0.216   3.026  0.3083 -0.6821  0.0716
 5357SOL    HW127707   4.271   0.232   3.121 -0.1874 -1.9112  0.2773
 5357SOL    HW227708   4.335   0.143   3.031 -0.0511 -0.9106  1.2655
 5358SOL     OW27709   0.925   2.071   9.554 -0.4142  0.5633  0.8324
 5358SOL    HW127710   1.011   2.040   9.525  0.9467  3.3362  1.9070
 5358SOL    HW227711   0.872   1.993   9.538 -0.4053  0.5849  0.6927
 5359SOL     OW27712   0.726   0.381  13.775 -0.3993 -0.3984 -0.0722
 5359SOL    HW127713   0.754   0.382  13.867 -0.8813  0.6952  0.0618
 5359SOL    HW227714   0.633   0.407  13.778 -0.0462  0.8436  0.2112
 5360SOL     OW27715   0.375   2.781   9.601 -0.3921  0.3285 -0.2424
 5360SOL    HW127716   0.315   2.763   9.673 -0.3296  1.3674  0.0705
 5360SOL    HW227717   0.377   2.693   9.563  0.4887  0.3825 -0.3294
 5361SOL     OW27718   0.838   4.435   2.186 -0.0066 -0.1612 -0.0794
 5361SOL    HW127719   0.910   4.495   2.205  1.2577 -1.1262 -1.8623
 5361SOL    HW227720   0.793   4.446   2.270 -1.4915 -0.1142 -0.8860
 5362SOL     OW27721   0.212   2.670   9.369  0.4034 -0.0399 -0.7261
 5362SOL    HW127722   0.143   2.712   9.317  1.0054  1.6798 -0.1530
 5362SOL    HW227723   0.285   2.721   9.336  0.2111  0.6832 -0.0414
 5363SOL     OW27724   0.295   2.895   5.181 -0.0216 -0.6268  0.5239
 5363SOL    HW127725   0.271   2.842   5.105  1.2302  0.2351 -0.4703
 5363SOL    HW227726   0.376   2.857   5.215  0.6995  1.9044  1.6188
 5364SOL     OW27727   3.721   1.448   4.863 -0.8098  0.2914  0.1191
 5364SOL    HW127728   3.771   1.529   4.856 -0.5304  0.0673 -0.4538
 5364SOL    HW227729   3.710   1.445   4.958 -0.4314 -1.3821  0.1055
 5365SOL     OW27730   3.016   0.605   6.029 -0.1358 -0.0266  0.3176
 5365SOL    HW127731   3.106   0.617   5.998 -0.1966  1.3591  0.7001
 5365SOL    HW227732   3.001   0.511   6.015 -1.5208 -0.1488  2.5866
 5366SOL     OW27733   1.866   3.661   6.719 -0.0999  0.1180 -0.4370
 5366SOL    HW127734   1.882   3.754   6.701  0.0472  0.1415 -0.1878
 5366SOL    HW227735   1.819   3.659   6.803  1.0067  1.8152  0.2322
 5367SOL     OW27736   3.260   2.097   3.638 -0.0843  0.1406  0.1188
 5367SOL    HW127737   3.336   2.122   3.586  1.1588  0.7061  2.1928
 5367SOL    HW227738   3.250   2.003   3.621 -1.3215  0.0498  1.3299
 5368SOL     OW27739   4.458   0.269  17.356  0.1391 -0.6129  0.1078
 5368SOL    HW127740   4.496   0.245  17.271 -1.7766  0.5322 -1.0876
 5368SOL    HW227741   4.377   0.217  17.351  0.0103 -0.3578 -0.4958
 5369SOL     OW27742   1.162   2.534   1.902  0.0153 -0.0284  0.6733
 5369SOL    HW127743   1.173   2.597   1.974  3.1087 -0.9877  1.0590
 5369SOL    HW227744   1.251   2.515   1.874 -0.6982 -2.2199 -0.1215
 5370SOL     OW27745   1.511   4.632  13.514 -0.0622 -0.6272 -0.2196
 5370SOL    HW127746   1.575   4.693  13.550  0.1027 -1.6584  1.2145
 5370SOL    HW227747   1.434   4.659  13.563  0.4962 -0.1477  0.3975
 5371SOL     OW27748   3.581   1.298   3.009  0.6122  0.4495  0.6863
 5371SOL    HW127749   3.631   1.278   2.930 -3.3090  0.7992 -1.8388
 5371SOL    HW227750   3.629   1.259   3.082  1.9459 -0.9491 -0.9162
 5372SOL     OW27751   2.522   1.086   4.532 -0.0945  0.7240  0.3422
 5372SOL    HW127752   2.524   1.027   4.608  0.6905  1.0012  0.5368
 5372SOL    HW227753   2.591   1.149   4.553  0.1190  1.0637 -1.4171
 5373SOL     OW27754   2.593   1.223  13.286 -0.9865  0.3569  0.2187
 5373SOL    HW127755   2.605   1.279  13.209  3.2329 -1.3054 -0.3831
 5373SOL    HW227756   2.668   1.249  13.339 -0.4947 -0.8979  0.1490
 5374SOL     OW27757   3.887   1.716   5.091  0.0419 -0.4183 -0.3851
 5374SOL    HW127758   3.950   1.645   5.104 -1.2177 -1.7490 -1.5467
 5374SOL    HW227759   3.850   1.718   5.179  1.5431 -0.1542  0.2368
 5375SOL     OW27760   1.133   2.782  10.697  0.0737 -0.0402 -0.2612
 5375SOL    HW127761   1.205   2.773  10.634 -0.8278  0.9051 -1.4358
 5375SOL    HW227762   1.067   2.732  10.649 -0.8819  0.5263  0.4741
 5376SOL     OW27763   3.171   4.348   2.926 -0.6476  0.1862  0.0827
 5376SOL    HW127764   3.251   4.336   2.977 -0.9203 -0.3242  0.3850
 5376SOL    HW227765   3.163   4.261   2.888  1.9444  0.1522 -0.4119
 5377SOL     OW27766   0.843   0.506   6.526  0.7934  0.2729  0.1472
 5377SOL    HW127767   0.813   0.421   6.556  2.7501 -0.6345 -0.4595
 5377SOL    HW227768   0.934   0.511   6.555  0.6511  0.4476  0.5618
 5378SOL     OW27769   1.416   1.490   5.992 -0.1817  0.2673 -0.1711
 5378SOL    HW127770   1.494   1.441   5.966 -0.3061  0.2184 -0.4481
 5378SOL    HW227771   1.414   1.563   5.930 -0.2696 -0.0550 -0.5428
 5379SOL     OW27772   3.364   0.007  13.312 -0.4121  0.2725  0.2035
 5379SOL    HW127773   3.448   0.034  13.349  0.4061 -2.0357  0.0611
 5379SOL    HW227774   3.362   4.655  13.346  2.4964 -0.1336 -0.6859
 5380SOL     OW27775   4.671   0.678   2.428 -0.4560 -0.6248  0.3527
 5380SOL    HW127776   4.613   0.601   2.429 -0.2058 -0.8179 -0.0130
 5380SOL    HW227777   4.609   0.751   2.419  1.8763  1.4358  1.2035
 5381SOL     OW27778   2.773   0.873   4.621  0.1689 -0.1195  0.2442
 5381SOL    HW127779   2.841   0.940   4.611 -1.5513  1.1908 -2.5535
 5381SOL    HW227780   2.763   0.836   4.533 -3.3162  0.8845  0.2181
 5382SOL     OW27781   4.713   4.179  13.625  0.0803  0.0701 -0.0891
 5382SOL    HW127782   0.069   4.165  13.609  0.5777  1.3464  1.6302
 5382SOL    HW227783   4.674   4.109  13.572 -2.5373  0.8419  0.8068
 5383SOL     OW27784   4.424   3.221   3.950 -0.1530  0.2108  0.0793
 5383SOL    HW127785   4.369   3.285   3.995  1.4827 -0.2328  2.6603
 5383SOL    HW227786   4.427   3.253   3.860  3.5096 -1.4443 -0.4073
 5384SOL     OW27787   0.884   0.199   5.973  0.1473  0.5363  0.5690
 5384SOL    HW127788   0.916   0.115   6.004 -0.2667  0.4999  0.8991
 5384SOL    HW227789   0.801   0.183   5.927 -0.5229  0.5115  1.7746
 5385SOL     OW27790   2.677   1.435   1.921 -0.2379 -0.2755 -0.6408
 5385SOL    HW127791   2.594   1.467   1.956 -0.3815 -0.2004 -1.0459
 5385SOL    HW227792   2.654   1.358   1.869 -0.4844  0.3862 -1.4975
 5386SOL     OW27793   1.364   2.785   1.098  0.2176 -0.4090 -0.3180
 5386SOL    HW127794   1.288   2.842   1.106  0.8549  0.2573  1.0887
 5386SOL    HW227795   1.329   2.715   1.153 -1.1585 -0.3063 -1.0544
 5387SOL     OW27796   0.842   0.288   9.041 -0.5406  0.2439  0.4019
 5387SOL    HW127797   0.819   0.303   9.132  0.1921 -1.0561  0.7903
 5387SOL    HW227798   0.904   0.358   9.022 -0.5580  0.2183  0.2490
 5388SOL     OW27799   4.309   2.675   2.321  0.3936 -0.6292  0.3263
 5388SOL    HW127800   4.389   2.625   2.303  0.3945  0.2340 -2.1184
 5388SOL    HW227801   4.264   2.654   2.239 -1.7789  1.2747  1.0221
 5389SOL     OW27802   2.453   0.625  13.939  0.0713  0.3606  0.0177
 5389SOL    HW127803   2.499   0.619  14.023 -0.8339  1.7069  0.6138
 5389SOL    HW227804   2.362   0.616  13.969 -0.0666  1.3997 -0.1097
 5390SOL     OW27805   3.467   3.847   5.887  1.0895 -0.3777  0.1700
 5390SOL    HW127806   3.407   3.913   5.852  1.4988 -0.4868 -0.7308
 5390SOL    HW227807   3.513   3.910   5.942 -0.5605 -0.3644  1.5427
 5391SOL     OW27808   1.219   0.063   3.398  0.8737 -0.1789 -0.8349
 5391SOL    HW127809   1.290   0.017   3.443  0.0725 -0.1462  0.4564
 5391SOL    HW227810   1.155   0.070   3.469  0.1409 -0.6835 -1.4488
 5392SOL     OW27811   0.662   2.688  10.615  0.3670 -0.5385 -0.2064
 5392SOL    HW127812   0.622   2.741  10.546  1.8236 -1.8501 -2.0327
 5392SOL    HW227813   0.632   2.598  10.601 -0.0669 -0.7938  2.2145
 5393SOL     OW27814   4.401   2.473   8.810 -0.6660  0.0366 -0.1421
 5393SOL    HW127815   4.371   2.539   8.747 -0.1107  0.6962  0.2893
 5393SOL    HW227816   4.451   2.414   8.755 -0.1278  1.0007 -0.6901
 5394SOL     OW27817   2.133   0.216   7.260  0.4808 -0.5141 -0.0511
 5394SOL    HW127818   2.078   0.137   7.261 -1.5387  0.8922 -1.7228
 5394SOL    HW227819   2.187   0.200   7.338  0.3144 -0.7590  0.0146
 5395SOL     OW27820   0.996   1.140   2.758 -0.3426 -0.0694  0.2262
 5395SOL    HW127821   0.947   1.072   2.711 -0.4007 -0.8462  1.3993
 5395SOL    HW227822   1.063   1.163   2.694 -2.2789 -0.7476 -2.0258
 5396SOL     OW27823   4.692   1.862  10.241  0.3601  0.0708 -0.1475
 5396SOL    HW127824   4.605   1.896  10.223  0.1719 -0.4264 -0.1557
 5396SOL    HW227825   4.685   1.871  10.336  1.2313 -2.9277  0.1913
 5397SOL     OW27826   0.751   4.026   1.651 -0.0640 -0.2135  0.1702
 5397SOL    HW127827   0.663   4.000   1.680 -0.7218 -0.6099 -2.1527
 5397SOL    HW227828   0.768   4.115   1.681  0.0442 -0.2327  0.1644
 5398SOL     OW27829   4.408   1.258   3.606  0.1193 -0.4507 -0.3339
 5398SOL    HW127830   4.417   1.353   3.613 -0.5326 -0.2935 -1.6496
 5398SOL    HW227831   4.323   1.260   3.561  0.2336  0.6396 -0.5125
 5399SOL     OW27832   2.905   2.576   5.377 -0.0184  0.0487 -0.1080
 5399SOL    HW127833   2.984   2.616   5.343 -1.4243  1.3773 -1.8324
 5399SOL    HW227834   2.931   2.534   5.459  0.3158  0.3401 -0.0675
 5400SOL     OW27835   4.541   0.742   8.690 -0.0327  0.0972  0.5075
 5400SOL    HW127836   4.490   0.661   8.688  0.4750 -0.2519  1.4487
 5400SOL    HW227837   4.473   0.792   8.735  1.2873  1.7960  0.6178
 5401SOL     OW27838   3.955   1.613   4.271  0.4387 -0.5088 -0.3499
 5401SOL    HW127839   3.960   1.570   4.186  0.4171  0.4080 -0.8188
 5401SOL    HW227840   3.873   1.663   4.268  0.2471 -0.7747  0.3697
 5402SOL     OW27841   2.732   1.803   7.872 -0.4233 -0.1237  0.0421
 5402SOL    HW127842   2.707   1.848   7.792 -0.1782 -0.8935 -0.4606
 5402SOL    HW227843   2.817   1.842   7.893 -0.3176  0.5526 -1.6801
 5403SOL     OW27844   2.445   2.264   4.130  0.4474  0.2417  0.0721
 5403SOL    HW127845   2.494   2.343   4.106 -0.1959  0.6878  0.2085
 5403SOL    HW227846   2.459   2.252   4.224  1.8315 -0.3595 -0.2053
 5404SOL     OW27847   2.860   3.040  17.464 -0.6439 -0.0362 -0.2807
 5404SOL    HW127848   2.903   3.022  17.548 -1.9321  0.7551  0.5465
 5404SOL    HW227849   2.908   2.979  17.407 -0.0737 -0.4361  0.6261
 5405SOL     OW27850   3.778   0.496  10.842  0.7530 -0.6557  0.0260
 5405SOL    HW127851   3.761   0.464  10.930  0.0678  2.0490  0.8707
 5405SOL    HW227852   3.703   0.553  10.825  2.0675  1.2619  0.6270
 5406SOL     OW27853   0.730   0.423   8.410  0.3791  1.0591 -0.1542
 5406SOL    HW127854   0.665   0.363   8.446  1.5435 -0.5136 -0.6545
 5406SOL    HW227855   0.694   0.439   8.323  2.4587  1.5530 -0.9225
 5407SOL     OW27856   3.246   4.186   1.906 -0.1245 -0.0044  0.2296
 5407SOL    HW127857   3.223   4.195   1.813  0.7320  0.6043  0.0857
 5407SOL    HW227858   3.192   4.111   1.933  1.9724 -1.1549  1.1998
 5408SOL     OW27859   0.962   3.376  16.162 -0.5605  0.3990 -0.6153
 5408SOL    HW127860   0.921   3.342  16.241  0.3554 -1.0843 -0.7723
 5408SOL    HW227861   0.974   3.469  16.177 -0.7934  0.3054  0.1393
 5409SOL     OW27862   4.343   3.614   2.561 -0.3409  0.0427 -0.6087
 5409SOL    HW127863   4.307   3.699   2.536 -0.5167  0.0339 -0.3946
 5409SOL    HW227864   4.320   3.627   2.653 -4.1284 -2.0281 -1.2503
 5410SOL     OW27865   2.726   3.106   8.517 -0.1690  0.0425 -0.0765
 5410SOL    HW127866   2.788   3.071   8.581  0.0967  2.5447  1.0250
 5410SOL    HW227867   2.666   3.145   8.580 -2.5880 -1.0684 -1.6930
 5411SOL     OW27868   4.493   1.877   2.705  0.0623 -0.1625  0.3223
 5411SOL    HW127869   4.463   1.967   2.715 -0.5450 -0.4749  1.3205
 5411SOL    HW227870   4.465   1.841   2.789  0.6526 -0.5792  0.3475
 5412SOL     OW27871   2.790   3.214  12.714  0.2154 -0.6663  0.1127
 5412SOL    HW127872   2.833   3.299  12.700  2.7961 -1.8461  0.9297
 5412SOL    HW227873   2.757   3.193  12.626  3.3412 -0.9493 -1.0231
 5413SOL     OW27874   3.342   2.185  15.231  0.2981  0.0423 -0.3595
 5413SOL    HW127875   3.261   2.199  15.278  1.4453  1.5084  1.1746
 5413SOL    HW227876   3.397   2.221  15.301  1.6704 -0.4322 -1.1795
 5414SOL     OW27877   1.563   3.893   9.930 -0.2641  0.6273 -0.3846
 5414SOL    HW127878   1.568   3.944   9.849 -0.3599  4.0431  1.7248
 5414SOL    HW227879   1.501   3.943   9.983  0.7942 -0.1013  1.5355
 5415SOL     OW27880   4.521   1.873  11.370 -0.6604  0.1138 -0.4848
 5415SOL    HW127881   4.429   1.897  11.386 -0.7807 -1.9258  1.9244
 5415SOL    HW227882   4.565   1.957  11.379  0.5447 -0.6919  1.1643
 5416SOL     OW27883   2.014   1.387  17.086 -0.0837 -0.7971  0.1957
 5416SOL    HW127884   2.083   1.451  17.068  0.8152 -1.7030  0.3334
 5416SOL    HW227885   1.956   1.388  17.010 -0.1705 -1.2677  0.2563
 5417SOL     OW27886   0.836   2.545   7.876  0.7514 -0.0179 -0.4841
 5417SOL    HW127887   0.782   2.517   7.950  1.0927  2.6882  0.7932
 5417SOL    HW227888   0.831   2.464   7.825 -1.1435  0.0277 -0.3571
 5418SOL     OW27889   4.381   0.221  14.179  0.1094 -0.1812  0.3117
 5418SOL    HW127890   4.451   0.181  14.230  1.0586 -0.5409 -1.2743
 5418SOL    HW227891   4.329   0.262  14.249 -1.0001 -1.7030  0.3758
 5419SOL     OW27892   4.247   3.683  14.690  0.2487 -0.4244  0.0496
 5419SOL    HW127893   4.241   3.778  14.680  0.4338 -0.5516 -1.3248
 5419SOL    HW227894   4.181   3.650  14.629 -0.8894  0.6833  0.6710
 5420SOL     OW27895   1.491   3.763   9.525 -0.5948 -0.1471 -0.2458
 5420SOL    HW127896   1.531   3.850   9.529  0.3290 -0.7341  2.9306
 5420SOL    HW227897   1.569   3.709   9.509 -0.9354 -1.2878  1.9807
 5421SOL     OW27898   0.381   0.696   2.218 -0.4971 -0.1739 -0.0859
 5421SOL    HW127899   0.473   0.709   2.240 -0.4987  0.7545 -0.6386
 5421SOL    HW227900   0.386   0.720   2.126 -0.4727 -1.0552 -0.3114
 5422SOL     OW27901   2.841   0.395   2.142 -0.1752  0.7522  0.5832
 5422SOL    HW127902   2.864   0.402   2.235 -0.5841 -3.4509  1.0350
 5422SOL    HW227903   2.765   0.338   2.153  0.7239 -0.4566  0.5430
 5423SOL     OW27904   0.631   0.496   5.991 -0.3803  0.0437  0.2084
 5423SOL    HW127905   0.612   0.488   6.084 -1.6736  2.3470  0.1299
 5423SOL    HW227906   0.580   0.422   5.957  0.7910 -0.1407 -1.1521
 5424SOL     OW27907   2.741   0.314   9.718  0.2977 -0.4595 -0.0288
 5424SOL    HW127908   2.796   0.379   9.762  0.4523 -0.9099  0.4550
 5424SOL    HW227909   2.796   0.307   9.640  0.3020 -0.9856  0.0181
 5425SOL     OW27910   3.070   0.452   7.517 -0.3193  0.1162 -0.0657
 5425SOL    HW127911   3.142   0.424   7.574 -0.0878  1.6672  0.3857
 5425SOL    HW227912   3.018   0.371   7.514 -0.8264  0.4395  0.0269
 5426SOL     OW27913   4.177   4.159   4.530  0.0139 -0.4544 -0.3735
 5426SOL    HW127914   4.231   4.086   4.500 -0.8282 -1.1848 -0.0907
 5426SOL    HW227915   4.154   4.194   4.444 -0.8408 -1.2450 -0.4607
 5427SOL     OW27916   3.377   4.441   4.353  0.0362  0.0148 -0.7789
 5427SOL    HW127917   3.307   4.448   4.288 -0.8096 -0.9199  0.0246
 5427SOL    HW227918   3.344   4.497   4.423 -0.9182 -0.4311 -0.8702
 5428SOL     OW27919   2.489   0.785   6.579  0.4278 -0.2126  0.5274
 5428SOL    HW127920   2.455   0.715   6.635  2.9544 -2.5858 -0.9215
 5428SOL    HW227921   2.550   0.828   6.640  1.5970  0.3624 -1.0510
 5429SOL     OW27922   3.287   2.776   1.514 -0.0546 -0.1165  0.6212
 5429SOL    HW127923   3.244   2.784   1.429 -2.2445  2.5123  1.9814
 5429SOL    HW227924   3.269   2.688   1.545 -2.7870 -0.1188 -0.9832
 5430SOL     OW27925   2.329   0.215   5.995 -0.0609 -0.6799 -0.0851
 5430SOL    HW127926   2.294   0.296   5.957  0.3014 -0.7413 -0.5534
 5430SOL    HW227927   2.291   0.219   6.082  0.6899 -1.5932  0.2870
 5431SOL     OW27928   0.130   3.736   6.905  0.1719 -0.4120 -0.6302
 5431SOL    HW127929   0.212   3.729   6.954  0.9939  3.2388 -1.5414
 5431SOL    HW227930   0.157   3.795   6.835  2.5563 -0.9747 -0.2008
 5432SOL     OW27931   2.424   1.732   7.948  0.7602  0.4349  0.4327
 5432SOL    HW127932   2.405   1.809   7.894 -2.0387  0.1098  0.9251
 5432SOL    HW227933   2.506   1.750   7.994 -0.8605 -0.7193  3.7739
 5433SOL     OW27934   1.011   4.026   0.716  0.1973 -0.0720  0.7231
 5433SOL    HW127935   0.968   3.981   0.643  0.4191  1.9398 -0.6514
 5433SOL    HW227936   1.021   3.955   0.779  0.4952  0.4285  1.2440
 5434SOL     OW27937   1.235   2.708   2.859 -0.3918  0.0394  0.1970
 5434SOL    HW127938   1.246   2.635   2.921 -1.1207  0.9372  1.3802
 5434SOL    HW227939   1.326   2.708   2.829 -1.2664  0.8102 -2.4585
 5435SOL     OW27940   0.710   0.197  12.333  0.3725 -0.4450 -0.3993
 5435SOL    HW127941   0.771   0.261  12.371  0.1027  0.9085 -2.2905
 5435SOL    HW227942   0.758   0.180  12.252  0.3510  1.7451 -0.8730
 5436SOL     OW27943   2.049   1.992  17.596  0.5071  0.5784 -0.1094
 5436SOL    HW127944   1.986   2.024  17.532  0.1090 -1.2639 -0.6150
 5436SOL    HW227945   1.990   1.963  17.666  0.0006 -1.3277 -1.3310
 5437SOL     OW27946   2.594   4.130   1.547  0.4196 -0.1366 -0.3429
 5437SOL    HW127947   2.649   4.135   1.625  0.6872 -0.5337 -0.5091
 5437SOL    HW227948   2.581   4.037   1.531  0.3318  0.1326 -1.8380
 5438SOL     OW27949   2.913   2.904   2.416 -0.0565  0.5207 -0.2777
 5438SOL    HW127950   2.958   2.853   2.483 -2.1832  0.3703  1.0054
 5438SOL    HW227951   2.941   2.853   2.339  0.0729 -0.6885  0.5803
 5439SOL     OW27952   1.652   0.321   2.698 -0.3278 -0.0946  0.2252
 5439SOL    HW127953   1.683   0.237   2.664 -2.2643 -1.2975  1.4243
 5439SOL    HW227954   1.732   0.365   2.671 -0.5256  0.7375  0.9766
 5440SOL     OW27955   1.809   2.216   2.258  0.7583  0.1956 -0.3348
 5440SOL    HW127956   1.901   2.238   2.273 -0.1147  3.1603  0.7685
 5440SOL    HW227957   1.764   2.249   2.336  2.1890  0.1364  0.5199
 5441SOL     OW27958   2.488   1.522   2.352 -0.2436 -0.0289 -0.7820
 5441SOL    HW127959   2.550   1.595   2.346  0.8669 -0.8392  0.9299
 5441SOL    HW227960   2.488   1.492   2.443 -2.6289  1.1321 -0.3846
 5442SOL     OW27961   4.216   3.032  17.342 -0.1464  0.2630 -0.2894
 5442SOL    HW127962   4.270   3.076  17.407 -0.2275 -1.5020  0.9910
 5442SOL    HW227963   4.188   3.112  17.299 -0.0629  0.5696  0.2267
 5443SOL     OW27964   0.279   3.658  17.484 -0.3381 -0.1928  0.0226
 5443SOL    HW127965   0.215   3.722  17.453 -0.4549  0.1932  1.0617
 5443SOL    HW227966   0.294   3.681  17.576  0.9535  1.8075 -0.6960
 5444SOL     OW27967   1.804   0.941   3.212 -0.2260  0.0938  0.2526
 5444SOL    HW127968   1.825   0.996   3.138 -0.2249 -0.4964 -0.1870
 5444SOL    HW227969   1.813   0.854   3.172 -1.3513 -0.3293  0.9139
 5445SOL     OW27970   1.081   0.633  15.180  0.2974  0.1817  0.8003
 5445SOL    HW127971   1.072   0.575  15.255  2.0260 -1.6305 -0.4059
 5445SOL    HW227972   1.058   0.577  15.107 -1.2285  2.0523 -0.1549
 5446SOL     OW27973   2.462   1.179   9.977 -0.5067 -0.7623  0.2144
 5446SOL    HW127974   2.466   1.112  10.045  1.8769 -1.2824 -0.4255
 5446SOL    HW227975   2.397   1.144   9.917 -1.6709  0.1388  0.9497
 5447SOL     OW27976   3.572   2.956   3.373  0.2110 -0.4058  0.3614
 5447SOL    HW127977   3.518   3.004   3.435  0.0647 -0.2901  0.1443
 5447SOL    HW227978   3.637   3.024   3.352 -0.7800 -0.1012 -1.7664
 5448SOL     OW27979   4.065   2.182   7.442  0.0975 -0.5617  0.4956
 5448SOL    HW127980   4.104   2.109   7.491 -0.1475 -0.9564  0.1019
 5448SOL    HW227981   4.143   2.215   7.398 -1.5959  1.0018 -1.3224
 5449SOL     OW27982   1.463   3.062   8.258 -0.0038 -0.2155 -0.0305
 5449SOL    HW127983   1.548   3.020   8.259  0.1799  0.1752  1.3772
 5449SOL    HW227984   1.479   3.132   8.195  0.1549  0.0685  0.3244
 5450SOL     OW27985   1.234   4.548   7.668  0.2594  0.3232 -0.1070
 5450SOL    HW127986   1.164   4.553   7.733 -0.3120 -0.0321 -0.7056
 5450SOL    HW227987   1.193   4.535   7.583 -0.7196 -1.4350  0.6167
 5451SOL     OW27988   0.692   2.938   3.552  0.5386  0.3149  0.4249
 5451SOL    HW127989   0.747   2.873   3.508 -0.3077 -0.8094  1.0151
 5451SOL    HW227990   0.603   2.914   3.528  0.4816 -1.3531  2.2342
 5452SOL     OW27991   0.503   1.121   3.303 -0.6942 -0.7393  0.5862
 5452SOL    HW127992   0.422   1.171   3.308  0.3860  1.1526 -1.0192
 5452SOL    HW227993   0.518   1.090   3.392  1.9121 -0.4513  0.2402
 5453SOL     OW27994   2.492   0.408  15.858 -0.7678 -0.4193  0.7363
 5453SOL    HW127995   2.434   0.440  15.788 -0.2331  2.6461  1.6679
 5453SOL    HW227996   2.575   0.446  15.830 -1.5957  1.0824  0.2679
 5454SOL     OW27997   0.883   0.121   3.475 -0.1628  0.2089 -0.1411
 5454SOL    HW127998   0.849   0.047   3.525  0.3319  0.4471  0.5575
 5454SOL    HW227999   0.812   0.184   3.483 -2.8076 -2.6844 -1.0047
 5455SOL     OW28000   3.493   0.658   5.555 -0.9249 -0.4933  0.3619
 5455SOL    HW128001   3.524   0.631   5.641 -2.5140  0.0881  1.1211
 5455SOL    HW228002   3.450   0.576   5.528  2.1222 -1.8468 -0.3056
 5456SOL     OW28003   1.208   0.704   3.521 -0.5431  0.0836 -0.7240
 5456SOL    HW128004   1.146   0.641   3.486 -2.1563  0.3426  1.6644
 5456SOL    HW228005   1.259   0.716   3.441 -0.4226  0.3605 -0.6085
 5457SOL     OW28006   2.358   0.854   1.096  0.5166 -0.5188 -0.4414
 5457SOL    HW128007   2.402   0.780   1.053 -0.5464 -0.0365 -2.3964
 5457SOL    HW228008   2.311   0.895   1.023  0.0567 -1.2207 -0.5478
 5458SOL     OW28009   2.392   4.271   8.520 -0.0344  0.2618 -0.6014
 5458SOL    HW128010   2.372   4.222   8.601 -3.0295  1.0350 -0.8615
 5458SOL    HW228011   2.487   4.272   8.516 -0.0105 -1.3314 -0.7505
 5459SOL     OW28012   4.452   4.628   3.224 -0.5793 -0.7689 -0.4420
 5459SOL    HW128013   4.465   4.541   3.262 -1.0820 -0.4538  0.4405
 5459SOL    HW228014   4.358   4.621   3.209 -0.8877  1.4493  0.5548
 5460SOL     OW28015   1.627   2.090   3.141  0.0906 -0.6704 -0.3484
 5460SOL    HW128016   1.607   2.014   3.196  0.0150 -0.6534 -0.3527
 5460SOL    HW228017   1.545   2.116   3.099 -0.4614 -2.3251 -0.2932
 5461SOL     OW28018   4.129   3.467   3.311  0.2325 -0.3037  0.3905
 5461SOL    HW128019   4.143   3.373   3.316  1.7895 -0.0683  0.5605
 5461SOL    HW228020   4.187   3.486   3.238 -1.5991  1.9194 -0.4907
 5462SOL     OW28021   0.368   3.474  15.516 -0.2755  0.2324  0.1950
 5462SOL    HW128022   0.351   3.391  15.471 -2.1332  0.6798  0.0736
 5462SOL    HW228023   0.322   3.457  15.598  1.1505 -0.6945  0.8092
 5463SOL     OW28024   3.040   3.654  15.115 -0.5894  0.6552  0.4845
 5463SOL    HW128025   3.058   3.674  15.023  1.9688  2.7832  1.4417
 5463SOL    HW228026   2.946   3.671  15.119 -0.5866  0.6539  0.5506
 5464SOL     OW28027   2.070   4.566   9.035  0.4508  0.0359 -0.5371
 5464SOL    HW128028   2.100   4.503   8.969  0.0796 -0.5092 -0.1758
 5464SOL    HW228029   2.135   4.544   9.101 -0.8330 -3.5049 -0.4663
 5465SOL     OW28030   0.886   0.075   4.867 -0.1149  0.1395  0.1634
 5465SOL    HW128031   0.825   0.067   4.940 -0.4530 -2.2452 -0.3602
 5465SOL    HW228032   0.823   0.044   4.802  1.3659 -0.4772 -0.9903
 5466SOL     OW28033   0.126   1.686   8.809  0.9082  0.7171 -0.4004
 5466SOL    HW128034   0.205   1.652   8.851  0.9296 -0.8080 -1.6554
 5466SOL    HW228035   0.108   1.758   8.868  1.4153  0.1652  0.4280
 5467SOL     OW28036   2.841   0.271   3.138  0.3007 -0.1925  0.2718
 5467SOL    HW128037   2.853   0.177   3.125 -0.0431 -0.1653 -0.2739
 5467SOL    HW228038   2.917   0.317   3.101  0.1734  0.7700  1.2234
 5468SOL     OW28039   0.046   1.154  15.519  0.3278  0.2860  0.1983
 5468SOL    HW128040   0.020   1.083  15.577  0.8288 -0.0086  0.0633
 5468SOL    HW228041   0.141   1.140  15.516  0.2991  0.5910 -1.9152
 5469SOL     OW28042   4.661   0.395  14.441  0.2685 -0.4982  0.2576
 5469SOL    HW128043   4.714   0.371  14.516 -1.5699  0.6303  1.9226
 5469SOL    HW228044   4.604   0.466  14.471  2.0360  1.0017  0.0005
 5470SOL     OW28045   1.781   0.588   0.663 -0.0302 -0.0842  0.3410
 5470SOL    HW128046   1.749   0.530   0.594 -0.9734 -1.6974  2.1365
 5470SOL    HW228047   1.846   0.632   0.608  0.9638 -3.5615 -1.2755
 5471SOL     OW28048   2.079   1.016  10.991 -0.3626  0.3044 -0.3570
 5471SOL    HW128049   1.986   1.019  10.967 -0.2921 -2.1350 -0.9962
 5471SOL    HW228050   2.078   1.032  11.086  1.7942 -2.7577  0.1758
 5472SOL     OW28051   2.764   2.072   5.975  0.2681 -0.6249  0.3281
 5472SOL    HW128052   2.787   2.017   6.050  1.5809 -0.9307 -0.3072
 5472SOL    HW228053   2.748   2.151   6.026  0.6538 -0.3252 -0.0155
 5473SOL     OW28054   3.811   2.320   2.735 -0.2155 -0.4651 -0.1881
 5473SOL    HW128055   3.879   2.387   2.729  0.5378 -1.0935  1.1623
 5473SOL    HW228056   3.791   2.324   2.642 -1.6845 -2.4682  0.0476
 5474SOL     OW28057   1.011   1.934   3.930  0.4355  0.0703  0.7642
 5474SOL    HW128058   1.011   1.858   3.988 -1.7668 -0.2821  0.2955
 5474SOL    HW228059   1.028   2.004   3.993 -1.6311  2.8340 -1.7328
 5475SOL     OW28060   2.666   1.100   0.312 -0.0421  0.0702 -0.6710
 5475SOL    HW128061   2.600   1.140   0.256 -0.7965 -1.6214 -1.0110
 5475SOL    HW228062   2.721   1.052   0.250 -0.2296 -1.8662  0.6548
 5476SOL     OW28063   1.598   0.703   4.308 -0.2160 -0.5781 -0.0640
 5476SOL    HW128064   1.537   0.631   4.290 -1.3101  0.1451  0.8509
 5476SOL    HW228065   1.616   0.732   4.219  0.5824  2.3276  1.0641
 5477SOL     OW28066   1.851   4.100   4.750 -0.2100 -0.1595  0.1100
 5477SOL    HW128067   1.772   4.079   4.701 -2.5134  1.4789  3.1343
 5477SOL    HW228068   1.819   4.179   4.793 -0.6424 -0.9886  1.3074
 5478SOL     OW28069   2.288   4.078  13.846  0.1836 -0.2258  0.5974
 5478SOL    HW128070   2.277   4.096  13.753 -1.2259 -1.0053  0.6214
 5478SOL    HW228071   2.361   4.135  13.870  0.2381 -0.2283  0.4381
 5479SOL     OW28072   3.831   3.065  10.541  0.0361  0.3463  0.1900
 5479SOL    HW128073   3.880   3.089  10.620  0.9387 -2.1367  0.3830
 5479SOL    HW228074   3.758   3.012  10.574 -1.2756  1.5705 -0.7261
 5480SOL     OW28075   3.464   2.647   6.019 -0.0272 -0.0021 -0.0679
 5480SOL    HW128076   3.534   2.634   5.956 -1.8848  1.0620 -2.3386
 5480SOL    HW228077   3.497   2.717   6.076 -0.8840  3.1815 -3.4942
 5481SOL     OW28078   4.252   0.692   2.311  0.3396 -0.3412  0.3053
 5481SOL    HW128079   4.190   0.752   2.353 -0.0107 -0.8784  0.5524
 5481SOL    HW228080   4.333   0.741   2.326 -0.6540  2.1701 -2.6319
 5482SOL     OW28081   0.801   2.525   4.927 -0.8099 -0.2049  0.0926
 5482SOL    HW128082   0.777   2.548   4.838 -0.8185 -1.7292 -0.3134
 5482SOL    HW228083   0.714   2.524   4.965  0.3752 -0.8629  2.7945
 5483SOL     OW28084   1.370   1.042   6.639  0.1148  0.1774  0.1765
 5483SOL    HW128085   1.303   1.110   6.649 -0.3777 -0.1869 -0.6043
 5483SOL    HW228086   1.433   1.047   6.711  0.2066 -2.9046  0.2876
 5484SOL     OW28087   1.222   2.754   2.029 -0.3096  0.5042  0.7271
 5484SOL    HW128088   1.180   2.840   2.026 -2.5892 -0.6434 -0.1511
 5484SOL    HW228089   1.251   2.756   2.120  1.1689 -0.2760  0.2782
 5485SOL     OW28090   3.051   3.274   3.093  0.0980  0.4816 -0.3779
 5485SOL    HW128091   2.999   3.237   3.022 -2.4347 -0.4428  1.9641
 5485SOL    HW228092   2.999   3.342   3.134  0.9304 -0.6469  2.5202
 5486SOL     OW28093   0.742   4.268   5.795 -0.0212 -0.1726 -0.6648
 5486SOL    HW128094   0.835   4.278   5.817 -1.0536  3.1993  2.2687
 5486SOL    HW228095   0.726   4.344   5.739  1.0823  0.5533  0.0018
 5487SOL     OW28096   1.241   4.228   8.697  0.2748  0.4042 -0.2067
 5487SOL    HW128097   1.326   4.247   8.738 -0.6326  0.3076  1.7261
 5487SOL    HW228098   1.191   4.305   8.724 -2.0245 -0.7087 -1.2741
 5488SOL     OW28099   3.366   2.404   5.165  0.0926 -0.4233 -0.6452
 5488SOL    HW128100   3.287   2.349   5.169 -0.2159  0.1260  0.9492
 5488SOL    HW228101   3.343   2.487   5.206  1.8535 -0.2092 -0.0826
 5489SOL     OW28102   4.415   4.565  17.415 -0.5005 -0.7803  0.6405
 5489SOL    HW128103   4.375   4.487  17.377 -1.3578 -0.2185  0.3961
 5489SOL    HW228104   4.337   4.607  17.451 -0.8995 -0.2044 -0.8789
 5490SOL     OW28105   3.215   3.211   1.352 -0.4391  0.1871  0.1876
 5490SOL    HW128106   3.205   3.234   1.260 -2.4348 -0.8175  0.1477
 5490SOL    HW228107   3.154   3.278   1.382 -0.6373  1.4014 -2.9322
 5491SOL     OW28108   2.314   4.342   4.603 -0.4267  0.3544 -0.0092
 5491SOL    HW128109   2.225   4.342   4.639 -1.2234 -0.6810 -2.0201
 5491SOL    HW228110   2.346   4.254   4.623  0.3529  0.4774 -0.7167
 5492SOL     OW28111   0.118   4.221   6.483  0.5244  0.4367 -0.1056
 5492SOL    HW128112   0.153   4.286   6.421  0.3804  2.3853  1.8824
 5492SOL    HW228113   0.168   4.144   6.452 -0.5262  0.9356 -3.0399
 5493SOL     OW28114   1.196   4.180   2.034 -0.1934  0.4876  0.5407
 5493SOL    HW128115   1.148   4.102   2.061  1.9376 -0.4114  1.7225
 5493SOL    HW228116   1.284   4.143   2.037 -0.9065 -1.3161 -1.0744
 5494SOL     OW28117   2.803   4.174   8.376 -0.0337 -0.4517  0.1334
 5494SOL    HW128118   2.898   4.175   8.364 -0.2867  2.3932 -1.6278
 5494SOL    HW228119   2.781   4.092   8.332  0.3404 -0.7802  0.5639
 5495SOL     OW28120   1.856   0.765   8.902  0.5856 -0.5277 -0.1434
 5495SOL    HW128121   1.896   0.679   8.897  2.5424  0.2754  1.3800
 5495SOL    HW228122   1.766   0.742   8.923  0.4131  0.3932  0.1480
 5496SOL     OW28123   3.490   3.590  17.523  0.2816 -0.0862  0.1214
 5496SOL    HW128124   3.456   3.628  17.604 -1.0317 -1.0122  0.0084
 5496SOL    HW228125   3.487   3.496  17.544 -2.0008 -0.5130 -2.0917
 5497SOL     OW28126   1.637   4.376   3.794  0.3091 -0.6398  0.1700
 5497SOL    HW128127   1.602   4.459   3.764  0.0671 -0.8700 -0.1811
 5497SOL    HW228128   1.726   4.390   3.827  0.6335 -1.5744 -0.3187
 5498SOL     OW28129   2.643   4.454   8.695  0.0040 -0.1429 -0.4837
 5498SOL    HW128130   2.705   4.524   8.715 -0.4571  0.1098  0.0606
 5498SOL    HW228131   2.692   4.371   8.693 -0.1472 -0.2716  1.3512
 5499SOL     OW28132   0.559   4.019  12.714  0.4242 -0.0582 -0.0075
 5499SOL    HW128133   0.628   4.080  12.738 -0.6573  2.0578 -2.3209
 5499SOL    HW228134   0.544   4.042  12.623 -1.1255 -0.4674  0.1395
 5500SOL     OW28135   4.442   0.099  16.894 -0.1100  0.4720  0.6073
 5500SOL    HW128136   4.347   0.085  16.898 -0.3073  1.4306 -0.7432
 5500SOL    HW228137   4.476   0.028  16.948 -0.2306 -0.5182 -0.6251
 5501SOL     OW28138   3.190   4.085   2.858 -0.2434  0.2651 -0.3792
 5501SOL    HW128139   3.270   4.041   2.830 -0.5470 -1.0743  0.8917
 5501SOL    HW228140   3.152   4.024   2.920  1.6965 -0.4591  0.0814
 5502SOL     OW28141   2.247   4.143  13.560 -0.3492  0.1404 -0.3323
 5502SOL    HW128142   2.184   4.082  13.520 -0.3030 -0.6440  0.8070
 5502SOL    HW228143   2.230   4.219  13.503 -2.4863 -0.2571 -0.2194
 5503SOL     OW28144   2.510   3.977   7.913 -1.0415 -0.3766  0.0184
 5503SOL    HW128145   2.490   4.021   7.830  0.5305  0.7542  0.2359
 5503SOL    HW228146   2.605   3.984   7.911 -1.0161 -0.1323  2.0990
 5504SOL     OW28147   4.345   0.925   1.763  0.0864 -0.1954 -0.2807
 5504SOL    HW128148   4.338   0.851   1.823 -0.9338 -0.8947 -1.2766
 5504SOL    HW228149   4.266   0.934   1.710 -0.0762  3.1795  0.5531
 5505SOL     OW28150   1.722   2.544   2.273  0.1270 -0.0856  0.4180
 5505SOL    HW128151   1.797   2.509   2.226  1.8017 -0.7119  3.5457
 5505SOL    HW228152   1.770   2.555   2.355  0.3755 -0.2747  0.2980
 5506SOL     OW28153   1.970   0.345   0.614  0.2417 -0.9133  0.6839
 5506SOL    HW128154   1.915   0.344   0.535 -0.8101 -0.1228  1.4003
 5506SOL    HW228155   2.038   0.404   0.583 -0.0962  0.0641  1.7883
 5507SOL     OW28156   4.094   0.972  15.110  0.2588 -0.3088  0.3946
 5507SOL    HW128157   4.144   1.003  15.035 -1.1472 -0.8645 -0.7693
 5507SOL    HW228158   4.001   0.976  15.090  0.4767 -0.0445 -0.5296
 5508SOL     OW28159   2.251   3.196   5.677  0.2467  0.1939 -0.4119
 5508SOL    HW128160   2.195   3.150   5.740  4.0179 -1.3159  1.8526
 5508SOL    HW228161   2.261   3.278   5.725  1.3577  0.1501 -0.5734
 5509SOL     OW28162   4.370   3.379  11.184  0.2420  0.0336 -0.4565
 5509SOL    HW128163   4.436   3.413  11.125  0.5824  0.1049 -0.0388
 5509SOL    HW228164   4.379   3.436  11.261 -1.0282 -1.3202  0.7032
 5510SOL     OW28165   0.824   2.285  14.081 -0.0594 -0.1590  0.0337
 5510SOL    HW128166   0.896   2.348  14.084 -1.7599  1.6478  1.9353
 5510SOL    HW228167   0.836   2.244  13.995 -0.9678  1.2251 -0.7342
 5511SOL     OW28168   2.382   1.308   2.014 -0.1965 -0.0778  0.0404
 5511SOL    HW128169   2.319   1.299   1.943 -0.8299 -0.2258  0.6246
 5511SOL    HW228170   2.341   1.242   2.070  0.2685  1.7783  2.5902
 5512SOL     OW28171   2.528   0.190   7.367  0.0736 -0.0938  0.3200
 5512SOL    HW128172   2.498   0.215   7.279 -0.7538 -0.2665  0.5579
 5512SOL    HW228173   2.449   0.214   7.416 -0.2919  1.1633 -0.8706
 5513SOL     OW28174   4.194   3.807   6.801  0.7483 -0.8137  0.2944
 5513SOL    HW128175   4.131   3.744   6.837  0.1855 -0.8630 -0.7515
 5513SOL    HW228176   4.256   3.749   6.758 -0.7357 -2.0050 -0.2540
 5514SOL     OW28177   1.256   4.224  13.739 -0.2970  0.7616 -0.4109
 5514SOL    HW128178   1.199   4.222  13.815  0.4483 -0.0417  0.1289
 5514SOL    HW228179   1.193   4.195  13.673  0.8474  0.1883 -1.2615
 5515SOL     OW28180   1.604   3.496   2.802 -0.5689  0.5131  0.5216
 5515SOL    HW128181   1.557   3.421   2.840 -0.4215 -0.8511 -1.9770
 5515SOL    HW228182   1.680   3.487   2.859 -1.2058  0.1539  1.3066
 5516SOL     OW28183   0.548   0.272   8.568 -0.2026  0.2473  0.4221
 5516SOL    HW128184   0.554   0.179   8.546 -2.5433  0.0944  0.4515
 5516SOL    HW228185   0.624   0.284   8.624 -0.9937  2.1765  1.0721
 5517SOL     OW28186   0.053   1.672   3.500  0.0070  0.5805  0.1703
 5517SOL    HW128187   0.136   1.635   3.469 -0.9539 -1.9528  0.6824
 5517SOL    HW228188   0.077   1.751   3.549 -0.3987 -0.1507  1.5286
 5518SOL     OW28189   4.623   2.839   8.191 -0.0984  0.2724  0.7890
 5518SOL    HW128190   4.581   2.916   8.230 -2.1845 -0.2599 -0.4581
 5518SOL    HW228191   4.585   2.837   8.103 -0.7272 -2.2488  1.1418
 5519SOL     OW28192   0.962   3.725   7.206 -0.4284  0.6999  0.2771
 5519SOL    HW128193   0.984   3.795   7.267 -0.3633 -0.2998  1.3965
 5519SOL    HW228194   0.935   3.768   7.125  0.5014  1.1771  0.2241
 5520SOL     OW28195   4.396   4.424   1.473  0.0534 -0.2093  0.0520
 5520SOL    HW128196   4.308   4.452   1.497  0.2019 -0.6760  1.1731
 5520SOL    HW228197   4.379   4.406   1.381  0.2642  0.4385 -0.1070
 5521SOL     OW28198   0.782   2.088   5.582  0.2166  0.0940 -0.3993
 5521SOL    HW128199   0.718   2.159   5.580  0.0219 -0.0096  2.6952
 5521SOL    HW228200   0.742   2.026   5.643  0.1205  1.4620  0.9306
 5522SOL     OW28201   3.124   3.639   3.435 -0.0724 -0.3038  0.6148
 5522SOL    HW128202   3.125   3.583   3.513 -0.7523 -0.0167  0.8291
 5522SOL    HW228203   3.070   3.593   3.371 -1.3920  0.0276  1.5017
 5523SOL     OW28204   3.431   4.453  10.635  0.3757  0.3452  0.2783
 5523SOL    HW128205   3.376   4.513  10.685 -0.3755 -0.8657  0.8975
 5523SOL    HW228206   3.401   4.468  10.545 -0.7089 -1.4230  0.3653
 5524SOL     OW28207   2.763   1.955   0.409  0.4406  0.1030 -0.5021
 5524SOL    HW128208   2.805   2.030   0.452 -2.2099  0.6907  1.0946
 5524SOL    HW228209   2.730   1.913   0.489  0.9071  2.0684  0.7254
 5525SOL     OW28210   1.028   4.582   9.491  0.4030  0.0170  0.2576
 5525SOL    HW128211   1.034   4.575   9.396 -1.6979 -0.3792  0.1393
 5525SOL    HW228212   0.966   4.510   9.506 -0.6906  1.1751  1.3790
 5526SOL     OW28213   4.210   3.684   2.224  0.3563  0.4300 -0.2235
 5526SOL    HW128214   4.290   3.710   2.269 -0.1146 -0.9077  1.3726
 5526SOL    HW228215   4.153   3.742   2.274  0.0406 -0.5458  0.5367
 5527SOL     OW28216   1.256   2.610   0.825 -0.1855 -0.3418  0.2586
 5527SOL    HW128217   1.163   2.598   0.843 -0.3469  0.6920  0.1549
 5527SOL    HW228218   1.259   2.703   0.851 -2.7989 -0.1421 -0.1072
 5528SOL     OW28219   1.107   2.605  13.543  0.0365 -0.6648  0.0965
 5528SOL    HW128220   1.197   2.579  13.522 -0.4553 -1.5839 -0.8659
 5528SOL    HW228221   1.087   2.545  13.615  0.9915  0.2651  1.1378
 5529SOL     OW28222   1.575   2.549   7.353  0.1339  0.1239 -0.1703
 5529SOL    HW128223   1.498   2.557   7.410  0.3354 -0.3567  0.1736
 5529SOL    HW228224   1.618   2.471   7.389  1.5461  0.3110 -1.4541
 5530SOL     OW28225   2.468   1.833   3.248 -0.5683  0.4875 -0.3556
 5530SOL    HW128226   2.526   1.907   3.267  0.8552 -1.0646  1.4284
 5530SOL    HW228227   2.384   1.872   3.272 -0.7807  1.5275 -2.8893
 5531SOL     OW28228   2.811   0.941   0.652 -0.5631 -0.3792  0.0350
 5531SOL    HW128229   2.837   0.915   0.740 -0.4853 -2.0224 -0.4749
 5531SOL    HW228230   2.783   0.862   0.605  0.0713 -0.8180  0.4070
 5532SOL     OW28231   3.804   0.243   4.597 -0.3669  0.1149 -0.5376
 5532SOL    HW128232   3.714   0.250   4.629 -0.1174 -0.8243  0.3943
 5532SOL    HW228233   3.813   0.148   4.600 -2.7450 -0.0695  1.1025
 5533SOL     OW28234   1.187   0.667   7.141 -0.4744 -0.2137  0.2154
 5533SOL    HW128235   1.175   0.710   7.057 -1.3601 -1.2516 -0.1885
 5533SOL    HW228236   1.120   0.599   7.132  0.2644 -0.7737 -1.1464
 5534SOL     OW28237   3.567   4.476   9.052 -0.4296  0.8567 -0.4343
 5534SOL    HW128238   3.635   4.450   8.989 -1.4765 -1.8950 -0.4403
 5534SOL    HW228239   3.616   4.461   9.133  1.0577 -0.1705 -1.5173
 5535SOL     OW28240   4.485   2.564   3.389  0.2341  0.0999 -0.3990
 5535SOL    HW128241   4.457   2.543   3.300  1.2073 -0.8929 -0.4702
 5535SOL    HW228242   4.467   2.487   3.443 -1.5894 -0.2665 -1.5436
 5536SOL     OW28243   2.216   1.677   9.897 -0.1374 -0.5193  0.4121
 5536SOL    HW128244   2.280   1.687   9.827 -1.9607 -0.9703 -1.3177
 5536SOL    HW228245   2.196   1.769   9.918 -0.1080 -0.4609  0.1805
 5537SOL     OW28246   0.658   2.602   2.168 -0.5017  0.0981  0.3272
 5537SOL    HW128247   0.608   2.684   2.168  0.1594  0.5038  0.4008
 5537SOL    HW228248   0.691   2.596   2.078  2.6442  2.0671  1.3514
 5538SOL     OW28249   1.782   4.055   4.219  0.1250 -0.2983  0.2905
 5538SOL    HW128250   1.719   4.119   4.186  3.0652  1.2033 -2.4955
 5538SOL    HW228251   1.866   4.102   4.218 -0.1870  0.2280 -1.0164
 5539SOL     OW28252   4.334   1.631   7.296  0.2837  0.2693  0.0013
 5539SOL    HW128253   4.418   1.672   7.277 -0.8462  2.6108  0.0903
 5539SOL    HW228254   4.304   1.671   7.377 -0.6373  0.3689 -0.3834
 5540SOL     OW28255   1.321   4.719   8.089 -0.3281 -0.1686 -0.1316
 5540SOL    HW128256   1.311   0.077   8.079  0.4053  0.1594  2.2307
 5540SOL    HW228257   1.413   4.716   8.113 -0.6215  0.1773  1.0955
 5541SOL     OW28258   2.036   3.690  17.648  0.2818 -0.5304 -0.2079
 5541SOL    HW128259   2.095   3.752  17.606 -1.1820  1.0981  0.1843
 5541SOL    HW228260   1.956   3.729  17.613  0.7412  0.4950 -0.0970
 5542SOL     OW28261   4.237   1.232   6.048 -0.6279  0.1022 -0.4151
 5542SOL    HW128262   4.261   1.235   6.140 -0.2533 -2.0649 -0.4479
 5542SOL    HW228263   4.258   1.318   6.012  0.1591  0.4818  0.9477
 5543SOL     OW28264   2.383   4.642   2.473  0.0229 -0.1146  0.0548
 5543SOL    HW128265   2.374   4.556   2.516 -1.4310  0.1547  0.2730
 5543SOL    HW228266   2.435   4.685   2.541 -2.0923  3.0539 -0.3728
 5544SOL     OW28267   3.918   2.427  12.871  0.2377  0.0879  0.3162
 5544SOL    HW128268   3.840   2.372  12.873 -1.7280  2.8576  0.8682
 5544SOL    HW228269   3.961   2.408  12.954 -0.3436 -0.8423  0.3990
 5545SOL     OW28270   0.059   2.164   4.397  0.4751 -0.0832 -0.4532
 5545SOL    HW128271   0.059   2.069   4.381 -2.3481 -0.2002  0.3245
 5545SOL    HW228272   0.150   2.177   4.369 -0.2617  3.9154 -0.9370
 5546SOL     OW28273   2.469   1.694  12.927 -0.1749  0.3788 -0.2949
 5546SOL    HW128274   2.488   1.723  13.016 -0.6087  2.1589 -0.7942
 5546SOL    HW228275   2.561   1.695  12.903 -0.0694  0.5599  0.1329
 5547SOL     OW28276   4.297   3.919   4.321 -0.0131  0.6693 -0.1815
 5547SOL    HW128277   4.279   3.953   4.233  0.8093 -1.2788 -1.1040
 5547SOL    HW228278   4.273   3.827   4.311 -0.3491  0.8327 -0.9073
 5548SOL     OW28279   2.639   0.755   0.904  0.0100  0.2019 -0.1661
 5548SOL    HW128280   2.627   0.671   0.861  0.1931 -0.8541  1.8701
 5548SOL    HW228281   2.557   0.800   0.886 -0.1898  0.5015  1.5505
 5549SOL     OW28282   4.276   2.234   4.388 -0.1749 -0.3626 -0.0476
 5549SOL    HW128283   4.355   2.185   4.408  0.3883  0.9826  1.0509
 5549SOL    HW228284   4.227   2.163   4.346  0.9204 -1.1516  0.0297
 5550SOL     OW28285   0.442   3.428  15.980  0.4367 -0.1046 -0.2475
 5550SOL    HW128286   0.433   3.522  15.967 -0.8015 -0.4029 -1.6110
 5550SOL    HW228287   0.533   3.412  15.954  0.3614  0.1280 -0.6544
 5551SOL     OW28288   1.820   4.704   9.589  0.1813 -0.5384 -0.0144
 5551SOL    HW128289   1.827   0.010   9.674 -1.0200  0.7253 -0.5526
 5551SOL    HW228290   1.766   0.035   9.549 -0.3490 -1.0970 -0.2462
 5552SOL     OW28291   4.434   1.043   3.039  0.0825 -0.0295  0.2325
 5552SOL    HW128292   4.473   1.131   3.035  0.3991 -0.2155 -0.8834
 5552SOL    HW228293   4.343   1.059   3.014 -0.4204  0.4090  2.3770
 5553SOL     OW28294   3.304   2.271   8.889 -0.2553 -0.0811  0.1395
 5553SOL    HW128295   3.295   2.362   8.917 -1.5164 -0.3862  0.7089
 5553SOL    HW228296   3.231   2.227   8.932  0.1369 -1.3098 -0.4296
 5554SOL     OW28297   2.083   3.897   5.343  0.2587  0.1898  0.3844
 5554SOL    HW128298   2.159   3.858   5.385  0.7351 -0.5288 -1.1273
 5554SOL    HW228299   2.092   3.859   5.255 -1.7641  0.0476  0.2442
 5555SOL     OW28300   3.029   2.146   3.000  0.0001 -0.1226  0.2156
 5555SOL    HW128301   3.103   2.131   2.941  1.1224  1.4520  1.2025
 5555SOL    HW228302   3.066   2.205   3.066  1.5118 -1.2533  0.3763
 5556SOL     OW28303   3.632   4.596   5.294  0.2712  0.3106  0.0405
 5556SOL    HW128304   3.660   4.624   5.381 -0.8232  0.2069  0.4212
 5556SOL    HW228305   3.684   4.517   5.276  0.9908  0.6333  0.6941
 5557SOL     OW28306   2.140   2.255   1.525 -0.4047 -0.3456  0.3723
 5557SOL    HW128307   2.228   2.281   1.499  0.1066 -1.3363  1.1211
 5557SOL    HW228308   2.106   2.205   1.451  1.3099  0.0240 -0.6593
 5558SOL     OW28309   0.161   0.378   7.476  0.4510 -0.4200  0.2838
 5558SOL    HW128310   0.181   0.305   7.535  0.1811 -1.1146 -0.4980
 5558SOL    HW228311   0.244   0.426   7.485  0.2593  0.2412 -1.4611
 5559SOL     OW28312   3.041   3.541   8.418 -0.0599  0.6963  0.3944
 5559SOL    HW128313   3.020   3.451   8.442  0.1205  0.4391 -0.4203
 5559SOL    HW228314   2.971   3.550   8.354 -0.5871 -0.7992  0.7704
 5560SOL     OW28315   3.316   2.401   0.450  0.4099 -0.1040  0.3596
 5560SOL    HW128316   3.275   2.319   0.424  0.6051  0.0729 -0.5152
 5560SOL    HW228317   3.360   2.379   0.532 -1.4116 -1.2853  1.0183
 5561SOL     OW28318   3.696   0.236   7.439 -0.1755 -0.3059  0.1059
 5561SOL    HW128319   3.717   0.199   7.525  2.9921 -1.0209 -0.9734
 5561SOL    HW228320   3.685   0.154   7.392 -1.2122  0.8489 -1.6643
 5562SOL     OW28321   0.054   3.418   0.151  0.5167  0.1531  0.0642
 5562SOL    HW128322   0.027   3.486   0.212 -0.2145 -0.3251  0.2799
 5562SOL    HW228323   0.066   3.347   0.214  1.8335  1.3027  1.0949
 5563SOL     OW28324   2.985   0.174   2.856  0.1166  0.2138 -0.5259
 5563SOL    HW128325   3.040   0.217   2.790  0.9680 -1.5769 -1.0212
 5563SOL    HW228326   3.033   0.211   2.930  0.8537 -0.4307 -0.6701
 5564SOL     OW28327   2.612   4.694   8.001 -0.1167 -0.1056  0.4347
 5564SOL    HW128328   2.521   4.667   8.004  0.5752 -2.2717  1.8249
 5564SOL    HW228329   2.650   4.667   8.085 -3.9084  1.7835  2.7653
 5565SOL     OW28330   3.394   1.454   1.459  0.2944 -0.2842 -0.2460
 5565SOL    HW128331   3.414   1.406   1.378 -3.3043 -2.5774  0.2254
 5565SOL    HW228332   3.317   1.411   1.495 -0.2378  1.9043  1.2316
 5566SOL     OW28333   0.041   3.898   2.499 -0.8079  0.6521 -0.0153
 5566SOL    HW128334   0.095   3.945   2.436  0.1216 -0.0126  0.2831
 5566SOL    HW228335   4.707   3.881   2.436 -2.1672  1.5879  1.2709
 5567SOL     OW28336   3.595   2.043   8.438 -0.0427 -0.2545  0.0990
 5567SOL    HW128337   3.508   2.008   8.454 -0.2488 -0.1878 -0.8749
 5567SOL    HW228338   3.582   2.089   8.355 -0.0568 -0.8863 -0.2483
 5568SOL     OW28339   4.494   3.373   5.427 -0.0410  0.5366 -0.1255
 5568SOL    HW128340   4.432   3.404   5.493  0.4058  1.0647  0.0498
 5568SOL    HW228341   4.567   3.432   5.448  0.1091 -0.2248  1.5090
 5569SOL     OW28342   1.064   1.863   5.564 -0.7903  0.4955 -0.1003
 5569SOL    HW128343   1.082   1.818   5.646 -0.2865  0.1735 -0.3885
 5569SOL    HW228344   1.149   1.898   5.538  0.8600 -2.6633  1.1272
 5570SOL     OW28345   2.727   4.169   8.648  0.6885 -0.1832 -0.0955
 5570SOL    HW128346   2.741   4.184   8.554 -3.8358  1.2536 -0.5306
 5570SOL    HW228347   2.725   4.074   8.648 -1.3538 -0.1181  1.0385
 5571SOL     OW28348   0.416   2.281  13.502  0.1607  0.9260 -0.3708
 5571SOL    HW128349   0.374   2.245  13.424 -0.7598  0.4922  0.3293
 5571SOL    HW228350   0.490   2.221  13.508  0.5283  1.2540 -1.4961
 5572SOL     OW28351   1.057   0.083  11.240  0.0539  0.6482  0.1483
 5572SOL    HW128352   1.017   0.159  11.199  0.6371 -0.1763 -1.9214
 5572SOL    HW228353   1.037   0.099  11.333 -0.9919 -1.1781  0.2435
 5573SOL     OW28354   0.734   3.495   3.293 -0.1335  0.2862  0.3204
 5573SOL    HW128355   0.648   3.455   3.299 -0.0647  0.3616  1.8247
 5573SOL    HW228356   0.725   3.587   3.318 -4.0152 -0.5468  1.8624
 5574SOL     OW28357   0.401   2.044   2.836 -0.4678  0.4323 -0.5209
 5574SOL    HW128358   0.435   2.002   2.915 -0.9462 -2.2234 -1.7132
 5574SOL    HW228359   0.307   2.034   2.851 -0.3913  0.5754  0.0411
 5575SOL     OW28360   0.481   1.228   1.722 -0.2422 -0.1391 -0.6284
 5575SOL    HW128361   0.434   1.294   1.670 -2.7899 -0.3659  1.3884
 5575SOL    HW228362   0.457   1.262   1.809  1.9939  1.0559 -0.4734
 5576SOL     OW28363   0.288   1.097  17.737  0.6473  0.1198 -0.3391
 5576SOL    HW128364   0.195   1.078  17.724  0.1688  3.2368 -1.6917
 5576SOL    HW228365   0.293   1.040   0.066 -0.2053 -0.5013 -0.7445
 5577SOL     OW28366   3.370   2.807  14.512 -0.6328  0.0808 -0.4362
 5577SOL    HW128367   3.292   2.782  14.561 -1.8525  2.1440 -1.3339
 5577SOL    HW228368   3.346   2.818  14.420 -2.2828  0.6996  0.0641
 5578SOL     OW28369   2.535   0.932   8.462 -0.2105  0.1175  0.3252
 5578SOL    HW128370   2.592   0.938   8.386  2.5372 -0.4914  2.3671
 5578SOL    HW228371   2.586   0.886   8.528  3.4393  1.5432 -1.5069
 5579SOL     OW28372   0.212   2.700   9.811 -0.4877  0.2339 -0.5571
 5579SOL    HW128373   0.168   2.678   9.893 -1.4131 -0.8857 -1.3487
 5579SOL    HW228374   0.137   2.711   9.753  0.2173  0.1453 -1.4914
 5580SOL     OW28375   0.721   3.368   1.686  0.4103 -0.2953  0.0335
 5580SOL    HW128376   0.628   3.356   1.669  0.1776 -2.6304  3.0326
 5580SOL    HW228377   0.752   3.281   1.662  1.1674 -0.4374  1.5085
 5581SOL     OW28378   2.901   0.413   6.653  0.0964 -0.2320  0.1701
 5581SOL    HW128379   2.939   0.333   6.687  0.9595 -1.4935 -3.8370
 5581SOL    HW228380   2.806   0.402   6.663 -0.3540  3.6051  0.4474
 5582SOL     OW28381   0.598   0.557   5.714  0.6983  0.3736 -0.1437
 5582SOL    HW128382   0.616   0.538   5.806 -0.3094 -0.9813 -0.2235
 5582SOL    HW228383   0.503   0.569   5.716  0.8538  1.4405  1.2429
 5583SOL     OW28384   2.751   0.159   9.951 -0.4885 -0.7456  0.0874
 5583SOL    HW128385   2.745   0.236   9.894  0.2357  1.3287  2.8562
 5583SOL    HW228386   2.728   0.200  10.034  0.7853  0.4223 -0.1370
 5584SOL     OW28387   3.044   4.451   8.837 -0.0542  0.0169 -0.2597
 5584SOL    HW128388   3.039   4.390   8.764  3.5731 -0.5949  0.0050
 5584SOL    HW228389   2.964   4.427   8.886 -1.3378  2.4019 -1.1957
 5585SOL     OW28390   2.687   2.789   8.431  0.2868 -0.1039  0.5686
 5585SOL    HW128391   2.679   2.836   8.348  0.9077 -2.3870 -0.7920
 5585SOL    HW228392   2.781   2.792   8.448  0.3774 -3.3457  0.6314
 5586SOL     OW28393   0.083   1.465   7.511  0.4880  0.1939 -0.0785
 5586SOL    HW128394   0.106   1.558   7.512 -1.0751  0.5925 -2.3737
 5586SOL    HW228395   4.729   1.456   7.484  1.2793 -3.0820 -1.6218
 5587SOL     OW28396   0.636   4.736   6.047  0.5598 -0.1637 -0.3909
 5587SOL    HW128397   0.645   4.662   5.987  0.2388  0.2902 -0.9970
 5587SOL    HW228398   0.603   4.688   6.122 -0.5022 -2.4492 -2.3144
 5588SOL     OW28399   3.874   4.719   2.150  0.1817 -0.2403  0.1496
 5588SOL    HW128400   3.808   4.726   2.219 -2.0166 -2.3558 -1.7536
 5588SOL    HW228401   3.856   4.626   2.133  0.6575 -0.0642 -1.2565
 5589SOL     OW28402   2.550   4.185  13.924 -0.0000  0.6608 -0.2985
 5589SOL    HW128403   2.553   4.121  13.995 -1.4802  0.0893 -0.7664
 5589SOL    HW228404   2.578   4.268  13.962  0.2766  1.1150 -1.4969
 5590SOL     OW28405   0.939   4.242   9.628  0.2536 -0.3704 -0.2039
 5590SOL    HW128406   0.935   4.198   9.543  0.8064 -1.3352  0.2578
 5590SOL    HW228407   0.884   4.190   9.687  0.9068 -0.6463  0.1622
 5591SOL     OW28408   4.401   0.150   1.265 -0.3908  0.3356  0.0486
 5591SOL    HW128409   4.469   0.193   1.318  0.2160  1.8725 -1.9588
 5591SOL    HW228410   4.342   0.105   1.325  0.6907 -0.4200  0.5367
 5592SOL     OW28411   3.225   2.389   3.423 -0.2602 -0.0098  0.6011
 5592SOL    HW128412   3.142   2.410   3.465  0.9389  0.3800  2.8314
 5592SOL    HW228413   3.265   2.476   3.429 -0.6414  0.0350  2.4622
 5593SOL     OW28414   2.465   1.519   0.884  0.3305  0.4232  0.0367
 5593SOL    HW128415   2.557   1.513   0.858 -0.1289 -3.2026 -0.7487
 5593SOL    HW228416   2.418   1.482   0.809  0.2490  0.6285 -0.0127
 5594SOL     OW28417   3.252   3.434   1.684  0.3186 -0.2887 -0.0794
 5594SOL    HW128418   3.236   3.511   1.738  0.3514 -0.5952  0.3732
 5594SOL    HW228419   3.183   3.375   1.712 -0.9576  1.2740  0.0217
 5595SOL     OW28420   1.620   2.609   3.357 -0.1208  0.0058 -0.9320
 5595SOL    HW128421   1.536   2.592   3.399  0.5773  0.8959  0.8114
 5595SOL    HW228422   1.639   2.688   3.408 -3.3815 -0.1169  0.4931
 5596SOL     OW28423   1.365   2.781   1.734  0.0379 -0.1628  0.4375
 5596SOL    HW128424   1.297   2.765   1.800  0.1300 -0.3380  0.4894
 5596SOL    HW228425   1.443   2.795   1.788 -0.4459  1.5258  0.6855
 5597SOL     OW28426   0.891   3.781   9.348 -0.8074  0.0193 -0.1942
 5597SOL    HW128427   0.827   3.835   9.395 -1.1439 -2.3497  2.0337
 5597SOL    HW228428   0.946   3.855   9.320 -0.0853 -0.5212 -0.1992
 5598SOL     OW28429   1.750   4.416   5.217  0.3093  0.7392 -0.0781
 5598SOL    HW128430   1.782   4.499   5.182  0.5040  0.2131 -1.1407
 5598SOL    HW228431   1.687   4.392   5.150 -0.3471  0.2254  0.7163
 5599SOL     OW28432   3.909   3.804  16.340  0.7289 -0.0223 -0.9362
 5599SOL    HW128433   3.949   3.886  16.310  2.4414 -0.2246  0.7533
 5599SOL    HW228434   3.831   3.797  16.286 -0.8037 -0.0808  1.2667
 5600SOL     OW28435   1.818   0.621   8.507 -0.3310 -0.4329  0.3317
 5600SOL    HW128436   1.790   0.570   8.583  0.6755  1.3224  1.8813
 5600SOL    HW228437   1.799   0.714   8.523  1.3394 -0.3726  1.9787
 5601SOL     OW28438   1.383   4.357   7.377 -0.2204 -0.3204  0.4172
 5601SOL    HW128439   1.438   4.433   7.394  1.7151 -2.1471  2.4068
 5601SOL    HW228440   1.377   4.351   7.282 -2.3746  0.6864  0.4858
 5602SOL     OW28441   1.392   1.767   7.638 -0.1848 -0.0210 -0.3072
 5602SOL    HW128442   1.411   1.673   7.639 -0.5555 -0.0966 -0.5731
 5602SOL    HW228443   1.407   1.781   7.732  1.0387 -0.3363 -0.4564
 5603SOL     OW28444   3.547   2.621   3.986  0.0268  0.2992  0.4642
 5603SOL    HW128445   3.490   2.550   4.015 -1.2311  0.6398 -1.2236
 5603SOL    HW228446   3.624   2.612   4.044  0.7475  3.3334 -0.0232
 5604SOL     OW28447   3.682   1.435   4.160 -0.3065 -0.2510 -0.5210
 5604SOL    HW128448   3.671   1.522   4.199 -1.3591 -0.2764 -0.7491
 5604SOL    HW228449   3.769   1.449   4.122 -1.5155  1.6959 -2.6095
 5605SOL     OW28450   1.041   1.057  15.229  0.0650  0.2300 -0.2965
 5605SOL    HW128451   1.079   1.090  15.310  0.9142 -1.3589 -0.0364
 5605SOL    HW228452   1.114   1.059  15.166  0.5686 -1.8779  0.2025
 5606SOL     OW28453   3.275   2.961   4.339  0.4215  0.4618  0.1252
 5606SOL    HW128454   3.300   3.018   4.412  0.5159  1.3180 -0.5746
 5606SOL    HW228455   3.335   2.888   4.355 -2.5041 -1.9459  0.1048
 5607SOL     OW28456   1.732   2.766   2.076 -0.2357  0.2555 -0.0685
 5607SOL    HW128457   1.782   2.688   2.098 -0.9426 -0.5032 -1.1547
 5607SOL    HW228458   1.739   2.762   1.980  2.1069  1.2481  0.0730
 5608SOL     OW28459   1.288   0.990   8.986 -0.1350 -0.0480  0.4683
 5608SOL    HW128460   1.231   1.023   8.916  0.0754  0.0778  0.3538
 5608SOL    HW228461   1.248   0.905   9.002  0.0795  0.2402  2.5122
 5609SOL     OW28462   3.257   2.267   8.257 -0.5837 -0.7074  0.1804
 5609SOL    HW128463   3.201   2.332   8.299  0.8827  0.7798 -0.1467
 5609SOL    HW228464   3.193   2.206   8.221 -0.9657 -1.4231  2.0513
 5610SOL     OW28465   2.287   0.358   5.218 -0.0645  0.4193 -0.1261
 5610SOL    HW128466   2.266   0.282   5.271  0.3449 -0.0625 -0.6617
 5610SOL    HW228467   2.256   0.335   5.131 -0.9499  0.4027  0.2023
 5611SOL     OW28468   1.614   1.913   9.281 -0.2623 -0.3486  0.4976
 5611SOL    HW128469   1.660   1.908   9.364  0.4677  0.0639  0.1143
 5611SOL    HW228470   1.561   1.833   9.284 -1.4811  0.3327 -2.4251
 5612SOL     OW28471   2.997   1.525  10.927  0.4055 -0.5087 -0.0798
 5612SOL    HW128472   3.038   1.493  10.847  0.0194  0.3315 -0.6158
 5612SOL    HW228473   2.984   1.620  10.916  1.9535 -0.2878 -0.0017
 5613SOL     OW28474   0.456   2.891   4.642  0.0613 -0.0702  0.2576
 5613SOL    HW128475   0.501   2.878   4.559 -1.4149  1.5379 -0.7977
 5613SOL    HW228476   0.490   2.977   4.668  1.2013 -0.4050 -0.1266
 5614SOL     OW28477   3.854   1.376   9.285 -0.0434  0.1817 -0.1076
 5614SOL    HW128478   3.768   1.408   9.313  0.9343  0.8573  2.1121
 5614SOL    HW228479   3.830   1.338   9.201  0.4401 -1.9569  0.7333
 5615SOL     OW28480   0.624   3.400   5.170 -0.2089 -0.0807  0.0881
 5615SOL    HW128481   0.580   3.329   5.216 -0.2946 -0.5488 -0.7128
 5615SOL    HW228482   0.715   3.369   5.170  0.3532  1.5864  0.9612
 5616SOL     OW28483   4.212   0.361   4.662 -0.2382  0.0767 -0.2522
 5616SOL    HW128484   4.129   0.406   4.675  0.0826  0.5846  0.0443
 5616SOL    HW228485   4.188   0.270   4.677 -0.4660  0.0279 -0.9115
 5617SOL     OW28486   2.924   0.416  16.029 -0.2851  0.0037 -0.3426
 5617SOL    HW128487   2.950   0.455  16.112 -3.8053  0.9751  0.3251
 5617SOL    HW228488   2.865   0.482  15.991  0.6848 -0.8938 -3.3997
 5618SOL     OW28489   2.754   1.683   7.031 -0.0273 -0.2502 -0.1789
 5618SOL    HW128490   2.782   1.761   6.984 -1.4489 -0.2807 -1.0963
 5618SOL    HW228491   2.682   1.660   6.972  0.9861  1.1392 -1.9243
 5619SOL     OW28492   1.874   2.199   6.438 -0.4304 -0.4273  0.0039
 5619SOL    HW128493   1.866   2.271   6.502  0.4405 -0.0780 -0.2856
 5619SOL    HW228494   1.967   2.188   6.423 -0.5363 -1.9173  0.5070
 5620SOL     OW28495   3.664   1.622  10.042 -0.2519  0.1796 -0.7955
 5620SOL    HW128496   3.648   1.584  10.128 -0.5569 -1.3056 -1.5130
 5620SOL    HW228497   3.688   1.540   9.999 -0.9565 -0.3593 -0.1733
 5621SOL     OW28498   0.197   1.148   2.970  0.2388 -0.1360 -0.7448
 5621SOL    HW128499   0.278   1.196   2.953 -0.5864  1.0610 -1.2970
 5621SOL    HW228500   0.223   1.073   2.917  5.1106  1.1844 -0.1861
 5622SOL     OW28501   3.137   2.894   2.951 -0.3440  0.1545 -0.0930
 5622SOL    HW128502   3.207   2.841   2.989 -1.9564 -0.0374  2.6720
 5622SOL    HW228503   3.123   2.946   3.030 -3.3512 -1.4618  0.4426
 5623SOL     OW28504   3.459   4.655   9.569 -0.4314 -0.0117 -0.2856
 5623SOL    HW128505   3.436   4.662   9.662  1.3436 -0.8312  0.2273
 5623SOL    HW228506   3.551   4.631   9.580 -0.7509 -1.0355  0.2148
 5624SOL     OW28507   2.727   3.720   2.692 -0.2556 -0.6991 -0.1900
 5624SOL    HW128508   2.720   3.709   2.597 -1.4368 -0.6431 -0.1030
 5624SOL    HW228509   2.728   3.816   2.699 -1.2578 -0.7863  1.0247
 5625SOL     OW28510   1.516   0.904  10.831 -0.1057  0.2057  0.4991
 5625SOL    HW128511   1.463   0.847  10.888  0.0433 -0.0515  0.3806
 5625SOL    HW228512   1.515   0.845  10.756 -0.5814 -1.3701  1.7260
 5626SOL     OW28513   1.282   2.089   5.527 -0.2107 -0.4114 -0.3287
 5626SOL    HW128514   1.365   2.042   5.519 -0.8441 -1.3251 -1.6323
 5626SOL    HW228515   1.295   2.147   5.602 -0.5876 -0.6920 -0.0413
 5627SOL     OW28516   4.670   2.179   7.160  0.5365  0.5138  0.9736
 5627SOL    HW128517   4.715   2.108   7.115  0.3766  1.3085 -0.4344
 5627SOL    HW228518   4.601   2.131   7.207 -1.3648  1.7997 -0.5325
 5628SOL     OW28519   3.543   0.590   6.210 -0.4108 -0.2978  0.2699
 5628SOL    HW128520   3.584   0.542   6.282  1.0734 -0.3647 -0.6353
 5628SOL    HW228521   3.588   0.673   6.223  1.7359 -1.5206  0.6945
 5629SOL     OW28522   3.450   3.323  12.903  0.2339 -0.2219  0.0418
 5629SOL    HW128523   3.489   3.394  12.852  0.8336 -1.5974 -1.3852
 5629SOL    HW228524   3.524   3.286  12.951  0.1637  0.5923  0.7821
 5630SOL     OW28525   4.556   3.116  14.602 -0.4156 -0.3653  0.3337
 5630SOL    HW128526   4.632   3.063  14.580 -1.3636 -2.2076  1.4955
 5630SOL    HW228527   4.489   3.051  14.581 -0.8541 -0.7035  2.8581
 5631SOL     OW28528   1.192   4.571   6.970  0.1459 -0.3464 -0.3452
 5631SOL    HW128529   1.226   4.491   7.010  2.0627 -0.2276 -1.7741
 5631SOL    HW228530   1.220   4.573   6.879 -0.4115 -0.5907 -0.5213
 5632SOL     OW28531   2.446   1.305   4.391  0.0845  0.6802 -0.0100
 5632SOL    HW128532   2.471   1.220   4.427 -0.0513  0.6778  0.0785
 5632SOL    HW228533   2.454   1.284   4.298  0.9472  0.4451  0.1195
 5633SOL     OW28534   3.020   4.682   7.048  0.0216  0.1461 -0.0323
 5633SOL    HW128535   2.931   4.667   7.079 -0.5054  0.6979 -1.2599
 5633SOL    HW228536   2.993   4.730   6.970  0.4144 -2.8103 -1.9885
 5634SOL     OW28537   3.628   3.912  16.585 -0.2420  0.2625 -0.2179
 5634SOL    HW128538   3.703   3.889  16.529 -0.4213  0.3070 -0.4751
 5634SOL    HW228539   3.633   3.842  16.650 -0.5653 -0.3442 -0.8509
 5635SOL     OW28540   0.998   4.056   3.980 -0.3685  0.0951 -0.1555
 5635SOL    HW128541   1.074   4.062   3.921  0.4332  1.0113  0.9798
 5635SOL    HW228542   1.010   3.962   3.995 -0.8539 -0.0784 -0.8522
 5636SOL     OW28543   2.770   1.692   1.668  0.2586  0.2308 -0.3815
 5636SOL    HW128544   2.692   1.648   1.703  0.1486 -0.0843 -1.0304
 5636SOL    HW228545   2.732   1.766   1.621  1.2402  1.7852  1.2546
 5637SOL     OW28546   2.111   4.661   4.687  0.0531 -0.3418  0.0425
 5637SOL    HW128547   2.182   4.626   4.739  1.3447  0.7901 -0.9649
 5637SOL    HW228548   2.059   4.707   4.753 -0.3441 -2.1922  1.0130
 5638SOL     OW28549   3.427   1.217   5.179  0.1578 -0.0530  0.2106
 5638SOL    HW128550   3.418   1.282   5.249 -0.1923  1.9246 -1.6692
 5638SOL    HW228551   3.486   1.267   5.123  0.3087 -1.9679 -1.3375
 5639SOL     OW28552   3.603   1.709   6.577 -0.0135 -0.1364  0.5708
 5639SOL    HW128553   3.559   1.708   6.492  0.5781  3.4540  0.2578
 5639SOL    HW228554   3.600   1.804   6.587 -1.1223 -0.3403  2.0595
 5640SOL     OW28555   3.317   3.448   6.990  0.1005 -0.1149  0.2531
 5640SOL    HW128556   3.399   3.495   7.007 -1.3881  2.1480  1.0908
 5640SOL    HW228557   3.288   3.500   6.915 -0.5646 -1.7005 -0.5876
 5641SOL     OW28558   0.483   1.642   1.626 -0.0053  0.1113 -0.2657
 5641SOL    HW128559   0.530   1.723   1.649  1.5875 -0.5481 -1.2365
 5641SOL    HW228560   0.540   1.594   1.566 -0.2671  0.3953 -0.7372
 5642SOL     OW28561   2.818   1.470   8.095  0.3381 -0.0814 -0.7468
 5642SOL    HW128562   2.822   1.534   8.166  2.8035  1.0652 -1.9216
 5642SOL    HW228563   2.850   1.392   8.139 -1.4852  0.0770  0.8423
 5643SOL     OW28564   3.088   1.355   6.761 -0.1208 -0.4554 -0.1259
 5643SOL    HW128565   2.994   1.363   6.775  0.1719  0.8545  1.0137
 5643SOL    HW228566   3.102   1.346   6.666 -0.3995  1.6286 -0.3485
 5644SOL     OW28567   3.568   3.615   2.076 -0.1593 -0.0031 -0.2485
 5644SOL    HW128568   3.599   3.542   2.130 -2.2256 -0.3273  0.5146
 5644SOL    HW228569   3.482   3.581   2.051 -0.3848  0.5432 -0.2188
 5645SOL     OW28570   3.920   1.132   3.492 -0.7671  0.3852 -0.3598
 5645SOL    HW128571   3.959   1.068   3.433  1.9593 -0.8123  2.7654
 5645SOL    HW228572   3.953   1.105   3.578 -1.0234  1.3419  0.0362
 5646SOL     OW28573   3.624   0.163  11.734 -0.7276  0.2519 -0.1414
 5646SOL    HW128574   3.690   0.208  11.787 -2.4517  0.6461  1.6447
 5646SOL    HW228575   3.550   0.222  11.747 -0.7433  0.1556  0.2020
 5647SOL     OW28576   3.883   4.433   8.287  0.0798 -0.1303 -0.3736
 5647SOL    HW128577   3.846   4.521   8.279  0.6072  0.0629 -0.7367
 5647SOL    HW228578   3.938   4.435   8.208  0.8364  0.8580  0.1655
 5648SOL     OW28579   3.810   3.192  10.979 -0.4325 -0.1794  0.4545
 5648SOL    HW128580   3.817   3.274  11.027  0.6788 -0.4700  0.7989
 5648SOL    HW228581   3.890   3.188  10.928 -0.1762 -0.9635  0.9136
 5649SOL     OW28582   4.189   2.058  10.040  0.1003 -0.2644  0.2745
 5649SOL    HW128583   4.194   2.153  10.032  1.0422 -0.2942  0.4597
 5649SOL    HW228584   4.094   2.052  10.035  0.0389  2.2359 -1.2075
 5650SOL     OW28585   2.863   2.518   9.358 -0.0081 -0.0441  0.5894
 5650SOL    HW128586   2.797   2.450   9.349  0.3077 -0.4676  1.5323
 5650SOL    HW228587   2.821   2.601   9.335  2.1021  1.4578  2.0858
 5651SOL     OW28588   4.072   1.705   8.944  0.0081 -0.8906  0.2700
 5651SOL    HW128589   3.980   1.730   8.932  0.6167  0.2398 -1.9219
 5651SOL    HW228590   4.088   1.680   8.853 -0.9759  0.8366 -0.3716
 5652SOL     OW28591   4.380   3.901   7.634 -0.2792  0.4820 -0.3799
 5652SOL    HW128592   4.427   3.818   7.638 -0.7415  0.2186 -0.4381
 5652SOL    HW228593   4.453   3.962   7.622 -0.6315  0.9067 -0.3637
 5653SOL     OW28594   4.556   1.950   6.522  0.2965 -0.0470 -0.1299
 5653SOL    HW128595   4.634   1.999   6.547  0.7237  0.4487 -2.3909
 5653SOL    HW228596   4.490   2.000   6.570  0.1705  0.7619 -1.1334
 5654SOL     OW28597   0.950   2.357   4.034 -0.1058  0.3985 -0.1541
 5654SOL    HW128598   0.911   2.340   3.949 -0.7513  0.4857  0.1283
 5654SOL    HW228599   0.871   2.369   4.087  0.0850  0.5899  0.0888
 5655SOL     OW28600   4.042   4.617  12.311 -0.5886  0.2814  0.5598
 5655SOL    HW128601   4.041   4.697  12.365 -1.2571  1.0091 -0.5270
 5655SOL    HW228602   4.059   4.659  12.227 -0.3020  0.9786  0.9629
 5656SOL     OW28603   4.107   2.029   2.796 -0.8747 -0.3808  0.3507
 5656SOL    HW128604   4.144   1.973   2.865  0.2639  1.2058  1.0441
 5656SOL    HW228605   4.038   2.078   2.841 -1.5491 -1.5773  0.6108
 5657SOL     OW28606   4.118   1.496  13.889 -0.0563  0.0097 -0.5917
 5657SOL    HW128607   4.074   1.562  13.943  1.7754  0.6466  0.1082
 5657SOL    HW228608   4.040   1.441  13.887  0.8019 -1.2363  0.3075
 5658SOL     OW28609   2.160   2.716  10.617 -0.2281  0.3043  0.2325
 5658SOL    HW128610   2.206   2.637  10.587  2.1471  2.4374 -1.7195
 5658SOL    HW228611   2.127   2.692  10.703  0.6698 -1.9024 -0.0406
 5659SOL     OW28612   2.779   3.830   7.015  0.1949  0.0357  0.0164
 5659SOL    HW128613   2.687   3.825   6.989  0.8492 -2.4318 -1.8618
 5659SOL    HW228614   2.815   3.826   6.926 -1.1211 -0.6657 -0.4848
 5660SOL     OW28615   2.187   3.902   9.057 -0.0607 -0.2318  0.2105
 5660SOL    HW128616   2.190   3.906   9.153  1.4436  0.6877  0.1158
 5660SOL    HW228617   2.247   3.830   9.036 -0.1637  0.4020 -2.2414
 5661SOL     OW28618   0.858   2.193  11.276  0.3729  0.2922  0.8705
 5661SOL    HW128619   0.788   2.203  11.212  0.0092  0.1066  1.2389
 5661SOL    HW228620   0.932   2.144  11.239  0.3969  1.5812 -0.7983
 5662SOL     OW28621   0.260   3.179  15.457  0.4882 -0.1322 -0.1314
 5662SOL    HW128622   0.182   3.175  15.401  1.3105 -2.6266 -1.1089
 5662SOL    HW228623   0.299   3.092  15.450  0.8633  0.3933 -4.4274
 5663SOL     OW28624   0.206   1.482   5.618 -0.2758 -0.2600 -0.2561
 5663SOL    HW128625   0.238   1.501   5.530  1.0510  1.5402  0.6097
 5663SOL    HW228626   0.268   1.413   5.643 -0.5204 -0.5417 -0.4318
 5664SOL     OW28627   2.142   1.041   5.424 -0.2735 -0.4583 -0.3289
 5664SOL    HW128628   2.169   1.078   5.508 -0.7105  0.6595 -0.6809
 5664SOL    HW228629   2.060   0.997   5.444  0.1295 -0.1368  2.0358
 5665SOL     OW28630   0.606   1.404   8.184 -0.0009 -0.7791 -0.0923
 5665SOL    HW128631   0.623   1.329   8.127  0.3253  1.7593 -3.3109
 5665SOL    HW228632   0.596   1.352   8.265  1.3066 -0.9159 -0.0319
 5666SOL     OW28633   4.686   3.036   3.929  0.6253  0.5577 -0.2293
 5666SOL    HW128634   4.605   3.087   3.932  0.0261 -0.4875  1.8476
 5666SOL    HW228635   0.010   3.106   3.911 -1.8941  2.8417  0.0603
 5667SOL     OW28636   1.044   0.408  17.463  0.2859  0.0467  0.4072
 5667SOL    HW128637   1.066   0.395  17.371 -0.6804 -0.5092  0.2544
 5667SOL    HW228638   1.008   0.496  17.459  0.6761  0.1488 -1.0236
 5668SOL     OW28639   4.547   2.476  10.679 -1.0891 -0.2654  0.2054
 5668SOL    HW128640   4.539   2.547  10.743  1.4847 -1.3479  1.7414
 5668SOL    HW228641   4.566   2.532  10.603  1.9546  0.0829  1.2143
 5669SOL     OW28642   1.386   0.651  10.901 -0.7828 -0.0029  0.1928
 5669SOL    HW128643   1.453   0.583  10.898 -0.2343  0.5865 -0.8801
 5669SOL    HW228644   1.380   0.677  10.809 -1.2088  1.3402  0.6042
 5670SOL     OW28645   3.931   2.752  14.938 -0.5133 -0.0965  0.2526
 5670SOL    HW128646   3.952   2.838  14.904  0.0415  1.1354  3.6483
 5670SOL    HW228647   3.877   2.716  14.868  0.3691  1.7316 -1.3395
 5671SOL     OW28648   0.585   3.657   1.430  0.5504  0.0641  0.2737
 5671SOL    HW128649   0.645   3.681   1.501  0.9520  0.3857 -0.1750
 5671SOL    HW228650   0.561   3.576   1.474  3.2151 -1.7596 -1.6905
 5672SOL     OW28651   1.040   0.502  16.455 -0.4104 -0.0083 -0.5290
 5672SOL    HW128652   1.000   0.570  16.400 -1.9506 -1.7546 -1.5781
 5672SOL    HW228653   0.962   0.446  16.455 -1.0298  0.8640 -2.7028
 5673SOL     OW28654   4.374   3.046   8.541 -0.3621  0.4857 -0.3126
 5673SOL    HW128655   4.366   3.081   8.630 -0.4426 -0.3788  0.0161
 5673SOL    HW228656   4.324   2.965   8.536  1.0641 -0.3790 -0.4626
 5674SOL     OW28657   2.220   3.553   4.183 -0.1990 -0.1979 -0.1304
 5674SOL    HW128658   2.157   3.590   4.245  0.7595 -0.2607  0.8813
 5674SOL    HW228659   2.302   3.581   4.224  0.8745  0.2228 -2.5717
 5675SOL     OW28660   3.309   4.262   5.440 -0.2769 -0.4091  0.1506
 5675SOL    HW128661   3.269   4.287   5.523  0.3591 -2.6700  1.1227
 5675SOL    HW228662   3.269   4.328   5.382  0.1480  0.5804  0.9709
 5676SOL     OW28663   1.000   3.215   6.348 -0.5753  0.0680 -0.0596
 5676SOL    HW128664   1.008   3.120   6.350 -2.7272 -0.1166  0.2646
 5676SOL    HW228665   1.058   3.237   6.276  1.2560 -1.9803  0.7836
 5677SOL     OW28666   4.641   0.203   0.748 -0.5473  0.0564  0.1981
 5677SOL    HW128667   4.582   0.129   0.733  2.1210 -2.2944  1.4280
 5677SOL    HW228668   4.669   0.185   0.837 -1.7152 -1.4126  0.2689
 5678SOL     OW28669   4.574   4.367  10.380 -0.2929 -0.6492  0.2582
 5678SOL    HW128670   4.541   4.397  10.464  1.7899 -1.1732  1.2629
 5678SOL    HW228671   4.564   4.274  10.400 -0.1481 -0.7833 -0.2927
 5679SOL     OW28672   0.737   3.867   4.541 -0.0488  0.5243  0.0162
 5679SOL    HW128673   0.718   3.945   4.594  0.2816  0.5204  0.1378
 5679SOL    HW228674   0.740   3.795   4.605 -0.0250 -1.3284 -2.0638
 5680SOL     OW28675   1.965   2.304   6.849 -0.1140  0.1718 -0.4505
 5680SOL    HW128676   1.903   2.342   6.912  0.0446 -0.1579 -0.0958
 5680SOL    HW228677   1.930   2.352   6.774 -2.0061 -0.3092  0.1165
 5681SOL     OW28678   3.476   0.619  16.240  0.5052  0.1599  0.5791
 5681SOL    HW128679   3.543   0.590  16.178 -0.1947 -0.5197  0.1309
 5681SOL    HW228680   3.451   0.708  16.216  1.8380  0.7259  1.2569
 5682SOL     OW28681   0.880   2.969   9.524 -0.2039  0.2854  0.0460
 5682SOL    HW128682   0.840   2.950   9.609 -0.0153 -0.5537 -0.0521
 5682SOL    HW228683   0.808   3.014   9.481 -0.3514 -0.2343 -0.2481
 5683SOL     OW28684   3.035   1.484   9.671  0.5523 -0.2457 -0.3647
 5683SOL    HW128685   3.112   1.509   9.723  1.0993 -2.0504 -0.3097
 5683SOL    HW228686   3.066   1.450   9.587  2.4184 -0.4603  0.4048
 5684SOL     OW28687   0.497   3.926   6.243 -0.2314 -0.0299 -0.2203
 5684SOL    HW128688   0.570   3.864   6.242  1.4623  1.9512 -0.0662
 5684SOL    HW228689   0.539   3.999   6.198 -2.5897  1.7441  0.4349
 5685SOL     OW28690   2.720   3.495   0.478 -0.4107  0.0816  0.2275
 5685SOL    HW128691   2.756   3.445   0.405  1.5965  1.3462  0.3351
 5685SOL    HW228692   2.638   3.531   0.444 -0.3873  0.2338  0.3281
 5686SOL     OW28693   1.093   2.334  11.888  0.6300  0.0540  0.1130
 5686SOL    HW128694   1.187   2.338  11.903  0.7392  0.6213 -0.6898
 5686SOL    HW228695   1.068   2.335  11.980 -0.6741  0.7932 -0.2597
 5687SOL     OW28696   1.903   0.783  11.155  0.5508  0.1449  0.1428
 5687SOL    HW128697   1.919   0.759  11.063 -0.1464  1.0613 -0.2137
 5687SOL    HW228698   1.813   0.752  11.149  0.7740 -0.1587 -1.5890
 5688SOL     OW28699   2.735   0.191  11.161 -0.3999 -0.1716 -0.0783
 5688SOL    HW128700   2.720   0.177  11.255 -4.8603  1.4680 -0.5025
 5688SOL    HW228701   2.691   0.115  11.121 -0.4728 -1.1532  1.8895
 5689SOL     OW28702   0.205   3.556   0.405 -0.2135 -0.7141  0.5077
 5689SOL    HW128703   0.251   3.588   0.328  0.2555  0.4723  1.2923
 5689SOL    HW228704   0.278   3.522   0.456  0.8960  1.1083  0.1057
 5690SOL     OW28705   0.730   3.061   1.798 -0.2819 -0.0839 -0.2163
 5690SOL    HW128706   0.801   3.006   1.832 -0.3611 -0.5371 -0.7749
 5690SOL    HW228707   0.763   3.083   1.710  2.4709  0.5603  0.9723
 5691SOL     OW28708   2.655   4.116   1.833 -0.0106 -0.0538 -0.3246
 5691SOL    HW128709   2.658   4.211   1.827  1.7810 -0.1616 -1.2161
 5691SOL    HW228710   2.743   4.095   1.865  0.5178 -0.8750 -2.3217
 5692SOL     OW28711   3.206   0.323   1.063  0.0846 -0.0589 -0.1609
 5692SOL    HW128712   3.217   0.351   1.154 -2.9028 -3.1317  1.1075
 5692SOL    HW228713   3.125   0.273   1.066  0.1533 -0.0818  1.3585
 5693SOL     OW28714   3.728   0.868  16.383  0.3248  0.3998  0.3383
 5693SOL    HW128715   3.703   0.885  16.292  2.4285  0.0244 -0.2926
 5693SOL    HW228716   3.678   0.937  16.427  2.2899  2.2349 -0.3424
 5694SOL     OW28717   0.473   3.339   1.942  0.1117 -0.5422  1.0712
 5694SOL    HW128718   0.473   3.244   1.930  1.9083 -0.2393 -1.3405
 5694SOL    HW228719   0.563   3.337   1.976  0.7149 -1.2161 -0.5584
 5695SOL     OW28720   4.498   0.805   8.057 -0.1986  0.5840  0.1714
 5695SOL    HW128721   4.556   0.731   8.039 -0.9446 -0.1469  0.7590
 5695SOL    HW228722   4.520   0.830   8.146  2.3685 -0.4555 -0.1898
 5696SOL     OW28723   4.571   2.711  17.257 -0.1695 -0.0833 -0.1968
 5696SOL    HW128724   4.662   2.703  17.284 -0.5435 -1.0681  0.7590
 5696SOL    HW228725   4.551   2.627  17.216 -0.8944 -0.8337  1.7328
 5697SOL     OW28726   4.518   2.768   5.853 -0.3871 -0.2541 -0.2330
 5697SOL    HW128727   4.455   2.727   5.794  1.5187 -2.3323 -0.8393
 5697SOL    HW228728   4.603   2.764   5.809 -0.1120  1.5473  0.1222
 5698SOL     OW28729   1.683   4.232  10.056 -0.0661  1.0304 -0.0889
 5698SOL    HW128730   1.625   4.295  10.099  0.4159  1.3293  0.1284
 5698SOL    HW228731   1.684   4.278   9.972  1.5894 -1.6255 -1.5135
 5699SOL     OW28732   2.972   4.208   3.567 -0.1859 -0.4288  0.9101
 5699SOL    HW128733   2.962   4.142   3.636  0.1538 -2.1352 -0.6555
 5699SOL    HW228734   2.923   4.162   3.500  2.4028  0.8035 -1.8246
 5700SOL     OW28735   2.752   0.309   8.070  0.1667  0.1019  0.1405
 5700SOL    HW128736   2.752   0.216   8.050 -1.5786  0.3554 -1.0111
 5700SOL    HW228737   2.833   0.315   8.122 -0.0448 -1.1355  0.6184
 5701SOL     OW28738   3.541   4.060   7.948  0.7849 -0.1850  0.1516
 5701SOL    HW128739   3.533   4.139   8.001  1.8929 -0.4372  0.6961
 5701SOL    HW228740   3.597   4.006   8.003  0.7493 -0.1929  0.1805
 5702SOL     OW28741   1.186   1.262   6.677  0.5030  0.2648 -0.0960
 5702SOL    HW128742   1.099   1.239   6.709  1.0380 -1.6260 -0.0007
 5702SOL    HW228743   1.167   1.284   6.586  0.4630 -0.3058 -0.2229
 5703SOL     OW28744   3.313   4.027   5.752 -0.3901  0.9245 -0.5094
 5703SOL    HW128745   3.221   4.024   5.778 -0.6145 -1.2034 -1.5554
 5703SOL    HW228746   3.303   4.016   5.657 -2.9973 -0.3758 -0.1040
 5704SOL     OW28747   4.013   4.148  11.032  0.0923  0.0715  0.0543
 5704SOL    HW128748   4.014   4.238  11.064  0.6466  0.8280 -2.0383
 5704SOL    HW228749   4.011   4.100  11.115 -0.6814 -0.1984 -0.1215
 5705SOL     OW28750   0.565   4.162   3.558 -0.5214  0.5300 -0.1952
 5705SOL    HW128751   0.548   4.216   3.481  1.4440  1.8436  0.2862
 5705SOL    HW228752   0.484   4.111   3.562  0.2820 -0.6448  1.4335
 5706SOL     OW28753   4.544   1.040   6.227 -0.1365 -0.2082 -0.0776
 5706SOL    HW128754   4.519   1.128   6.256  0.8510  0.1276 -0.2365
 5706SOL    HW228755   4.599   1.077   6.158  3.0402 -3.0252  0.9482
 5707SOL     OW28756   0.703   1.583  16.064 -0.5992  0.7392 -0.0053
 5707SOL    HW128757   0.648   1.567  15.986 -0.6167 -1.2328  0.4086
 5707SOL    HW228758   0.656   1.645  16.119  0.7033  2.9171 -1.3698
 5708SOL     OW28759   3.326   3.688   7.444 -0.1553  0.0149  0.5600
 5708SOL    HW128760   3.322   3.616   7.380  1.2121 -0.6255  1.1903
 5708SOL    HW228761   3.267   3.750   7.402  1.4006  1.6113  0.7224
 5709SOL     OW28762   3.016   3.944   7.495 -1.0788 -0.7375 -0.8100
 5709SOL    HW128763   3.046   4.022   7.448  0.7130 -0.0958  1.4034
 5709SOL    HW228764   3.060   3.873   7.448  0.3880  0.2029 -0.8594
 5710SOL     OW28765   1.386   4.432   5.631  0.1030 -0.6214 -0.4083
 5710SOL    HW128766   1.445   4.499   5.595  1.1358 -1.1280  0.3429
 5710SOL    HW228767   1.335   4.477   5.698  0.8710  0.6391 -0.6621
 5711SOL     OW28768   3.018   2.112   2.020  0.0534  0.5143  0.3268
 5711SOL    HW128769   3.077   2.054   1.971 -0.2650 -1.6009  2.4614
 5711SOL    HW228770   2.931   2.092   1.985 -0.1930 -0.7300  1.6437
 5712SOL     OW28771   4.243   0.734   1.913 -0.1697 -0.1302 -0.1142
 5712SOL    HW128772   4.304   0.673   1.871  0.5437 -0.0931  0.8433
 5712SOL    HW228773   4.183   0.671   1.954  0.4378  0.0861  1.1043
 5713SOL     OW28774   0.255   3.180   8.294  0.1375  0.1879  0.5246
 5713SOL    HW128775   0.314   3.244   8.256 -0.8329 -0.1017 -1.4592
 5713SOL    HW228776   0.322   3.114   8.314 -0.6408 -0.8924 -0.4227
 5714SOL     OW28777   0.143   1.026   2.711  0.3026 -0.5574  0.5586
 5714SOL    HW128778   0.128   1.094   2.645 -2.0140 -0.5062  1.1528
 5714SOL    HW228779   0.172   0.959   2.650 -0.5592 -0.2042 -0.2271
 5715SOL     OW28780   1.086   3.137   0.413  0.1573  0.2728 -0.4042
 5715SOL    HW128781   1.049   3.063   0.365  0.2097  0.6663 -1.0515
 5715SOL    HW228782   1.022   3.204   0.388 -2.6151 -1.9695  0.6153
 5716SOL     OW28783   2.573   1.235   5.248  0.5860  0.4321 -0.3203
 5716SOL    HW128784   2.487   1.217   5.211  0.0689 -0.1721  1.1611
 5716SOL    HW228785   2.552   1.297   5.318 -0.2214  0.7091 -0.8164
 5717SOL     OW28786   1.018   1.611   8.301  0.5924  0.0784  0.0473
 5717SOL    HW128787   0.999   1.524   8.337 -1.6600  0.5129 -0.0897
 5717SOL    HW228788   1.065   1.648   8.376 -1.3531  0.1393  1.2436
 5718SOL     OW28789   1.481   0.175   1.902 -0.0155  0.1522  0.0045
 5718SOL    HW128790   1.553   0.141   1.850 -0.5309 -1.5313  0.3871
 5718SOL    HW228791   1.518   0.186   1.990 -1.0176  1.1835  0.2982
 5719SOL     OW28792   1.090   0.861   5.344 -0.3890  0.5328  0.0915
 5719SOL    HW128793   1.147   0.821   5.279  0.9596 -0.6052  1.9832
 5719SOL    HW228794   1.116   0.953   5.350  1.8410 -0.1992  1.8754
 5720SOL     OW28795   1.232   1.289   9.173  0.2678  0.3646 -0.1932
 5720SOL    HW128796   1.305   1.345   9.146  0.2057  0.0917 -0.9401
 5720SOL    HW228797   1.243   1.291   9.268  0.7009  0.5432 -0.2472
 5721SOL     OW28798   1.025   0.607   1.968 -0.1582  0.3535 -0.1547
 5721SOL    HW128799   1.069   0.532   1.928 -0.3277  1.0444 -1.6266
 5721SOL    HW228800   0.946   0.568   2.006  0.1895  0.1679  0.3918
 5722SOL     OW28801   1.484   2.970   5.923 -0.2118  0.0999 -0.2581
 5722SOL    HW128802   1.509   3.058   5.894  0.7792  0.5857  2.0297
 5722SOL    HW228803   1.568   2.936   5.954  1.7946  2.2323 -3.4010
 5723SOL     OW28804   1.793   4.484  14.024  0.1879 -0.4181 -0.0409
 5723SOL    HW128805   1.727   4.418  14.002  0.1101  0.0417 -1.1889
 5723SOL    HW228806   1.876   4.435  14.021  0.4819 -0.0096  1.5325
 5724SOL     OW28807   0.447   2.083   2.571 -0.0625 -0.6057 -0.5348
 5724SOL    HW128808   0.439   2.049   2.661  1.7820 -0.3574 -0.2956
 5724SOL    HW228809   0.416   2.172   2.585  0.2361 -0.9530  2.3549
 5725SOL     OW28810   0.162   0.643   6.602 -0.2227 -0.1396  0.0918
 5725SOL    HW128811   0.169   0.565   6.657  1.0256  0.6303  1.0107
 5725SOL    HW228812   0.253   0.663   6.584  0.7058 -2.2353  2.4209
 5726SOL     OW28813   2.992   3.380  12.655 -0.0598 -0.0917  0.0839
 5726SOL    HW128814   3.044   3.457  12.678 -0.0131 -0.2471  0.4934
 5726SOL    HW228815   3.037   3.301  12.683 -0.7364 -0.6020 -0.2777
 5727SOL     OW28816   3.665   3.154  11.940  0.3533  0.4422 -0.1728
 5727SOL    HW128817   3.761   3.155  11.947  0.4900 -0.1948 -2.1672
 5727SOL    HW228818   3.654   3.089  11.872  0.5136 -0.3817  0.5879
 5728SOL     OW28819   0.820   2.177   6.219  1.2303  0.3554  0.6251
 5728SOL    HW128820   0.732   2.207   6.197  1.9621  0.1824 -2.5558
 5728SOL    HW228821   0.869   2.235   6.161 -1.1305 -0.1252 -1.8711
 5729SOL     OW28822   2.751   0.390  11.380 -0.9529 -0.0829 -0.0549
 5729SOL    HW128823   2.814   0.461  11.366 -1.1450 -0.4599 -2.8908
 5729SOL    HW228824   2.744   0.354  11.292  1.0686 -0.2651 -0.1406
 5730SOL     OW28825   1.034   1.616   9.004  0.2051 -0.0600  0.2825
 5730SOL    HW128826   0.993   1.530   8.995 -0.4630  0.2522  0.3007
 5730SOL    HW228827   1.026   1.640   9.096  0.8362 -0.4591  0.4401
 5731SOL     OW28828   3.127   3.792   2.472  0.1713  0.3716 -0.1795
 5731SOL    HW128829   3.222   3.804   2.465  0.4057 -0.1810  1.9388
 5731SOL    HW228830   3.102   3.873   2.515 -0.7842 -0.2920  0.5072
 5732SOL     OW28831   4.549   0.843   5.852  0.5442  0.1267 -0.0742
 5732SOL    HW128832   4.537   0.937   5.837  1.5694  0.7687  3.0487
 5732SOL    HW228833   4.565   0.826   5.760  1.5849  0.7540 -0.0152
 5733SOL     OW28834   4.126   3.397   1.777 -0.1975  0.7567 -0.2266
 5733SOL    HW128835   4.080   3.322   1.815 -1.8026  1.1112 -1.4750
 5733SOL    HW228836   4.211   3.355   1.789 -0.8573 -1.0090 -1.8334
 5734SOL     OW28837   0.009   3.790   0.101 -0.2733 -0.1582  0.1614
 5734SOL    HW128838   4.716   3.722   0.161 -1.0095 -0.5907 -0.6950
 5734SOL    HW228839   4.693   3.774   0.023 -0.4257  1.6950 -0.1379
 5735SOL     OW28840   1.983   3.214   5.821  0.3026 -0.0157 -0.4257
 5735SOL    HW128841   1.938   3.175   5.746  0.8243 -0.3312 -0.5743
 5735SOL    HW228842   1.936   3.298   5.826 -0.5633 -0.4364 -1.5203
 5736SOL     OW28843   0.791   2.108   4.345 -0.1107 -0.2817  0.6362
 5736SOL    HW128844   0.877   2.149   4.331  0.5077 -1.6969  0.2799
 5736SOL    HW228845   0.737   2.186   4.332  0.6542  0.2853  0.8352
 5737SOL     OW28846   0.479   4.457  12.444 -0.1995  0.4723  0.3569
 5737SOL    HW128847   0.498   4.469  12.350 -1.3033 -4.0518 -0.4178
 5737SOL    HW228848   0.387   4.482  12.442 -0.2221  0.2718 -1.0391
 5738SOL     OW28849   2.981   3.618  14.476 -0.1065 -0.5795 -0.0787
 5738SOL    HW128850   2.921   3.629  14.402 -4.2105 -3.8974  2.7563
 5738SOL    HW228851   3.021   3.703  14.490  0.6590 -0.6247 -1.9474
 5739SOL     OW28852   2.715   0.741   2.055 -0.2961 -0.2479  0.1263
 5739SOL    HW128853   2.678   0.829   2.061 -0.7983 -0.4388 -0.1881
 5739SOL    HW228854   2.735   0.720   2.146  3.5360  0.8568 -0.4481
 5740SOL     OW28855   2.481   0.315   3.319 -0.3522 -0.1439  0.7504
 5740SOL    HW128856   2.506   0.327   3.227 -2.7230 -1.5702 -0.0608
 5740SOL    HW228857   2.391   0.339   3.296  1.0701  1.2882 -3.4989
 5741SOL     OW28858   2.869   1.373   3.575  0.1048 -0.0550  0.6689
 5741SOL    HW128859   2.947   1.322   3.551  0.1285  1.1165 -1.7200
 5741SOL    HW228860   2.817   1.355   3.497 -0.1147  2.2225  0.2881
 5742SOL     OW28861   1.954   2.756   1.876 -0.1028 -0.6124  0.3227
 5742SOL    HW128862   1.995   2.780   1.793 -1.7863 -0.4255 -0.4551
 5742SOL    HW228863   2.032   2.717   1.917  0.3223 -0.2893 -0.1871
 5743SOL     OW28864   0.873   2.315   0.712  0.0876 -0.2210  0.1517
 5743SOL    HW128865   0.843   2.328   0.802 -1.1888 -3.5598  0.2043
 5743SOL    HW228866   0.901   2.402   0.684 -2.0971  0.5131  0.2715
 5744SOL     OW28867   1.810   1.558   9.255 -0.0944  0.0223  0.3320
 5744SOL    HW128868   1.736   1.534   9.309 -0.1296 -0.8661 -0.1065
 5744SOL    HW228869   1.775   1.532   9.170 -0.1964  1.3917 -0.0417
 5745SOL     OW28870   2.691   0.002   1.875  0.2351 -0.1786  0.3483
 5745SOL    HW128871   2.632   4.663   1.880 -0.8694  0.6485 -0.2326
 5745SOL    HW228872   2.749   4.718   1.802 -0.3528 -0.7424  0.0366
 5746SOL     OW28873   4.559   1.505  12.347 -0.5178  0.1981 -0.6402
 5746SOL    HW128874   4.478   1.487  12.395  0.0026  2.7639  1.2057
 5746SOL    HW228875   4.531   1.548  12.267 -1.9297  2.3809  1.0479
 5747SOL     OW28876   4.136   3.862   7.485  0.2695 -0.0658  0.3007
 5747SOL    HW128877   4.218   3.870   7.533  0.1340  1.0928  0.3394
 5747SOL    HW228878   4.171   3.827   7.403 -1.7635 -0.7365 -0.2731
 5748SOL     OW28879   0.870   0.469  13.560 -0.4135 -0.6377  0.2206
 5748SOL    HW128880   0.822   0.432  13.634  0.0612 -2.9468 -0.5996
 5748SOL    HW228881   0.798   0.472  13.497  0.1731 -4.7124 -0.7042
 5749SOL     OW28882   2.831   0.204  16.171  0.7373  0.0598  0.8437
 5749SOL    HW128883   2.755   0.255  16.144  1.6861  0.6910 -0.6090
 5749SOL    HW228884   2.899   0.265  16.143 -0.4156  1.9818  2.2248
 5750SOL     OW28885   2.442   1.950   5.354  0.1179  0.0094 -0.6207
 5750SOL    HW128886   2.509   2.005   5.394 -0.0683  0.4773 -0.9490
 5750SOL    HW228887   2.401   2.022   5.305 -2.7074 -1.7421 -0.7933
 5751SOL     OW28888   3.469   0.041  15.103  0.5169  0.2517  0.0380
 5751SOL    HW128889   3.512   4.700  15.136  3.0474  2.0339  0.9035
 5751SOL    HW228890   3.520   0.052  15.023  0.9195 -0.4767  0.1960
 5752SOL     OW28891   2.528   2.775   8.866  0.1405 -0.0543  0.2764
 5752SOL    HW128892   2.437   2.805   8.861  0.0832 -0.2498  0.1623
 5752SOL    HW228893   2.565   2.857   8.900  0.0521  0.1636 -0.1586
 5753SOL     OW28894   0.792   4.035   2.105 -0.6489 -0.0124 -0.1847
 5753SOL    HW128895   0.724   3.983   2.061 -0.8389 -1.1941  1.4987
 5753SOL    HW228896   0.791   4.122   2.067  2.0658 -0.3587 -1.0378
 5754SOL     OW28897   0.738   1.277  17.740 -0.2965  0.3584  0.3895
 5754SOL    HW128898   0.702   1.256  17.655 -0.2191  1.3190  0.1173
 5754SOL    HW228899   0.817   1.324  17.712  0.0472  0.7460  1.9683
 5755SOL     OW28900   4.481   0.183   7.405 -0.6522  0.4355 -0.2379
 5755SOL    HW128901   4.504   0.253   7.465 -0.6775  0.0624  0.2043
 5755SOL    HW228902   4.393   0.209   7.380 -0.7090 -1.3528 -1.9376
 5756SOL     OW28903   3.040   2.701   7.438  0.0410 -0.0367 -0.3364
 5756SOL    HW128904   3.048   2.775   7.379  2.7930  1.3434  1.7991
 5756SOL    HW228905   3.065   2.740   7.522  0.7903 -2.1723  0.4352
 5757SOL     OW28906   3.031   1.806   1.726 -0.6389  0.1118 -0.2241
 5757SOL    HW128907   3.099   1.781   1.664  0.1688 -1.4118  1.2579
 5757SOL    HW228908   2.964   1.740   1.709 -0.0808 -0.9617  1.6447
 5758SOL     OW28909   4.131   1.001   1.927  0.2396  0.1890 -0.5569
 5758SOL    HW128910   4.174   0.924   1.891 -0.2996  0.2342 -1.2896
 5758SOL    HW228911   4.171   1.073   1.877  1.6792 -0.0512  0.2443
 5759SOL     OW28912   4.729   4.445   6.625  0.3838 -0.2950  0.5961
 5759SOL    HW128913   0.032   4.386   6.562  0.0424 -2.0496  1.9952
 5759SOL    HW228914   0.058   4.436   6.694  2.5875 -1.4573 -1.6753
 5760SOL     OW28915   2.815   4.489   7.771 -0.0803 -0.1207 -0.2111
 5760SOL    HW128916   2.857   4.436   7.838 -0.7587 -0.2223  0.1373
 5760SOL    HW228917   2.739   4.433   7.754 -1.1241  0.1427  3.4556
 5761SOL     OW28918   2.158   4.450   8.798 -0.5132 -0.0252  0.1393
 5761SOL    HW128919   2.248   4.481   8.795 -1.6158  3.1189 -0.4450
 5761SOL    HW228920   2.122   4.525   8.750  1.0782  0.5120 -0.2065
 5762SOL     OW28921   4.116   0.686   7.214 -0.3145 -0.5258  0.0442
 5762SOL    HW128922   4.113   0.596   7.180 -0.5142 -0.0837 -1.1042
 5762SOL    HW228923   4.208   0.713   7.206 -0.8626  1.1432 -0.4599
 5763SOL     OW28924   3.167   0.258  10.518  0.6255  0.3054 -0.1622
 5763SOL    HW128925   3.194   0.214  10.438 -0.5761 -0.9918  0.1507
 5763SOL    HW228926   3.146   0.183  10.573  0.1424  1.3136  1.0343
 5764SOL     OW28927   0.215   4.524  15.509  0.0933 -0.0117  0.0290
 5764SOL    HW128928   0.154   4.470  15.559 -0.7676 -0.9182 -2.0013
 5764SOL    HW228929   0.195   4.501  15.419 -0.4507  0.4768  0.0297
 5765SOL     OW28930   0.483   1.717   6.973  0.3321 -0.0339 -0.1889
 5765SOL    HW128931   0.466   1.748   7.062 -0.0490  1.1964 -0.6910
 5765SOL    HW228932   0.566   1.761   6.955  0.4413  0.1296  0.7114
 5766SOL     OW28933   0.849   2.469  14.862  0.8913 -0.0457  0.0611
 5766SOL    HW128934   0.772   2.418  14.889  0.3691 -0.6029 -2.4634
 5766SOL    HW228935   0.816   2.554  14.834  0.4249 -0.1593  0.2674
 5767SOL     OW28936   3.201   1.189   3.154 -0.4121  0.1207 -0.0242
 5767SOL    HW128937   3.251   1.209   3.075 -1.6017  4.0012  0.1850
 5767SOL    HW228938   3.148   1.268   3.143  1.5609  1.8641  3.0805
 5768SOL     OW28939   1.831   1.052  14.526 -0.7421 -0.2271 -0.0194
 5768SOL    HW128940   1.751   1.013  14.491 -0.4431  1.2507 -2.3380
 5768SOL    HW228941   1.895   0.981  14.536 -1.3176 -0.5781  1.0982
 5769SOL     OW28942   4.037   1.630  11.825  0.1664  0.1525  0.6658
 5769SOL    HW128943   4.127   1.649  11.799  0.0739 -2.3851 -1.5816
 5769SOL    HW228944   4.045   1.564  11.894 -0.6913 -0.2227  0.4116
 5770SOL     OW28945   2.392   2.500   8.928  0.9744  0.2908 -0.7520
 5770SOL    HW128946   2.360   2.538   9.010  0.5040 -0.0689 -0.7663
 5770SOL    HW228947   2.339   2.546   8.863 -0.7841 -0.9054 -0.1778
 5771SOL     OW28948   4.698   1.785   7.756 -0.4782 -0.3008  0.1103
 5771SOL    HW128949   0.016   1.747   7.824  1.0747 -2.1845 -2.1969
 5771SOL    HW228950   4.623   1.726   7.756  0.0787 -0.9989 -1.1776
 5772SOL     OW28951   1.407   2.208  11.495  0.1674 -0.2215  0.1762
 5772SOL    HW128952   1.332   2.205  11.554  0.8844  1.9645  1.1967
 5772SOL    HW228953   1.426   2.114  11.488 -0.3312 -0.2368 -0.8907
 5773SOL     OW28954   3.116   0.392  11.466  0.5780 -0.5496 -0.0909
 5773SOL    HW128955   3.137   0.332  11.538  0.8585  0.0623  0.3313
 5773SOL    HW228956   3.195   0.442  11.449 -1.1105  1.4149 -2.0456
 5774SOL     OW28957   0.921   1.827   5.968 -0.1431  0.0450 -0.7758
 5774SOL    HW128958   0.978   1.772   6.021 -1.7670  1.1779  2.1274
 5774SOL    HW228959   0.941   1.914   6.004 -1.6840  0.5964 -1.2828
 5775SOL     OW28960   1.031   4.266   2.559  0.4077  0.6857  0.2269
 5775SOL    HW128961   1.056   4.177   2.582  1.8170  1.3747  1.3309
 5775SOL    HW228962   0.986   4.253   2.475 -0.2371 -0.5342  0.7680
 5776SOL     OW28963   1.777   3.618   4.944  0.0029  0.4383 -0.5168
 5776SOL    HW128964   1.774   3.661   4.859  0.2259 -0.7414 -1.1275
 5776SOL    HW228965   1.724   3.676   4.997 -0.6743  0.4169 -1.1694
 5777SOL     OW28966   1.666   2.139   2.828  0.2957 -0.1600  0.6495
 5777SOL    HW128967   1.589   2.084   2.836  0.0336 -0.0006 -0.6693
 5777SOL    HW228968   1.724   2.086   2.882  0.1162  1.9590  2.9037
 5778SOL     OW28969   2.464   3.060   2.670 -0.2490 -0.7569  0.0913
 5778SOL    HW128970   2.481   2.984   2.614 -2.5332  0.4906 -2.2983
 5778SOL    HW228971   2.369   3.049   2.676 -0.3959 -1.0575 -2.7453
 5779SOL     OW28972   2.794   2.855   3.183 -0.1217 -0.3268  0.5704
 5779SOL    HW128973   2.791   2.775   3.130  1.2435 -0.1284  0.1851
 5779SOL    HW228974   2.740   2.831   3.257  1.0180 -2.4006  0.7350
 5780SOL     OW28975   0.436   3.515   6.937  0.4944 -0.2000  0.1765
 5780SOL    HW128976   0.398   3.598   6.965  0.4965  0.1033 -0.7025
 5780SOL    HW228977   0.376   3.488   6.868  1.0175  3.4376 -1.7070
 5781SOL     OW28978   1.296   1.062   3.697  0.8178  0.2092 -0.0026
 5781SOL    HW128979   1.260   1.149   3.685  0.9632 -0.0278 -2.1963
 5781SOL    HW228980   1.227   1.002   3.666 -0.8454  1.1117  1.8839
 5782SOL     OW28981   2.158   4.456  11.148 -0.2104 -0.0784 -0.3177
 5782SOL    HW128982   2.139   4.508  11.069 -2.3068  2.6654  2.0101
 5782SOL    HW228983   2.252   4.472  11.152 -0.3599  1.2179 -1.8763
 5783SOL     OW28984   1.443   0.978   3.907 -0.5075 -0.2905  0.0878
 5783SOL    HW128985   1.400   0.986   3.822  0.4323 -0.2692 -0.3882
 5783SOL    HW228986   1.393   1.035   3.965  1.3918  0.0310  1.4169
 5784SOL     OW28987   1.223   4.008   7.490  0.1024  0.1260 -0.3939
 5784SOL    HW128988   1.249   4.093   7.525 -0.3828 -0.2975  0.9552
 5784SOL    HW228989   1.306   3.960   7.481  0.8565  1.2310  0.7141
 5785SOL     OW28990   0.220   3.816   4.560 -0.2190 -0.0776  0.0422
 5785SOL    HW128991   0.279   3.742   4.572 -0.3219 -0.3117 -0.8928
 5785SOL    HW228992   0.236   3.867   4.639  2.2546 -1.5707  0.5097
 5786SOL     OW28993   3.135   0.042   6.617 -0.1144 -0.0927  0.5773
 5786SOL    HW128994   3.148   0.098   6.541  1.2790 -0.6321  0.4144
 5786SOL    HW228995   3.211   4.721   6.609  1.7863  2.5970 -0.8399
 5787SOL     OW28996   2.310   1.463   3.322 -0.2208 -0.3110 -0.3973
 5787SOL    HW128997   2.306   1.466   3.418  0.0180 -3.6228 -0.3108
 5787SOL    HW228998   2.395   1.507   3.325 -0.1082 -0.5348 -0.3659
 5788SOL     OW28999   4.047   2.961   6.425  0.5162  0.2789  0.4365
 5788SOL    HW129000   3.991   2.885   6.409  0.9677 -0.0454  0.3935
 5788SOL    HW229001   4.123   2.936   6.372  0.7521  0.5183  0.6630
 5789SOL     OW29002   2.876   3.852   5.855  0.1809 -0.2560  0.0047
 5789SOL    HW129003   2.858   3.827   5.946  0.6234 -0.6903 -0.0237
 5789SOL    HW229004   2.793   3.825   5.816 -0.0072 -1.5180  1.2878
 5790SOL     OW29005   2.362   0.913   4.384 -0.0969  0.2920 -0.1315
 5790SOL    HW129006   2.411   0.968   4.323 -0.8075 -1.5034 -2.3046
 5790SOL    HW229007   2.302   0.979   4.420 -0.3375 -1.0777  1.9257
 5791SOL     OW29008   4.316   0.115   5.222 -0.7794  0.5288 -0.8381
 5791SOL    HW129009   4.278   0.198   5.249  2.2411  1.1253  1.5828
 5791SOL    HW229010   4.233   0.074   5.197 -0.0756 -1.7865  0.6500
 5792SOL     OW29011   3.551   2.799   1.465 -0.0394  0.3477 -0.2321
 5792SOL    HW129012   3.567   2.821   1.557 -0.5315  3.1020 -0.7992
 5792SOL    HW229013   3.457   2.813   1.475 -0.0848 -0.0555 -0.1205
 5793SOL     OW29014   2.489   2.594   1.577  0.6739  0.2517 -0.6117
 5793SOL    HW129015   2.575   2.554   1.587 -0.3717 -2.1719 -1.3881
 5793SOL    HW229016   2.438   2.521   1.543  0.2974  0.4268 -0.4186
 5794SOL     OW29017   3.757   2.517   4.160 -0.0226 -0.1507 -0.3228
 5794SOL    HW129018   3.721   2.598   4.197 -0.6677 -1.8599  2.7783
 5794SOL    HW229019   3.840   2.550   4.125  0.1122  0.5729  0.6764
 5795SOL     OW29020   3.470   0.766   4.929 -0.0204 -0.0255 -0.1381
 5795SOL    HW129021   3.553   0.801   4.961 -1.3310  0.8145  2.3793
 5795SOL    HW229022   3.470   0.781   4.835  0.7064 -0.4189 -0.1965
 5796SOL     OW29023   3.211   1.439   9.106 -0.2317 -0.5179  0.1823
 5796SOL    HW129024   3.276   1.466   9.171  0.1669 -0.2630 -0.3265
 5796SOL    HW229025   3.190   1.515   9.051 -2.3066 -0.8382  0.5470
 5797SOL     OW29026   3.156   1.321   7.223  0.1952  0.3163 -0.0672
 5797SOL    HW129027   3.112   1.400   7.254  0.2199  0.5205 -0.5514
 5797SOL    HW229028   3.193   1.355   7.142 -1.4643  1.3316 -0.3955
 5798SOL     OW29029   3.899   1.175   8.572 -0.0825  0.0876  1.0407
 5798SOL    HW129030   3.938   1.152   8.487 -0.5353 -0.0978  0.8865
 5798SOL    HW229031   3.943   1.256   8.595 -0.9002  1.7392 -3.3128
 5799SOL     OW29032   0.787   3.008   5.045  0.2174  0.2078  0.3133
 5799SOL    HW129033   0.701   2.967   5.056  0.8144 -1.8861 -2.8722
 5799SOL    HW229034   0.848   2.934   5.054  0.0051  0.0905  0.8172
 5800SOL     OW29035   0.485   4.146   5.249 -0.1226  0.2194  0.1064
 5800SOL    HW129036   0.415   4.125   5.187  0.3626  0.2191 -0.4426
 5800SOL    HW229037   0.517   4.232   5.222 -0.1740  0.5654  1.1720
 5801SOL     OW29038   0.097   0.499   9.164  0.0146 -0.2316 -0.0703
 5801SOL    HW129039   0.052   0.580   9.143  0.1589  0.0377  0.6566
 5801SOL    HW229040   0.109   0.458   9.078  2.2357  0.7307 -0.2112
 5802SOL     OW29041   1.577   4.214   4.169 -0.5218  0.1220  0.1584
 5802SOL    HW129042   1.614   4.302   4.165  0.0001 -0.1814 -1.6147
 5802SOL    HW229043   1.485   4.221   4.144 -0.5836  0.4254  0.4660
 5803SOL     OW29044   1.235   3.249   2.497  0.5503  0.0913  0.3781
 5803SOL    HW129045   1.235   3.156   2.520  1.3726  0.2745  1.1233
 5803SOL    HW229046   1.263   3.247   2.405 -2.2684 -0.6972 -0.4683
 5804SOL     OW29047   1.306   4.223   4.138 -0.1648 -0.4132  0.1153
 5804SOL    HW129048   1.227   4.272   4.115  1.6349  1.7051 -1.6676
 5804SOL    HW229049   1.266   4.151   4.185  0.0351  0.8607  2.2550
 5805SOL     OW29050   0.235   0.495   5.041 -0.4247  0.1767 -0.3623
 5805SOL    HW129051   0.169   0.426   5.031  0.2330 -0.3955 -0.8299
 5805SOL    HW229052   0.292   0.463   4.970 -1.7723 -0.2649 -1.2623
 5806SOL     OW29053   3.966   4.320  10.514  0.3258  0.4333  0.4699
 5806SOL    HW129054   3.985   4.396  10.568  0.5356  0.1528  0.7875
 5806SOL    HW229055   3.871   4.317  10.526  0.1985 -0.6171 -0.8118
 5807SOL     OW29056   4.031   0.487   8.248 -0.4146  0.3229  0.1213
 5807SOL    HW129057   4.094   0.519   8.312 -1.0631 -2.1385  2.0181
 5807SOL    HW229058   4.034   0.393   8.268 -1.3383  0.9271  3.2250
 5808SOL     OW29059   2.575   4.458   9.665  0.2541 -0.0491 -0.3502
 5808SOL    HW129060   2.613   4.370   9.660 -0.8497 -0.5798  0.7046
 5808SOL    HW229061   2.511   4.446   9.735  0.7409  1.8558  0.4235
 5809SOL     OW29062   2.213   3.312   6.131  0.2720 -0.0074 -0.1220
 5809SOL    HW129063   2.167   3.383   6.086 -0.6021  0.3622  1.3551
 5809SOL    HW229064   2.137   3.285   6.183 -1.4513  2.1457 -1.5414
 5810SOL     OW29065   4.694   1.459   8.881  0.0671  0.2360  0.2888
 5810SOL    HW129066   4.727   1.548   8.868  0.7089 -0.0302  0.0925
 5810SOL    HW229067   4.658   1.458   8.970  2.0338  0.6140  1.1000
 5811SOL     OW29068   0.283   4.032  13.081  0.0550 -0.1007  0.5087
 5811SOL    HW129069   0.300   4.026  13.175  0.0150  1.4435  0.6238
 5811SOL    HW229070   0.301   4.126  13.071  2.5128 -0.7199 -0.8360
 5812SOL     OW29071   2.666   1.958   7.627  0.0299 -0.5526  0.2470
 5812SOL    HW129072   2.596   1.994   7.572  0.5611 -0.5135 -0.3963
 5812SOL    HW229073   2.739   1.955   7.565  0.3237  0.0156  0.5662
 5813SOL     OW29074   2.385   0.293  12.125 -0.0490  0.4904 -0.0064
 5813SOL    HW129075   2.476   0.304  12.100 -0.3297 -2.1872 -2.1953
 5813SOL    HW229076   2.349   0.263  12.041 -0.6509 -0.6280  0.6454
 5814SOL     OW29077   4.274   3.622  13.942 -0.2284  0.1979  0.2404
 5814SOL    HW129078   4.267   3.550  14.005 -1.0098  0.7106  0.7366
 5814SOL    HW229079   4.345   3.588  13.887 -0.3039 -0.4093  0.5195
 5815SOL     OW29080   1.101   0.777   6.319  0.2028  0.2902 -0.3843
 5815SOL    HW129081   1.088   0.768   6.414  0.1817 -0.9484 -0.4986
 5815SOL    HW229082   1.013   0.800   6.289  0.0311  0.4016  0.1942
 5816SOL     OW29083   4.507   4.205   3.539 -0.1329  0.2640 -0.1831
 5816SOL    HW129084   4.596   4.222   3.508 -0.8672  0.1878 -2.3382
 5816SOL    HW229085   4.491   4.137   3.474 -0.8558  1.5428 -1.3615
 5817SOL     OW29086   2.812   4.061   5.171 -0.0677 -0.7171 -0.1694
 5817SOL    HW129087   2.784   3.992   5.111 -0.6831  0.5686 -1.3871
 5817SOL    HW229088   2.812   4.008   5.250  1.3061 -0.2786  0.1352
 5818SOL     OW29089   3.800   1.260   0.486  0.2545  0.1521 -0.4254
 5818SOL    HW129090   3.849   1.234   0.564  1.1512  0.7915 -0.7735
 5818SOL    HW229091   3.847   1.199   0.428 -1.9911  0.2409 -2.3502
 5819SOL     OW29092   4.124   2.147  11.218 -0.3768  0.2380 -0.5393
 5819SOL    HW129093   4.180   2.193  11.281 -1.0383  0.4315 -0.0874
 5819SOL    HW229094   4.093   2.081  11.281 -0.6222  0.0911 -0.8175
 5820SOL     OW29095   1.197   2.993   3.777 -0.0954 -0.1948  0.1507
 5820SOL    HW129096   1.142   3.069   3.760 -0.0468 -0.3678 -0.7849
 5820SOL    HW229097   1.126   2.929   3.787  0.2689 -0.7482 -0.7662
 5821SOL     OW29098   4.208   2.544   3.781 -0.4947  0.0020  0.0892
 5821SOL    HW129099   4.190   2.510   3.869  1.9323 -0.2335  0.4948
 5821SOL    HW229100   4.286   2.494   3.760 -0.7980 -0.3681 -0.1457
 5822SOL     OW29101   0.055   2.997  16.091  0.0133 -0.1997  0.5524
 5822SOL    HW129102   0.048   3.063  16.160 -0.0692  1.0137 -0.6180
 5822SOL    HW229103   0.142   2.957  16.103  0.1604 -0.0315  0.0259
 5823SOL     OW29104   3.808   4.326  16.475  0.6430 -0.4441  0.9022
 5823SOL    HW129105   3.875   4.258  16.489  0.3484 -0.9757 -0.3279
 5823SOL    HW229106   3.855   4.401  16.512 -0.6657 -1.6753  5.1676
 5824SOL     OW29107   0.831   4.218  14.053 -0.2442  0.0508  0.0322
 5824SOL    HW129108   0.747   4.172  14.043 -2.8440  4.4217  2.0377
 5824SOL    HW229109   0.808   4.299  14.099 -0.0260  0.9569 -1.4481
 5825SOL     OW29110   4.614   2.667  15.416 -0.1096  0.0659  0.4193
 5825SOL    HW129111   4.669   2.744  15.400 -0.1940 -0.2601 -1.4166
 5825SOL    HW229112   4.674   2.632  15.482  0.2074 -0.7783 -0.3101
 5826SOL     OW29113   2.727   0.412   0.085 -0.2597  0.1416  0.6705
 5826SOL    HW129114   2.648   0.358   0.082 -1.3767  1.8330  0.2079
 5826SOL    HW229115   2.754   0.378   0.171  0.1592 -0.4555  0.3010
 5827SOL     OW29116   1.560   1.606   8.945  0.0687 -0.2442  0.4521
 5827SOL    HW129117   1.654   1.618   8.933  0.0540 -0.0842  0.5038
 5827SOL    HW229118   1.542   1.563   8.862  0.9219  0.7014 -0.2234
 5828SOL     OW29119   1.751   4.144   5.285 -0.2704 -0.1891 -0.0715
 5828SOL    HW129120   1.745   4.127   5.379  1.1813  0.2303  0.0975
 5828SOL    HW229121   1.791   4.231   5.292  0.8231 -0.8566  1.7547
 5829SOL     OW29122   4.360   1.565   5.307  0.1878  0.0898  0.2829
 5829SOL    HW129123   4.274   1.553   5.265  0.2897 -0.2889  0.1785
 5829SOL    HW229124   4.368   1.658   5.324  0.5301  0.5011 -2.1104
 5830SOL     OW29125   3.243   0.384   6.181  0.8274  0.4028 -0.1425
 5830SOL    HW129126   3.313   0.381   6.116  0.7517 -0.0793 -0.2034
 5830SOL    HW229127   3.166   0.374   6.126  0.8324  0.0882 -0.0929
 5831SOL     OW29128   4.459   0.433  16.203 -0.1972  0.4759 -0.4672
 5831SOL    HW129129   4.423   0.521  16.201  0.8707  0.9156 -0.7386
 5831SOL    HW229130   4.547   0.447  16.239 -0.3011 -2.5534  0.9965
 5832SOL     OW29131   4.126   1.305   3.211 -0.6088 -0.0317 -0.2128
 5832SOL    HW129132   4.085   1.305   3.297 -0.4830  0.4919 -0.1490
 5832SOL    HW229133   4.104   1.398   3.198  2.3645  0.4387 -1.8768
 5833SOL     OW29134   4.269   0.152   0.728 -0.4583 -0.1135 -0.5559
 5833SOL    HW129135   4.312   0.233   0.703 -0.4234 -0.1791 -0.7084
 5833SOL    HW229136   4.273   0.148   0.824  1.2031 -0.6470 -0.6516
 5834SOL     OW29137   1.827   3.441   5.861 -0.5421 -0.4603  0.8420
 5834SOL    HW129138   1.792   3.464   5.947 -1.8209  1.9566 -0.3494
 5834SOL    HW229139   1.758   3.378   5.838 -0.9603  0.1632  0.3886
 5835SOL     OW29140   0.064   0.802  12.105 -0.1603 -0.5608  0.6016
 5835SOL    HW129141   4.733   0.758  12.056 -1.5597 -0.5933  2.5732
 5835SOL    HW229142   0.013   0.868  12.152  2.7067  2.3533 -0.3738
 5836SOL     OW29143   0.963   3.919   7.410  0.1202  0.2524 -0.1158
 5836SOL    HW129144   0.922   4.005   7.397 -0.5376 -0.2110 -1.1556
 5836SOL    HW229145   1.053   3.943   7.433  0.5425 -0.9225 -0.5548
 5837SOL     OW29146   1.102   1.675   3.008 -0.2733  0.0110 -0.6086
 5837SOL    HW129147   1.082   1.616   3.082 -1.6188 -0.8528 -1.6605
 5837SOL    HW229148   1.195   1.662   2.990 -0.2914 -1.8489  0.5901
 5838SOL     OW29149   1.355   0.683   6.320  0.6809  0.5749 -0.1833
 5838SOL    HW129150   1.265   0.705   6.298  0.3380 -1.9200 -1.3655
 5838SOL    HW229151   1.357   0.698   6.414  0.8349  0.8182 -0.2258
 5839SOL     OW29152   0.405   2.302   3.205 -0.3430  0.6164  0.0576
 5839SOL    HW129153   0.445   2.227   3.248 -1.3399  0.1357  0.1322
 5839SOL    HW229154   0.331   2.328   3.259 -1.7803 -0.3487 -1.4427
 5840SOL     OW29155   0.747   1.851   9.544  0.5429  0.5695  0.0537
 5840SOL    HW129156   0.772   1.801   9.621 -0.0059 -0.1915 -0.2555
 5840SOL    HW229157   0.667   1.897   9.571 -0.7572 -0.9309 -1.2200
 5841SOL     OW29158   0.866   1.560   3.534 -0.9700 -0.2656 -0.8142
 5841SOL    HW129159   0.885   1.481   3.584 -1.2254  0.8738  1.0886
 5841SOL    HW229160   0.825   1.617   3.599  2.2038  1.1971 -0.0968
 5842SOL     OW29161   2.114   2.010   0.868  0.5481  0.6909  0.2210
 5842SOL    HW129162   2.124   2.076   0.936 -0.5504 -0.3214  1.3647
 5842SOL    HW229163   2.059   1.942   0.906 -1.3848  1.7595 -0.7119
 5843SOL     OW29164   3.969   3.449  14.904 -0.5471  0.3955  0.0982
 5843SOL    HW129165   4.027   3.494  14.965  0.6344  1.1795 -1.6002
 5843SOL    HW229166   3.921   3.405  14.973  0.3131 -1.9093 -0.7626
 5844SOL     OW29167   1.066   1.272   6.424  0.1199  0.3245 -0.1467
 5844SOL    HW129168   1.003   1.210   6.462  1.8244  0.2657  2.5463
 5844SOL    HW229169   1.017   1.303   6.348  1.2139  0.8416 -0.6392
 5845SOL     OW29170   1.237   3.653   1.372  0.1478 -0.1988  0.1421
 5845SOL    HW129171   1.326   3.631   1.344  0.5860  1.5587  0.0907
 5845SOL    HW229172   1.240   3.662   1.467  0.1178  1.6412 -0.0243
 5846SOL     OW29173   2.301   1.544   2.922  0.5859 -0.2242 -0.5799
 5846SOL    HW129174   2.231   1.505   2.870  0.9440 -2.3937  0.5765
 5846SOL    HW229175   2.242   1.607   2.964 -0.3782 -2.6463  1.7083
 5847SOL     OW29176   2.091   0.848   2.741 -0.5106 -0.5277  0.4074
 5847SOL    HW129177   2.061   0.809   2.823  1.4609  0.9933  1.8635
 5847SOL    HW229178   2.109   0.937   2.770 -2.8943  0.7349 -2.0480
 5848SOL     OW29179   4.361   2.085  12.438 -0.2716  0.6392 -0.2120
 5848SOL    HW129180   4.362   1.989  12.445  1.0919  0.7445  1.0498
 5848SOL    HW229181   4.299   2.101  12.509 -0.2211  0.0003 -0.0249
 5849SOL     OW29182   4.537   0.639   1.044  0.2402 -0.1704  0.1880
 5849SOL    HW129183   4.562   0.553   1.009  1.0940  0.6696 -1.2609
 5849SOL    HW229184   4.609   0.698   1.021  1.0236 -0.5136  1.7757
 5850SOL     OW29185   4.689   3.936   4.719 -1.0136 -0.2249 -0.0371
 5850SOL    HW129186   0.046   3.955   4.715 -0.5096 -2.6548  0.2048
 5850SOL    HW229187   4.677   3.923   4.813 -2.2620  0.4743 -0.0981
 5851SOL     OW29188   2.582   0.873   2.751  0.2271 -0.5974 -0.6375
 5851SOL    HW129189   2.558   0.825   2.672 -0.9672 -0.7080 -0.2075
 5851SOL    HW229190   2.614   0.804   2.810 -3.3632 -0.6822  1.1991
 5852SOL     OW29191   0.474   3.094   8.450 -0.2288  0.4516 -0.1298
 5852SOL    HW129192   0.492   3.183   8.480  0.5386 -0.2498  1.5251
 5852SOL    HW229193   0.530   3.090   8.372  1.0902 -0.3182  0.8570
 5853SOL     OW29194   3.094   1.550  13.545  0.1049  0.2040 -0.0216
 5853SOL    HW129195   3.134   1.547  13.632  0.4803  1.2736 -0.1543
 5853SOL    HW229196   3.104   1.644  13.530 -3.3473  0.7736  1.3306
 5854SOL     OW29197   2.940   0.713   3.227  0.0195  0.5176  0.0930
 5854SOL    HW129198   2.852   0.733   3.257  0.7452  0.3060  2.3791
 5854SOL    HW229199   2.942   0.637   3.286  0.0460 -0.9302 -1.7673
 5855SOL     OW29200   3.635   2.661   8.812 -0.7350  0.5493 -0.1279
 5855SOL    HW129201   3.583   2.661   8.892  1.4189  2.4763  1.2715
 5855SOL    HW229202   3.669   2.572   8.824  2.0369  1.6429  0.2299
 5856SOL     OW29203   0.244   2.916  17.403 -0.3229 -0.3033  0.1697
 5856SOL    HW129204   0.238   3.005  17.369  1.2751  0.2354  1.2906
 5856SOL    HW229205   0.325   2.918  17.453 -0.1050 -2.9294 -0.0545
 5857SOL     OW29206   3.667   4.510  12.233 -0.2508 -0.2734 -0.0496
 5857SOL    HW129207   3.732   4.485  12.298  2.0037  1.7543 -1.5352
 5857SOL    HW229208   3.650   4.426  12.191  2.3003 -0.6306 -0.3507
 5858SOL     OW29209   1.492   0.202   6.858 -0.3280 -0.3351 -0.6465
 5858SOL    HW129210   1.568   0.253   6.828  0.0331 -0.5976 -0.1837
 5858SOL    HW229211   1.517   0.192   6.950 -0.9213 -0.3718 -0.4875
 5859SOL     OW29212   1.681   0.964  12.057 -0.1680 -0.1825  0.4313
 5859SOL    HW129213   1.655   0.893  12.116  1.5791 -2.1281 -1.1560
 5859SOL    HW229214   1.754   0.999  12.108 -0.5270 -0.6286  1.2638
 5860SOL     OW29215   1.897   4.687   7.420  0.2749  0.0901  0.0721
 5860SOL    HW129216   1.841   0.020   7.387 -1.4238 -0.9544  0.7372
 5860SOL    HW229217   1.841   4.623   7.463  0.1796  1.2884  1.7674
 5861SOL     OW29218   4.643   0.923   9.365 -0.2339 -0.8604 -0.1008
 5861SOL    HW129219   4.559   0.892   9.400 -0.6287  0.8842  0.5190
 5861SOL    HW229220   4.651   1.013   9.397 -0.4943 -1.4544  1.6187
 5862SOL     OW29221   3.694   1.722   5.389 -0.0207 -0.2086 -0.1789
 5862SOL    HW129222   3.767   1.671   5.424 -1.2066 -0.5184  1.8797
 5862SOL    HW229223   3.672   1.779   5.463 -0.7941 -1.6157  0.6761
 5863SOL     OW29224   1.970   0.548   2.289  0.3039 -0.0089  0.0473
 5863SOL    HW129225   1.936   0.634   2.314 -1.7097 -0.4811 -1.0310
 5863SOL    HW229226   1.968   0.562   2.194 -0.0699 -1.0115 -0.0967
 5864SOL     OW29227   2.307   0.876   7.284 -1.1815 -0.0447 -0.3483
 5864SOL    HW129228   2.376   0.888   7.350 -0.4361 -0.9795 -0.9657
 5864SOL    HW229229   2.330   0.950   7.228 -2.7534  0.0604 -0.8591
 5865SOL     OW29230   4.365   3.969   5.820 -0.3116 -1.0860 -0.3513
 5865SOL    HW129231   4.294   4.028   5.846  0.6856 -0.0476  0.0402
 5865SOL    HW229232   4.439   4.029   5.835 -2.0235  0.6631  1.0645
 5866SOL     OW29233   1.878   4.412   6.951 -0.2036 -0.4049 -0.0801
 5866SOL    HW129234   1.876   4.346   6.882 -0.4548 -1.2058  0.6919
 5866SOL    HW229235   1.853   4.492   6.904 -0.4039 -0.4774 -0.0981
 5867SOL     OW29236   0.751   0.440  14.046  0.0422 -0.0253 -0.5115
 5867SOL    HW129237   0.828   0.475  14.090  0.3232  0.9357 -1.7674
 5867SOL    HW229238   0.704   0.426  14.128 -0.1910 -0.5491 -0.7324
 5868SOL     OW29239   0.214   1.844  10.881 -0.1184  0.1410  0.3998
 5868SOL    HW129240   0.167   1.876  10.959  0.4725  1.4289  0.2371
 5868SOL    HW229241   0.277   1.916  10.873 -0.9454  0.9281  0.9023
 5869SOL     OW29242   0.950   4.699   7.898  0.3329  0.3852  0.0758
 5869SOL    HW129243   0.942   4.694   7.803 -0.1544 -1.1179  0.2016
 5869SOL    HW229244   1.019   4.634   7.912 -0.6883 -0.7722 -0.3288
 5870SOL     OW29245   3.353   4.588   6.556 -0.0592 -0.0103  0.1323
 5870SOL    HW129246   3.326   4.533   6.482  0.3463 -0.0857  0.0373
 5870SOL    HW229247   3.401   4.524   6.609  1.6018  1.9220  0.9324
 5871SOL     OW29248   1.705   2.578   8.350 -0.3438 -0.2999  0.1873
 5871SOL    HW129249   1.774   2.637   8.319 -0.1808 -0.0512  1.0271
 5871SOL    HW229250   1.759   2.511   8.392 -2.7149 -1.5685  1.2464
 5872SOL     OW29251   1.863   0.141   7.038 -0.0821 -0.3361  0.8521
 5872SOL    HW129252   1.943   0.183   7.069 -0.4110  0.6096  0.4094
 5872SOL    HW229253   1.881   0.054   7.075  0.5375 -0.6694 -0.2407
 5873SOL     OW29254   0.974   2.328   4.983 -0.2900 -0.3460  0.0254
 5873SOL    HW129255   1.049   2.355   4.930  0.3584  0.3159  1.2734
 5873SOL    HW229256   0.918   2.402   4.961 -0.6633 -1.1234 -1.6115
 5874SOL     OW29257   1.437   3.071   4.788 -0.4498  0.2887 -0.1589
 5874SOL    HW129258   1.465   3.152   4.746 -3.7079  1.1281 -0.7173
 5874SOL    HW229259   1.490   3.063   4.867  0.3732  0.6055 -0.6862
 5875SOL     OW29260   1.347   1.157   8.003 -0.0272  0.2150 -0.1706
 5875SOL    HW129261   1.324   1.132   7.913 -0.9895 -0.4077  0.2620
 5875SOL    HW229262   1.412   1.088   8.016 -1.3943 -0.7121  1.5559
 5876SOL     OW29263   2.523   3.124   9.257 -0.0130  0.3803 -0.2085
 5876SOL    HW129264   2.554   3.124   9.347  0.3225 -1.5146 -0.3206
 5876SOL    HW229265   2.542   3.034   9.231 -1.8669 -0.1148  0.0936
 5877SOL     OW29266   1.229   4.452  14.559  0.3034 -0.3213  0.3340
 5877SOL    HW129267   1.250   4.410  14.642 -2.3266 -0.6333  0.8455
 5877SOL    HW229268   1.294   4.523  14.558 -0.2692  0.1792 -0.9845
 5878SOL     OW29269   3.349   0.522   3.160  0.5621 -0.2028 -0.1179
 5878SOL    HW129270   3.407   0.461   3.116 -1.6262 -3.3564  1.2969
 5878SOL    HW229271   3.412   0.585   3.194  1.5434 -1.0413 -0.3978
 5879SOL     OW29272   0.679   2.716   7.460 -0.3916 -0.4232  0.0259
 5879SOL    HW129273   0.662   2.622   7.466  0.9866 -0.6907 -0.3503
 5879SOL    HW229274   0.709   2.732   7.371 -1.1770  6.0431  0.9192
 5880SOL     OW29275   0.934   0.238  16.903  0.8690  0.0397  0.1798
 5880SOL    HW129276   1.020   0.218  16.865  0.6406 -0.1983 -0.2183
 5880SOL    HW229277   0.946   0.247  16.997  1.5824  1.8957 -0.0976
 5881SOL     OW29278   2.004   1.555   0.261  0.2420  0.6733  0.4444
 5881SOL    HW129279   1.942   1.502   0.312 -1.5585  0.6637 -1.7907
 5881SOL    HW229280   2.065   1.495   0.219  0.2534  0.0514  1.3483
 5882SOL     OW29281   0.670   1.859   8.824  0.3072 -0.3974  0.0794
 5882SOL    HW129282   0.692   1.898   8.908 -0.5995  0.2523  0.0121
 5882SOL    HW229283   0.758   1.836   8.793  1.4581  0.4875  2.6992
 5883SOL     OW29284   3.775   1.159  13.425  0.1505  0.0364 -0.1693
 5883SOL    HW129285   3.708   1.227  13.430  0.1004 -0.1674  1.6442
 5883SOL    HW229286   3.829   1.201  13.358  1.1157 -0.5555  0.2440
 5884SOL     OW29287   0.042   2.643   1.751  0.2294 -0.2709  0.4639
 5884SOL    HW129288   0.018   2.665   1.661 -0.9138 -4.5609 -0.2548
 5884SOL    HW229289   0.130   2.680   1.745  0.5525 -1.1947 -0.5930
 5885SOL     OW29290   1.580   1.577   5.006 -0.6681  0.4222 -0.3539
 5885SOL    HW129291   1.506   1.637   4.996 -1.4931 -0.6627 -0.7217
 5885SOL    HW229292   1.560   1.528   5.086  0.9430 -1.5066 -1.1417
 5886SOL     OW29293   0.984   2.123   5.788  0.5237  0.0596  0.1379
 5886SOL    HW129294   0.911   2.149   5.732 -0.3901 -4.9211 -1.0042
 5886SOL    HW229295   0.962   2.031   5.804 -2.1537  0.8548  1.1961
 5887SOL     OW29296   0.132   3.024   6.612  0.1870  0.7616 -0.2635
 5887SOL    HW129297   0.115   2.976   6.693 -1.4150 -2.2758 -2.4146
 5887SOL    HW229298   0.132   3.112   6.649  1.6285  1.8507 -2.7959
 5888SOL     OW29299   0.610   1.254  14.434 -0.3352 -0.1933 -0.2397
 5888SOL    HW129300   0.674   1.305  14.485  1.1240  0.1958 -2.4406
 5888SOL    HW229301   0.543   1.320  14.418  1.2576  1.7864  1.2299
 5889SOL     OW29302   2.420   3.929   5.367 -0.1455 -0.5090 -0.2610
 5889SOL    HW129303   2.469   3.974   5.437 -0.1880  0.3245 -0.7638
 5889SOL    HW229304   2.370   3.869   5.422 -1.4783  1.0144  0.1948
 5890SOL     OW29305   4.238   3.442   4.965  0.1307 -0.1546  0.0252
 5890SOL    HW129306   4.293   3.425   5.041 -1.2456  0.5463  1.1738
 5890SOL    HW229307   4.198   3.357   4.950 -0.9699 -0.0332  2.2038
 5891SOL     OW29308   4.467   0.555   2.714 -0.1779 -0.0395  0.1443
 5891SOL    HW129309   4.475   0.643   2.752 -0.1930  0.2773 -0.5974
 5891SOL    HW229310   4.409   0.520   2.782 -0.0077  0.2249  0.4262
 5892SOL     OW29311   0.635   0.375  14.302  0.6225 -0.0558 -0.0778
 5892SOL    HW129312   0.572   0.339  14.240 -1.7737  1.7280  1.3170
 5892SOL    HW229313   0.636   0.319  14.379 -1.2983 -2.2831 -1.6929
 5893SOL     OW29314   1.153   4.149   2.946  0.5827  0.2168  0.8038
 5893SOL    HW129315   1.171   4.075   2.889  1.9082  0.1959  1.2552
 5893SOL    HW229316   1.136   4.111   3.033  1.6944 -1.1113  0.4268
 5894SOL     OW29317   2.125   0.683   9.100 -0.1006  0.3929  0.1042
 5894SOL    HW129318   2.218   0.662   9.098 -0.0400  0.5892  0.9351
 5894SOL    HW229319   2.128   0.770   9.060 -1.5587  0.8787  1.0348
 5895SOL     OW29320   0.660   2.146  12.981  0.6634 -0.0695  0.4611
 5895SOL    HW129321   0.685   2.110  13.067  0.5416 -0.0337  0.5114
 5895SOL    HW229322   0.702   2.080  12.927 -0.4525 -0.1341 -0.3150
 5896SOL     OW29323   2.450   1.894   3.618 -0.1883 -0.0439 -0.4549
 5896SOL    HW129324   2.376   1.905   3.558 -1.3968 -0.2922  0.9995
 5896SOL    HW229325   2.515   1.950   3.577 -0.5609 -0.6744 -1.9263
 5897SOL     OW29326   2.934   2.345  12.423  0.1965  0.1505  0.1439
 5897SOL    HW129327   3.000   2.405  12.390 -1.9644  1.6964 -1.4173
 5897SOL    HW229328   2.988   2.283  12.472  0.8901  1.6474  1.2857
 5898SOL     OW29329   2.670   0.174   2.096  0.9515  0.2199  0.0171
 5898SOL    HW129330   2.662   0.140   2.007  1.5699 -2.5266  1.0155
 5898SOL    HW229331   2.686   0.089   2.137 -1.9012 -0.9701 -1.3479
 5899SOL     OW29332   3.669   2.094  13.959  0.0984  0.1765 -0.0842
 5899SOL    HW129333   3.682   2.031  13.888 -0.3836 -1.4637  1.2839
 5899SOL    HW229334   3.631   2.029  14.019 -1.0003  0.7400 -0.1654
 5900SOL     OW29335   2.547   0.839   9.780 -0.3964  0.2047 -0.1886
 5900SOL    HW129336   2.470   0.815   9.832 -0.9140  0.0261 -1.0399
 5900SOL    HW229337   2.514   0.892   9.707  2.7187  1.9983 -0.2851
 5901SOL     OW29338   0.658   4.193   4.833 -0.5743 -0.2953 -0.0896
 5901SOL    HW129339   0.590   4.129   4.854 -0.6943  0.2858  1.3389
 5901SOL    HW229340   0.694   4.157   4.753  0.8005 -1.2454  0.9747
 5902SOL     OW29341   2.510   4.524   1.097  0.6491 -0.3495 -0.1295
 5902SOL    HW129342   2.534   4.590   1.031 -0.5331 -0.9021 -1.0982
 5902SOL    HW229343   2.446   4.573   1.148 -0.3287  0.2859 -1.9699
 5903SOL     OW29344   2.957   0.317   1.487  0.9540  0.1357 -0.0920
 5903SOL    HW129345   2.977   0.228   1.518  0.5971 -0.5082 -1.7230
 5903SOL    HW229346   2.978   0.378   1.557 -1.7134 -0.5602  1.3203
 5904SOL     OW29347   1.960   0.465   7.250 -0.1261  0.6350 -0.5957
 5904SOL    HW129348   2.017   0.509   7.313 -1.2475  1.5741 -0.2527
 5904SOL    HW229349   1.984   0.372   7.249 -0.7814  0.4234  3.4850
 5905SOL     OW29350   2.019   0.112  14.370  0.0319 -0.1532 -0.2283
 5905SOL    HW129351   1.965   0.077  14.299  2.0189 -1.4285 -1.1145
 5905SOL    HW229352   1.982   0.071  14.448  1.9596 -0.7086  0.4174
 5906SOL     OW29353   0.854   2.954  13.792  0.0345 -0.5891 -0.5371
 5906SOL    HW129354   0.775   2.932  13.743 -0.4433  2.3089 -1.0481
 5906SOL    HW229355   0.822   2.933  13.879  1.2177  0.6880  0.2087
 5907SOL     OW29356   2.304   4.360   8.020  0.4357  0.1818  0.3516
 5907SOL    HW129357   2.292   4.272   8.054  3.4511 -1.2415 -2.2887
 5907SOL    HW229358   2.226   4.362   7.966 -0.2441  1.5817  1.3769
 5908SOL     OW29359   3.048   1.209   6.461 -0.1345  0.1766  0.3269
 5908SOL    HW129360   3.021   1.127   6.502  0.8681 -1.1228 -1.6213
 5908SOL    HW229361   2.966   1.238   6.421  0.6695  0.1184 -1.3604
 5909SOL     OW29362   3.974   2.017   4.559  0.9717  0.2968  0.3948
 5909SOL    HW129363   3.947   1.929   4.586  1.3905  0.4702  1.4063
 5909SOL    HW229364   3.898   2.070   4.582  1.1855  1.0343 -0.6092
 5910SOL     OW29365   1.029   1.733   1.938 -0.5749  0.1953  0.3753
 5910SOL    HW129366   1.025   1.762   2.029 -2.2875  1.8809 -0.2439
 5910SOL    HW229367   1.072   1.649   1.955  0.5685  0.4526 -1.2767
 5911SOL     OW29368   4.082   4.453  12.041  0.3746 -0.0947 -0.5710
 5911SOL    HW129369   4.001   4.480  12.083  0.4797  0.0537 -0.4628
 5911SOL    HW229370   4.055   4.455  11.949  1.3356  0.6809 -0.8350
 5912SOL     OW29371   3.865   3.464   3.062  0.1268 -0.2207  0.7760
 5912SOL    HW129372   3.846   3.404   3.134 -0.4809  0.1829  0.9587
 5912SOL    HW229373   3.774   3.484   3.039  0.0862 -1.8871 -0.5119
 5913SOL     OW29374   3.860   2.970  15.711 -0.1767 -0.2630  0.2265
 5913SOL    HW129375   3.917   2.945  15.784 -1.1172  2.5005  1.8839
 5913SOL    HW229376   3.878   3.064  15.712  0.5385 -0.3805 -1.4991
 5914SOL     OW29377   3.184   4.077   7.749  0.6342 -0.1834  0.3525
 5914SOL    HW129378   3.115   4.041   7.694 -0.7175  2.3652  0.3911
 5914SOL    HW229379   3.217   4.145   7.691 -0.5307 -0.9317 -1.1705
 5915SOL     OW29380   2.249   0.048   4.466  0.4883 -0.4501 -0.2805
 5915SOL    HW129381   2.308   4.728   4.418  0.8070 -2.4142  2.4544
 5915SOL    HW229382   2.222   4.731   4.540 -1.1481 -0.1560 -0.6707
 5916SOL     OW29383   1.473   0.987   7.526  0.4578 -0.1587 -0.1500
 5916SOL    HW129384   1.520   1.052   7.473 -2.2510  0.5138 -1.7176
 5916SOL    HW229385   1.433   0.932   7.459  0.2714 -2.5018  1.9185
 5917SOL     OW29386   0.547   0.503   4.136 -0.2120 -0.2860 -0.1614
 5917SOL    HW129387   0.576   0.520   4.225  1.2056 -0.7099 -0.5512
 5917SOL    HW229388   0.558   0.579   4.079  0.6634 -0.6387 -0.4485
 5918SOL     OW29389   3.722   3.848   3.841 -0.4436  0.5641  0.4070
 5918SOL    HW129390   3.701   3.769   3.891 -1.9967  0.7453  0.0393
 5918SOL    HW229391   3.636   3.889   3.848 -0.8452  0.1342 -1.9298
 5919SOL     OW29392   1.385   3.853   0.794 -0.3031 -0.3227 -0.0792
 5919SOL    HW129393   1.308   3.893   0.834 -0.8598 -0.5903 -0.8964
 5919SOL    HW229394   1.342   3.795   0.731  1.4180 -0.8607 -0.7564
 5920SOL     OW29395   0.896   0.354   7.812  0.3188 -0.5162 -0.1535
 5920SOL    HW129396   0.969   0.300   7.842 -0.7378 -2.3338 -0.8563
 5920SOL    HW229397   0.873   0.398   7.893  0.8441  1.2736 -0.9774
 5921SOL     OW29398   0.998   3.259  13.188  0.2754 -0.4641  0.2304
 5921SOL    HW129399   1.032   3.282  13.274 -3.4400  1.1715  1.2877
 5921SOL    HW229400   0.972   3.344  13.153 -0.6336 -0.4808  0.8499
 5922SOL     OW29401   3.175   2.397   4.817  0.4511  0.0038  0.0255
 5922SOL    HW129402   3.089   2.358   4.806 -0.6918  1.4244  4.0603
 5922SOL    HW229403   3.236   2.330   4.846  1.0633  0.7312  0.4274
 5923SOL     OW29404   4.401   2.024   8.345 -0.0697 -0.6921  0.3961
 5923SOL    HW129405   4.338   2.084   8.304  0.8260 -0.0978 -0.1175
 5923SOL    HW229406   4.374   1.936   8.319 -2.3521  0.0559  0.1613
 5924SOL     OW29407   2.736   3.587   3.953  0.5482  0.5837 -0.4226
 5924SOL    HW129408   2.702   3.517   3.898 -3.4168  1.5971  0.7502
 5924SOL    HW229409   2.659   3.641   3.970  0.2009 -0.4245  1.2169
 5925SOL     OW29410   0.272   2.111   2.149  0.3618  0.5175  0.2130
 5925SOL    HW129411   0.279   2.199   2.187  0.2112 -0.9968  3.7588
 5925SOL    HW229412   0.354   2.067   2.171  0.9888  0.5545 -2.1023
 5926SOL     OW29413   2.689   4.070  14.123  0.1093 -0.1203 -0.4154
 5926SOL    HW129414   2.734   4.152  14.142  1.0823 -0.4365 -1.3897
 5926SOL    HW229415   2.723   4.009  14.189 -1.6956 -0.7704 -0.1033
 5927SOL     OW29416   4.262   3.704   4.097 -0.4428 -0.3925 -0.5807
 5927SOL    HW129417   4.329   3.727   4.033 -1.2569 -0.3547 -1.4265
 5927SOL    HW229418   4.324   3.654   4.150 -0.3239 -1.0460 -1.3287
 5928SOL     OW29419   3.531   4.237   6.335 -0.1978 -0.6048 -0.8664
 5928SOL    HW129420   3.589   4.186   6.392 -0.3933 -2.5435 -2.3984
 5928SOL    HW229421   3.594   4.308   6.322 -1.9627  1.1518  0.3962
 5929SOL     OW29422   3.223   1.929   3.995 -0.2630  0.7800 -1.0990
 5929SOL    HW129423   3.133   1.917   4.023  0.3076 -1.0301 -0.0943
 5929SOL    HW229424   3.245   1.837   3.987 -0.1913  0.8899 -2.1947
 5930SOL     OW29425   3.165   2.271  13.394  0.6272 -0.6664 -0.0416
 5930SOL    HW129426   3.183   2.349  13.446  1.1746  0.8601 -2.5211
 5930SOL    HW229427   3.174   2.302  13.304  0.9199 -0.9116 -0.0963
 5931SOL     OW29428   2.546   4.371   7.820  0.5129 -0.5863 -0.0741
 5931SOL    HW129429   2.482   4.351   7.887  0.3547  0.7479  0.1649
 5931SOL    HW229430   2.527   4.307   7.752  2.0397 -0.5210 -0.5612
 5932SOL     OW29431   2.951   3.764   1.842  0.9814  0.6019 -0.7467
 5932SOL    HW129432   3.016   3.693   1.838  1.6622  1.2123 -0.4950
 5932SOL    HW229433   2.927   3.767   1.935 -1.0297  2.6358 -1.3458
 5933SOL     OW29434   0.673   3.366  17.070 -0.2592 -0.2512 -0.0718
 5933SOL    HW129435   0.629   3.439  17.027  0.3945 -0.3852 -0.9981
 5933SOL    HW229436   0.624   3.300  17.021 -1.2913 -0.9786  1.9939
 5934SOL     OW29437   1.675   1.709   3.448 -0.6067  0.4331  0.0921
 5934SOL    HW129438   1.581   1.722   3.438 -0.7253 -0.3977  0.0729
 5934SOL    HW229439   1.684   1.616   3.471  2.4873  0.0124 -2.9043
 5935SOL     OW29440   3.755   2.483   7.921 -0.9778  0.3168 -0.0937
 5935SOL    HW129441   3.803   2.509   7.843 -1.2697 -0.0018 -0.3792
 5935SOL    HW229442   3.746   2.568   7.965  1.2980  0.3797  0.2267
 5936SOL     OW29443   1.211   2.746   3.356 -0.2205  0.1361  0.2883
 5936SOL    HW129444   1.159   2.767   3.434 -1.2048 -0.8059 -0.1110
 5936SOL    HW229445   1.220   2.834   3.319  1.3835  0.3790  1.2935
 5937SOL     OW29446   2.373   4.627   1.625  0.0407 -0.3750 -0.0216
 5937SOL    HW129447   2.417   4.710   1.644  0.2025 -0.9810  2.1602
 5937SOL    HW229448   2.389   4.590   1.711 -2.8586 -0.5087  0.4651
 5938SOL     OW29449   1.868   2.324  13.645  0.1275 -0.5513 -0.1193
 5938SOL    HW129450   1.911   2.265  13.706 -0.6635  0.1333  1.0837
 5938SOL    HW229451   1.933   2.394  13.642  0.3211 -0.7685 -1.3746
 5939SOL     OW29452   2.920   0.793  12.189 -0.4461  0.1854 -0.2078
 5939SOL    HW129453   2.951   0.709  12.156  2.1029  1.3928 -0.9000
 5939SOL    HW229454   2.995   0.849  12.170  1.2970 -2.1488 -0.1406
 5940SOL     OW29455   0.087   0.398   3.152  0.3517  0.2312 -0.2959
 5940SOL    HW129456   0.029   0.447   3.210 -0.4886  0.9221 -1.7035
 5940SOL    HW229457   0.057   0.441   3.072  0.3525 -0.4762 -0.6772
 5941SOL     OW29458   0.185   4.006  10.712  0.2105 -0.2759  0.2307
 5941SOL    HW129459   0.242   4.064  10.663 -0.6213  0.3119 -0.0411
 5941SOL    HW229460   0.206   4.039  10.800 -0.6739  0.5810  0.1175
 5942SOL     OW29461   2.208   4.268   3.297  0.5767 -0.7210  0.4002
 5942SOL    HW129462   2.257   4.301   3.222 -1.3787  0.4189 -0.3851
 5942SOL    HW229463   2.136   4.242   3.239  1.9832  0.0213 -1.6805
 5943SOL     OW29464   1.410   3.253   6.827 -0.5738 -0.1595  0.3072
 5943SOL    HW129465   1.324   3.255   6.868  0.6421  1.8723  2.7300
 5943SOL    HW229466   1.467   3.206   6.888  0.4536 -0.5951 -0.9769
 5944SOL     OW29467   1.839   2.353   3.587 -0.1837  0.2764  0.0742
 5944SOL    HW129468   1.921   2.306   3.600 -1.1623 -2.0043 -2.0371
 5944SOL    HW229469   1.775   2.283   3.579  0.6640 -0.7793  2.5743
 5945SOL     OW29470   4.622   1.389  11.992 -0.1913  0.2096 -0.9686
 5945SOL    HW129471   4.715   1.368  11.982 -0.0354  0.4449 -0.0287
 5945SOL    HW229472   4.589   1.343  11.914 -0.0915 -0.8966 -0.3533
 5946SOL     OW29473   4.399   0.809   6.139  0.5562  0.0841  0.1536
 5946SOL    HW129474   4.445   0.758   6.073  1.2596  0.5351  0.3001
 5946SOL    HW229475   4.444   0.893   6.144  0.8954  0.0724 -2.9846
 5947SOL     OW29476   4.291   0.963  16.471  0.1962 -0.6654  0.4006
 5947SOL    HW129477   4.235   0.903  16.422  0.4122 -1.0853  0.6668
 5947SOL    HW229478   4.254   0.947  16.558 -1.4293 -0.3667 -0.2322
 5948SOL     OW29479   3.255   4.505   6.294  0.4862 -0.4251 -0.2822
 5948SOL    HW129480   3.237   4.450   6.218  0.4298  0.7977 -1.1522
 5948SOL    HW229481   3.237   4.591   6.256 -1.2263 -1.1415 -1.0766
 5949SOL     OW29482   3.340   4.425  11.046 -0.3453 -0.1211  0.5284
 5949SOL    HW129483   3.327   4.347  11.099  2.7951 -1.5382 -0.7882
 5949SOL    HW229484   3.345   4.379  10.962  0.3754 -0.2742  0.6579
 5950SOL     OW29485   0.921   4.714   1.021  0.4912  0.3223  0.4226
 5950SOL    HW129486   0.876   4.691   1.102  1.0688  3.9334  1.7965
 5950SOL    HW229487   0.934   4.628   0.982  0.3751 -0.0981  1.3198
 5951SOL     OW29488   4.285   0.088  13.931 -0.1877  0.5324  0.0097
 5951SOL    HW129489   4.216   0.154  13.936 -0.8201  0.0166 -2.0376
 5951SOL    HW229490   4.321   0.104  14.018  0.6351 -1.8194  0.1030
 5952SOL     OW29491   4.205   1.795   8.677 -0.6194  0.2897 -0.0678
 5952SOL    HW129492   4.203   1.878   8.724  1.8845  0.5491 -0.4027
 5952SOL    HW229493   4.141   1.814   8.609 -0.9129 -1.2444 -0.2386
 5953SOL     OW29494   2.788   4.455   8.324  0.5776  0.1818  0.1948
 5953SOL    HW129495   2.878   4.464   8.355  0.6575  1.4826 -0.4031
 5953SOL    HW229496   2.778   4.360   8.330  0.5103  0.1345 -0.7297
 5954SOL     OW29497   1.685   1.061   7.155  0.3862  0.3571 -0.0428
 5954SOL    HW129498   1.620   1.122   7.119  0.6113  0.2120 -0.7024
 5954SOL    HW229499   1.766   1.083   7.109  0.9914 -0.7793  0.4711
 5955SOL     OW29500   0.219   0.457  16.159 -0.2053 -0.0615  0.4021
 5955SOL    HW129501   0.254   0.414  16.081  0.8030  1.4244  0.0442
 5955SOL    HW229502   0.231   0.547  16.130  0.0426  0.4268  2.0295
 5956SOL     OW29503   4.556   3.132   3.191 -0.2377  0.1801  0.7264
 5956SOL    HW129504   4.590   3.070   3.127 -0.5230  1.3073 -0.5329
 5956SOL    HW229505   4.517   3.202   3.137  2.6976  0.4962 -0.9722
 5957SOL     OW29506   1.075   0.301  13.485 -0.0931  0.9564 -0.0099
 5957SOL    HW129507   1.010   0.235  13.466 -0.0304  0.7826  0.3633
 5957SOL    HW229508   1.012   0.368  13.511 -0.1999  0.4297  1.1081
 5958SOL     OW29509   0.345   3.301   6.095 -0.0391  0.8348  0.0646
 5958SOL    HW129510   0.385   3.360   6.159 -0.1765 -0.2712  1.1647
 5958SOL    HW229511   0.394   3.220   6.110 -0.9955  0.8498  3.2289
 5959SOL     OW29512   0.875   1.662   0.904 -0.0803 -0.1700  0.6423
 5959SOL    HW129513   0.924   1.744   0.901  0.1174 -0.2537  1.4814
 5959SOL    HW229514   0.810   1.679   0.836  1.8502  0.0110 -1.1682
 5960SOL     OW29515   3.783   3.777   5.410 -0.0536  0.4475  0.0808
 5960SOL    HW129516   3.716   3.832   5.451  0.7024  1.6157 -0.2492
 5960SOL    HW229517   3.830   3.855   5.381  0.5748  0.1464  0.2830
 5961SOL     OW29518   0.886   4.379  17.317 -0.6005 -0.3887  0.0959
 5961SOL    HW129519   0.837   4.301  17.290  1.4861 -1.3294 -0.9080
 5961SOL    HW229520   0.906   4.348  17.406  0.1390 -1.2212 -0.3576
 5962SOL     OW29521   1.789   2.947   3.223 -0.6217 -0.1800  0.2284
 5962SOL    HW129522   1.723   2.917   3.287 -1.0596 -0.7337 -0.4866
 5962SOL    HW229523   1.875   2.925   3.259 -0.2557 -1.9582 -1.8114
 5963SOL     OW29524   1.463   1.053   3.227 -0.2300 -0.1149 -0.4895
 5963SOL    HW129525   1.493   0.994   3.295 -1.2329 -0.4332 -0.3277
 5963SOL    HW229526   1.383   1.082   3.271 -0.4807  1.5620 -2.0199
 5964SOL     OW29527   1.703   1.230  16.032  0.1950 -0.2628 -0.0167
 5964SOL    HW129528   1.730   1.322  16.042 -0.6810 -0.1608  1.3526
 5964SOL    HW229529   1.647   1.217  16.109 -0.6281  2.8416 -0.0687
 5965SOL     OW29530   1.027   1.894   0.897 -0.0174 -0.0978  0.7372
 5965SOL    HW129531   1.038   1.965   0.834  2.5172 -0.8234  0.3836
 5965SOL    HW229532   1.034   1.947   0.977  1.6880  0.2036  0.3901
 5966SOL     OW29533   3.411   0.100  11.995 -0.2311 -0.3895  0.4010
 5966SOL    HW129534   3.339   0.070  12.050 -0.2823 -2.4334 -0.7699
 5966SOL    HW229535   3.406   0.035  11.925  0.9410 -1.1500  1.0185
 5967SOL     OW29536   0.717   1.461  10.223  0.1029 -0.3070  0.1710
 5967SOL    HW129537   0.720   1.557  10.214 -1.1528 -0.4874 -2.0764
 5967SOL    HW229538   0.689   1.442  10.133  2.2291  1.3521 -0.8368
 5968SOL     OW29539   2.280   3.380   4.485  0.3211  0.5331 -0.2343
 5968SOL    HW129540   2.186   3.384   4.468  0.4683  2.8045 -0.5258
 5968SOL    HW229541   2.286   3.303   4.541  1.2397  2.1359  1.8468
 5969SOL     OW29542   1.694   4.621  13.063  0.2027 -0.0330 -0.2261
 5969SOL    HW129543   1.719   4.698  13.012  1.6193 -1.2052 -1.3065
 5969SOL    HW229544   1.616   4.600  13.012  0.1676  0.1680 -0.2556
 5970SOL     OW29545   2.712   1.815  11.176 -0.2308  0.0120  0.0200
 5970SOL    HW129546   2.744   1.748  11.237 -0.9455 -1.6526 -1.4410
 5970SOL    HW229547   2.747   1.897  11.213  1.2793 -0.1340 -1.0607
 5971SOL     OW29548   4.501   1.130   3.349 -0.2064  0.5308  0.5755
 5971SOL    HW129549   4.470   1.185   3.422 -2.1448 -0.0130  0.1655
 5971SOL    HW229550   4.582   1.167   3.316 -0.8523  0.5794 -0.9237
 5972SOL     OW29551   0.970   2.737   9.393 -0.0724 -0.5569 -0.1364
 5972SOL    HW129552   0.933   2.804   9.450  0.9086 -1.7226  1.8346
 5972SOL    HW229553   0.895   2.690   9.356 -0.6926  0.6055 -0.3749
 5973SOL     OW29554   3.313   2.481   6.197 -0.2290 -0.0833  0.1070
 5973SOL    HW129555   3.372   2.516   6.129  0.1880  1.3779  1.2167
 5973SOL    HW229556   3.228   2.470   6.155 -0.4746  0.4564  0.4709
 5974SOL     OW29557   0.709   2.911  13.503  0.1908 -0.3203  0.2187
 5974SOL    HW129558   0.683   2.837  13.448  0.6207 -0.6640  0.4790
 5974SOL    HW229559   0.641   2.904  13.570  1.0878  0.1285  1.1777
 5975SOL     OW29560   2.623   3.389   8.907  0.7245  0.1561  0.0373
 5975SOL    HW129561   2.546   3.335   8.893  1.5548  0.1687 -4.6507
 5975SOL    HW229562   2.590   3.470   8.869  0.8645 -0.3013 -1.0904
 5976SOL     OW29563   3.821   3.034   8.230 -0.1340  0.1661  0.3025
 5976SOL    HW129564   3.739   3.006   8.190  0.7004 -0.6201 -0.8330
 5976SOL    HW229565   3.819   3.128   8.211  0.3195 -0.0045 -0.5732
 5977SOL     OW29566   3.080   1.143  16.504 -0.1309 -0.4111  0.5865
 5977SOL    HW129567   3.146   1.183  16.447 -0.4302  1.1898  1.3529
 5977SOL    HW229568   3.107   1.185  16.586  2.6926 -1.2720  0.0905
 5978SOL     OW29569   1.678   3.194   8.561  0.1886  0.0982 -0.0536
 5978SOL    HW129570   1.681   3.289   8.553 -1.3360  0.1473 -0.0929
 5978SOL    HW229571   1.604   3.176   8.619 -1.1857  1.7696 -1.2753
 5979SOL     OW29572   2.126   4.206  11.462  0.2586  0.4683 -0.8695
 5979SOL    HW129573   2.102   4.205  11.369  1.1422 -2.3697 -1.0633
 5979SOL    HW229574   2.206   4.258  11.468 -1.2163  2.4920  1.4404
 5980SOL     OW29575   1.339   4.380   2.922 -0.2725 -0.0117 -0.3457
 5980SOL    HW129576   1.362   4.434   2.847  0.4466 -0.7946 -0.6945
 5980SOL    HW229577   1.294   4.301   2.893  1.1920 -0.8869 -0.2253
 5981SOL     OW29578   2.020   4.489   5.078 -0.2729 -0.0400  0.2978
 5981SOL    HW129579   1.999   4.516   5.167 -1.2167 -1.2856  0.4551
 5981SOL    HW229580   2.079   4.556   5.044  1.8689 -2.2565 -0.4001
 5982SOL     OW29581   1.415   1.089   4.636 -0.5263  0.1792  0.1062
 5982SOL    HW129582   1.455   1.003   4.633 -1.4493 -0.2383 -0.1422
 5982SOL    HW229583   1.390   1.096   4.728  0.5799  0.6172  0.3765
 5983SOL     OW29584   3.179   0.164  13.195  0.3372 -0.2796 -0.0313
 5983SOL    HW129585   3.223   0.102  13.254  1.4957 -1.1930 -1.8501
 5983SOL    HW229586   3.128   0.107  13.137  1.4315 -0.5620 -0.7228
 5984SOL     OW29587   4.500   3.160   5.843  0.0569 -0.3236  0.2940
 5984SOL    HW129588   4.494   3.256   5.845 -2.8449 -0.4939 -0.0449
 5984SOL    HW229589   4.567   3.143   5.909  1.4198  0.5204 -0.8779
 5985SOL     OW29590   0.500   2.268  16.858 -0.6529  0.1840 -0.0382
 5985SOL    HW129591   0.462   2.246  16.943  0.1457 -2.3633 -0.3376
 5985SOL    HW229592   0.587   2.231  16.869 -1.5492 -2.0476 -0.3688
 5986SOL     OW29593   1.151   0.413   8.698 -0.1044  0.1640 -0.0544
 5986SOL    HW129594   1.219   0.368   8.748 -0.3589  0.7071  0.7961
 5986SOL    HW229595   1.101   0.454   8.769  1.9702  0.0334  1.5014
 5987SOL     OW29596   0.853   2.822   1.970 -0.0011  0.1397 -0.6192
 5987SOL    HW129597   0.777   2.873   2.001  0.7931  0.7226  0.3625
 5987SOL    HW229598   0.920   2.828   2.038 -0.7888  0.0177  0.1675
 5988SOL     OW29599   4.225   3.384   4.085 -0.0337  0.0669 -0.5238
 5988SOL    HW129600   4.290   3.432   4.135 -0.7463  1.5987 -1.0615
 5988SOL    HW229601   4.143   3.428   4.107 -0.7188 -1.0253 -0.9030
 5989SOL     OW29602   1.870   3.606   8.798 -0.2275 -0.0139  0.1369
 5989SOL    HW129603   1.775   3.611   8.810 -0.4390 -0.9450 -1.1463
 5989SOL    HW229604   1.903   3.578   8.884  0.5080 -1.5100 -0.6343
 5990SOL     OW29605   2.022   4.147   5.459  0.1417  0.2830 -0.0875
 5990SOL    HW129606   2.071   4.070   5.430  3.2804  2.1232  0.3439
 5990SOL    HW229607   2.057   4.214   5.399 -0.9263 -0.9872 -2.1287
 5991SOL     OW29608   2.850   3.877   6.455  0.0249 -0.4661  0.1552
 5991SOL    HW129609   2.911   3.942   6.421 -0.2673 -0.6127 -0.6498
 5991SOL    HW229610   2.908   3.807   6.485  2.1151  1.1951 -0.0019
 5992SOL     OW29611   0.746   2.481   6.401 -0.1080  0.6228  0.1100
 5992SOL    HW129612   0.742   2.385   6.401 -0.5446  0.6377 -1.2829
 5992SOL    HW229613   0.808   2.497   6.330 -0.6082 -0.1433 -0.5101
 5993SOL     OW29614   2.974   3.712   3.041  0.1077 -0.7042 -0.1011
 5993SOL    HW129615   2.996   3.804   3.026 -1.1241 -0.5696 -1.0461
 5993SOL    HW229616   2.997   3.675   2.956 -2.6995  1.1551 -1.6909
 5994SOL     OW29617   4.710   3.783   4.404 -0.0520 -0.0735 -0.4169
 5994SOL    HW129618   4.701   3.870   4.365 -0.1649  0.8440  1.6530
 5994SOL    HW229619   0.049   3.795   4.462  0.5627  0.8643 -1.4149
 5995SOL     OW29620   4.611   4.709   1.110  0.0148 -0.0134 -0.0207
 5995SOL    HW129621   4.607   4.724   1.204  1.2140  0.1268 -0.0010
 5995SOL    HW229622   4.621   4.614   1.109 -2.6059 -0.3032 -0.6325
 5996SOL     OW29623   1.754   1.163   6.829 -0.1805  0.5519  0.1390
 5996SOL    HW129624   1.837   1.116   6.821  1.2808  3.0619  0.4989
 5996SOL    HW229625   1.693   1.095   6.801  0.5594  0.8508 -2.1955
 5997SOL     OW29626   4.198   0.265   3.590 -0.1324  0.4833 -0.3701
 5997SOL    HW129627   4.269   0.203   3.604 -0.2734  1.1490  3.2294
 5997SOL    HW229628   4.151   0.227   3.515  0.1992  0.6560 -0.6628
 5998SOL     OW29629   3.131   0.611   2.819  0.1181 -0.0752  0.5949
 5998SOL    HW129630   3.092   0.687   2.776 -2.3337 -0.5587  1.9420
 5998SOL    HW229631   3.219   0.615   2.782 -0.1245 -3.8859 -0.4301
 5999SOL     OW29632   3.915   0.891   6.685  0.1846  0.0482  0.5208
 5999SOL    HW129633   3.994   0.842   6.665 -0.7492 -0.3769 -2.1038
 5999SOL    HW229634   3.948   0.967   6.733 -1.9973  1.3012  0.0748
 6000SOL     OW29635   4.497   2.982   6.909  0.2334  0.3708 -0.4728
 6000SOL    HW129636   4.516   2.900   6.954 -3.5580  0.6150  1.5087
 6000SOL    HW229637   4.404   2.985   6.929  0.1797 -0.5878 -0.5829
 6001SOL     OW29638   1.185   2.465   4.827 -0.0807 -0.4240 -0.1490
 6001SOL    HW129639   1.260   2.430   4.779  0.5256  0.2804  0.2978
 6001SOL    HW229640   1.236   2.533   4.871 -0.4240  0.6446 -1.4041
 6002SOL     OW29641   0.624   1.421  13.706  0.9039 -0.2798  0.4797
 6002SOL    HW129642   0.630   1.515  13.720 -2.0203 -0.2798  1.6294
 6002SOL    HW229643   0.709   1.391  13.738  1.1245  0.5293  0.6430
 6003SOL     OW29644   3.869   4.704   3.470  0.4438 -0.1686 -0.3045
 6003SOL    HW129645   3.788   4.659   3.449  0.4911  0.5020 -1.9165
 6003SOL    HW229646   3.902   4.674   3.555  0.9019 -0.6632 -0.6570
 6004SOL     OW29647   1.941   1.530   3.219  0.5213  0.2839 -0.1808
 6004SOL    HW129648   1.887   1.603   3.251  0.1623  0.1040 -0.3674
 6004SOL    HW229649   2.005   1.580   3.169  0.3354 -0.3000 -0.9956
 6005SOL     OW29650   3.624   0.669   1.034 -0.1282  0.2266 -0.4692
 6005SOL    HW129651   3.593   0.656   0.945  0.0501  1.9690 -0.7748
 6005SOL    HW229652   3.559   0.733   1.064 -1.1202 -1.0072  0.0259
 6006SOL     OW29653   2.436   4.531   8.982  0.0833 -0.8139  0.1136
 6006SOL    HW129654   2.479   4.597   9.036 -0.3294 -0.9788  0.6435
 6006SOL    HW229655   2.477   4.566   8.903  0.8477  0.7441  1.2216
 6007SOL     OW29656   2.336   2.847  15.631  0.5349  0.0009  0.0032
 6007SOL    HW129657   2.256   2.877  15.676  0.5183  1.0466 -0.7411
 6007SOL    HW229658   2.404   2.908  15.659  0.8839 -0.6192  0.4994
 6008SOL     OW29659   3.671   0.662   8.365  0.3156 -0.1829 -0.1035
 6008SOL    HW129660   3.627   0.744   8.390 -0.1692 -0.4113 -0.2188
 6008SOL    HW229661   3.763   0.688   8.366  0.4452 -0.6970  1.1862
 6009SOL     OW29662   1.859   3.755   0.648  0.2867 -0.8647 -0.2653
 6009SOL    HW129663   1.839   3.732   0.557 -0.1778  2.7205 -1.0718
 6009SOL    HW229664   1.780   3.801   0.675  1.0938  0.0962  0.4604
 6010SOL     OW29665   0.056   1.202  12.755 -0.4308 -0.5261  0.4700
 6010SOL    HW129666   0.057   1.297  12.755 -1.3497 -0.5160  2.1907
 6010SOL    HW229667   0.110   1.175  12.680 -1.4407  0.2446 -0.5280
 6011SOL     OW29668   0.777   4.192   4.547 -0.4957  0.2992  0.0360
 6011SOL    HW129669   0.791   4.279   4.509 -2.1059 -0.0783 -1.4183
 6011SOL    HW229670   0.826   4.137   4.486 -3.6202 -1.8066 -0.5823
 6012SOL     OW29671   1.309   0.812  11.939  0.7214 -0.6573  0.1879
 6012SOL    HW129672   1.374   0.862  11.890 -0.3522  1.8268  1.2572
 6012SOL    HW229673   1.371   0.749  11.976  0.5214 -0.7934  0.2914
 6013SOL     OW29674   4.429   3.507   4.192 -0.5476 -0.2217 -0.3560
 6013SOL    HW129675   4.518   3.513   4.157  0.2351  0.8546  1.8100
 6013SOL    HW229676   4.437   3.515   4.287 -1.2435  0.1114 -0.3318
 6014SOL     OW29677   2.881   1.568   9.256  0.3621 -0.0974  0.1647
 6014SOL    HW129678   2.945   1.624   9.300  1.9745 -1.1236 -0.8557
 6014SOL    HW229679   2.874   1.623   9.178 -0.0808  0.9469  0.9268
 6015SOL     OW29680   4.445   0.618   6.401 -0.4197 -0.0382 -0.8562
 6015SOL    HW129681   4.453   0.557   6.328 -2.7708  0.3928 -1.4850
 6015SOL    HW229682   4.350   0.616   6.409 -0.2851  0.2895  0.8569
 6016SOL     OW29683   4.541   2.084   4.413  0.0604 -0.2292 -0.2030
 6016SOL    HW129684   4.626   2.119   4.386 -0.0759 -0.3712 -0.8346
 6016SOL    HW229685   4.558   1.994   4.441  1.1898 -0.5208 -1.8297
 6017SOL     OW29686   0.169   3.203   6.846  0.4824  0.1496 -0.3056
 6017SOL    HW129687   0.259   3.219   6.875  1.0059  0.9712 -2.3992
 6017SOL    HW229688   0.148   3.131   6.906  0.7954  0.8989  0.6978
 6018SOL     OW29689   2.398   1.878  17.213  0.4660 -0.3978 -0.0696
 6018SOL    HW129690   2.354   1.928  17.282 -1.4509  0.5455 -1.9789
 6018SOL    HW229691   2.329   1.814  17.192  0.7618 -0.4818 -0.7688
 6019SOL     OW29692   0.134   2.907   4.070 -0.0360  0.3641  0.1697
 6019SOL    HW129693   0.206   2.959   4.034 -0.9643 -0.6175 -3.0129
 6019SOL    HW229694   0.064   2.952   4.025 -0.1692  0.5679  0.5759
 6020SOL     OW29695   4.573   4.107  10.481  0.1252 -0.2009 -0.0460
 6020SOL    HW129696   4.655   4.119  10.529 -1.0311 -0.6905  2.0570
 6020SOL    HW229697   4.506   4.098  10.549  0.1364 -1.5787 -0.2258
 6021SOL     OW29698   3.843   2.136   5.341  0.0237  0.2526  0.3784
 6021SOL    HW129699   3.909   2.202   5.362  1.1171 -0.7856  0.1580
 6021SOL    HW229700   3.840   2.143   5.246  1.7902 -1.5852  0.1919
 6022SOL     OW29701   2.151   3.369   0.860  0.2293  0.2641  0.0763
 6022SOL    HW129702   2.118   3.281   0.878  0.6057  0.4840  1.8909
 6022SOL    HW229703   2.244   3.368   0.881  0.5785  0.0829 -1.5260
 6023SOL     OW29704   3.273   0.090   7.649 -0.2479  0.0274  0.0732
 6023SOL    HW129705   3.198   0.139   7.615 -0.7092 -1.2169 -0.7090
 6023SOL    HW229706   3.240   0.065   7.735 -0.7375 -0.1259 -0.1561
 6024SOL     OW29707   3.725   4.709   5.530  0.1270  0.4573 -0.4186
 6024SOL    HW129708   3.701   0.049   5.478 -1.7430 -0.6064 -1.1186
 6024SOL    HW229709   3.753   0.020   5.608 -0.5734 -0.7780  0.5760
 6025SOL     OW29710   2.571   2.918   7.984 -0.2718  0.2202  0.3088
 6025SOL    HW129711   2.503   2.880   7.927  1.4278 -1.2511 -0.7419
 6025SOL    HW229712   2.646   2.870   7.948  0.5462  0.9395  1.0545
 6026SOL     OW29713   3.481   3.430   5.658 -0.5343  0.2887 -0.2125
 6026SOL    HW129714   3.505   3.491   5.588  0.4340  1.0221  0.7541
 6026SOL    HW229715   3.407   3.378   5.627 -0.3848  0.2111 -0.4418
 6027SOL     OW29716   0.417   2.891   5.843 -0.3312  0.0616 -0.1395
 6027SOL    HW129717   0.377   2.978   5.842  0.5690  0.4719  0.2803
 6027SOL    HW229718   0.377   2.849   5.767 -0.0643  0.0644 -0.2821
 6028SOL     OW29719   1.015   3.244   3.937 -0.1414 -0.1214  0.3069
 6028SOL    HW129720   1.047   3.228   3.848 -1.1148 -2.2001  0.3363
 6028SOL    HW229721   1.028   3.161   3.984  0.6330  0.1877  0.6381
 6029SOL     OW29722   2.639   1.753   4.054 -0.0483  0.2152  0.1881
 6029SOL    HW129723   2.584   1.828   4.078  0.6271  1.4257 -2.0492
 6029SOL    HW229724   2.612   1.739   3.963 -2.2157  0.7343  0.7483
 6030SOL     OW29725   2.034   2.883   3.280 -0.2218  0.2709 -0.4543
 6030SOL    HW129726   2.121   2.858   3.246  0.1608  0.5625  0.3184
 6030SOL    HW229727   2.007   2.800   3.320  1.6582 -0.6943 -1.1666
 6031SOL     OW29728   1.305   2.594   7.068 -0.2184 -0.1153 -0.2665
 6031SOL    HW129729   1.229   2.651   7.072 -0.5990 -0.6898  0.5471
 6031SOL    HW229730   1.305   2.559   7.158 -1.8260  1.2465  0.2439
 6032SOL     OW29731   2.626   3.827   9.815  0.2280 -0.0949 -0.6737
 6032SOL    HW129732   2.560   3.893   9.833  2.5538  1.6848  1.3699
 6032SOL    HW229733   2.639   3.830   9.720 -4.4280 -0.2718 -1.3230
 6033SOL     OW29734   3.706   1.429   1.863 -0.0669  0.4508  0.7698
 6033SOL    HW129735   3.649   1.353   1.877  0.9608 -0.4858 -0.0872
 6033SOL    HW229736   3.662   1.472   1.789 -1.5611  1.1938  2.0996
 6034SOL     OW29737   0.119   0.546   2.811 -0.3261 -0.1259  0.4194
 6034SOL    HW129738   0.133   0.638   2.832  0.5792 -0.4573  1.2353
 6034SOL    HW229739   0.035   0.533   2.856 -0.2262 -0.0006  0.6394
 6035SOL     OW29740   0.229   1.013   6.191 -0.2046  1.0704 -0.4056
 6035SOL    HW129741   0.163   1.079   6.167 -1.0594  0.0743 -0.7791
 6035SOL    HW229742   0.181   0.936   6.163  1.6862 -0.4797  0.6522
 6036SOL     OW29743   3.860   2.312  16.321 -0.3452 -0.1222  0.3584
 6036SOL    HW129744   3.803   2.374  16.367 -0.2739 -1.0913  1.7213
 6036SOL    HW229745   3.945   2.342  16.354 -0.0071 -0.5726 -0.1045
 6037SOL     OW29746   1.161   3.358  10.566  0.0379  0.6790  0.1713
 6037SOL    HW129747   1.153   3.379  10.473 -1.4004 -1.3784 -0.1681
 6037SOL    HW229748   1.170   3.264  10.579 -1.9889  0.4059 -0.4398
 6038SOL     OW29749   2.900   0.860   7.764 -0.4942  0.2684  0.1493
 6038SOL    HW129750   2.987   0.821   7.771 -0.8673 -0.4593  0.6777
 6038SOL    HW229751   2.930   0.946   7.733 -0.3719 -0.5439 -2.0447
 6039SOL     OW29752   0.556   0.365  14.807  0.4121  0.0886  0.2705
 6039SOL    HW129753   0.619   0.437  14.808 -0.2663  0.6855 -0.3681
 6039SOL    HW229754   0.595   0.334  14.726 -2.0079  1.9127 -1.5758
 6040SOL     OW29755   0.155   2.873   3.037 -0.4351  0.5364 -0.3082
 6040SOL    HW129756   0.161   2.968   3.028  2.7062  0.2742 -0.7577
 6040SOL    HW229757   0.165   2.842   2.947  0.4077  0.7779 -0.2901
 6041SOL     OW29758   4.201   4.378  15.772 -0.4094 -0.4112 -0.5146
 6041SOL    HW129759   4.223   4.471  15.760 -2.3253  0.2849  1.2725
 6041SOL    HW229760   4.161   4.387  15.859  0.4216 -1.0107 -0.0754
 6042SOL     OW29761   3.895   3.926   0.029  0.6459  0.3497  0.3675
 6042SOL    HW129762   3.841   3.932  17.697 -0.4498  0.9426  1.1598
 6042SOL    HW229763   3.982   3.914  17.740  0.2991 -2.5289  0.5258
 6043SOL     OW29764   2.663   3.167   5.970  0.3092 -0.4037 -0.0921
 6043SOL    HW129765   2.572   3.155   5.994  0.4403 -1.1494  0.0356
 6043SOL    HW229766   2.673   3.140   5.879 -1.8724 -0.5131 -0.2997
 6044SOL     OW29767   4.604   0.253   6.156 -0.4771  0.3258  0.6186
 6044SOL    HW129768   4.585   0.251   6.062  2.1438 -0.8298  0.1321
 6044SOL    HW229769   4.675   0.189   6.159  0.2770  1.1583  0.4830
 6045SOL     OW29770   1.777   4.010   3.825 -0.3297  0.3316 -0.0009
 6045SOL    HW129771   1.729   4.019   3.907 -0.8635  1.2102 -0.4044
 6045SOL    HW229772   1.706   4.021   3.761  1.8838 -1.2930 -2.7302
 6046SOL     OW29773   0.205   2.238   5.353 -0.2183 -0.2556  0.6336
 6046SOL    HW129774   0.118   2.274   5.334 -0.9049 -2.1502  0.1657
 6046SOL    HW229775   0.230   2.270   5.440 -1.9659 -0.0866  1.0812
 6047SOL     OW29776   2.982   4.717   4.391 -0.4403 -0.0859  0.4772
 6047SOL    HW129777   2.930   4.660   4.447  0.7020 -1.6371 -0.0491
 6047SOL    HW229778   3.027   0.027   4.461 -2.0691 -0.8437  2.0467
 6048SOL     OW29779   4.004   4.459  11.784 -0.1621  0.3735  0.0875
 6048SOL    HW129780   3.940   4.527  11.761 -0.7076  0.1651  0.9959
 6048SOL    HW229781   4.058   4.443  11.706  0.4319  1.4039  0.2823
 6049SOL     OW29782   3.490   1.886  10.876  0.1628  0.1043 -0.2272
 6049SOL    HW129783   3.561   1.881  10.940 -0.1306  2.7422  0.3049
 6049SOL    HW229784   3.427   1.817  10.896  2.6149 -1.5058  2.0075
 6050SOL     OW29785   1.095   3.655  16.225  0.4301 -0.5225  0.1124
 6050SOL    HW129786   1.028   3.719  16.200  0.0485 -0.1795  1.9784
 6050SOL    HW229787   1.083   3.646  16.319 -1.6742  1.2289  0.0199
 6051SOL     OW29788   0.113   2.583   1.444 -0.7868 -0.6071  0.3483
 6051SOL    HW129789   0.144   2.516   1.505 -0.2592  0.1914  0.9642
 6051SOL    HW229790   0.107   2.542   1.358  1.3142  3.1052 -1.5632
 6052SOL     OW29791   4.703   2.034   8.386  0.2763  0.2439 -0.0712
 6052SOL    HW129792   4.711   2.067   8.475 -0.3491  2.1809 -0.7281
 6052SOL    HW229793   4.608   2.036   8.375  0.1039 -0.9466  1.3421
 6053SOL     OW29794   1.322   2.555   8.107  0.3538 -0.4148  0.2599
 6053SOL    HW129795   1.277   2.529   8.188 -0.4466 -2.7009 -0.9148
 6053SOL    HW229796   1.384   2.617   8.146 -1.6555  0.6792  1.7462
 6054SOL     OW29797   4.470   0.741  13.391 -0.2569 -0.2927  0.0914
 6054SOL    HW129798   4.379   0.769  13.378  0.4473  2.4601  1.1109
 6054SOL    HW229799   4.506   0.815  13.440 -0.3756  1.2515 -2.1235
 6055SOL     OW29800   4.414   1.297  11.509  0.2546  0.0163  0.0689
 6055SOL    HW129801   4.360   1.219  11.500  0.7401 -0.1278 -1.5215
 6055SOL    HW229802   4.365   1.367  11.466 -1.1894  0.7897  2.9470
 6056SOL     OW29803   2.381   4.547   8.676 -0.3139  0.1166  0.2984
 6056SOL    HW129804   2.354   4.516   8.590 -1.0473 -0.2698  0.6719
 6056SOL    HW229805   2.474   4.524   8.681 -0.3221 -0.0191 -0.1985
 6057SOL     OW29806   3.629   0.195  15.525 -0.0093 -0.2555  0.1282
 6057SOL    HW129807   3.721   0.206  15.550 -0.7242  0.5868  2.4151
 6057SOL    HW229808   3.633   0.248  15.446  0.3730 -0.9412 -0.3097
 6058SOL     OW29809   2.927   0.667  12.703  0.5009  0.7022  0.0081
 6058SOL    HW129810   2.851   0.726  12.695  0.6809  1.1824  1.9734
 6058SOL    HW229811   2.989   0.720  12.753  0.2245 -0.1136  1.1935
 6059SOL     OW29812   3.199   0.818   4.395  0.4409 -0.0866 -0.3055
 6059SOL    HW129813   3.169   0.764   4.321 -0.3264  0.0103 -0.0569
 6059SOL    HW229814   3.269   0.757   4.420  1.7764  2.2764  1.6339
 6060SOL     OW29815   1.947   0.791   3.390 -0.5447  0.5990 -0.3330
 6060SOL    HW129816   1.914   0.858   3.331  0.7860  0.6841 -0.9631
 6060SOL    HW229817   1.899   0.810   3.471  0.3857 -1.4079  0.6968
 6061SOL     OW29818   3.804   1.316  10.842  0.3648 -0.0403  0.2863
 6061SOL    HW129819   3.868   1.340  10.776 -0.1500 -0.1370 -0.2543
 6061SOL    HW229820   3.803   1.389  10.904  1.3665  1.6824 -1.7170
 6062SOL     OW29821   3.558   4.339   6.699 -0.4662 -0.2029 -0.2978
 6062SOL    HW129822   3.606   4.262   6.669  0.1441 -0.4117  1.1831
 6062SOL    HW229823   3.599   4.350   6.785  1.2138  1.2295 -1.2641
 6063SOL     OW29824   3.976   3.301   2.407  0.4278  0.0993  0.3604
 6063SOL    HW129825   4.033   3.351   2.465  0.9860 -1.1227  0.8680
 6063SOL    HW229826   3.896   3.321   2.455 -0.5297 -2.0391 -0.3493
 6064SOL     OW29827   4.052   3.500   9.503 -0.1414 -0.1532 -0.5580
 6064SOL    HW129828   3.971   3.451   9.517 -0.1722 -0.2665 -1.1339
 6064SOL    HW229829   4.048   3.504   9.408  0.1098 -1.1196 -0.6008
 6065SOL     OW29830   4.596   2.170   4.804  0.1428  0.0715  0.0143
 6065SOL    HW129831   4.609   2.249   4.857 -1.0683  1.1459 -1.2797
 6065SOL    HW229832   4.675   2.175   4.749 -0.6821 -0.6682 -1.2415
 6066SOL     OW29833   0.464   2.317  13.008 -0.1168 -0.1737  0.4952
 6066SOL    HW129834   0.550   2.277  13.006  0.0399  0.3081 -2.1157
 6066SOL    HW229835   0.424   2.259  13.073  1.3578 -2.9417 -1.0889
 6067SOL     OW29836   0.137   4.271   8.143 -0.2011 -0.3179 -0.5275
 6067SOL    HW129837   0.216   4.224   8.169 -0.3812 -1.3462 -1.8121
 6067SOL    HW229838   0.085   4.200   8.104 -0.9799 -0.8189  1.4471
 6068SOL     OW29839   0.082   4.303   3.521  0.4612 -0.1780 -0.3995
 6068SOL    HW129840   0.166   4.260   3.539 -1.1162 -2.9407  0.3500
 6068SOL    HW229841   0.069   4.287   3.428 -1.1450 -2.8957  0.3044
 6069SOL     OW29842   0.773   2.372  11.747  0.7199  0.3691 -0.2640
 6069SOL    HW129843   0.857   2.346  11.786  1.1393  0.1734 -1.3017
 6069SOL    HW229844   0.783   2.383  11.653  0.1893  0.3059 -0.3286
 6070SOL     OW29845   0.421   1.917   6.698 -0.1663  0.4209  0.0809
 6070SOL    HW129846   0.375   1.987   6.744 -0.2602 -0.1548  0.8676
 6070SOL    HW229847   0.393   1.931   6.608  0.3305  1.8355  0.1438
 6071SOL     OW29848   0.324   0.562   2.462  0.2663 -0.3631  0.1409
 6071SOL    HW129849   0.370   0.484   2.430  0.5658 -1.5518  3.5284
 6071SOL    HW229850   0.358   0.624   2.397 -2.5248  0.1987 -0.7502
 6072SOL     OW29851   3.374   3.500   7.275 -0.4990  0.6631  0.1987
 6072SOL    HW129852   3.431   3.545   7.214  0.0985  0.6303  0.7340
 6072SOL    HW229853   3.362   3.411   7.243  1.4913  0.0085  1.3329
 6073SOL     OW29854   4.247   2.462   5.204  0.1769  0.0844  0.7785
 6073SOL    HW129855   4.256   2.469   5.299  1.5236 -0.8879  0.7098
 6073SOL    HW229856   4.328   2.499   5.171 -0.3240  1.7860  1.4514
 6074SOL     OW29857   3.842   0.725   3.398 -0.0224  0.3349 -0.3231
 6074SOL    HW129858   3.786   0.651   3.423 -0.0407  0.9812  1.5572
 6074SOL    HW229859   3.822   0.788   3.467 -3.4487 -1.1949  0.0803
 6075SOL     OW29860   3.032   0.455   8.906 -0.6587  0.1435  0.7261
 6075SOL    HW129861   3.125   0.435   8.913  0.1643  3.4359 -0.7878
 6075SOL    HW229862   3.028   0.550   8.890  1.1251 -0.0448 -0.8338
 6076SOL     OW29863   3.559   3.000   0.243  0.5303  0.1883 -0.6043
 6076SOL    HW129864   3.530   3.091   0.236  1.0974  0.3571 -0.7969
 6076SOL    HW229865   3.556   2.984   0.149 -0.3769  1.1667 -0.7387
 6077SOL     OW29866   2.511   1.417   9.748  0.1140 -0.4210 -0.1437
 6077SOL    HW129867   2.574   1.396   9.679 -0.2687 -1.4876 -0.1758
 6077SOL    HW229868   2.481   1.329   9.771 -0.7881  0.0837  0.6080
 6078SOL     OW29869   1.590   2.241   2.450  0.4392 -0.1884  0.6313
 6078SOL    HW129870   1.530   2.290   2.506  1.1134  1.4075 -0.0286
 6078SOL    HW229871   1.561   2.262   2.362  0.2520 -1.9351  0.2794
 6079SOL     OW29872   2.041   2.661  17.088  0.7870 -0.0980  0.1054
 6079SOL    HW129873   2.085   2.597  17.144 -1.2453 -0.8381  0.8565
 6079SOL    HW229874   2.093   2.650  17.008  2.4555  0.7219  1.0848
 6080SOL     OW29875   0.856   4.363   2.749  0.2328  0.5797 -0.1893
 6080SOL    HW129876   0.920   4.367   2.678  0.0396 -0.3726 -0.4078
 6080SOL    HW229877   0.905   4.385   2.828 -0.2043 -0.4278  0.3628
 6081SOL     OW29878   1.026   3.120  17.678 -0.2213 -0.0418 -0.2142
 6081SOL    HW129879   1.006   3.070   0.010 -0.9276 -1.5598 -1.3489
 6081SOL    HW229880   1.099   3.178  17.699 -0.2427 -0.3774  0.8047
 6082SOL     OW29881   0.122   2.475   2.224  0.0507 -0.1366 -0.8598
 6082SOL    HW129882   0.147   2.556   2.267 -0.7609  0.1515 -0.9380
 6082SOL    HW229883   0.210   2.436   2.218  0.3182  0.4043 -0.3889
 6083SOL     OW29884   2.949   4.116   1.801  0.2712  0.1861  0.0647
 6083SOL    HW129885   3.013   4.173   1.759 -0.2038  0.4035 -0.3697
 6083SOL    HW229886   3.007   4.062   1.854  0.3137  0.1916  0.0240
 6084SOL     OW29887   4.384   3.780   7.996  0.4408  0.0683 -0.3387
 6084SOL    HW129888   4.449   3.845   8.021  0.2566 -0.4790  1.5735
 6084SOL    HW229889   4.440   3.714   7.954 -0.8495  1.0428 -3.5647
 6085SOL     OW29890   3.127   1.947   3.348  0.4974 -0.0595  0.4848
 6085SOL    HW129891   3.069   2.014   3.385 -0.4599 -1.0812  0.8221
 6085SOL    HW229892   3.134   1.877   3.413  4.7576 -1.4693 -1.5232
 6086SOL     OW29893   0.609   1.975   9.098  0.1016  0.3385  0.1665
 6086SOL    HW129894   0.569   1.888   9.093  1.3574 -0.1371 -1.5859
 6086SOL    HW229895   0.700   1.957   9.120  0.3752  1.7350  0.1735
 6087SOL     OW29896   0.535   1.529  15.867 -0.2074  0.6786  0.0806
 6087SOL    HW129897   0.456   1.484  15.896  0.2865 -1.0774 -1.3689
 6087SOL    HW229898   0.506   1.619  15.851  0.4280  0.9772  0.6040
 6088SOL     OW29899   4.724   1.790   9.374  0.1102 -0.4024  0.1948
 6088SOL    HW129900   0.007   1.860   9.436 -0.7748  1.7553 -1.9726
 6088SOL    HW229901   4.663   1.746   9.434 -2.2304  1.0668 -1.0923
 6089SOL     OW29902   2.322   2.098   7.800  0.0789  0.2602  0.1790
 6089SOL    HW129903   2.285   2.087   7.888 -1.6843  1.7306 -0.4079
 6089SOL    HW229904   2.249   2.079   7.742 -0.5628  1.6402  0.5471
 6090SOL     OW29905   2.962   0.328   0.893  1.1080  0.1987 -0.1985
 6090SOL    HW129906   2.945   0.311   0.986 -0.8194 -0.5281 -0.6836
 6090SOL    HW229907   2.996   0.243   0.867  0.5727  0.2959 -1.2402
 6091SOL     OW29908   4.729   1.252   9.691 -0.0295 -0.0410  0.1275
 6091SOL    HW129909   0.048   1.262   9.767 -1.5158  3.1177  0.8267
 6091SOL    HW229910   4.664   1.322   9.700  0.1575  0.0890  0.4781
 6092SOL     OW29911   1.995   3.483   0.635 -1.5798  0.0593  0.2635
 6092SOL    HW129912   2.036   3.459   0.718 -1.5609 -2.0837 -0.3808
 6092SOL    HW229913   1.934   3.554   0.655  0.0794  0.6685  3.2203
 6093SOL     OW29914   3.507   4.580   1.075 -0.4912  0.1671 -0.4402
 6093SOL    HW129915   3.469   4.647   1.131  1.8450 -0.1026  1.4988
 6093SOL    HW229916   3.597   4.575   1.109  0.3212  1.9165 -2.2998
 6094SOL     OW29917   1.268   0.015   3.014 -0.1918  0.1590 -0.5761
 6094SOL    HW129918   1.242   4.689   3.082 -1.8777 -2.1960 -3.4346
 6094SOL    HW229919   1.227   4.720   2.934 -0.0121  1.2173 -1.0762
 6095SOL     OW29920   1.039   0.503   8.276 -0.2533  0.1248 -0.3033
 6095SOL    HW129921   1.005   0.518   8.364 -0.3716  2.8799 -0.8156
 6095SOL    HW229922   1.099   0.577   8.265 -0.9328  0.9732  1.5526
 6096SOL     OW29923   1.399   1.921  15.624  0.2222  0.0940 -0.3719
 6096SOL    HW129924   1.346   1.872  15.562 -1.0174  0.5869  0.2925
 6096SOL    HW229925   1.481   1.935  15.577 -1.3112  1.2272 -2.7295
 6097SOL     OW29926   0.344   0.202  13.902 -0.9844  0.2783 -0.0826
 6097SOL    HW129927   0.281   0.145  13.857 -1.1733 -0.5187  1.1784
 6097SOL    HW229928   0.279   0.239  13.961 -0.6118 -0.6875  0.9443
 6098SOL     OW29929   0.177   3.423   1.923 -0.0714  0.3423  0.0383
 6098SOL    HW129930   0.186   3.430   1.828 -0.7746  3.2082  0.1759
 6098SOL    HW229931   0.093   3.467   1.936  0.1071  0.9256 -0.7748
 6099SOL     OW29932   3.017   3.680  16.634 -0.3763  0.4728  0.0074
 6099SOL    HW129933   2.982   3.635  16.557  3.7375 -0.6772 -1.1835
 6099SOL    HW229934   2.938   3.696  16.687 -0.7802 -1.2234 -0.0786
 6100SOL     OW29935   1.418   3.468   8.347 -0.4748 -0.1464 -0.4639
 6100SOL    HW129936   1.471   3.464   8.426  0.6549 -3.1958 -1.3717
 6100SOL    HW229937   1.417   3.563   8.335 -0.2962 -0.1069 -0.1674
 6101SOL     OW29938   3.698   2.046  10.483  0.3801 -0.4280  0.0671
 6101SOL    HW129939   3.616   2.064  10.436 -0.4502  0.2911  1.8262
 6101SOL    HW229940   3.744   2.129  10.473 -0.2549 -0.1073 -0.2018
 6102SOL     OW29941   0.028   0.872   6.518 -0.3805 -0.3661  0.2254
 6102SOL    HW129942   0.055   0.782   6.534  0.9104 -0.4614 -2.5867
 6102SOL    HW229943   0.058   0.920   6.595 -0.6158  0.0128  0.0868
 6103SOL     OW29944   3.312   2.982   5.925  0.0874  0.1473 -0.0609
 6103SOL    HW129945   3.266   3.027   5.854 -1.7848 -3.0335 -0.8910
 6103SOL    HW229946   3.375   3.051   5.945 -0.5523  0.6425  0.2369
 6104SOL     OW29947   0.746   1.527   7.586 -0.3305  0.1100 -0.2540
 6104SOL    HW129948   0.790   1.612   7.594  0.8352 -0.4643 -0.5314
 6104SOL    HW229949   0.727   1.538   7.493 -1.3991  3.0143  0.3110
 6105SOL     OW29950   3.118   3.067   5.761  0.1377 -0.0763 -0.4187
 6105SOL    HW129951   3.073   3.151   5.756  1.4734  0.5530 -2.0598
 6105SOL    HW229952   3.072   3.032   5.686 -1.3261  1.8151 -0.3888
 6106SOL     OW29953   1.462   3.316   8.954  0.1750 -0.3496 -0.2193
 6106SOL    HW129954   1.391   3.254   8.969 -1.2418  1.3916  0.3698
 6106SOL    HW229955   1.414   3.385   8.908  0.9547  2.2525  2.7963
 6107SOL     OW29956   1.537   0.723  12.096 -0.0311 -0.4252 -0.2370
 6107SOL    HW129957   1.612   0.674  12.062  0.4283 -0.2164  0.4907
 6107SOL    HW229958   1.541   0.692  12.186  0.2463 -1.3860 -0.5761
 6108SOL     OW29959   2.453   2.138   2.810  0.4081 -0.1309  0.3019
 6108SOL    HW129960   2.410   2.188   2.879 -0.1966  0.8634 -0.8132
 6108SOL    HW229961   2.519   2.093   2.863 -0.7881  0.2490  2.1095
 6109SOL     OW29962   1.162   0.120   8.388  0.2392 -0.0776  0.6415
 6109SOL    HW129963   1.094   0.174   8.429 -2.2769 -1.2346 -2.0314
 6109SOL    HW229964   1.225   0.188   8.362 -0.0295  0.3166  1.0140
 6110SOL     OW29965   3.310   1.235   9.364  0.0721  0.2581 -0.2332
 6110SOL    HW129966   3.229   1.191   9.391 -0.9771 -0.5863 -4.7063
 6110SOL    HW229967   3.362   1.155   9.360  1.1961  0.9460  0.5457
 6111SOL     OW29968   3.996   3.902   1.532 -0.3926 -0.2950 -0.2421
 6111SOL    HW129969   3.959   3.826   1.486 -0.4958 -0.0605 -0.5495
 6111SOL    HW229970   4.087   3.892   1.503 -0.4811 -1.4731 -0.1336
 6112SOL     OW29971   1.481   1.294   3.828  0.4265  0.8745 -0.9571
 6112SOL    HW129972   1.428   1.320   3.903 -1.3594 -0.1888 -1.8301
 6112SOL    HW229973   1.498   1.202   3.852 -2.2824  0.7323  0.4696
 6113SOL     OW29974   3.029   4.123  15.476  0.0180 -0.2242  0.3129
 6113SOL    HW129975   3.043   4.172  15.557  1.5668 -1.9378  1.0919
 6113SOL    HW229976   2.972   4.185  15.430  0.1355 -0.6679 -0.4335
 6114SOL     OW29977   0.327   4.556   2.352  0.1837 -0.1960  0.2483
 6114SOL    HW129978   0.383   4.576   2.428  0.6425 -1.4476  0.2383
 6114SOL    HW229979   0.349   4.464   2.339  0.3302 -0.3853  1.7863
 6115SOL     OW29980   1.187   0.472  14.281  0.0250 -0.0800 -0.2669
 6115SOL    HW129981   1.241   0.547  14.256 -0.2782 -0.2874 -1.5405
 6115SOL    HW229982   1.247   0.397  14.272 -0.0182  0.0285 -1.5673
 6116SOL     OW29983   2.697   0.323   1.580  0.1359  0.0981 -0.3162
 6116SOL    HW129984   2.723   0.338   1.671  1.6315 -2.2511 -0.3552
 6116SOL    HW229985   2.782   0.338   1.538  0.5251  0.0829  0.4490
 6117SOL     OW29986   2.954   2.617  13.095  0.2427  0.0231  0.4033
 6117SOL    HW129987   2.934   2.708  13.115  1.3655  0.5133 -0.7128
 6117SOL    HW229988   2.896   2.570  13.155  0.5379  0.8751  1.3413
 6118SOL     OW29989   2.686   0.530   7.240 -0.0279  0.5357 -0.6037
 6118SOL    HW129990   2.673   0.589   7.166 -0.2765  0.6017 -0.5102
 6118SOL    HW229991   2.634   0.453   7.218  0.8338 -0.0759 -0.5159
 6119SOL     OW29992   0.716   1.105   2.430  0.0423  0.0959 -0.4641
 6119SOL    HW129993   0.733   1.167   2.501  0.7932  0.5951 -1.0801
 6119SOL    HW229994   0.805   1.073   2.413  0.6910  0.5309  2.0325
 6120SOL     OW29995   1.592   1.302   2.069 -0.2863  0.1298  0.6419
 6120SOL    HW129996   1.603   1.370   2.136  0.1796  1.1476 -0.4484
 6120SOL    HW229997   1.665   1.315   2.008 -1.0038 -0.1799 -0.2814
 6121SOL     OW29998   3.665   1.883  17.457 -0.0501  0.8537  0.4832
 6121SOL    HW129999   3.656   1.977  17.442  0.7680  0.9227  0.4047
 6121SOL    HW230000   3.652   1.888  17.552 -1.6707 -0.0686  0.3027
 6122SOL     OW30001   3.416   1.218  13.670 -0.6516 -0.0183  0.0853
 6122SOL    HW130002   3.333   1.170  13.667 -1.1758  0.6792  2.9472
 6122SOL    HW230003   3.415   1.261  13.756  1.0067 -0.9328  0.5566
 6123SOL     OW30004   0.017   4.154  16.736  0.0987 -0.1433 -0.6421
 6123SOL    HW130005   0.096   4.145  16.789  0.1282  0.0196 -0.6596
 6123SOL    HW230006   0.052   4.215  16.671  1.9633 -2.0390 -1.4358
 6124SOL     OW30007   3.907   3.746   5.111 -0.1698  0.6439 -0.0971
 6124SOL    HW130008   3.991   3.788   5.128  0.4351 -1.1595  1.3701
 6124SOL    HW230009   3.906   3.691   5.189  3.5743  0.9744  0.1756
 6125SOL     OW30010   3.921   0.773   4.654 -0.0295 -0.5314 -0.3712
 6125SOL    HW130011   3.895   0.711   4.587  2.1060 -3.0975  1.1839
 6125SOL    HW230012   3.853   0.840   4.641  2.1056  1.8080  0.3751
 6126SOL     OW30013   2.440   3.923   2.544 -0.5871 -0.0090 -0.9606
 6126SOL    HW130014   2.359   3.899   2.498 -2.2890 -0.4301  2.2779
 6126SOL    HW230015   2.496   3.848   2.526  1.8668  1.7566 -0.6342
 6127SOL     OW30016   2.137   2.446   1.076  0.0964 -0.8752 -0.3184
 6127SOL    HW130017   2.228   2.460   1.099 -0.7698  1.1903  1.8928
 6127SOL    HW230018   2.103   2.534   1.062 -0.5010 -1.1416 -0.5635
 6128SOL     OW30019   3.921   0.053  17.305 -0.2449  0.3349 -0.6751
 6128SOL    HW130020   3.918   0.119  17.374  2.1741 -0.3610  0.0878
 6128SOL    HW230021   3.844   4.735  17.321  1.1116 -1.0733  0.8739
 6129SOL     OW30022   0.965   0.255   1.586 -0.0093 -0.3710 -0.2705
 6129SOL    HW130023   1.038   0.316   1.599 -0.2746  0.2847 -1.7888
 6129SOL    HW230024   1.014   0.176   1.609 -0.8832 -0.9326 -0.3411
 6130SOL     OW30025   3.451   1.437   2.810 -0.1156  0.3710 -0.6074
 6130SOL    HW130026   3.503   1.390   2.875 -1.5260  0.7642  0.8194
 6130SOL    HW230027   3.366   1.393   2.817  1.0909 -2.2070 -2.2091
 6131SOL     OW30028   2.063   1.676   1.644  0.1297  0.6474  0.0976
 6131SOL    HW130029   2.102   1.590   1.627 -1.7674 -0.3803  0.9633
 6131SOL    HW230030   2.137   1.723   1.683 -0.5528 -1.2577  3.7299
 6132SOL     OW30031   2.259   2.259   3.487  0.4538  0.4124  0.0357
 6132SOL    HW130032   2.196   2.287   3.420  0.9221 -1.5012 -1.2150
 6132SOL    HW230033   2.198   2.269   3.560 -0.3155  0.9238 -0.6692
 6133SOL     OW30034   3.785   4.211   2.768 -0.1589 -0.1116  0.4326
 6133SOL    HW130035   3.788   4.298   2.807  0.1449  0.3430 -0.6017
 6133SOL    HW230036   3.728   4.168   2.832 -2.3545  1.9805 -0.1167
 6134SOL     OW30037   3.266   2.647   8.538  0.2556 -0.2034  0.0008
 6134SOL    HW130038   3.239   2.636   8.447 -1.1136  0.5220  0.3264
 6134SOL    HW230039   3.334   2.580   8.539  0.5455  0.0795 -1.8958
 6135SOL     OW30040   3.873   3.142  17.295  0.1680  0.4288 -0.0555
 6135SOL    HW130041   3.857   3.050  17.275 -1.3808  0.6550  0.1526
 6135SOL    HW230042   3.968   3.153  17.304  0.0095 -0.7943  2.8131
 6136SOL     OW30043   2.135   1.393   4.157 -0.1636 -0.3256  0.5509
 6136SOL    HW130044   2.048   1.353   4.159 -0.5129  0.4344  0.3564
 6136SOL    HW230045   2.171   1.373   4.071 -1.1062  2.2700 -0.4474
 6137SOL     OW30046   3.935   3.944   6.877  0.2447 -0.3949 -0.3577
 6137SOL    HW130047   3.904   3.854   6.877  0.0767 -0.3221  2.4944
 6137SOL    HW230048   4.030   3.932   6.873  0.1738 -1.0694  0.0757
 6138SOL     OW30049   4.260   2.500   1.569 -0.5192 -0.2549 -0.0120
 6138SOL    HW130050   4.247   2.434   1.637  2.5654  0.5894  1.4280
 6138SOL    HW230051   4.186   2.560   1.577  0.3615  0.8690 -0.2317
 6139SOL     OW30052   2.401   1.940   1.944  0.3519  0.4752 -0.1140
 6139SOL    HW130053   2.403   2.000   2.019 -1.5823  0.2572  0.0993
 6139SOL    HW230054   2.455   1.870   1.981 -0.9177 -1.2116 -1.4859
 6140SOL     OW30055   4.356   0.353  15.905  0.3260  0.3494  0.0041
 6140SOL    HW130056   4.401   0.353  15.989  2.3438 -0.5950 -1.0698
 6140SOL    HW230057   4.289   0.421  15.906 -0.9290 -0.9372  2.8528
 6141SOL     OW30058   4.552   1.666   9.916  0.1444 -0.3817  0.7241
 6141SOL    HW130059   4.503   1.739   9.955 -0.8410 -1.4561  1.4907
 6141SOL    HW230060   4.622   1.654   9.980  1.2277  1.3630 -0.1335
 6142SOL     OW30061   0.215   0.643   4.026 -0.0157 -0.0747  0.1050
 6142SOL    HW130062   0.231   0.718   4.083 -1.1315 -1.4165  2.1767
 6142SOL    HW230063   0.209   0.581   4.099 -1.2280  0.8764  0.8163
 6143SOL     OW30064   1.193   2.770   9.231  0.3980  0.0760  0.6991
 6143SOL    HW130065   1.108   2.755   9.272  1.3580 -0.1696  2.5937
 6143SOL    HW230066   1.240   2.697   9.272  1.5370 -1.5638 -3.5056
 6144SOL     OW30067   1.888   4.726  14.165 -0.3722 -0.2747 -0.9779
 6144SOL    HW130068   1.974   4.726  14.123  1.0016  2.3293  1.9424
 6144SOL    HW230069   1.847   4.649  14.125  0.9152 -1.0474 -0.8038
 6145SOL     OW30070   0.750   2.651   0.671  0.1648 -0.4640 -0.1287
 6145SOL    HW130071   0.750   2.649   0.767 -0.6228 -3.1783 -0.1756
 6145SOL    HW230072   0.776   2.741   0.651  0.8103 -0.4054  0.9286
 6146SOL     OW30073   0.210   1.676   1.565 -0.2863  0.5665 -0.8100
 6146SOL    HW130074   0.291   1.691   1.613 -0.7826  0.6601  0.0084
 6146SOL    HW230075   0.160   1.632   1.634 -1.0375  2.4209 -0.1420
 6147SOL     OW30076   1.749   3.452   5.225  0.6395  0.4587 -0.3729
 6147SOL    HW130077   1.736   3.480   5.134  0.6089 -0.9045 -0.7887
 6147SOL    HW230078   1.759   3.537   5.268  0.1560  0.3154  0.0260
 6148SOL     OW30079   2.801   1.047   9.667  0.2495  0.4259 -0.4365
 6148SOL    HW130080   2.810   0.976   9.731  0.7049  1.0870  0.2353
 6148SOL    HW230081   2.815   1.118   9.731 -0.3132  2.8868 -3.0378
 6149SOL     OW30082   2.524   4.168   5.519 -0.0133  0.2455 -0.6526
 6149SOL    HW130083   2.441   4.156   5.565  1.2292 -4.3836  0.3738
 6149SOL    HW230084   2.573   4.090   5.547 -0.4668 -0.1546 -0.9663
 6150SOL     OW30085   2.491   3.250   7.974  0.0427 -0.8470  0.0959
 6150SOL    HW130086   2.581   3.220   7.983  0.0173 -0.5437  1.4818
 6150SOL    HW230087   2.477   3.243   7.880  0.4692 -2.6190  0.1691
 6151SOL     OW30088   0.481   2.995  17.525  0.2318 -0.1094 -0.4606
 6151SOL    HW130089   0.518   2.923  17.575  0.0935 -1.6829 -2.6468
 6151SOL    HW230090   0.545   2.986  17.455  0.6865 -0.6019  0.0221
 6152SOL     OW30091   2.895   2.005  16.247 -0.0101 -0.0281  0.8031
 6152SOL    HW130092   2.945   1.979  16.324  0.3366 -1.6594  0.0299
 6152SOL    HW230093   2.836   2.078  16.269  0.0431 -0.0766  1.0964
 6153SOL     OW30094   2.441   1.337   9.348 -0.1315  0.5247  0.4423
 6153SOL    HW130095   2.525   1.384   9.344  0.3476 -0.5776 -2.0600
 6153SOL    HW230096   2.441   1.309   9.440 -1.4126 -1.4454 -0.1777
 6154SOL     OW30097   3.339   3.274   5.948  0.4830 -0.2955  0.2210
 6154SOL    HW130098   3.254   3.305   5.979 -0.1367 -1.6707 -0.1080
 6154SOL    HW230099   3.360   3.331   5.874  2.7164 -1.8630 -0.3488
 6155SOL     OW30100   1.923   0.957   0.680  0.3501 -0.3007  0.4871
 6155SOL    HW130101   1.918   0.877   0.628 -3.7921  2.0004 -2.6596
 6155SOL    HW230102   1.911   0.919   0.768  0.1746  2.4374  1.6287
 6156SOL     OW30103   4.389   4.218   4.958  0.3821  0.2511  0.0677
 6156SOL    HW130104   4.430   4.258   4.881 -0.6704  0.5079 -0.3579
 6156SOL    HW230105   4.307   4.190   4.917 -1.0572  3.1972  0.9615
 6157SOL     OW30106   3.423   1.252   8.346  0.0385 -0.1950 -0.5844
 6157SOL    HW130107   3.395   1.229   8.257 -2.2771 -0.9478  0.3553
 6157SOL    HW230108   3.511   1.286   8.330  0.1902 -0.8167 -1.0849
 6158SOL     OW30109   0.194   2.136   6.305  0.2507  0.1712 -0.2426
 6158SOL    HW130110   0.196   2.042   6.286  0.8371 -0.1856  1.6642
 6158SOL    HW230111   0.126   2.167   6.245 -0.0531 -0.0048  0.0154
 6159SOL     OW30112   3.848   4.223   7.515 -0.0517  0.2569 -0.3166
 6159SOL    HW130113   3.774   4.168   7.490  1.3016 -1.8143  0.2914
 6159SOL    HW230114   3.797   4.247   7.592  1.5452  0.5945  0.6486
 6160SOL     OW30115   1.195   2.993   8.165  0.2585  0.5262  0.5197
 6160SOL    HW130116   1.162   2.906   8.187 -0.5483  0.6031 -0.3933
 6160SOL    HW230117   1.286   2.991   8.194 -0.0949  0.8181  1.6414
 6161SOL     OW30118   3.940   2.282  16.864 -0.2989 -0.0157  0.6719
 6161SOL    HW130119   3.924   2.375  16.847  0.5850  0.2117  1.1435
 6161SOL    HW230120   3.849   2.253  16.874 -0.4608  0.9121  1.8129
 6162SOL     OW30121   2.329   3.445   6.411 -0.3920  0.3584  0.7406
 6162SOL    HW130122   2.290   3.449   6.499 -3.2116 -1.7156 -0.4031
 6162SOL    HW230123   2.269   3.492   6.354 -1.4820 -2.4164 -0.4117
 6163SOL     OW30124   1.218   0.124   6.873 -0.2624 -0.6302  0.3518
 6163SOL    HW130125   1.307   0.160   6.869 -0.9945  1.0410 -0.8333
 6163SOL    HW230126   1.239   0.031   6.880  2.4125 -0.2234 -2.2514
 6164SOL     OW30127   4.403   1.544   3.664  0.3714  0.7840 -0.0677
 6164SOL    HW130128   4.386   1.617   3.724  1.2166  0.4486  0.5850
 6164SOL    HW230129   4.423   1.597   3.587  1.6358 -2.2416 -1.8489
 6165SOL     OW30130   3.713   2.503   8.502  0.4287  0.3793 -0.2082
 6165SOL    HW130131   3.747   2.416   8.482 -2.2342 -0.1487 -2.4505
 6165SOL    HW230132   3.625   2.508   8.466 -0.2768 -0.8376  1.3683
 6166SOL     OW30133   1.145   0.450   6.337  0.3414  0.5032  0.1449
 6166SOL    HW130134   1.066   0.470   6.288 -1.0740  0.4358  2.4198
 6166SOL    HW230135   1.117   0.469   6.427 -0.6115 -0.0148 -0.0448
 6167SOL     OW30136   0.946   3.563   6.881 -0.4292  0.1987  0.0511
 6167SOL    HW130137   1.001   3.533   6.953  0.3008  0.4510 -0.4004
 6167SOL    HW230138   0.855   3.544   6.903  0.0560 -2.8217 -0.5780
 6168SOL     OW30139   4.073   3.603   1.313  0.0184  0.4624  0.1220
 6168SOL    HW130140   4.141   3.580   1.376 -0.5954 -2.6781 -0.3494
 6168SOL    HW230141   4.087   3.550   1.234 -0.8396  0.7445 -0.2146
 6169SOL     OW30142   2.330   0.299   1.814 -0.4010  0.1158  0.0770
 6169SOL    HW130143   2.346   0.238   1.886  0.1403  1.3753  1.0221
 6169SOL    HW230144   2.321   0.386   1.854 -2.8272 -0.3863  0.6294
 6170SOL     OW30145   2.017   4.656   4.000 -0.1523 -0.0044  0.4994
 6170SOL    HW130146   2.111   4.641   4.008 -0.1751 -1.8817 -2.6194
 6170SOL    HW230147   1.989   4.699   4.080 -0.3952 -1.7803  1.3708
 6171SOL     OW30148   3.121   2.563   9.256  0.1894 -0.2206 -0.3970
 6171SOL    HW130149   3.035   2.550   9.297  1.2373 -0.0454  1.8099
 6171SOL    HW230150   3.160   2.482   9.287  1.7907  0.8665  0.3972
 6172SOL     OW30151   4.495   3.782   3.849 -0.0286  0.1177  0.1067
 6172SOL    HW130152   4.476   3.708   3.791  1.1740  0.8287 -1.1987
 6172SOL    HW230153   4.561   3.743   3.907  0.6262 -0.1403 -0.8198
 6173SOL     OW30154   4.619   2.322   2.075  0.1585  0.2943  0.0356
 6173SOL    HW130155   4.591   2.246   2.127  1.3912  0.1929  0.5514
 6173SOL    HW230156   4.678   2.284   2.011  0.0786 -0.3749  0.3588
 6174SOL     OW30157   1.268   3.073  16.632 -0.5253 -0.2045 -0.3040
 6174SOL    HW130158   1.190   3.072  16.688 -0.5736  0.1339 -0.3662
 6174SOL    HW230159   1.307   2.988  16.652 -1.8351 -0.6155  0.5392
 6175SOL     OW30160   0.323   2.875   0.074  0.5504 -0.3327  0.2207
 6175SOL    HW130161   0.257   2.944   0.082 -0.7799 -1.2470 -3.0221
 6175SOL    HW230162   0.292   2.827  17.745 -1.5663  0.8691  0.3172
 6176SOL     OW30163   2.104   3.117   0.995  0.6358 -0.5265 -0.0957
 6176SOL    HW130164   2.118   3.030   1.031  0.2579 -0.1075  1.0505
 6176SOL    HW230165   2.053   3.093   0.918 -1.7012  2.0390  0.6227
 6177SOL     OW30166   4.481   1.616   4.408  0.1329  0.3758  0.5540
 6177SOL    HW130167   4.517   1.537   4.370 -2.8595  0.4615 -2.4970
 6177SOL    HW230168   4.390   1.606   4.380  0.0579  1.6516  0.3625
 6178SOL     OW30169   4.201   1.628   2.670 -0.0185  0.0441  0.1434
 6178SOL    HW130170   4.136   1.594   2.608 -0.3591 -0.2244  0.6489
 6178SOL    HW230171   4.277   1.583   2.635 -0.2954 -0.5726  0.3433
 6179SOL     OW30172   0.086   0.413   1.051 -0.3496 -0.7699  0.6130
 6179SOL    HW130173   0.068   0.325   1.018 -0.0088 -0.6977  0.2318
 6179SOL    HW230174   0.067   0.471   0.977  0.6145 -1.2222  0.0057
 6180SOL     OW30175   1.248   3.336   3.647  0.2182 -0.1913 -0.0539
 6180SOL    HW130176   1.318   3.365   3.705 -2.1991  0.8099  2.3178
 6180SOL    HW230177   1.299   3.310   3.570  1.4689  0.8992  0.4073
 6181SOL     OW30178   1.383   0.542  11.710 -0.2164  0.1371 -0.3959
 6181SOL    HW130179   1.312   0.503  11.760 -0.4208  2.4226  1.0774
 6181SOL    HW230180   1.336   0.559  11.628  0.7489  2.5091 -0.4676
 6182SOL     OW30181   1.142   0.457   1.610  0.6115  0.1212 -0.0706
 6182SOL    HW130182   1.233   0.446   1.581  0.1142 -2.9234 -0.4081
 6182SOL    HW230183   1.145   0.470   1.705 -1.1010  0.6920 -0.0873
 6183SOL     OW30184   4.630   2.487   3.033  0.2407 -0.0755 -0.1029
 6183SOL    HW130185   4.538   2.468   3.053  0.3547 -0.7473 -0.2197
 6183SOL    HW230186   4.630   2.580   3.053  0.3151 -0.5206  2.0329
 6184SOL     OW30187   1.935   4.165  11.032 -0.1246  0.0314 -0.4192
 6184SOL    HW130188   2.019   4.191  11.070 -0.1045 -0.1233 -0.3547
 6184SOL    HW230189   1.884   4.178  11.112 -0.4944 -2.8312 -0.1937
 6185SOL     OW30190   4.129   0.831  12.664  0.2404 -0.7297  0.0976
 6185SOL    HW130191   4.073   0.898  12.704  0.3935  0.3746 -1.5430
 6185SOL    HW230192   4.176   0.793  12.739  0.3505 -0.4442  0.1742
 6186SOL     OW30193   1.959   1.552  10.402 -0.0918  0.3964 -0.0433
 6186SOL    HW130194   1.989   1.585  10.317 -0.7624 -0.2715 -0.5423
 6186SOL    HW230195   2.017   1.604  10.458  1.1502 -0.6319 -0.3713
 6187SOL     OW30196   2.973   2.985  15.111  0.0093  0.3372 -0.3025
 6187SOL    HW130197   2.936   2.986  15.199  3.5961  1.8197  1.1873
 6187SOL    HW230198   3.063   2.956  15.122  0.1505  0.2227 -1.8162
 6188SOL     OW30199   0.398   1.132  12.143 -0.7029  0.2393 -0.4194
 6188SOL    HW130200   0.493   1.129  12.140 -0.5955  0.4366  2.4097
 6188SOL    HW230201   0.381   1.043  12.111  0.1556 -0.0543 -0.0491
 6189SOL     OW30202   3.363   1.485   4.104  0.5412  0.3662 -0.4290
 6189SOL    HW130203   3.351   1.395   4.135 -1.4238  0.3935 -1.0794
 6189SOL    HW230204   3.458   1.486   4.090  0.4232 -0.7368 -1.3785
 6190SOL     OW30205   0.038   2.396  16.772  0.6641 -0.1623  0.4508
 6190SOL    HW130206   4.696   2.361  16.731  1.1776  0.3583 -0.9897
 6190SOL    HW230207   0.049   2.477  16.721  3.1149 -0.5190  0.4052
 6191SOL     OW30208   3.152   1.774   1.257  0.3610  0.0487  0.1708
 6191SOL    HW130209   3.212   1.805   1.325 -0.3855  0.9499  0.4135
 6191SOL    HW230210   3.089   1.728   1.313 -3.0194  1.2752 -2.6001
 6192SOL     OW30211   3.671   4.170   3.044  0.4418 -0.0573  0.6954
 6192SOL    HW130212   3.667   4.077   3.024 -0.0181  0.3097 -0.9020
 6192SOL    HW230213   3.667   4.163   3.139  1.2682 -4.3697  0.3978
 6193SOL     OW30214   1.977   2.369   5.529  0.1028  0.6420 -0.6512
 6193SOL    HW130215   2.053   2.393   5.476  0.6290  0.0545 -0.1773
 6193SOL    HW230216   1.930   2.452   5.539  0.1646  0.8799 -2.4679
 6194SOL     OW30217   0.200   0.475  10.756 -0.7246 -0.0215 -0.2138
 6194SOL    HW130218   0.145   0.485  10.678 -0.5558 -0.8323 -0.4269
 6194SOL    HW230219   0.224   0.383  10.751  2.7822  0.9229 -1.0242
 6195SOL     OW30220   0.534   3.794  17.629  0.1757 -0.0677  0.4931
 6195SOL    HW130221   0.468   3.806  17.697  0.1400  1.2867  0.2315
 6195SOL    HW230222   0.485   3.813  17.550 -0.1206 -4.7306 -0.4366
 6196SOL     OW30223   1.128   0.901   8.400  0.2185  0.6459  0.2160
 6196SOL    HW130224   1.155   0.843   8.329  1.0658  0.7154  0.4784
 6196SOL    HW230225   1.103   0.826   8.454  0.8581  0.4170  0.1889
 6197SOL     OW30226   0.726   2.648   9.577 -0.0716  0.3330 -0.8749
 6197SOL    HW130227   0.766   2.572   9.619 -1.1721 -0.8961 -2.0362
 6197SOL    HW230228   0.715   2.712   9.647 -4.0250  0.1574 -1.3244
 6198SOL     OW30229   2.662   1.823   0.206 -0.2104  0.0396  0.7891
 6198SOL    HW130230   2.674   1.873   0.287 -1.8763  0.7879  0.5902
 6198SOL    HW230231   2.738   1.860   0.160  0.4272 -1.1662  0.8838
 6199SOL     OW30232   0.534   1.758   8.093 -0.1074  0.2406  0.3209
 6199SOL    HW130233   0.617   1.713   8.113  1.3723  3.8693  2.3252
 6199SOL    HW230234   0.504   1.731   8.006  0.3656 -1.0349  0.5496
 6200SOL     OW30235   2.200   0.763   4.725  0.7525  0.4791  0.0950
 6200SOL    HW130236   2.146   0.772   4.803 -0.3323 -0.1661 -0.5750
 6200SOL    HW230237   2.146   0.709   4.667  0.2926  1.4020 -0.3372
 6201SOL     OW30238   0.009   4.638  10.620  0.0441 -0.4415  0.0187
 6201SOL    HW130239   0.047   4.562  10.663  1.1059 -0.4927 -1.0198
 6201SOL    HW230240   4.667   4.596  10.588 -0.3956 -0.1572  0.7311
 6202SOL     OW30241   2.293   1.454   3.596  0.1462  0.6497  0.4949
 6202SOL    HW130242   2.377   1.433   3.636  0.1793 -0.9447 -0.4132
 6202SOL    HW230243   2.235   1.378   3.601 -0.7010  1.1268 -2.4048
 6203SOL     OW30244   0.710   4.601  10.182  0.4169  0.7423 -0.1002
 6203SOL    HW130245   0.782   4.597  10.245  0.6178 -1.5289 -0.4710
 6203SOL    HW230246   0.727   4.686  10.142  0.3075  0.5409 -0.5730
 6204SOL     OW30247   4.368   3.209  16.943 -0.0784  0.3961 -0.1810
 6204SOL    HW130248   4.408   3.125  16.920  1.6245  1.3873 -0.8452
 6204SOL    HW230249   4.323   3.222  16.859 -0.4068  2.1395  0.2631
 6205SOL     OW30250   3.387   4.724   7.353 -0.6115 -0.7252 -0.1957
 6205SOL    HW130251   3.454   4.726   7.285 -1.8032 -0.0648 -1.3392
 6205SOL    HW230252   3.312   4.737   7.295 -1.4012 -1.0765  0.7365
 6206SOL     OW30253   4.132   4.202   7.857 -0.1540 -0.3080  0.0357
 6206SOL    HW130254   4.218   4.198   7.901 -1.1825 -0.0961  2.0621
 6206SOL    HW230255   4.124   4.110   7.830 -2.4429  0.8305 -3.1250
 6207SOL     OW30256   2.586   1.006   8.995 -0.0156  0.1262 -0.1740
 6207SOL    HW130257   2.502   1.019   8.951 -0.9655 -0.7916  1.3658
 6207SOL    HW230258   2.555   1.004   9.085  1.0233  1.1235  0.1986
 6208SOL     OW30259   4.074   0.964   3.348  0.4160 -0.4131  0.0675
 6208SOL    HW130260   4.131   0.969   3.271  0.7346 -1.2500  0.2557
 6208SOL    HW230261   4.106   0.886   3.393  0.0710  0.2116  1.4083
 6209SOL     OW30262   3.810   2.342   5.580 -0.1504  0.3641 -0.4656
 6209SOL    HW130263   3.746   2.408   5.606 -1.6533 -1.9573  1.8290
 6209SOL    HW230264   3.841   2.368   5.494  1.6141  1.3965  0.4778
 6210SOL     OW30265   4.111   0.384   9.228 -0.1425  0.0993  0.3069
 6210SOL    HW130266   4.116   0.327   9.151 -1.3844 -1.2881  1.2661
 6210SOL    HW230267   4.113   0.314   9.293 -0.5084 -1.4875 -1.3790
 6211SOL     OW30268   4.603   1.636   6.056  0.3755 -0.3424  0.1431
 6211SOL    HW130269   4.512   1.611   6.042  0.4938 -1.4352  1.3393
 6211SOL    HW230270   4.593   1.716   6.108  0.3088 -0.0168 -0.3722
 6212SOL     OW30271   2.943   4.443   3.219  0.0491  0.3996 -0.1338
 6212SOL    HW130272   2.975   4.463   3.131  0.7935 -2.1682 -0.4293
 6212SOL    HW230273   3.011   4.486   3.271 -0.1087  0.3118  0.1446
 6213SOL     OW30274   1.685   1.593   1.221 -0.4399  0.6427 -0.1320
 6213SOL    HW130275   1.657   1.673   1.177  0.0425  0.8995  0.0291
 6213SOL    HW230276   1.770   1.611   1.260 -0.4949  0.1291  0.2251
 6214SOL     OW30277   2.838   2.716  11.870 -0.1855  0.9050 -0.1204
 6214SOL    HW130278   2.860   2.625  11.890  0.2336  0.9932 -0.1787
 6214SOL    HW230279   2.825   2.750  11.959  0.3214 -0.3656  0.4470
 6215SOL     OW30280   4.621   2.168  12.373 -0.4090 -0.5068 -0.4000
 6215SOL    HW130281   4.624   2.241  12.310 -0.8191  0.0171  0.1899
 6215SOL    HW230282   4.531   2.137  12.381 -0.1207 -1.0731  0.6891
 6216SOL     OW30283   1.930   3.846   2.508 -0.3792  0.1107  0.2020
 6216SOL    HW130284   2.005   3.889   2.548 -0.2361 -0.2588  0.3307
 6216SOL    HW230285   1.956   3.866   2.418 -0.0372  2.3276  0.7891
 6217SOL     OW30286   3.395   2.424   2.729 -0.5198 -0.6468  0.6784
 6217SOL    HW130287   3.456   2.391   2.794  0.7782 -1.5362 -0.9929
 6217SOL    HW230288   3.377   2.342   2.682  2.9329 -0.3150 -1.1862
 6218SOL     OW30289   4.625   0.618  13.216  0.7822 -0.6759  1.2288
 6218SOL    HW130290   4.563   0.643  13.285  0.0020  0.2997  0.1830
 6218SOL    HW230291   4.625   0.702  13.170  1.0275 -0.5981  1.3695
 6219SOL     OW30292   0.044   2.157   8.654  0.1342 -0.0397 -0.3756
 6219SOL    HW130293   0.071   2.137   8.743 -0.5735 -1.2639 -0.4449
 6219SOL    HW230294   0.124   2.130   8.610 -0.2060 -1.4411 -0.1333
 6220SOL     OW30295   0.048   0.834   4.712  0.1708 -0.2819  0.3798
 6220SOL    HW130296   0.044   0.753   4.762 -2.1393  0.0959  0.7989
 6220SOL    HW230297   0.058   0.906   4.774 -1.4464 -0.3108  0.6789
 6221SOL     OW30298   4.428   4.582   2.469 -0.0644 -0.2253  0.2883
 6221SOL    HW130299   4.494   4.651   2.477  1.3003 -1.6062  1.0048
 6221SOL    HW230300   4.364   4.620   2.530 -0.1970 -1.1607  0.7417
 6222SOL     OW30301   3.974   2.851  15.184 -0.1181 -0.0078 -0.1919
 6222SOL    HW130302   3.973   2.779  15.248  1.4152 -0.3877 -0.5838
 6222SOL    HW230303   3.928   2.809  15.111 -0.6255  0.3699 -0.0874
 6223SOL     OW30304   0.659   1.150   7.540  0.3399 -0.2042  0.2385
 6223SOL    HW130305   0.737   1.185   7.584  1.1208 -1.2075 -0.3701
 6223SOL    HW230306   0.586   1.175   7.598  0.6459  1.2023  0.0365
 6224SOL     OW30307   0.273   4.102   7.490 -0.2043 -0.4046  0.1889
 6224SOL    HW130308   0.239   4.175   7.437 -0.1661  1.0338  2.1591
 6224SOL    HW230309   0.231   4.133   7.570  0.0774 -2.0684  0.9696
 6225SOL     OW30310   3.674   1.483   5.538  1.0132  0.0813 -0.4617
 6225SOL    HW130311   3.637   1.429   5.468 -0.4973 -0.8641  1.0621
 6225SOL    HW230312   3.612   1.555   5.550  0.8209 -0.2545  0.5773
 6226SOL     OW30313   0.561   1.429   9.985  0.2715 -0.3307 -0.5903
 6226SOL    HW130314   0.516   1.384   9.913 -1.2875  0.1971  0.0821
 6226SOL    HW230315   0.496   1.493  10.012  0.7703 -0.3698  0.6617
 6227SOL     OW30316   4.282   2.571   4.865 -0.0036  0.9530  0.5154
 6227SOL    HW130317   4.343   2.542   4.797 -2.0443  0.2975 -1.0306
 6227SOL    HW230318   4.344   2.599   4.932  0.8116  0.8925 -0.2091
 6228SOL     OW30319   2.985   0.920   5.140  0.3900  0.7152 -0.2516
 6228SOL    HW130320   3.032   0.896   5.060  2.1641  2.6157  0.2538
 6228SOL    HW230321   2.906   0.865   5.134  2.4354 -2.3434  0.8459
 6229SOL     OW30322   1.963   1.631   1.368 -0.6119 -0.3849  0.0495
 6229SOL    HW130323   2.014   1.635   1.449 -1.3780  1.5741  0.4288
 6229SOL    HW230324   2.026   1.685   1.320  0.5113 -2.4189 -0.7390
 6230SOL     OW30325   3.747   1.832   1.611 -0.7938  0.2724  0.4772
 6230SOL    HW130326   3.719   1.923   1.602  1.3118  0.9990  1.4021
 6230SOL    HW230327   3.715   1.797   1.527  0.5646 -1.1574  0.5619
 6231SOL     OW30328   0.742   0.591   7.421 -0.3859 -0.7756 -0.3142
 6231SOL    HW130329   0.719   0.665   7.478  0.7650 -2.0123  1.7784
 6231SOL    HW230330   0.817   0.566   7.476  0.0026 -1.8287 -1.3440
 6232SOL     OW30331   1.318   4.631   8.502 -0.2100 -0.6497  0.0068
 6232SOL    HW130332   1.274   4.710   8.473 -0.1338 -1.0906 -1.3209
 6232SOL    HW230333   1.268   4.569   8.449 -0.5872  0.1940 -0.6164
 6233SOL     OW30334   4.312   0.542   7.525 -0.2303  0.1201 -0.3470
 6233SOL    HW130335   4.278   0.613   7.580  1.8641  1.0127 -0.1990
 6233SOL    HW230336   4.244   0.476   7.538 -1.0395  0.9488 -0.4133
 6234SOL     OW30337   2.793   0.324   1.880 -0.2289 -0.5950  0.1911
 6234SOL    HW130338   2.781   0.230   1.898 -2.8443 -0.1722  0.6500
 6234SOL    HW230339   2.839   0.350   1.959  1.4896 -0.7394 -0.7528
 6235SOL     OW30340   2.182   2.005   2.655  0.5491 -0.1342 -0.0765
 6235SOL    HW130341   2.259   2.019   2.710 -0.7636 -1.2310  2.0458
 6235SOL    HW230342   2.192   1.910   2.652 -1.0675 -0.4085  2.9304
 6236SOL     OW30343   1.828   4.511  12.549 -0.0811  0.7312  0.0248
 6236SOL    HW130344   1.859   4.550  12.631  0.6154  1.0814 -0.4056
 6236SOL    HW230345   1.825   4.420  12.579 -1.5186  0.3303 -1.4062
 6237SOL     OW30346   3.551   1.635   5.182  0.4832 -0.2737 -0.1520
 6237SOL    HW130347   3.460   1.654   5.208  0.4247  0.2895 -0.7775
 6237SOL    HW230348   3.600   1.671   5.256  0.9498 -2.6260  0.6740
 6238SOL     OW30349   4.299   4.682   4.361 -0.1476  0.1074  0.1502
 6238SOL    HW130350   4.336   4.699   4.275 -0.7103  0.4780 -0.0152
 6238SOL    HW230351   4.287   0.033   4.396 -1.1280  0.2357 -0.5362
 6239SOL     OW30352   0.197   0.071   8.791  0.0060 -0.0488 -0.2761
 6239SOL    HW130353   0.193   0.116   8.707 -1.2907  1.3409  0.5372
 6239SOL    HW230354   0.236   0.138   8.847 -1.9643  0.1533  0.8699
 6240SOL     OW30355   3.662   3.243   4.088 -0.3047  0.0214 -0.3935
 6240SOL    HW130356   3.747   3.254   4.047 -1.5794  0.3846 -2.9014
 6240SOL    HW230357   3.670   3.324   4.139 -1.2745  0.1372 -0.4157
 6241SOL     OW30358   4.707   1.449   3.608 -0.1728 -0.5696 -0.6609
 6241SOL    HW130359   0.064   1.440   3.621  0.0733  1.5844 -0.8931
 6241SOL    HW230360   4.717   1.527   3.553 -0.3942 -0.9880 -1.2945
 6242SOL     OW30361   0.891   0.298   7.335  1.3512  0.4856  0.4157
 6242SOL    HW130362   0.838   0.305   7.414  2.1519  0.3241  0.9588
 6242SOL    HW230363   0.963   0.239   7.358 -0.4278 -1.7743  0.2363
 6243SOL     OW30364   0.929   2.508   7.520  0.0735  0.6026 -0.0722
 6243SOL    HW130365   0.983   2.449   7.572 -0.4000 -0.8734 -1.2596
 6243SOL    HW230366   0.851   2.503   7.575  0.0026 -0.1276 -0.2322
 6244SOL     OW30367   3.718   0.851   8.933 -0.2029  0.0932  0.9255
 6244SOL    HW130368   3.717   0.756   8.920  0.7000  0.2010  0.0613
 6244SOL    HW230369   3.646   0.878   8.876 -0.6454 -0.5159  1.1977
 6245SOL     OW30370   0.781   3.368   8.287 -0.0282 -1.0968  0.2261
 6245SOL    HW130371   0.758   3.301   8.351 -3.1543  0.7589  1.0198
 6245SOL    HW230372   0.792   3.308   8.213  1.9641 -0.9657  0.3956
 6246SOL     OW30373   0.263   1.636   1.848 -0.6654 -0.5718  0.1828
 6246SOL    HW130374   0.244   1.552   1.890  2.2079 -1.3629 -0.1561
 6246SOL    HW230375   0.232   1.686   1.924 -1.3681  1.3884 -1.3950
 6247SOL     OW30376   3.956   1.604   2.850 -0.0053  0.5047 -0.2431
 6247SOL    HW130377   4.027   1.548   2.819 -1.1100  0.2198 -2.2481
 6247SOL    HW230378   3.890   1.583   2.784  1.1205 -2.5214 -0.3774
 6248SOL     OW30379   2.317   2.688   8.112 -0.0970  0.0469  0.2835
 6248SOL    HW130380   2.320   2.594   8.095  1.7096  0.0623  0.5242
 6248SOL    HW230381   2.282   2.709   8.025 -1.4387 -3.7782 -0.0952
 6249SOL     OW30382   3.076   3.225  10.888  0.3092 -0.2308 -0.0774
 6249SOL    HW130383   3.008   3.278  10.928  1.0545  0.4940  0.2231
 6249SOL    HW230384   3.030   3.141  10.881 -0.3073 -0.1149  2.5644
 6250SOL     OW30385   0.292   0.036  15.969  0.0720  0.3864  0.1186
 6250SOL    HW130386   0.269   0.041  16.061 -0.1202 -1.3345  0.1729
 6250SOL    HW230387   0.330   0.123  15.956  1.6193 -0.4190 -0.7936
 6251SOL     OW30388   0.188   3.630  12.377  0.0822 -0.2584 -0.2291
 6251SOL    HW130389   0.150   3.609  12.462 -0.9709  0.5222 -0.4964
 6251SOL    HW230390   0.279   3.631  12.406 -0.3664 -1.1053  1.1964
 6252SOL     OW30391   0.115   3.634   2.244  0.2300  0.2025  0.2681
 6252SOL    HW130392   0.174   3.631   2.169  0.8798 -0.3812  0.8064
 6252SOL    HW230393   0.158   3.576   2.306  0.4393 -0.1134 -0.1763
 6253SOL     OW30394   2.443   2.296  12.088  0.6459  0.0290  0.1601
 6253SOL    HW130395   2.389   2.365  12.126 -2.2117 -0.8868 -2.3310
 6253SOL    HW230396   2.430   2.323  11.998  2.1970  1.4137  0.3517
 6254SOL     OW30397   0.545   3.863  10.937  0.1941 -0.2951  0.3798
 6254SOL    HW130398   0.541   3.836  11.029 -1.0822  1.7190  0.9076
 6254SOL    HW230399   0.452   3.855  10.915  0.5095  0.6943 -1.3047
 6255SOL     OW30400   0.060   1.889   9.884 -0.2656 -0.3788  0.1128
 6255SOL    HW130401   0.096   1.801   9.874 -2.0081 -1.1602  0.6956
 6255SOL    HW230402   4.707   1.877   9.855 -0.3838  2.8748 -0.8581
 6256SOL     OW30403   1.598   0.697   3.783 -0.1055 -0.1733  0.2840
 6256SOL    HW130404   1.690   0.718   3.770 -0.2719  0.8185  0.7352
 6256SOL    HW230405   1.566   0.782   3.813 -0.4675 -0.5518  0.9803
 6257SOL     OW30406   0.330   0.116   6.631  0.4202  0.1354  0.2081
 6257SOL    HW130407   0.270   0.109   6.556  0.4191 -0.0845  0.2296
 6257SOL    HW230408   0.380   0.035   6.624 -3.0206 -2.0604  0.7796
 6258SOL     OW30409   3.440   2.252   2.502  0.3935 -0.1299  0.6665
 6258SOL    HW130410   3.447   2.197   2.424  1.7112 -0.0940  0.7714
 6258SOL    HW230411   3.458   2.339   2.466  0.1917  0.6457  2.4207
 6259SOL     OW30412   4.120   0.512   7.952  0.4634 -0.0249  0.2743
 6259SOL    HW130413   4.119   0.527   8.047  0.8916  2.2141 -0.0840
 6259SOL    HW230414   4.158   0.424   7.947  0.9499  0.1925  0.2335
 6260SOL     OW30415   3.954   0.746  13.514 -0.0215 -0.0074  0.2312
 6260SOL    HW130416   3.946   0.741  13.419 -0.9294 -0.3776  0.3268
 6260SOL    HW230417   3.867   0.723  13.547 -0.2051  0.8982  0.3906
 6261SOL     OW30418   2.727   2.162   4.839  0.1659  0.4445 -0.8834
 6261SOL    HW130419   2.806   2.130   4.797  0.3084  0.6784 -0.7940
 6261SOL    HW230420   2.734   2.254   4.814  2.9915  0.2402 -0.8590
 6262SOL     OW30421   1.423   3.682   6.420 -0.4445 -0.3356 -0.1798
 6262SOL    HW130422   1.397   3.634   6.341  2.0908 -3.5618  0.9785
 6262SOL    HW230423   1.438   3.767   6.378 -2.3059  0.2596  0.3258
 6263SOL     OW30424   0.024   0.626   3.299  0.1212  0.0253  0.5436
 6263SOL    HW130425   4.731   0.632   3.390  1.6228 -2.0546  1.1907
 6263SOL    HW230426   0.036   0.718   3.275 -0.3550 -0.2126 -0.5940
 6264SOL     OW30427   0.865   0.899   4.111 -0.0180 -0.3853  0.2844
 6264SOL    HW130428   0.871   0.897   4.015 -0.7543  1.0780  0.2122
 6264SOL    HW230429   0.899   0.987   4.128 -2.2176  0.6452 -0.5902
 6265SOL     OW30430   0.938   2.517   3.441 -0.0175  0.3358  0.1595
 6265SOL    HW130431   0.950   2.434   3.487 -0.1707  1.4748  2.2717
 6265SOL    HW230432   0.859   2.504   3.389 -1.4256  1.8677  1.9156
 6266SOL     OW30433   0.844   3.927   8.214  0.0453  0.0665  0.2204
 6266SOL    HW130434   0.874   4.013   8.244 -0.4056 -0.0318  0.9489
 6266SOL    HW230435   0.914   3.904   8.153 -0.7312 -0.1104 -0.5913
 6267SOL     OW30436   3.277   0.484  12.822 -0.7206 -0.3245 -0.6769
 6267SOL    HW130437   3.288   0.541  12.898  0.1099 -1.0744 -0.2277
 6267SOL    HW230438   3.215   0.427  12.867 -0.5853 -0.8544 -1.1737
 6268SOL     OW30439   4.251   3.677  13.651  0.0865  0.1289 -0.7658
 6268SOL    HW130440   4.260   3.694  13.745 -1.5320  0.5298 -0.6967
 6268SOL    HW230441   4.230   3.758  13.606 -0.0888  0.6039  0.1799
 6269SOL     OW30442   2.928   2.578   3.075  0.0857 -0.0934  0.0785
 6269SOL    HW130443   2.959   2.524   3.002 -0.4893  1.0738 -1.0217
 6269SOL    HW230444   2.833   2.571   3.076  0.1252 -0.7678 -0.5811
 6270SOL     OW30445   4.199   2.398   3.227  0.1665 -0.7051  0.0699
 6270SOL    HW130446   4.186   2.305   3.242 -0.7499 -0.4511  0.8942
 6270SOL    HW230447   4.134   2.440   3.284  1.8290 -1.1289  2.2760
 6271SOL     OW30448   4.157   4.130  11.871 -0.1124 -0.7347  0.4644
 6271SOL    HW130449   4.200   4.214  11.854 -2.4708  1.1381  3.7080
 6271SOL    HW230450   4.158   4.119  11.966 -0.0197  0.7449  0.6308
 6272SOL     OW30451   1.377   0.851   3.047 -0.6072 -0.3007  0.1121
 6272SOL    HW130452   1.412   0.924   3.097 -1.4180 -1.1064  1.9061
 6272SOL    HW230453   1.327   0.898   2.980  1.5335 -0.1630 -1.3683
 6273SOL     OW30454   3.642   2.683   0.180  0.1228  0.4986  0.7338
 6273SOL    HW130455   3.556   2.679   0.220 -0.4653  0.6384 -0.5237
 6273SOL    HW230456   3.692   2.623   0.235  0.5633  0.5496  0.3926
 6274SOL     OW30457   3.738   3.058   3.759 -0.1988  0.2914 -0.2556
 6274SOL    HW130458   3.666   3.117   3.782 -0.1466 -0.3809  1.6380
 6274SOL    HW230459   3.813   3.107   3.795 -0.8101 -0.1904  1.6606
 6275SOL     OW30460   3.711   1.746   1.317  0.2414  0.2530  0.2110
 6275SOL    HW130461   3.749   1.659   1.332 -1.6660 -0.7597 -0.8175
 6275SOL    HW230462   3.722   1.751   1.222 -1.2553 -0.5873 -0.0056
 6276SOL     OW30463   1.916   1.548   7.449 -0.2584  0.3834 -0.2368
 6276SOL    HW130464   1.927   1.523   7.357  0.9994  2.2353 -0.5924
 6276SOL    HW230465   2.008   1.553   7.474 -0.3433 -2.3742  0.5807
 6277SOL     OW30466   2.822   1.642   9.613 -0.2209 -0.2970 -0.4153
 6277SOL    HW130467   2.885   1.584   9.654 -0.5066 -0.3359 -0.0412
 6277SOL    HW230468   2.802   1.689   9.694 -1.1065 -0.0382 -0.7710
 6278SOL     OW30469   1.903   2.901   8.507  0.1670  0.1470 -0.3385
 6278SOL    HW130470   1.834   2.916   8.572  0.7831  1.0584  0.1179
 6278SOL    HW230471   1.925   2.812   8.534 -0.7200 -0.1364 -0.5625
 6279SOL     OW30472   2.445   0.002   4.238 -0.1405 -0.4632 -0.0937
 6279SOL    HW130473   2.507   0.060   4.281 -0.9137  1.2944 -1.3464
 6279SOL    HW230474   2.450   4.676   4.310  0.1740  0.2731  0.5294
 6280SOL     OW30475   3.832   3.304   1.891  0.2646  0.0544  0.5324
 6280SOL    HW130476   3.844   3.394   1.859  3.3264 -0.5331  0.0274
 6280SOL    HW230477   3.903   3.291   1.954  1.3603 -2.8549 -1.3047
 6281SOL     OW30478   1.405   1.836   6.233 -0.0067 -0.1801 -0.0539
 6281SOL    HW130479   1.496   1.863   6.245  0.3881 -0.9957 -1.1530
 6281SOL    HW230480   1.361   1.915   6.203  1.1366  0.4730 -0.0249
 6282SOL     OW30481   2.271   4.579   4.935 -0.1371  0.0627  0.5561
 6282SOL    HW130482   2.326   4.656   4.919 -0.7732  0.2445 -0.7178
 6282SOL    HW230483   2.325   4.501   4.923 -0.9347 -0.2105 -1.2314
 6283SOL     OW30484   1.854   1.436   4.791 -0.0449  0.3076  0.6687
 6283SOL    HW130485   1.920   1.458   4.857 -1.8432  2.1635  1.8510
 6283SOL    HW230486   1.890   1.481   4.715  0.6786 -1.1393  0.1631
 6284SOL     OW30487   4.176   1.815   9.396 -0.0474  0.2194 -0.3272
 6284SOL    HW130488   4.237   1.776   9.333 -0.6170 -0.0197 -0.7260
 6284SOL    HW230489   4.146   1.742   9.450  2.1976  0.7404  1.6327
 6285SOL     OW30490   2.071   2.814   8.942  0.0631  0.2111 -0.2203
 6285SOL    HW130491   2.025   2.897   8.936 -0.3202  0.0725  0.9862
 6285SOL    HW230492   2.163   2.841   8.945  0.0086  0.4134 -0.3736
 6286SOL     OW30493   1.701   4.037  14.984 -0.4898 -0.1791  0.4691
 6286SOL    HW130494   1.678   4.066  15.073 -3.4809  2.0656 -0.9981
 6286SOL    HW230495   1.649   3.957  14.984  0.9881 -1.1235 -0.7403
 6287SOL     OW30496   3.668   0.945   4.258 -0.4327 -0.0195  0.3902
 6287SOL    HW130497   3.714   1.028   4.267 -0.1064 -0.0124 -1.2185
 6287SOL    HW230498   3.670   0.922   4.165  0.6752  0.9991  0.1724
 6288SOL     OW30499   4.079   4.189   9.443 -0.2510 -0.2954  0.0525
 6288SOL    HW130500   3.993   4.191   9.484  0.5585 -1.2492  1.7796
 6288SOL    HW230501   4.116   4.114   9.490 -1.9402 -1.4271 -0.3874
 6289SOL     OW30502   3.479   0.526   8.243  0.3699 -0.1635 -0.4895
 6289SOL    HW130503   3.556   0.571   8.276  0.3464 -0.2858 -0.2675
 6289SOL    HW230504   3.410   0.551   8.305  1.0315  0.1093  0.1357
 6290SOL     OW30505   0.672   0.785   6.009 -0.1129  0.1324 -0.7262
 6290SOL    HW130506   0.696   0.693   6.017  1.1819  0.4297 -1.1639
 6290SOL    HW230507   0.577   0.785   6.026  0.0370  0.3242  0.0984
 6291SOL     OW30508   4.475   4.584   8.275 -0.0635 -0.2905  0.4353
 6291SOL    HW130509   4.416   4.553   8.206 -2.6858  2.8069  1.3153
 6291SOL    HW230510   4.536   4.510   8.279  1.0457  0.5670 -0.7086
 6292SOL     OW30511   4.145   0.361   5.332 -0.0848 -0.1590 -0.2629
 6292SOL    HW130512   4.058   0.327   5.351 -0.9661  1.7721 -0.8661
 6292SOL    HW230513   4.116   0.427   5.270 -0.5620 -1.1149 -1.0602
 6293SOL     OW30514   2.523   2.224   6.484 -0.0633  0.1866 -0.1033
 6293SOL    HW130515   2.500   2.154   6.423 -0.9805  0.0153  0.4458
 6293SOL    HW230516   2.568   2.288   6.429 -2.6461  1.3704 -0.8119
 6294SOL     OW30517   2.191   1.016  13.659 -0.3260  0.1747 -0.2977
 6294SOL    HW130518   2.198   0.927  13.695  2.3155 -0.0300 -1.3052
 6294SOL    HW230519   2.218   1.066  13.737  3.6467 -0.4781 -1.2291
 6295SOL     OW30520   2.448   2.793   5.807  0.0862  0.2352 -0.8291
 6295SOL    HW130521   2.534   2.827   5.833  0.6882 -1.6457 -0.3411
 6295SOL    HW230522   2.438   2.711   5.857  0.7625  0.5351 -0.2079
 6296SOL     OW30523   3.720   1.164   3.178  0.3087 -0.1719  0.1760
 6296SOL    HW130524   3.641   1.119   3.208  0.6943 -0.8920  0.1021
 6296SOL    HW230525   3.774   1.085   3.179  0.9864  0.2852 -0.6143
 6297SOL     OW30526   1.353   3.380   7.619 -0.0714 -0.3424  0.3959
 6297SOL    HW130527   1.284   3.314   7.630 -0.8455  0.3534 -0.2340
 6297SOL    HW230528   1.383   3.410   7.705  1.1378  2.1292 -0.8843
 6298SOL     OW30529   2.885   3.646   8.995  0.5163 -0.4169  0.7182
 6298SOL    HW130530   2.972   3.685   8.986  0.3046 -0.0317  0.3539
 6298SOL    HW230531   2.865   3.630   8.903 -1.1608  1.7866  0.7134
 6299SOL     OW30532   2.621   4.637  12.207 -0.5625 -0.0551  0.1612
 6299SOL    HW130533   2.662   4.557  12.174 -0.0670  1.1705 -2.1761
 6299SOL    HW230534   2.683   4.652  12.279 -1.6339  0.0906  1.0504
 6300SOL     OW30535   0.155   3.681   1.502  0.0488 -0.3819 -0.2443
 6300SOL    HW130536   0.161   3.629   1.422  1.0336  0.6408 -0.8336
 6300SOL    HW230537   0.059   3.692   1.504  0.0147 -1.3709  3.6588
 6301SOL     OW30538   2.970   1.131   7.698  0.2375  0.4395 -0.5243
 6301SOL    HW130539   2.901   1.196   7.685  0.0092  0.2396 -0.3111
 6301SOL    HW230540   3.018   1.149   7.617 -0.8554  0.5330 -1.1535
 6302SOL     OW30541   0.800   3.624   5.715  0.0974  0.1800 -0.0249
 6302SOL    HW130542   0.837   3.561   5.777  0.7435  1.0705  0.4922
 6302SOL    HW230543   0.884   3.666   5.699  0.9740 -1.4741  0.1668
 6303SOL     OW30544   0.985   1.361   8.934  0.4103  0.6428  0.4330
 6303SOL    HW130545   0.976   1.314   8.851  1.8225 -1.5975  1.5278
 6303SOL    HW230546   1.074   1.342   8.965  0.5211 -0.9010 -0.8547
 6304SOL     OW30547   0.129   4.583  16.831  0.1538  0.0519  0.5884
 6304SOL    HW130548   0.213   4.540  16.813  0.0426  0.3322 -0.6021
 6304SOL    HW230549   0.080   4.573  16.750 -1.5837  0.1611  1.6152
 6305SOL     OW30550   3.829   3.264   3.245 -0.8515 -0.6363  0.2295
 6305SOL    HW130551   3.911   3.214   3.243 -0.6549 -0.3023 -0.0272
 6305SOL    HW230552   3.785   3.219   3.173 -1.6997 -1.2901  1.1556
 6306SOL     OW30553   1.539   0.674   5.350  0.0484  0.3581 -0.0466
 6306SOL    HW130554   1.499   0.624   5.279  0.3549  0.0132  0.0223
 6306SOL    HW230555   1.573   0.598   5.398 -0.2087 -0.1277 -0.6348
 6307SOL     OW30556   2.712   2.322   6.989 -0.0603 -0.1223 -0.3407
 6307SOL    HW130557   2.803   2.333   6.960 -0.0321  0.2399 -0.1167
 6307SOL    HW230558   2.719   2.366   7.073 -0.1989 -2.9236  1.1416
 6308SOL     OW30559   2.557   1.771   4.412  0.1616 -0.1321  0.0801
 6308SOL    HW130560   2.499   1.823   4.357 -0.2272 -0.0993  0.5184
 6308SOL    HW230561   2.506   1.691   4.425 -2.5396  1.5992  0.2104
 6309SOL     OW30562   0.792   4.238  12.395 -0.7250  0.0937 -0.0211
 6309SOL    HW130563   0.830   4.323  12.418 -0.6333  0.0097  0.1371
 6309SOL    HW230564   0.805   4.232  12.301  1.6812 -1.0945  0.4002
 6310SOL     OW30565   2.780   2.175   7.809  0.0353 -0.4427  0.4831
 6310SOL    HW130566   2.690   2.162   7.780  0.3454 -0.8338 -0.3089
 6310SOL    HW230567   2.833   2.195   7.732  0.5799 -0.2556  0.9063
 6311SOL     OW30568   1.218   0.169  16.777  0.1099 -0.0761  0.4720
 6311SOL    HW130569   1.313   0.162  16.766  0.2127  0.8251  0.7591
 6311SOL    HW230570   1.205   0.225  16.700 -0.0532  1.3454  1.5436
 6312SOL     OW30571   1.474   1.110  15.424 -0.6111 -0.2495  0.2927
 6312SOL    HW130572   1.564   1.126  15.454 -0.6104  1.3108 -0.5597
 6312SOL    HW230573   1.494   1.050  15.352  1.5281 -0.5145  1.0882
 6313SOL     OW30574   4.202   4.167   9.844 -0.5228  0.2387 -0.3466
 6313SOL    HW130575   4.241   4.127   9.767  0.3344  0.6804 -0.1357
 6313SOL    HW230576   4.144   4.225   9.794  0.5965  2.0247  0.4365
 6314SOL     OW30577   1.023   0.260   3.305 -0.9582 -0.4716 -0.0384
 6314SOL    HW130578   0.966   0.201   3.355 -1.7630 -0.9907 -1.5790
 6314SOL    HW230579   1.108   0.226   3.335 -0.9490  1.9447  2.6898
 6315SOL     OW30580   3.363   2.198  14.509 -0.3046  0.3025 -0.8282
 6315SOL    HW130581   3.435   2.174  14.568 -1.9262 -0.4653  0.8568
 6315SOL    HW230582   3.307   2.235  14.578 -0.6178  0.1538 -1.0042
 6316SOL     OW30583   0.591   1.449  15.557  0.4723  0.4955 -0.2980
 6316SOL    HW130584   0.521   1.432  15.493 -2.2466  0.3510  2.7491
 6316SOL    HW230585   0.547   1.426  15.639  2.6567 -0.9861  0.4583
 6317SOL     OW30586   1.443   4.398   6.082  0.4862 -0.5449 -0.2270
 6317SOL    HW130587   1.437   4.364   6.171 -0.5725  0.1539 -0.0300
 6317SOL    HW230588   1.463   4.492   6.090  0.2615 -0.6357  1.5391
 6318SOL     OW30589   4.362   1.966   6.322 -0.2748  0.1165  0.1070
 6318SOL    HW130590   4.345   2.060   6.324 -0.6434  0.0790 -1.1838
 6318SOL    HW230591   4.411   1.958   6.403  0.3939 -3.3366 -0.6204
 6319SOL     OW30592   2.438   1.453  11.506 -0.2227 -0.2814 -0.3378
 6319SOL    HW130593   2.469   1.517  11.441 -1.7776  0.4187 -0.4025
 6319SOL    HW230594   2.370   1.503  11.551  1.4282 -0.7361  2.6148
 6320SOL     OW30595   2.871   4.069   9.842 -0.2157 -0.0424  0.0418
 6320SOL    HW130596   2.848   3.993   9.788 -0.4374 -0.1365  0.2701
 6320SOL    HW230597   2.940   4.034   9.899  0.3754 -1.7928 -1.7637
 6321SOL     OW30598   4.423   1.845   4.663  0.5746  0.2642 -0.3123
 6321SOL    HW130599   4.440   1.939   4.664 -2.2353  0.8006 -0.9531
 6321SOL    HW230600   4.359   1.825   4.594  0.5366 -1.4709  0.2346
 6322SOL     OW30601   0.233   1.585   6.899 -0.0703 -0.3171  0.3537
 6322SOL    HW130602   0.260   1.640   6.972  1.2656 -0.2041 -0.2293
 6322SOL    HW230603   0.302   1.612   6.839 -1.1498  0.4017 -0.5697
 6323SOL     OW30604   2.799   1.674   4.544 -0.4251 -0.6359 -0.3276
 6323SOL    HW130605   2.715   1.689   4.502 -0.2992 -0.6406 -0.5819
 6323SOL    HW230606   2.798   1.720   4.628  1.8732 -1.7476  0.3191
 6324SOL     OW30607   4.485   4.320   6.078  0.2040  0.2122 -0.1150
 6324SOL    HW130608   4.476   4.353   6.167 -0.6278  2.4989 -1.0609
 6324SOL    HW230609   4.574   4.285   6.074  0.9758  2.0072  1.3268
 6325SOL     OW30610   3.962   3.678   0.511 -0.0649 -0.2090 -0.4195
 6325SOL    HW130611   3.992   3.750   0.567 -0.0885  0.5173 -1.3402
 6325SOL    HW230612   4.006   3.694   0.428 -0.0836 -0.9851 -0.5756
 6326SOL     OW30613   3.045   2.460   6.406 -0.4229 -0.2140  0.5657
 6326SOL    HW130614   3.043   2.540   6.354  0.4298  0.2830  1.2835
 6326SOL    HW230615   3.138   2.456   6.429  0.9498  1.7712 -4.7942
 6327SOL     OW30616   0.647   0.990  11.934 -0.0626  0.0290 -0.0381
 6327SOL    HW130617   0.684   1.026  12.015 -1.7403  1.0179  0.3124
 6327SOL    HW230618   0.559   1.028  11.930  0.6306  1.9298  2.6670
 6328SOL     OW30619   1.955   0.078   3.804 -0.1322  0.2297 -0.7974
 6328SOL    HW130620   2.043   0.116   3.808 -0.1927  0.1163  1.4479
 6328SOL    HW230621   1.968   0.006   3.866  1.6911 -0.5057 -2.0141
 6329SOL     OW30622   3.581   3.465  11.233 -0.1396 -0.0488 -0.3884
 6329SOL    HW130623   3.537   3.422  11.160  2.2579  0.6346 -2.2140
 6329SOL    HW230624   3.669   3.457  11.197  0.2733 -1.5589  0.9199
 6330SOL     OW30625   2.221   3.042   4.849 -0.1947  0.0754 -0.7663
 6330SOL    HW130626   2.253   2.953   4.832 -1.1396 -0.3522 -0.2838
 6330SOL    HW230627   2.131   3.030   4.877 -0.5424  3.9519 -0.1989
 6331SOL     OW30628   4.066   2.592   4.219  0.3064 -0.3032 -0.7918
 6331SOL    HW130629   4.077   2.662   4.155 -0.5031 -0.2280 -0.8425
 6331SOL    HW230630   3.999   2.629   4.276 -0.0418 -2.2687  0.0581
 6332SOL     OW30631   1.619   0.762   6.967  0.6816  0.2253 -0.1292
 6332SOL    HW130632   1.695   0.731   7.015  0.0830  0.2310  0.8285
 6332SOL    HW230633   1.576   0.676   6.967  0.0262  0.5417 -1.8838
 6333SOL     OW30634   3.804   4.084   6.202  0.2158 -1.0985 -0.0388
 6333SOL    HW130635   3.842   4.170   6.182 -0.4568 -1.1381 -1.4815
 6333SOL    HW230636   3.878   4.032   6.171  0.6676 -1.3616  1.4566
 6334SOL     OW30637   0.178   2.855   8.744 -0.0211  0.0581  0.4713
 6334SOL    HW130638   0.106   2.916   8.731  1.0661  1.1792 -0.3009
 6334SOL    HW230639   0.222   2.851   8.659  0.7705  1.1596  0.8340
 6335SOL     OW30640   4.496   2.990   5.609 -0.2363 -0.0428  0.1568
 6335SOL    HW130641   4.479   2.899   5.631  1.3501 -0.4654 -0.3773
 6335SOL    HW230642   4.495   3.037   5.692 -1.1525 -1.6276  1.0366
 6336SOL     OW30643   1.108   1.817   7.978 -0.0804  0.5667  0.1903
 6336SOL    HW130644   1.171   1.827   8.050 -0.9566  0.9673  0.9016
 6336SOL    HW230645   1.105   1.904   7.939 -1.9693 -0.0449 -1.0143
 6337SOL     OW30646   3.817   2.334  13.959 -0.3526 -0.4202  0.2140
 6337SOL    HW130647   3.814   2.366  14.049  0.9597  0.2868  0.0096
 6337SOL    HW230648   3.769   2.252  13.966 -1.1479 -0.0096 -0.4526
 6338SOL     OW30649   0.059   2.672   2.766 -0.0495 -0.0916 -0.7965
 6338SOL    HW130650   0.029   2.693   2.677  1.4778  0.5156 -1.1603
 6338SOL    HW230651   4.714   2.658   2.814  0.5447  1.9569  0.7589
 6339SOL     OW30652   4.665   2.153  17.738  0.4193  0.0036 -0.1633
 6339SOL    HW130653   4.687   2.132  17.648 -0.0207  0.4783 -0.3825
 6339SOL    HW230654   4.598   2.216  17.710  2.3108  2.5267  1.0334
 6340SOL     OW30655   1.595   4.650   6.653 -0.3207  0.0754 -0.4806
 6340SOL    HW130656   1.673   4.700   6.676 -1.6314  1.4651  0.9303
 6340SOL    HW230657   1.561   4.643   6.742 -0.6951 -2.2575 -0.7939
 6341SOL     OW30658   1.697   2.382   9.025  0.2898 -0.1135  0.1601
 6341SOL    HW130659   1.623   2.434   9.056  0.2850  0.0877 -0.1849
 6341SOL    HW230660   1.761   2.451   9.008 -0.6636  0.9513  0.8830
 6342SOL     OW30661   1.610   0.139   7.110  0.2100 -0.0866 -0.2936
 6342SOL    HW130662   1.694   0.170   7.075  0.0036  0.2372 -0.4982
 6342SOL    HW230663   1.604   0.167   7.201 -2.3619 -0.3641 -0.3888
 6343SOL     OW30664   1.038   3.051   1.775  0.2961  0.1208 -0.2814
 6343SOL    HW130665   1.033   3.086   1.686  0.2472 -1.1879 -0.7979
 6343SOL    HW230666   1.045   2.956   1.763  0.8463  0.0836  0.3264
 6344SOL     OW30667   3.539   2.464   3.673  0.3000  0.3851 -0.0852
 6344SOL    HW130668   3.592   2.533   3.712 -1.4302  2.1195 -0.7730
 6344SOL    HW230669   3.452   2.504   3.686 -0.0641 -0.1601 -0.8413
 6345SOL     OW30670   1.125   1.266   8.136  0.5286 -0.2979  0.1774
 6345SOL    HW130671   1.187   1.225   8.076 -0.9136 -0.4727 -1.1763
 6345SOL    HW230672   1.099   1.350   8.097  0.9559  0.1421  0.8434
 6346SOL     OW30673   4.456   3.879   8.381  0.3318 -0.1798 -0.3145
 6346SOL    HW130674   4.427   3.864   8.471 -0.0083 -0.8282 -0.5322
 6346SOL    HW230675   4.543   3.841   8.389 -0.3645 -1.5503  0.6953
 6347SOL     OW30676   3.545   3.799  12.718  0.0334  0.2691 -0.1040
 6347SOL    HW130677   3.506   3.869  12.771 -1.8136 -1.3657  0.7087
 6347SOL    HW230678   3.559   3.848  12.637 -0.3447  0.0186 -0.3199
 6348SOL     OW30679   3.172   1.974   8.807 -0.1982 -0.2380  0.2099
 6348SOL    HW130680   3.129   2.015   8.731 -1.9843 -0.0190  1.3321
 6348SOL    HW230681   3.107   2.004   8.871 -0.1138  1.5149 -0.5359
 6349SOL     OW30682   4.353   2.818   8.361  0.1979 -0.0457  0.0713
 6349SOL    HW130683   4.258   2.830   8.352  0.6697  2.6875 -1.5540
 6349SOL    HW230684   4.370   2.725   8.367 -0.5660 -0.2810 -1.3039
 6350SOL     OW30685   0.050   4.520   3.364  0.5160  0.2150  0.4572
 6350SOL    HW130686   0.074   4.445   3.418 -0.7633 -1.7446 -1.7001
 6350SOL    HW230687   0.103   4.586   3.408 -1.1319  0.9409  1.3788
 6351SOL     OW30688   3.943   4.201  10.018 -0.0087  0.6056  0.5419
 6351SOL    HW130689   4.037   4.185  10.016 -0.4875 -1.5157 -3.7757
 6351SOL    HW230690   3.930   4.193  10.113 -1.3707 -0.1898  0.2917
 6352SOL     OW30691   3.633   1.869  12.016 -0.2681  0.3553 -0.0840
 6352SOL    HW130692   3.723   1.863  11.985 -1.1366  0.4572 -2.6231
 6352SOL    HW230693   3.600   1.782  12.037  0.8884  0.3005  1.5119
 6353SOL     OW30694   1.626   0.373  16.089 -0.2389  0.5282  0.1329
 6353SOL    HW130695   1.711   0.342  16.059 -2.6095 -5.2008 -0.6641
 6353SOL    HW230696   1.581   0.385  16.006 -1.0715  2.1542  0.8264
 6354SOL     OW30697   0.520   1.472   3.525 -0.0953 -0.3804 -0.4345
 6354SOL    HW130698   0.534   1.554   3.573  1.0563 -2.5642  2.9321
 6354SOL    HW230699   0.532   1.404   3.591 -0.9483  0.4216  0.5387
 6355SOL     OW30700   0.515   3.148  16.974  0.5108 -0.0387  0.0094
 6355SOL    HW130701   0.424   3.118  16.976  0.9346 -1.5262 -4.0604
 6355SOL    HW230702   0.549   3.129  16.887 -0.3898 -1.9990  0.0721
 6356SOL     OW30703   1.107   3.952   6.857 -0.3909 -0.2326 -0.2682
 6356SOL    HW130704   1.138   3.862   6.869 -4.7229 -1.4209  1.9598
 6356SOL    HW230705   1.030   3.943   6.913 -0.4819  3.0141  0.1196
 6357SOL     OW30706   4.438   1.940   9.211  0.1420  0.1711  0.4155
 6357SOL    HW130707   4.518   1.966   9.165 -0.4773  1.2663 -0.0434
 6357SOL    HW230708   4.368   1.975   9.157  0.6452  3.5589  1.8839
 6358SOL     OW30709   1.645   0.925   2.300 -0.5298 -0.3088 -0.3121
 6358SOL    HW130710   1.595   0.850   2.332 -1.6390 -0.2524 -1.9029
 6358SOL    HW230711   1.575   0.981   2.265 -1.2523 -0.6771  0.5434
 6359SOL     OW30712   0.578   2.829  10.379  0.4652 -0.0755  0.1799
 6359SOL    HW130713   0.484   2.840  10.362  0.1520 -1.4443  0.9742
 6359SOL    HW230714   0.617   2.914  10.358  0.9788 -0.4651 -0.4666
 6360SOL     OW30715   4.348   2.053   4.002 -0.4753  0.1695 -0.2043
 6360SOL    HW130716   4.262   2.071   4.040 -1.2150 -1.4242 -1.1147
 6360SOL    HW230717   4.377   2.143   4.016 -1.1127  0.4676 -0.7702
 6361SOL     OW30718   4.260   3.137   1.264 -0.2598 -0.0917 -0.0129
 6361SOL    HW130719   4.186   3.173   1.312 -0.8130  2.8254 -3.1071
 6361SOL    HW230720   4.320   3.204   1.296 -1.0623  1.2343 -1.2915
 6362SOL     OW30721   3.031   2.963   5.518  0.2688 -0.4190  0.3908
 6362SOL    HW130722   3.110   2.910   5.526  0.6699 -0.2580 -2.5720
 6362SOL    HW230723   3.015   2.973   5.424  2.2262  3.7267  0.5169
 6363SOL     OW30724   1.377   0.282  14.157  0.2785  0.0964 -0.0056
 6363SOL    HW130725   1.452   0.274  14.098 -1.6426  1.5540 -2.6382
 6363SOL    HW230726   1.303   0.250  14.106  0.6901 -1.4890  0.3753
 6364SOL     OW30727   0.078   4.577   1.686  0.6802  0.1977  0.5921
 6364SOL    HW130728   0.041   4.665   1.676 -0.4482 -0.5125 -1.4199
 6364SOL    HW230729   0.067   4.579   1.781 -1.2197 -0.7949  0.3945
 6365SOL     OW30730   3.162   2.336   4.281 -0.2049 -0.2016 -0.6536
 6365SOL    HW130731   3.183   2.324   4.374  3.1020  0.2513 -1.3644
 6365SOL    HW230732   3.198   2.262   4.232  1.9976  0.3047  0.2005
 6366SOL     OW30733   4.041   1.672   5.753 -0.7675 -0.0280  0.2925
 6366SOL    HW130734   4.064   1.702   5.841 -4.1209 -2.0152  1.8636
 6366SOL    HW230735   3.958   1.634   5.781 -0.7738  0.3497  0.7770
 6367SOL     OW30736   1.748   0.909   5.212  0.2165  0.3032  0.1792
 6367SOL    HW130737   1.826   0.938   5.166  0.7330 -0.7947  0.3623
 6367SOL    HW230738   1.780   0.829   5.255 -1.8918 -0.4386  0.3973
 6368SOL     OW30739   4.360   0.843   8.876  0.0524 -1.0671 -0.6551
 6368SOL    HW130740   4.381   0.804   8.961  0.0168  1.8484  0.7144
 6368SOL    HW230741   4.396   0.932   8.882 -0.5057 -0.8938  0.1642
 6369SOL     OW30742   3.547   2.172   2.074  0.4399 -0.0767  0.2437
 6369SOL    HW130743   3.573   2.116   2.001  1.8874  1.9158 -0.7817
 6369SOL    HW230744   3.475   2.118   2.105 -0.5555  0.2456 -1.4956
 6370SOL     OW30745   3.104   2.871   3.422 -0.3201  0.5819  0.5259
 6370SOL    HW130746   3.185   2.847   3.468 -0.0865 -2.4063 -1.4842
 6370SOL    HW230747   3.029   2.861   3.481 -0.0508 -0.0937  0.7472
 6371SOL     OW30748   1.306   1.912   2.316  0.0742  0.0092 -0.4163
 6371SOL    HW130749   1.246   1.839   2.330  0.3722 -0.3961 -1.2515
 6371SOL    HW230750   1.374   1.869   2.264  0.9730 -1.0041  1.6264
 6372SOL     OW30751   1.092   1.530   8.011  0.2792 -0.3881  0.4541
 6372SOL    HW130752   1.022   1.576   8.058  1.1546  0.5465  0.8402
 6372SOL    HW230753   1.118   1.592   7.943  0.0898  1.0357  1.6761
 6373SOL     OW30754   4.101   2.736  11.136  0.2150  0.9640  0.4143
 6373SOL    HW130755   4.159   2.671  11.097  0.3491  1.6247 -0.4705
 6373SOL    HW230756   4.017   2.729  11.092 -0.3334 -0.1306  1.6413
 6374SOL     OW30757   4.663   3.449  17.428 -0.0513 -0.5336  0.2573
 6374SOL    HW130758   4.601   3.384  17.396  0.8799 -1.0668 -0.4545
 6374SOL    HW230759   4.654   3.451  17.524 -2.4446  0.0983  0.0283
 6375SOL     OW30760   1.069   2.655   1.500 -0.3318  0.0696 -1.0399
 6375SOL    HW130761   1.039   2.571   1.534 -0.1827 -1.0830 -3.8439
 6375SOL    HW230762   1.061   2.709   1.579 -0.4823 -0.5613 -0.6255
 6376SOL     OW30763   0.601   1.469   6.888 -0.5331 -0.1938  0.4085
 6376SOL    HW130764   0.528   1.410   6.907  0.3955 -1.4122  0.1775
 6376SOL    HW230765   0.552   1.548   6.910  0.5564  0.9453 -1.2611
 6377SOL     OW30766   3.328   3.117   3.701 -0.4098 -0.7515  0.2258
 6377SOL    HW130767   3.390   3.157   3.762 -1.9407  2.9605 -0.6209
 6377SOL    HW230768   3.244   3.147   3.737 -1.5021 -1.7718 -1.4963
 6378SOL     OW30769   2.921   4.380   6.222 -0.0345 -0.6204 -0.0919
 6378SOL    HW130770   2.919   4.286   6.206 -1.6539 -0.7788  0.9971
 6378SOL    HW230771   2.942   4.418   6.138  2.1331 -1.1927  0.2035
 6379SOL     OW30772   1.269   3.943   6.042  0.6553  0.3227  0.2769
 6379SOL    HW130773   1.252   4.031   6.009  0.7121  0.0936 -0.3616
 6379SOL    HW230774   1.272   3.890   5.962  2.8148  1.8175 -0.6406
 6380SOL     OW30775   0.540   3.344   8.505 -0.3483  0.8719 -0.5620
 6380SOL    HW130776   0.590   3.425   8.510  2.0276 -0.5307 -1.6054
 6380SOL    HW230777   0.463   3.366   8.559  1.3047 -1.2927  2.6727
 6381SOL     OW30778   0.121   2.160  10.775 -0.2391  0.2698  0.0772
 6381SOL    HW130779   0.037   2.169  10.730 -0.4597 -1.1340  0.2205
 6381SOL    HW230780   0.177   2.125  10.706  1.5954  2.1365  0.6096
 6382SOL     OW30781   0.004   0.521   1.284 -0.5629  0.4837  0.3636
 6382SOL    HW130782   4.733   0.427   1.302 -0.1248  0.2533 -0.6503
 6382SOL    HW230783   0.051   0.514   1.201  1.3757  0.6017  1.4444
 6383SOL     OW30784   4.113   2.316   5.945  0.7664 -0.0498 -0.1746
 6383SOL    HW130785   4.074   2.276   5.867 -3.2526  3.4480  0.0646
 6383SOL    HW230786   4.091   2.403   5.913  1.1227  0.7809  1.8924
 6384SOL     OW30787   3.878   2.778  10.058 -0.3875 -0.3320  0.0969
 6384SOL    HW130788   3.821   2.701  10.057 -0.8248  0.0006 -0.5024
 6384SOL    HW230789   3.831   2.830   9.992  2.1411  1.0266 -0.6392
 6385SOL     OW30790   2.300   2.942  16.291  0.1662 -0.0588 -0.1078
 6385SOL    HW130791   2.229   3.000  16.263 -0.8703 -1.9344 -1.3104
 6385SOL    HW230792   2.272   2.914  16.378  2.1836 -1.0559  0.2119
 6386SOL     OW30793   0.787   1.605   8.104  0.0333 -0.3400  0.5617
 6386SOL    HW130794   0.739   1.527   8.132  0.3585  0.1472  2.4800
 6386SOL    HW230795   0.828   1.631   8.186  0.6898 -0.0654  0.1419
 6387SOL     OW30796   0.372   3.767   7.063  0.4973 -0.1721  0.3387
 6387SOL    HW130797   0.352   3.791   7.153 -1.3544  0.3270 -0.2124
 6387SOL    HW230798   0.459   3.805   7.050  0.5318  0.0980  1.3879
 6388SOL     OW30799   4.212   0.845   7.989  0.8622 -0.1457 -0.4700
 6388SOL    HW130800   4.236   0.788   8.062 -0.8231  0.3051  0.4308
 6388SOL    HW230801   4.298   0.887   7.985  0.7249  0.2686  0.9533
 6389SOL     OW30802   2.956   2.254   5.842 -0.3033 -0.0772  0.3416
 6389SOL    HW130803   2.888   2.188   5.853 -0.6417  0.1409 -0.4533
 6389SOL    HW230804   2.998   2.222   5.762  0.6860 -0.3748  0.9863
 6390SOL     OW30805   4.676   0.754  11.295  0.2802  0.4961 -0.0719
 6390SOL    HW130806   4.689   0.816  11.223  0.1772 -0.0871 -0.6000
 6390SOL    HW230807   4.653   0.818  11.362 -2.2135 -2.0375  1.5029
 6391SOL     OW30808   1.383   2.926   9.456 -0.1009  0.0530 -0.6189
 6391SOL    HW130809   1.363   2.839   9.491  0.3951 -0.0251 -0.5289
 6391SOL    HW230810   1.293   2.958   9.454  0.5260  1.8603  0.2398
 6392SOL     OW30811   1.154   3.175   6.940  0.1498 -0.4749 -0.1173
 6392SOL    HW130812   1.095   3.127   6.881 -0.4770 -0.8967  0.8419
 6392SOL    HW230813   1.129   3.138   7.025 -0.2580 -3.2084 -1.4219
 6393SOL     OW30814   4.173   2.504   6.628  0.5238  0.2494  0.4021
 6393SOL    HW130815   4.089   2.509   6.584  0.9043  1.7142 -0.1456
 6393SOL    HW230816   4.178   2.590   6.670 -1.1427  1.7070 -2.4204
 6394SOL     OW30817   3.903   0.250   6.112  0.2831 -0.7424 -0.3907
 6394SOL    HW130818   3.820   0.208   6.135  1.4446 -2.5581  0.5363
 6394SOL    HW230819   3.972   0.212   6.167  0.1270 -1.5652 -0.7593
 6395SOL     OW30820   0.488   3.965   7.615 -0.3473 -0.5095 -0.7624
 6395SOL    HW130821   0.403   4.008   7.601  0.5094  0.7369 -2.2441
 6395SOL    HW230822   0.538   4.045   7.630 -3.3469  1.1181  0.5139
 6396SOL     OW30823   3.694   1.468   9.825  0.1643 -0.1555 -0.2747
 6396SOL    HW130824   3.684   1.375   9.807  2.1646 -0.6520  1.2008
 6396SOL    HW230825   3.611   1.504   9.794  0.1028  0.2896  0.4059
 6397SOL     OW30826   3.979   1.450   7.707 -0.0518  0.0613 -0.3331
 6397SOL    HW130827   3.904   1.492   7.666 -0.3333  0.1160  0.2449
 6397SOL    HW230828   4.024   1.405   7.635  0.1017  0.2863 -0.3771
 6398SOL     OW30829   1.928   0.025   5.760  0.3592  0.2685 -0.2771
 6398SOL    HW130830   2.014   0.018   5.802 -0.5280 -0.9518  1.3274
 6398SOL    HW230831   1.886   4.686   5.800 -1.3086  0.6463 -1.3345
 6399SOL     OW30832   1.174   2.193   2.372  0.5691  0.0757 -0.5101
 6399SOL    HW130833   1.150   2.223   2.460  0.9038  0.1543 -0.4478
 6399SOL    HW230834   1.239   2.123   2.375  0.6964  0.2963  1.7419
 6400SOL     OW30835   3.720   4.051   4.478  0.3056 -0.2303 -0.3739
 6400SOL    HW130836   3.790   4.099   4.523  0.0971  1.3895 -1.7570
 6400SOL    HW230837   3.671   4.126   4.443 -0.5489 -0.4799  0.3092
 6401SOL     OW30838   4.457   1.994  10.211  0.5105  0.3437 -0.0345
 6401SOL    HW130839   4.416   1.996  10.125 -0.2327 -2.5401  0.2569
 6401SOL    HW230840   4.382   1.986  10.270 -1.0737  3.6527 -1.6323
 6402SOL     OW30841   2.132   2.476   8.285 -0.1647 -0.0719 -0.1992
 6402SOL    HW130842   2.105   2.418   8.355  0.5211  0.3161  0.3874
 6402SOL    HW230843   2.202   2.519   8.334 -0.3956  0.8062 -0.6280
 6403SOL     OW30844   3.696   0.136  10.097 -0.1355 -0.3144  0.0861
 6403SOL    HW130845   3.757   0.121  10.025  1.6400  1.1563  1.2802
 6403SOL    HW230846   3.740   0.192  10.161 -0.5563 -1.2638  1.1962
 6404SOL     OW30847   2.198   2.357   2.097 -0.2704 -0.1289 -0.1475
 6404SOL    HW130848   2.168   2.349   2.188  1.1412  1.1096  0.4448
 6404SOL    HW230849   2.292   2.363   2.115 -0.1316 -2.1738 -0.2424
 6405SOL     OW30850   2.840   1.321   3.169  0.7610 -0.9066  0.1051
 6405SOL    HW130851   2.808   1.283   3.087 -1.6332  0.2389  0.5179
 6405SOL    HW230852   2.904   1.386   3.140 -0.1559  0.6046  1.4866
 6406SOL     OW30853   2.964   4.417   4.054  0.0257  0.3902  0.4516
 6406SOL    HW130854   2.945   4.503   4.017  1.4156  0.1068 -0.9441
 6406SOL    HW230855   2.890   4.360   4.031  0.6420 -0.4676  0.5608
 6407SOL     OW30856   0.785   4.366  16.627  0.0124  0.0134 -0.0014
 6407SOL    HW130857   0.851   4.429  16.597  1.0656 -1.2861 -0.3962
 6407SOL    HW230858   0.737   4.421  16.689 -1.2315 -1.8446  0.6551
 6408SOL     OW30859   0.540   0.014   5.642  0.3483  0.3875 -0.1822
 6408SOL    HW130860   0.554   0.072   5.568 -0.8228  2.5407  1.2885
 6408SOL    HW230861   0.471   0.058   5.692  0.1021 -1.0623  0.7903
 6409SOL     OW30862   0.954   1.752   6.831 -0.1739 -0.1268 -0.1175
 6409SOL    HW130863   0.920   1.817   6.892 -1.7155  0.5349 -1.7025
 6409SOL    HW230864   0.918   1.670   6.865 -2.6508  1.7301  1.7008
 6410SOL     OW30865   2.328   2.807  16.555 -0.4222  0.1015 -0.3470
 6410SOL    HW130866   2.267   2.793  16.627  0.5765 -0.6906  0.3332
 6410SOL    HW230867   2.344   2.721  16.516  1.4429  1.6174 -2.8998
 6411SOL     OW30868   1.178   1.370  17.009  0.1776  0.0825 -0.2269
 6411SOL    HW130869   1.255   1.315  17.023  0.0895 -0.0902 -0.4118
 6411SOL    HW230870   1.117   1.317  17.060 -2.0150  0.6747 -2.2652
 6412SOL     OW30871   4.067   1.147   8.362 -0.5003  0.0033 -0.1819
 6412SOL    HW130872   4.148   1.177   8.405 -0.1894  0.7213 -1.2741
 6412SOL    HW230873   4.099   1.142   8.272 -1.7796 -1.0291 -0.5849
 6413SOL     OW30874   2.100   0.604   5.336  0.7024  0.1394  0.3205
 6413SOL    HW130875   2.050   0.682   5.361  0.8454 -0.3309  2.0475
 6413SOL    HW230876   2.084   0.604   5.241  0.0744 -0.1869  0.4272
 6414SOL     OW30877   0.039   2.809   0.575  0.4176 -0.6173 -0.5261
 6414SOL    HW130878   0.074   2.806   0.664  0.0432 -1.7018 -0.4179
 6414SOL    HW230879   0.015   2.718   0.560 -1.5846  0.0346 -1.3313
 6415SOL     OW30880   3.635   2.855  12.092  0.4508 -0.2695 -0.3755
 6415SOL    HW130881   3.678   2.771  12.078 -0.1964 -0.2894 -2.3661
 6415SOL    HW230882   3.608   2.877  12.002  1.3215  1.3214 -0.2463
 6416SOL     OW30883   4.327   1.755   6.136 -0.2571  0.2627 -0.3973
 6416SOL    HW130884   4.338   1.841   6.178 -1.0599  0.9913 -1.6644
 6416SOL    HW230885   4.361   1.705   6.210 -1.4851 -0.8960 -0.6189
 6417SOL     OW30886   3.438   3.097   5.214  0.2455 -0.3097 -0.7618
 6417SOL    HW130887   3.408   3.149   5.139  1.6245  0.3821 -0.8291
 6417SOL    HW230888   3.501   3.046   5.162 -0.8614 -1.8471 -0.6034
 6418SOL     OW30889   0.001   0.567   6.216  0.4069 -0.2443  0.1571
 6418SOL    HW130890   4.676   0.551   6.146  1.5275  1.0512 -1.1397
 6418SOL    HW230891   4.725   0.660   6.233 -0.1950 -0.0756 -1.2504
 6419SOL     OW30892   0.106   1.161   6.854 -0.0181 -0.5227  0.5867
 6419SOL    HW130893   0.102   1.074   6.812  3.6748  0.1672 -1.2065
 6419SOL    HW230894   0.044   1.211   6.801 -0.3491 -1.3664  0.1700
 6420SOL     OW30895   4.181   3.568   6.000 -0.4840  0.3942  0.6193
 6420SOL    HW130896   4.253   3.632   6.001  0.5437 -0.7525  0.5050
 6420SOL    HW230897   4.101   3.614   6.026 -1.4868 -0.5086 -0.8802
 6421SOL     OW30898   2.118   1.416   9.648  0.0207  0.1934  0.3492
 6421SOL    HW130899   2.082   1.482   9.589  0.5212  0.5583  0.4539
 6421SOL    HW230900   2.105   1.332   9.604  0.1214  1.5256 -2.2479
 6422SOL     OW30901   3.663   4.623   7.069 -0.5797 -0.2472 -0.2410
 6422SOL    HW130902   3.683   4.533   7.095 -0.9832  0.5711  2.8412
 6422SOL    HW230903   3.602   4.614   6.996  2.0297  0.7916 -2.5365
 6423SOL     OW30904   4.676   3.255   0.327 -0.1590  0.4166 -0.1678
 6423SOL    HW130905   4.603   3.243   0.388 -0.0363  0.5879  0.0162
 6423SOL    HW230906   4.666   3.181   0.268 -0.3846  1.0135 -0.8838
 6424SOL     OW30907   3.114   2.177  12.585 -0.1637  0.4554 -0.0474
 6424SOL    HW130908   3.087   2.099  12.537 -0.3040 -0.1216  0.9693
 6424SOL    HW230909   3.120   2.135  12.671  1.2435 -2.4265 -1.5230
 6425SOL     OW30910   0.333   3.814   0.073 -0.2950 -1.0735  0.3638
 6425SOL    HW130911   0.324   3.860   0.156 -0.5020 -2.3614  1.0617
 6425SOL    HW230912   0.239   3.808   0.055 -0.3758 -1.8297  1.0588
 6426SOL     OW30913   4.281   4.719   3.449  0.4861  0.8729  0.4787
 6426SOL    HW130914   4.365   0.019   3.423  0.9138 -0.8414 -0.6423
 6426SOL    HW230915   4.289   4.624   3.445  1.8348  0.9951  0.4938
 6427SOL     OW30916   2.756   4.243  15.454  0.1056 -0.1849  0.2111
 6427SOL    HW130917   2.810   4.305  15.405 -0.5095  1.7891  2.0546
 6427SOL    HW230918   2.711   4.309  15.507  0.3797  0.8208 -0.8147
 6428SOL     OW30919   1.219   4.115  11.304 -0.2139  0.6642  0.4656
 6428SOL    HW130920   1.161   4.054  11.349  1.0168 -0.6844  0.2591
 6428SOL    HW230921   1.261   4.055  11.242 -1.3036  0.0156  0.3616
 6429SOL     OW30922   1.362   4.056   5.302  0.2399  0.5313  0.1984
 6429SOL    HW130923   1.420   4.067   5.377  0.9786  0.1342 -0.3199
 6429SOL    HW230924   1.321   4.142   5.303  1.1365  0.9553  0.7859
 6430SOL     OW30925   2.740   0.836   9.131  0.0444  0.2373  0.0951
 6430SOL    HW130926   2.720   0.884   9.051  1.5246  2.3844  0.9998
 6430SOL    HW230927   2.759   0.915   9.182  2.2777  0.9228 -1.7619
 6431SOL     OW30928   0.002   1.443   8.144 -0.2164 -0.1381  0.0368
 6431SOL    HW130929   0.095   1.455   8.122 -0.1201  0.8157  0.9518
 6431SOL    HW230930   0.003   1.453   8.239  1.0766  0.1117  0.0053
 6432SOL     OW30931   0.515   0.293   9.507  0.2591  0.0271 -0.3996
 6432SOL    HW130932   0.430   0.306   9.549  1.7253  0.8369  2.3314
 6432SOL    HW230933   0.531   0.383   9.476  1.7432 -0.0515  0.1390
 6433SOL     OW30934   0.187   1.508  17.300  0.2339 -0.1011 -0.1062
 6433SOL    HW130935   0.252   1.523  17.231  0.8361 -1.1079  0.2358
 6433SOL    HW230936   0.111   1.531  17.247 -0.4527 -3.5423 -0.6197
 6434SOL     OW30937   1.990   2.325   3.068 -1.1397 -0.0668 -0.2732
 6434SOL    HW130938   1.913   2.319   3.125  0.4026  1.7895  1.9734
 6434SOL    HW230939   2.058   2.339   3.134 -1.4409 -0.1285  0.0516
 6435SOL     OW30940   0.761   1.218   8.047  0.1424  0.4125  0.3841
 6435SOL    HW130941   0.796   1.250   7.964  0.2565  0.5062  0.4695
 6435SOL    HW230942   0.845   1.214   8.093 -0.0649 -0.0913  0.7317
 6436SOL     OW30943   2.631   2.174  13.419  0.3016 -0.8302 -0.0773
 6436SOL    HW130944   2.546   2.209  13.447  0.8381  0.1019  0.4001
 6436SOL    HW230945   2.643   2.110  13.489 -0.4855 -0.4047  0.4598
 6437SOL     OW30946   0.779   2.419   2.865  0.1181 -0.0766 -0.1524
 6437SOL    HW130947   0.714   2.425   2.795 -0.4747 -2.2955  0.2063
 6437SOL    HW230948   0.796   2.325   2.855  2.4995  0.2092  1.2027
 6438SOL     OW30949   2.653   3.221   7.198 -0.3814  0.4470  0.3947
 6438SOL    HW130950   2.601   3.151   7.157  1.0085 -0.7778  0.7210
 6438SOL    HW230951   2.584   3.276   7.235 -1.4378 -0.9721  0.5741
 6439SOL     OW30952   2.444   0.646   4.525 -0.0053  0.5567  0.2692
 6439SOL    HW130953   2.384   0.595   4.579  0.2245 -1.4298 -1.3969
 6439SOL    HW230954   2.395   0.725   4.503  1.8968  1.0522 -2.1589
 6440SOL     OW30955   0.972   0.294   3.911 -0.1628  0.4573 -0.0239
 6440SOL    HW130956   1.045   0.235   3.929  0.2894  1.1551  0.4085
 6440SOL    HW230957   0.916   0.232   3.864  0.4491 -0.1075 -0.0003
 6441SOL     OW30958   2.222   0.493   4.604  0.2537  0.1642 -0.0312
 6441SOL    HW130959   2.173   0.516   4.524 -0.1941  1.7698  0.6999
 6441SOL    HW230960   2.166   0.418   4.627 -0.1646 -0.2229 -2.2818
 6442SOL     OW30961   2.728   0.015   2.858  0.2828  0.1086 -0.4716
 6442SOL    HW130962   2.767   4.666   2.867  1.3736  0.4760 -1.7500
 6442SOL    HW230963   2.803   0.073   2.868 -1.4013  2.1136  0.5742
 6443SOL     OW30964   0.032   1.577   9.635 -0.7230  0.0491  0.0490
 6443SOL    HW130965   4.677   1.604   9.635  0.1886  3.2082 -1.8596
 6443SOL    HW230966   0.033   1.544   9.545  1.0926 -1.0100  0.4607
 6444SOL     OW30967   1.859   0.786   7.663 -0.1549 -0.0550 -0.1987
 6444SOL    HW130968   1.873   0.842   7.587  2.2531 -0.8243 -0.3397
 6444SOL    HW230969   1.821   0.849   7.723 -0.3560 -0.9987  0.6688
 6445SOL     OW30970   3.808   4.703  13.554 -0.5453 -0.6239 -0.0529
 6445SOL    HW130971   3.861   0.044  13.574  1.2982 -2.3768  1.8897
 6445SOL    HW230972   3.765   4.734  13.474 -1.0824  1.3181  0.9682
 6446SOL     OW30973   0.955   1.362   6.207 -0.3031  0.0289 -0.7332
 6446SOL    HW130974   0.879   1.322   6.166 -0.0400 -0.7989 -0.4211
 6446SOL    HW230975   1.014   1.370   6.132  2.1319 -2.0596  0.9299
 6447SOL     OW30976   4.425   0.864   2.466  0.1352  0.1232 -0.4683
 6447SOL    HW130977   4.354   0.909   2.511  0.4600  0.8092 -0.6357
 6447SOL    HW230978   4.447   0.821   2.548 -1.8037 -3.0297 -1.5908
 6448SOL     OW30979   2.360   1.616   9.283 -0.1246 -0.1093  0.0061
 6448SOL    HW130980   2.267   1.636   9.292 -0.0887 -0.4810  1.2521
 6448SOL    HW230981   2.373   1.531   9.325  0.2602 -0.0763 -0.0424
 6449SOL     OW30982   3.512   1.410   7.452 -0.4326  0.0998  0.4863
 6449SOL    HW130983   3.537   1.430   7.542  0.0605  0.6142  0.2376
 6449SOL    HW230984   3.446   1.344   7.472 -0.8897  0.1687 -0.8286
 6450SOL     OW30985   1.810   0.928   9.337 -0.2074 -0.0500  0.1517
 6450SOL    HW130986   1.755   0.980   9.397 -1.2017  0.0145 -0.8048
 6450SOL    HW230987   1.872   0.997   9.313  1.8691 -2.3153 -0.8619
 6451SOL     OW30988   4.722   2.405  15.342  0.4928  0.0541 -0.2334
 6451SOL    HW130989   4.664   2.473  15.377 -0.5722 -2.1707  2.3187
 6451SOL    HW230990   0.068   2.434  15.379  0.9375 -0.5274 -0.7617
 6452SOL     OW30991   4.638   0.910  13.629 -0.7409  0.0586  0.2492
 6452SOL    HW130992   4.703   0.843  13.607 -1.1023  0.0969 -0.9250
 6452SOL    HW230993   4.568   0.859  13.672 -2.1436  2.6504  1.0687
 6453SOL     OW30994   1.267   2.579   5.371 -0.2997  0.8650  0.1201
 6453SOL    HW130995   1.321   2.604   5.296 -2.5727  0.5784 -1.5866
 6453SOL    HW230996   1.264   2.484   5.356 -1.8857  0.7375  1.3171
 6454SOL     OW30997   2.092   1.293   6.998  0.4439 -0.1491  0.2929
 6454SOL    HW130998   2.082   1.327   6.909 -0.0148 -2.7545 -0.6711
 6454SOL    HW230999   2.181   1.324   7.013  0.7727 -0.6516 -0.6300
 6455SOL     OW31000   0.400   2.544   4.636 -0.0157 -0.2263  0.1399
 6455SOL    HW131001   0.377   2.459   4.676  1.1596 -0.4678  0.3133
 6455SOL    HW231002   0.339   2.602   4.681 -0.2043 -2.0496  2.2738
 6456SOL     OW31003   0.798   2.017  13.229 -0.5219  0.8193  0.3123
 6456SOL    HW131004   0.845   1.974  13.300  0.5061  1.4516  0.0191
 6456SOL    HW231005   0.811   1.944  13.168 -0.8092  1.2671 -0.2925
 6457SOL     OW31006   2.808   0.941  16.741  0.8097  0.2115  0.1731
 6457SOL    HW131007   2.795   1.005  16.811 -1.0736 -0.4659  0.4306
 6457SOL    HW231008   2.749   0.870  16.763  0.7798  0.2585  0.2461
 6458SOL     OW31009   3.608   0.410   7.745 -0.4998 -0.1660  0.3233
 6458SOL    HW131010   3.602   0.460   7.826 -0.3378  3.5503 -1.9391
 6458SOL    HW231011   3.517   0.408   7.717 -0.6917  3.4111  0.6896
 6459SOL     OW31012   0.815   2.887  12.265 -0.2656 -0.5574 -0.0972
 6459SOL    HW131013   0.880   2.908  12.199  0.7810  1.2970  1.5207
 6459SOL    HW231014   0.855   2.805  12.292  0.3223  0.0759  0.9536
 6460SOL     OW31015   4.536   2.257   5.116 -0.1334  0.6322  0.1299
 6460SOL    HW131016   4.450   2.218   5.130  0.1769 -0.8178 -1.8850
 6460SOL    HW231017   4.565   2.258   5.207  2.9105  0.1415 -0.8371
 6461SOL     OW31018   4.444   4.159  12.970 -0.1899 -0.5529  0.3086
 6461SOL    HW131019   4.391   4.098  12.919  1.8761 -0.7119 -1.6330
 6461SOL    HW231020   4.395   4.159  13.052 -0.9868 -0.9783 -0.1683
 6462SOL     OW31021   3.759   0.030  12.414 -0.5212  0.0449  0.0873
 6462SOL    HW131022   3.710   0.023  12.331  0.7704  1.5286 -0.7996
 6462SOL    HW231023   3.783   4.677  12.435  0.1681  0.1632 -0.2044
 6463SOL     OW31024   4.539   1.972   7.583 -0.3320 -0.1158  0.0582
 6463SOL    HW131025   4.451   1.973   7.621  0.5130 -0.8034  2.0262
 6463SOL    HW231026   4.559   1.884   7.613 -2.6503 -1.0393 -1.1449
 6464SOL     OW31027   1.738   0.905  12.466 -0.1234  0.2936 -0.1225
 6464SOL    HW131028   1.825   0.898  12.427 -0.7719  0.5130 -1.6371
 6464SOL    HW231029   1.736   1.000  12.471  0.3354  0.2402  1.0512
 6465SOL     OW31030   1.574   2.707   7.659 -0.4002 -0.4231 -0.2787
 6465SOL    HW131031   1.627   2.628   7.664 -2.1640 -1.8962 -4.3206
 6465SOL    HW231032   1.515   2.687   7.731 -0.3340  3.8292  0.9860
 6466SOL     OW31033   3.315   0.550   7.998  0.0655 -0.0797 -0.1348
 6466SOL    HW131034   3.365   0.531   8.078 -0.6832 -0.6157  0.2025
 6466SOL    HW231035   3.368   0.627   7.975 -0.5770  0.8166  1.3775
 6467SOL     OW31036   0.051   2.778   9.169 -0.2414 -0.3627  0.2623
 6467SOL    HW131037   0.075   2.725   9.093 -2.7301  1.5996 -1.8700
 6467SOL    HW231038   4.694   2.794   9.163 -0.5388 -2.3379 -0.6800
 6468SOL     OW31039   3.285   0.507   2.100  0.2596  0.2368 -0.3273
 6468SOL    HW131040   3.372   0.472   2.120  0.5092  1.9263  1.5590
 6468SOL    HW231041   3.237   0.436   2.142 -0.8975  0.2590 -1.6158
 6469SOL     OW31042   4.102   3.406   1.092 -0.1769 -0.3345 -0.2665
 6469SOL    HW131043   4.105   3.458   1.011  0.7380  1.8861  1.1961
 6469SOL    HW231044   4.007   3.393   1.089 -0.5897  2.0095  2.4423
 6470SOL     OW31045   2.665   4.388  10.901 -0.3007  0.2321 -0.4819
 6470SOL    HW131046   2.714   4.428  10.973  0.4650 -0.7787 -0.4360
 6470SOL    HW231047   2.725   4.397  10.827  1.4041 -0.3752  0.8268
 6471SOL     OW31048   0.845   1.969   6.423  0.5063 -0.2965  0.5759
 6471SOL    HW131049   0.812   2.043   6.372 -2.6253 -2.1497 -0.0876
 6471SOL    HW231050   0.795   1.898   6.382 -0.9301  0.4143  1.1071
 6472SOL     OW31051   1.869   0.004   2.847  0.5147 -0.0236 -0.1669
 6472SOL    HW131052   1.906   0.087   2.876  0.3486  0.6407 -1.8068
 6472SOL    HW231053   1.816   0.045   2.778 -1.3741 -2.3271 -0.1091
 6473SOL     OW31054   0.368   1.236   6.017 -0.8682 -0.0834 -0.2608
 6473SOL    HW131055   0.356   1.148   6.054 -0.8378  0.5660  1.2785
 6473SOL    HW231056   0.391   1.281   6.098 -1.6524  0.6691 -0.4538
 6474SOL     OW31057   0.356   4.277  13.098  0.0898  0.3690  0.0990
 6474SOL    HW131058   0.349   4.330  13.018  1.8584  1.1295  0.4543
 6474SOL    HW231059   0.434   4.223  13.092 -0.7850 -0.9020  0.2842
 6475SOL     OW31060   4.615   1.243  14.884  0.0385  0.2597 -0.1623
 6475SOL    HW131061   4.543   1.237  14.948  0.1062 -1.5419 -0.2528
 6475SOL    HW231062   4.561   1.215  14.810 -4.3052 -1.9485  3.7413
 6476SOL     OW31063   1.884   4.721   1.016 -0.2986  0.5842 -0.1536
 6476SOL    HW131064   1.899   4.720   0.921 -0.8778 -0.7687 -0.2226
 6476SOL    HW231065   1.852   0.074   1.018 -0.5458  0.4160  2.6830
 6477SOL     OW31066   3.605   1.065   6.797 -0.7468  0.0635  0.5099
 6477SOL    HW131067   3.591   1.158   6.814 -2.2226 -0.4451  2.0877
 6477SOL    HW231068   3.648   1.068   6.712  0.3505  2.6348  1.1717
 6478SOL     OW31069   3.471   2.461   1.384 -0.1973 -0.0782  0.1882
 6478SOL    HW131070   3.406   2.525   1.355  0.4493 -0.0253 -1.1320
 6478SOL    HW231071   3.423   2.379   1.394 -0.9433  0.4106  0.6730
 6479SOL     OW31072   0.698   4.008   5.245 -0.3734  0.1274 -0.4487
 6479SOL    HW131073   0.622   4.065   5.235  1.3207  2.5400  0.4928
 6479SOL    HW231074   0.743   4.060   5.312  1.6897 -1.8300 -0.3065
 6480SOL     OW31075   2.977   4.368   5.850  0.3639 -0.0432  0.5204
 6480SOL    HW131076   2.957   4.461   5.838 -0.8691 -0.3552  0.1338
 6480SOL    HW231077   2.887   4.339   5.864  0.8219 -1.2942  0.8532
 6481SOL     OW31078   2.624   0.924   4.193  0.2142 -0.2487 -0.3964
 6481SOL    HW131079   2.551   0.981   4.167 -0.9812 -1.9184 -0.6788
 6481SOL    HW231080   2.693   0.954   4.135 -0.5195  2.4867  0.1312
 6482SOL     OW31081   4.524   2.760   7.068  0.2012 -0.3716  0.0503
 6482SOL    HW131082   4.528   2.666   7.049 -1.3077 -0.4224 -0.0187
 6482SOL    HW231083   4.467   2.757   7.145  1.0398  2.0631  0.7444
 6483SOL     OW31084   2.306   2.201  15.387  0.4682  0.3518 -0.1003
 6483SOL    HW131085   2.304   2.295  15.370  2.5258  0.3469 -0.3188
 6483SOL    HW231086   2.384   2.173  15.340 -1.8505 -3.5136 -1.6506
 6484SOL     OW31087   1.077   2.627  14.809 -0.1663  0.3326 -0.5612
 6484SOL    HW131088   1.163   2.585  14.817 -0.5930 -0.1221  1.4201
 6484SOL    HW231089   1.062   2.630  14.715  1.0586 -0.3149 -0.7841
 6485SOL     OW31090   2.245   3.078   5.433 -0.3916  0.3472  0.2224
 6485SOL    HW131091   2.233   2.986   5.456 -0.6494  0.8974  2.2196
 6485SOL    HW231092   2.242   3.110   5.523 -3.1532 -0.8209  0.5477
 6486SOL     OW31093   0.577   3.115   8.133 -0.4092 -0.5602 -0.5902
 6486SOL    HW131094   0.535   3.032   8.113 -0.3165 -1.2848  2.2120
 6486SOL    HW231095   0.618   3.133   8.048 -1.7503 -1.2505 -1.3779
 6487SOL     OW31096   4.446   2.136   2.636 -0.6270  0.5987 -0.2710
 6487SOL    HW131097   4.541   2.131   2.646 -0.5014  1.6155 -0.9628
 6487SOL    HW231098   4.417   2.178   2.717 -0.9661 -0.4884  0.1612
 6488SOL     OW31099   1.040   1.356   3.124 -0.2863  0.4233 -0.1125
 6488SOL    HW131100   0.980   1.342   3.197 -0.1582  0.9745  0.1002
 6488SOL    HW231101   0.980   1.329   3.054 -1.6072  1.8536  0.4537
 6489SOL     OW31102   0.314   4.518   4.566  0.0377 -0.5796  0.0782
 6489SOL    HW131103   0.224   4.488   4.554 -0.2293  0.2148  0.1066
 6489SOL    HW231104   0.351   4.431   4.551  1.3468 -0.0497  0.2297
 6490SOL     OW31105   0.051   0.975  10.013  0.5507 -0.7397  0.1758
 6490SOL    HW131106   4.714   1.033   9.999  0.8424 -0.3088  0.4013
 6490SOL    HW231107   0.030   0.922   9.936 -2.2140  0.9007 -0.1733
 6491SOL     OW31108   1.092   0.101   9.534 -0.0784  0.1314 -0.2604
 6491SOL    HW131109   1.187   0.108   9.537  0.0082 -0.6673 -1.4644
 6491SOL    HW231110   1.076   0.007   9.524  1.1409 -0.0738 -0.2245
 6492SOL     OW31111   1.286   0.706   5.895  0.0143  0.1679  0.3210
 6492SOL    HW131112   1.263   0.778   5.954  0.2582  0.0608  0.5488
 6492SOL    HW231113   1.214   0.648   5.917  1.0736 -1.5469 -0.7602
 6493SOL     OW31114   4.676   0.827   3.893  0.0810 -0.1073  0.3311
 6493SOL    HW131115   4.635   0.868   3.816 -0.9175 -0.0575  0.8875
 6493SOL    HW231116   0.031   0.848   3.879  0.4978 -2.4420 -0.3668
 6494SOL     OW31117   3.455   4.578   3.091  0.4651 -0.0341 -0.1460
 6494SOL    HW131118   3.418   4.490   3.088 -0.2007  0.2867 -1.3714
 6494SOL    HW231119   3.531   4.551   3.039 -1.6687 -1.9126 -2.2744
 6495SOL     OW31120   3.030   2.197   8.152 -0.0101 -0.4874  0.1461
 6495SOL    HW131121   3.018   2.128   8.087  0.6708 -0.0036 -0.4925
 6495SOL    HW231122   2.986   2.275   8.118 -1.0107 -1.5770 -1.0430
 6496SOL     OW31123   2.640   4.660   5.937 -0.2329  0.1659 -0.3134
 6496SOL    HW131124   2.601   0.010   5.935  0.0769  0.3313  0.6651
 6496SOL    HW231125   2.607   4.630   6.022  1.1035  0.5819  0.3617
 6497SOL     OW31126   1.154   4.397   9.715  0.1572 -0.5745  0.3539
 6497SOL    HW131127   1.184   4.306   9.722 -2.0674 -1.3011  0.3091
 6497SOL    HW231128   1.064   4.384   9.686  1.1288 -0.5165 -2.7421
 6498SOL     OW31129   0.617   3.928   5.618  0.0054 -0.1146 -0.4360
 6498SOL    HW131130   0.613   3.906   5.711  2.0341 -1.6798 -0.7123
 6498SOL    HW231131   0.713   3.938   5.615  0.0272  0.5313  2.4699
 6499SOL     OW31132   1.195   1.516   5.300  0.4226 -0.4655  0.0531
 6499SOL    HW131133   1.284   1.512   5.265  0.5569 -1.2795  0.5030
 6499SOL    HW231134   1.210   1.506   5.394  2.2221 -1.2589 -0.3193
 6500SOL     OW31135   1.947   1.455   7.185 -0.0538 -0.4186 -0.1505
 6500SOL    HW131136   2.005   1.405   7.128 -0.0347 -0.7417  0.1474
 6500SOL    HW231137   1.908   1.375   7.220 -1.4207  0.4145  0.2584
 6501SOL     OW31138   3.541   2.570   7.455  0.1191  0.0630  0.6667
 6501SOL    HW131139   3.626   2.570   7.411 -0.7078 -0.5081 -0.9536
 6501SOL    HW231140   3.553   2.501   7.520  1.2625  1.2874  1.7595
 6502SOL     OW31141   4.704   1.092   7.842 -0.0294 -0.5180  0.3739
 6502SOL    HW131142   4.732   1.181   7.820  0.3768 -1.0792 -1.3978
 6502SOL    HW231143   0.000   1.082   7.931 -2.8475  0.4079  1.5205
 6503SOL     OW31144   0.255   3.942   6.776 -0.0354  0.1094 -0.2933
 6503SOL    HW131145   0.177   3.989   6.745 -1.0899 -1.5194 -0.1394
 6503SOL    HW231146   0.314   4.012   6.750  0.4065 -0.6236 -1.2870
 6504SOL     OW31147   2.387   4.251   4.025  0.4906 -0.2847  0.1787
 6504SOL    HW131148   2.366   4.313   4.094 -0.0663  0.2251 -0.4521
 6504SOL    HW231149   2.398   4.293   3.939 -1.3219 -1.0496 -0.4396
 6505SOL     OW31150   1.106   4.081   1.055 -0.2636  0.3157  0.1319
 6505SOL    HW131151   1.201   4.091   1.053 -0.1068 -0.7170  2.2158
 6505SOL    HW231152   1.095   3.993   1.019  0.2957 -1.3101  3.9784
 6506SOL     OW31153   2.128   2.469  17.246  0.3062 -0.3298  0.1300
 6506SOL    HW131154   2.050   2.492  17.297  0.0906  1.9260 -1.2345
 6506SOL    HW231155   2.133   2.374  17.261  0.5704 -0.5236 -1.1845
 6507SOL     OW31156   3.934   4.199   5.551  0.3674  0.1764 -0.5342
 6507SOL    HW131157   3.991   4.270   5.522 -0.3677  0.3468 -1.5793
 6507SOL    HW231158   3.923   4.154   5.467 -2.6362  0.2638 -0.2074
 6508SOL     OW31159   3.604   1.307   2.424 -0.1641 -0.3269 -0.0844
 6508SOL    HW131160   3.539   1.244   2.393 -1.3898  1.1995 -0.5719
 6508SOL    HW231161   3.573   1.386   2.381  2.7052  0.1886 -1.2574
 6509SOL     OW31162   0.326   2.683   1.672 -0.2655 -0.1510 -0.1142
 6509SOL    HW131163   0.316   2.728   1.588  0.7891  0.5243  0.1241
 6509SOL    HW231164   0.403   2.728   1.706  0.4628 -1.6913  0.2666
 6510SOL     OW31165   0.294   3.136   5.808  0.2298  0.5944  0.1392
 6510SOL    HW131166   0.275   3.216   5.857  0.0299 -1.0741  2.8473
 6510SOL    HW231167   0.226   3.136   5.741  0.1946  0.6278  0.1750
 6511SOL     OW31168   2.097   1.502  11.840  0.0867  0.7195 -0.4907
 6511SOL    HW131169   2.080   1.539  11.754 -0.0368  1.9806  0.0770
 6511SOL    HW231170   2.021   1.516  11.897  1.2783  1.6997  0.8790
 6512SOL     OW31171   1.949   1.734   7.200 -0.1591 -0.3454 -0.0152
 6512SOL    HW131172   1.979   1.647   7.175 -0.9134 -0.5175 -0.3054
 6512SOL    HW231173   1.854   1.730   7.209 -0.1495 -0.2941  0.1092
 6513SOL     OW31174   0.433   2.131   8.782 -0.5240  0.0852  0.4458
 6513SOL    HW131175   0.456   2.047   8.744  0.1552  1.1884 -1.5720
 6513SOL    HW231176   0.339   2.116   8.794 -0.9607  1.6101 -1.0513
 6514SOL     OW31177   3.450   2.760   7.681  0.1658 -0.8850 -0.2627
 6514SOL    HW131178   3.418   2.721   7.600 -0.5989 -3.1671  1.1164
 6514SOL    HW231179   3.360   2.771   7.712 -0.0937  1.4549 -1.8181
 6515SOL     OW31180   0.784   3.717   1.622  0.6445  0.3539 -0.0613
 6515SOL    HW131181   0.832   3.795   1.649  0.2196  1.4667 -2.4975
 6515SOL    HW231182   0.801   3.661   1.698 -1.1808  0.1448  0.1966
 6516SOL     OW31183   2.316   4.490   9.769 -0.3781 -0.6039  0.2030
 6516SOL    HW131184   2.243   4.430   9.778 -1.7898  0.9185 -1.1089
 6516SOL    HW231185   2.310   4.508   9.675  0.4667 -0.7168  0.1292
 6517SOL     OW31186   0.249   4.442   8.585 -0.2257  0.0962 -0.6590
 6517SOL    HW131187   0.224   4.354   8.613 -0.5191  0.4152  0.0803
 6517SOL    HW231188   0.297   4.428   8.503  1.3363 -0.7995  0.4368
 6518SOL     OW31189   4.339   3.387  12.233 -0.0732 -0.0958 -0.3257
 6518SOL    HW131190   4.414   3.431  12.191  0.8234 -0.7721  0.5709
 6518SOL    HW231191   4.383   3.334  12.298 -2.3436 -1.0555  0.4138
 6519SOL     OW31192   1.066   3.467   0.807 -0.4433  0.4363  0.1614
 6519SOL    HW131193   1.046   3.396   0.745  0.1216  1.7514 -1.5321
 6519SOL    HW231194   1.025   3.434   0.886 -1.6035  1.9253  0.1767
 6520SOL     OW31195   2.268   1.452   1.619 -0.7042 -0.5302  0.8298
 6520SOL    HW131196   2.252   1.450   1.525  0.1153  4.3475  0.5703
 6520SOL    HW231197   2.229   1.366   1.635 -3.1015  0.2662 -0.8699
 6521SOL     OW31198   0.835   1.645   1.746 -0.3960 -0.6021  0.5083
 6521SOL    HW131199   0.901   1.678   1.807  0.5838  2.0269 -2.0093
 6521SOL    HW231200   0.762   1.706   1.759  1.5949  1.5634  1.6289
 6522SOL     OW31201   2.815   4.698  16.081 -0.3888  0.6626  0.2559
 6522SOL    HW131202   2.902   4.661  16.099 -0.9583 -0.6571  0.3470
 6522SOL    HW231203   2.829   0.052  16.106 -0.2515  0.3721  1.2708
 6523SOL     OW31204   1.435   1.804   4.602  0.6764  0.2072  0.2576
 6523SOL    HW131205   1.393   1.865   4.542  0.2891 -0.1421  0.1666
 6523SOL    HW231206   1.497   1.860   4.648  1.1971 -2.6161  3.0217
 6524SOL     OW31207   4.169   0.283  14.370 -0.4448 -0.2368  0.5764
 6524SOL    HW131208   4.122   0.365  14.384 -0.3600 -0.2942  1.1905
 6524SOL    HW231209   4.162   0.242  14.456 -3.0024 -1.2011 -0.0929
 6525SOL     OW31210   1.212   0.830   1.584 -0.1304 -0.1545  0.4295
 6525SOL    HW131211   1.273   0.775   1.536  0.8433  1.5076 -0.2253
 6525SOL    HW231212   1.163   0.764   1.634 -2.3751  0.8018 -0.5033
 6526SOL     OW31213   1.998   3.093   5.060 -0.2558 -0.7772  0.1603
 6526SOL    HW131214   2.031   3.168   5.010 -1.6839  0.1863  0.6632
 6526SOL    HW231215   1.928   3.131   5.113 -0.8764  0.3690 -1.4916
 6527SOL     OW31216   0.783   4.119  17.259  0.1070 -0.5948 -0.2399
 6527SOL    HW131217   0.732   4.105  17.339 -1.4132 -0.5165 -1.1933
 6527SOL    HW231218   0.742   4.062  17.194  0.9654 -1.5576  0.0507
 6528SOL     OW31219   1.880   3.310   5.485  0.4714 -0.7395  0.1681
 6528SOL    HW131220   1.962   3.353   5.510  1.0273 -1.2014 -0.8417
 6528SOL    HW231221   1.864   3.340   5.395  0.2138  1.6226  1.0060
 6529SOL     OW31222   4.178   3.120   1.835 -0.0135 -0.4450  0.1519
 6529SOL    HW131223   4.240   3.094   1.904 -1.0270  1.8459  1.9194
 6529SOL    HW231224   4.150   3.033   1.806  1.6677 -1.2293  0.8393
 6530SOL     OW31225   4.263   2.447   5.702  0.1429 -0.0719  0.0235
 6530SOL    HW131226   4.209   2.511   5.749 -0.1310  0.8432 -1.5118
 6530SOL    HW231227   4.196   2.400   5.653  0.6256 -0.5140 -0.2069
 6531SOL     OW31228   4.621   1.514   6.530  0.8545 -0.7176 -0.0785
 6531SOL    HW131229   4.607   1.501   6.624  1.4463 -1.1050 -0.0450
 6531SOL    HW231230   4.714   1.508   6.509  0.7957 -0.3889 -0.4438
 6532SOL     OW31231   1.849   2.346   7.084 -0.6654  0.2910 -0.6659
 6532SOL    HW131232   1.785   2.339   7.155 -2.0025  1.7995 -1.7320
 6532SOL    HW231233   1.917   2.290   7.122 -0.4049 -0.4008 -2.1220
 6533SOL     OW31234   4.721   0.505   7.304  0.0890 -0.1070 -0.2177
 6533SOL    HW131235   0.053   0.463   7.354 -0.0089 -0.3326 -0.2725
 6533SOL    HW231236   4.647   0.500   7.365  0.0685 -0.2384 -0.2548
 6534SOL     OW31237   1.819   1.953  11.008  0.1076 -0.3305  0.7099
 6534SOL    HW131238   1.898   1.939  11.058  0.6129 -3.3442 -0.9376
 6534SOL    HW231239   1.858   1.996  10.931  0.4218 -0.7506  0.6383
 6535SOL     OW31240   3.827   3.814   8.593  0.4758  0.2253 -0.5342
 6535SOL    HW131241   3.806   3.736   8.646 -1.6399  0.5385 -0.9154
 6535SOL    HW231242   3.739   3.848   8.577  0.5727  1.2000  1.0447
 6536SOL     OW31243   0.263   2.690   4.386 -0.1921 -0.3954  0.4151
 6536SOL    HW131244   0.311   2.621   4.431  0.9942  0.0176 -0.2151
 6536SOL    HW231245   0.322   2.715   4.315  0.8852 -1.9841  0.7648
 6537SOL     OW31246   3.858   3.977   8.085  0.2727 -0.4853  0.3780
 6537SOL    HW131247   3.919   3.903   8.085  1.3429  0.3995 -0.2471
 6537SOL    HW231248   3.868   4.004   7.994  1.8278 -1.3220  0.3062
 6538SOL     OW31249   0.732   3.833   2.592  0.1571 -0.1936  0.0429
 6538SOL    HW131250   0.738   3.743   2.559 -0.6480 -0.3582  0.3491
 6538SOL    HW231251   0.640   3.838   2.616  0.8440 -0.7969  2.7665
 6539SOL     OW31252   2.441   1.025  15.350  0.4134 -0.3251 -0.1039
 6539SOL    HW131253   2.437   1.092  15.281 -0.2547  0.4829  0.7148
 6539SOL    HW231254   2.535   1.014  15.358  0.3589 -0.2499  0.6334
 6540SOL     OW31255   2.998   3.657   6.496 -0.4232 -0.3447 -0.6574
 6540SOL    HW131256   3.024   3.599   6.423  2.5110  0.8862 -0.6123
 6540SOL    HW231257   3.062   3.629   6.561  0.4418 -0.8373 -1.7053
 6541SOL     OW31258   4.584   0.620   4.504  0.0059 -0.1894  0.0794
 6541SOL    HW131259   4.604   0.713   4.489 -0.1122  0.1955  2.2865
 6541SOL    HW231260   4.492   0.642   4.515 -0.2428 -1.9030  1.2861
 6542SOL     OW31261   0.665   0.210   2.788 -1.2127 -0.3712 -0.7801
 6542SOL    HW131262   0.616   0.234   2.866 -0.1915 -2.6009  0.5239
 6542SOL    HW231263   0.635   0.285   2.736 -2.2033  0.7190  1.3358
 6543SOL     OW31264   4.387   2.031  13.751 -0.1266  0.2075  0.1855
 6543SOL    HW131265   4.348   1.999  13.670  0.9122 -1.9959  0.5603
 6543SOL    HW231266   4.400   1.953  13.805 -0.3525  0.5326  0.7162
 6544SOL     OW31267   1.771   3.736   3.491 -0.0223  0.6287  0.0820
 6544SOL    HW131268   1.742   3.737   3.400  1.7215 -0.4871 -0.5014
 6544SOL    HW231269   1.730   3.818   3.517  0.4387  0.3638  1.6593
 6545SOL     OW31270   2.374   0.854   2.966  0.8898 -0.0798 -0.0838
 6545SOL    HW131271   2.457   0.809   2.953  0.8075 -0.3570  0.3163
 6545SOL    HW231272   2.321   0.789   3.013  1.5762 -2.0600 -2.0286
 6546SOL     OW31273   3.644   1.395   8.296 -0.2873  0.0176 -0.5661
 6546SOL    HW131274   3.594   1.470   8.264 -0.1848 -0.0805 -0.9487
 6546SOL    HW231275   3.697   1.427   8.370  0.8161 -0.5873 -1.0922
 6547SOL     OW31276   3.037   1.884  13.864 -0.1285 -0.0906 -0.8201
 6547SOL    HW131277   3.113   1.911  13.915 -1.6739 -0.4941  1.6908
 6547SOL    HW231278   2.966   1.902  13.927  1.5841 -1.1142  1.3945
 6548SOL     OW31279   2.780   3.129   5.589 -0.0907  0.3373  0.6671
 6548SOL    HW131280   2.692   3.117   5.626 -0.5377  3.3131  0.5728
 6548SOL    HW231281   2.803   3.040   5.561 -0.5208  0.5078 -0.2118
 6549SOL     OW31282   0.270   1.546   5.968 -0.6590  0.0934  0.4398
 6549SOL    HW131283   0.278   1.456   5.999  0.1377  0.2421  0.6743
 6549SOL    HW231284   0.345   1.542   5.908 -2.6789 -1.7059 -1.9603
 6550SOL     OW31285   3.390   0.060   3.425  0.7416 -0.3958 -0.0196
 6550SOL    HW131286   3.395   0.153   3.444 -0.3219 -0.6218  1.3780
 6550SOL    HW231287   3.299   0.042   3.448  1.0127  0.8080  1.9478
 6551SOL     OW31288   4.145   1.243  13.562 -0.1609 -0.6021 -0.2711
 6551SOL    HW131289   4.088   1.283  13.627 -0.4055 -0.3482 -0.6369
 6551SOL    HW231290   4.113   1.153  13.551  1.5952 -1.3303  0.7544
 6552SOL     OW31291   2.859   3.865   6.749 -0.2431 -0.3645  0.3076
 6552SOL    HW131292   2.950   3.852   6.723 -0.0440  1.9633 -0.1631
 6552SOL    HW231293   2.814   3.882   6.666 -2.3138  0.6263  1.6024
 6553SOL     OW31294   3.135   0.769   9.335  0.4295 -0.0573 -0.1047
 6553SOL    HW131295   3.070   0.785   9.404 -0.7528  0.7919 -1.4251
 6553SOL    HW231296   3.089   0.813   9.263  1.8924  1.8436  0.1247
 6554SOL     OW31297   2.376   2.742   5.303  0.2279 -0.4189  0.6089
 6554SOL    HW131298   2.370   2.670   5.365 -3.9113 -0.0975  0.6178
 6554SOL    HW231299   2.408   2.807   5.366 -0.2993  0.1757  0.2682
 6555SOL     OW31300   0.789   0.242   6.593  0.0605 -0.1340  0.2812
 6555SOL    HW131301   0.741   0.191   6.657 -0.3699  0.2674  0.2761
 6555SOL    HW231302   0.714   0.242   6.534 -0.2493 -3.1082  0.6841
 6556SOL     OW31303   4.585   2.050  15.203  0.2867 -0.2084  0.0901
 6556SOL    HW131304   4.679   2.061  15.214  0.1048  1.2414  0.1314
 6556SOL    HW231305   4.565   2.118  15.138 -0.1138 -2.3937 -2.0929
 6557SOL     OW31306   3.607   0.534   1.452  0.0586 -0.4994  0.2717
 6557SOL    HW131307   3.639   0.588   1.524 -2.6587  0.0646  1.0705
 6557SOL    HW231308   3.513   0.550   1.461  0.3077 -0.0875  2.2058
 6558SOL     OW31309   2.339   3.641   8.381 -0.0863 -0.0485  0.4699
 6558SOL    HW131310   2.426   3.602   8.374 -0.3023 -0.4474  0.0648
 6558SOL    HW231311   2.364   3.734   8.375  0.6127 -0.2536  0.2345
 6559SOL     OW31312   2.865   0.157  10.880 -0.0919  0.3931 -0.2327
 6559SOL    HW131313   2.924   0.084  10.898  1.0358  1.0376 -1.2585
 6559SOL    HW231314   2.787   0.102  10.875  0.1076  0.1436 -0.6655
 6560SOL     OW31315   1.716   1.729   7.522 -0.0526  0.1568  0.3783
 6560SOL    HW131316   1.767   1.780   7.585  0.0228 -0.7953  1.0915
 6560SOL    HW231317   1.766   1.647   7.519  0.4687  0.4603  0.8832
 6561SOL     OW31318   2.086   2.009   4.096  0.0091  0.3516 -1.1582
 6561SOL    HW131319   2.140   1.929   4.095  1.8983  1.5937  1.4190
 6561SOL    HW231320   2.039   1.997   4.014 -0.3066  1.0634 -1.0750
 6562SOL     OW31321   1.422   3.918   6.299  0.0535 -0.2394 -0.2571
 6562SOL    HW131322   1.392   3.999   6.340  2.0962  0.0155  0.7425
 6562SOL    HW231323   1.386   3.927   6.211  2.2056  3.7265 -0.7464
 6563SOL     OW31324   3.598   1.166   5.563  0.1894 -0.3240  0.2017
 6563SOL    HW131325   3.635   1.079   5.575  1.6293  0.1357 -0.7369
 6563SOL    HW231326   3.662   1.204   5.623 -0.8301 -0.1215  1.1535
 6564SOL     OW31327   3.917   3.193   5.767  0.1444 -0.2523  0.1887
 6564SOL    HW131328   3.979   3.248   5.721  2.1605 -3.3714 -0.8063
 6564SOL    HW231329   3.837   3.241   5.744 -0.3894 -1.7505 -1.1185
 6565SOL     OW31330   1.935   1.274  12.168  0.2851 -0.2084 -0.0263
 6565SOL    HW131331   1.865   1.322  12.213 -0.5175  1.4333 -3.0029
 6565SOL    HW231332   1.961   1.344  12.108  0.1313  0.5038  0.7306
 6566SOL     OW31333   0.832   3.501  12.513 -0.0322 -0.0545 -0.3125
 6566SOL    HW131334   0.873   3.451  12.443 -1.1835 -0.4993 -0.6795
 6566SOL    HW231335   0.887   3.493  12.591 -1.7750  2.8116  1.2163
 6567SOL     OW31336   2.192   0.255  15.727 -0.1168 -0.2404  0.4865
 6567SOL    HW131337   2.216   0.343  15.701  0.4208 -0.5246  0.0124
 6567SOL    HW231338   2.179   0.258  15.822  2.7281 -0.6790  0.8962
 6568SOL     OW31339   0.326   1.592  12.798 -0.4044  0.5346 -0.3192
 6568SOL    HW131340   0.269   1.644  12.742 -0.8996 -1.2609 -1.5053
 6568SOL    HW231341   0.262   1.555  12.858  0.5040  1.4309  1.1863
 6569SOL     OW31342   2.687   0.328   0.818 -0.0687  0.1705 -0.2141
 6569SOL    HW131343   2.691   0.249   0.763 -2.1041  0.3040 -0.5388
 6569SOL    HW231344   2.769   0.328   0.867 -0.6977 -1.6574  0.8541
 6570SOL     OW31345   0.486   1.303   3.721  0.3599 -1.1391  0.0600
 6570SOL    HW131346   0.430   1.361   3.772 -0.7318  0.5597 -3.0680
 6570SOL    HW231347   0.419   1.242   3.692  0.4676 -1.1864 -0.0866
 6571SOL     OW31348   0.454   1.330   2.954  0.0863 -0.3394 -0.2627
 6571SOL    HW131349   0.507   1.294   2.882  2.3943  1.1750  0.6629
 6571SOL    HW231350   0.521   1.377   3.005 -0.8085 -0.1252  0.7023
 6572SOL     OW31351   4.637   0.904   8.268 -0.0059 -0.2534  0.0927
 6572SOL    HW131352   4.708   0.852   8.231 -0.3521  0.1738 -1.1817
 6572SOL    HW231353   4.643   0.993   8.232 -1.0941  0.1205  0.8494
 6573SOL     OW31354   3.561   3.358   4.499  0.4555 -0.0162 -0.3330
 6573SOL    HW131355   3.633   3.333   4.557  1.4990  0.2251 -1.5270
 6573SOL    HW231356   3.533   3.442   4.535 -3.7454 -1.1491 -1.0171
 6574SOL     OW31357   2.821   2.091   7.237 -0.0650  0.3581  0.0820
 6574SOL    HW131358   2.827   2.004   7.276 -0.8445 -1.2064 -3.2473
 6574SOL    HW231359   2.731   2.120   7.252  0.5854  2.1375  0.5568
 6575SOL     OW31360   2.800   0.546   2.693 -0.1015 -0.0966  0.8807
 6575SOL    HW131361   2.841   0.568   2.777 -0.0507  0.9499  0.5813
 6575SOL    HW231362   2.749   0.466   2.707 -2.1987  1.4184  1.8625
 6576SOL     OW31363   4.313   0.036   2.769  0.3591  0.3511 -0.6661
 6576SOL    HW131364   4.324   0.127   2.797  0.2461  0.1476  0.0356
 6576SOL    HW231365   4.357   4.733   2.844  1.3775 -0.4483 -1.6890
 6577SOL     OW31366   0.810   0.618   2.836  0.4366  0.2160  0.7533
 6577SOL    HW131367   0.724   0.645   2.866  0.7858  2.9769 -0.6826
 6577SOL    HW231368   0.784   0.559   2.766  0.7832  2.0972 -0.9708
 6578SOL     OW31369   0.093   4.361   4.527  0.0939 -0.2290  0.0714
 6578SOL    HW131370   4.734   4.362   4.524  0.0731  0.1176  0.9119
 6578SOL    HW231371   0.112   4.281   4.478 -0.6203 -0.1968 -0.2575
 6579SOL     OW31372   1.492   3.116   3.398  0.4228 -0.0982  0.3064
 6579SOL    HW131373   1.533   3.030   3.409 -0.7997 -0.8436 -0.9674
 6579SOL    HW231374   1.493   3.153   3.486  0.2616 -2.0088  1.1184
 6580SOL     OW31375   1.160   0.748  17.412 -0.3501  0.3861  0.1912
 6580SOL    HW131376   1.089   0.718  17.468 -0.8548  0.3712 -0.4540
 6580SOL    HW231377   1.117   0.790  17.338 -1.9828 -0.2490  0.7796
 6581SOL     OW31378   4.658   3.035   2.913 -0.5653 -0.1484 -0.0873
 6581SOL    HW131379   4.703   3.027   2.829  2.9645 -1.3432  1.8712
 6581SOL    HW231380   4.578   2.995   2.879 -1.0491 -0.6259  1.6159
 6582SOL     OW31381   3.669   3.587   8.630  0.1519 -0.2161 -0.4345
 6582SOL    HW131382   3.699   3.497   8.643  2.5279  0.9997  2.3627
 6582SOL    HW231383   3.584   3.578   8.586 -0.6532 -1.1366  1.2900
 6583SOL     OW31384   1.972   0.387  13.884 -0.2684  0.2539  0.3020
 6583SOL    HW131385   2.057   0.346  13.865 -1.4321 -2.5788  1.2141
 6583SOL    HW231386   1.922   0.354  13.809 -0.9670  3.9578 -0.8636
 6584SOL     OW31387   4.587   1.272   7.416  0.1856  0.0685 -0.0826
 6584SOL    HW131388   4.641   1.194   7.427  0.6582  0.0617 -2.5601
 6584SOL    HW231389   4.550   1.265   7.328 -0.3530  0.2938  0.1246
 6585SOL     OW31390   2.300   2.325   4.842  0.2969  0.2070 -0.1263
 6585SOL    HW131391   2.231   2.359   4.785  0.1409 -2.1014 -1.3212
 6585SOL    HW231392   2.281   2.232   4.838  0.6118  0.1848 -1.0184
 6586SOL     OW31393   1.089   4.723   5.053 -0.3115 -0.1304  0.6904
 6586SOL    HW131394   1.037   0.003   4.975  0.9769 -0.1737 -0.1802
 6586SOL    HW231395   1.043   4.669   5.116 -1.4300 -0.9997 -0.8849
 6587SOL     OW31396   2.651   4.678   7.319 -0.3655  0.1093 -0.3868
 6587SOL    HW131397   2.738   4.717   7.321 -0.7650  0.9471  0.5164
 6587SOL    HW231398   2.597   0.017   7.341  1.4542  1.7043 -1.4417
 6588SOL     OW31399   3.639   0.873   6.231  0.5754  1.0115  0.0667
 6588SOL    HW131400   3.554   0.874   6.275 -0.5876  2.1561 -2.2212
 6588SOL    HW231401   3.702   0.878   6.304 -0.3343  2.2434  0.7658
 6589SOL     OW31402   0.990   0.579  11.954  0.2602  0.0397  0.4442
 6589SOL    HW131403   0.995   0.641  12.027 -0.9829  0.7593 -0.0833
 6589SOL    HW231404   0.990   0.644  11.884 -1.8803 -0.6320 -0.1537
 6590SOL     OW31405   4.670   1.309  16.658 -0.3889 -0.0563 -0.3019
 6590SOL    HW131406   4.608   1.305  16.586 -1.5969  0.7573  0.6898
 6590SOL    HW231407   4.696   1.399  16.639 -0.7716 -0.0068 -0.5750
 6591SOL     OW31408   2.536   0.323   3.066 -0.0447  0.3255 -0.2418
 6591SOL    HW131409   2.499   0.326   2.977 -1.6958  0.3463  0.4356
 6591SOL    HW231410   2.628   0.320   3.039  0.1436  1.4207  0.2736
 6592SOL     OW31411   2.906   0.096   4.865 -0.5784  0.0298  0.0297
 6592SOL    HW131412   2.964   0.027   4.897 -0.9895 -1.2912 -2.0853
 6592SOL    HW231413   2.903   0.151   4.944 -0.0322 -2.7196  1.9826
 6593SOL     OW31414   0.518   1.625   6.368  0.3502 -0.0259 -0.3835
 6593SOL    HW131415   0.478   1.609   6.453  0.8619  0.7145 -0.0061
 6593SOL    HW231416   0.592   1.684   6.386  1.9896 -2.0392 -0.4526
 6594SOL     OW31417   3.138   3.601   4.508  0.3165  0.1025 -0.0942
 6594SOL    HW131418   3.076   3.572   4.574  0.6915 -0.8628 -0.1625
 6594SOL    HW231419   3.202   3.649   4.561  1.0384  0.2256 -1.0806
 6595SOL     OW31420   3.074   4.602   0.270  0.2392  0.1891 -0.1388
 6595SOL    HW131421   2.995   4.551   0.287 -0.7473  1.5648 -0.6593
 6595SOL    HW231422   3.061   4.599   0.175  1.0180  1.0524 -0.2699
 6596SOL     OW31423   1.597   2.497   6.670  0.9277  0.4936  0.2128
 6596SOL    HW131424   1.524   2.545   6.630  1.1869 -0.9030 -1.9412
 6596SOL    HW231425   1.570   2.507   6.761 -2.2574 -0.2406 -0.6214
 6597SOL     OW31426   1.226   2.844   8.555  0.4297 -0.0452 -0.1992
 6597SOL    HW131427   1.303   2.798   8.521  0.4865  0.9304 -1.3913
 6597SOL    HW231428   1.253   2.933   8.532 -0.9197  0.2122 -0.7955
 6598SOL     OW31429   4.557   4.338   4.476  0.0754  0.3438  0.0182
 6598SOL    HW131430   4.522   4.257   4.439  1.5418 -0.2841  0.0235
 6598SOL    HW231431   4.543   4.400   4.405  0.2476 -1.7165 -1.8078
 6599SOL     OW31432   2.381   0.165   2.325 -0.0359  0.2881 -0.4083
 6599SOL    HW131433   2.435   0.104   2.375  0.5107  0.9915 -0.1237
 6599SOL    HW231434   2.361   0.229   2.394  0.1358  3.1673 -3.0095
 6600SOL     OW31435   4.470   2.939   2.539 -0.1122  0.7724  0.5614
 6600SOL    HW131436   4.413   2.949   2.616  0.8074  0.9714  1.2172
 6600SOL    HW231437   4.520   2.861   2.562 -0.3759  0.9742  1.8052
 6601SOL     OW31438   1.390   0.434   6.995  0.1846 -0.5080  0.8692
 6601SOL    HW131439   1.380   0.457   6.902 -0.1449 -1.0694  0.7656
 6601SOL    HW231440   1.316   0.374   7.008 -0.8798  0.4752 -0.6070
 6602SOL     OW31441   1.367   1.888   6.573 -0.7192 -0.3223  0.0594
 6602SOL    HW131442   1.298   1.825   6.593 -0.2291 -0.9199 -0.1215
 6602SOL    HW231443   1.350   1.916   6.483  0.0148 -1.3783 -0.4136
 6603SOL     OW31444   1.075   1.195  13.016 -0.0006  0.2992 -0.4689
 6603SOL    HW131445   1.044   1.273  13.062  0.9186  2.3219 -3.2837
 6603SOL    HW231446   1.052   1.221  12.926  2.0753  2.3456 -0.4074
 6604SOL     OW31447   0.315   1.050   0.849  0.3055  0.0251 -0.0423
 6604SOL    HW131448   0.294   1.016   0.936  0.0295 -0.2687 -0.2231
 6604SOL    HW231449   0.314   0.970   0.795  0.0590  1.3964 -2.0890
 6605SOL     OW31450   2.993   4.602  15.581  0.0486  0.1090 -0.2926
 6605SOL    HW131451   2.941   4.540  15.633 -0.6832 -0.9790 -2.3194
 6605SOL    HW231452   3.003   4.557  15.498  3.1168  0.9129 -0.3848
 6606SOL     OW31453   2.322   1.318   9.100 -0.1022  0.0262 -0.1097
 6606SOL    HW131454   2.239   1.335   9.144  1.5042  3.1331  1.8005
 6606SOL    HW231455   2.377   1.367   9.162  0.7730  2.4518 -2.8153
 6607SOL     OW31456   0.035   3.768   6.031 -0.6817 -0.5819  0.4248
 6607SOL    HW131457   0.125   3.750   6.005 -0.7169 -3.0274  2.0065
 6607SOL    HW231458   0.020   3.853   5.990 -0.4920  0.1244  1.8504
 6608SOL     OW31459   3.376   2.514  17.514  0.1697 -0.1384  0.3898
 6608SOL    HW131460   3.293   2.507  17.467  1.0293 -1.0598 -1.0038
 6608SOL    HW231461   3.420   2.443  17.467 -0.1754 -0.3507  0.3915
 6609SOL     OW31462   1.222   3.171   8.824  0.3804  0.5519 -0.2034
 6609SOL    HW131463   1.149   3.113   8.848 -0.3065  1.8224  0.8207
 6609SOL    HW231464   1.185   3.259   8.829  1.6638  1.0337  0.7673
 6610SOL     OW31465   3.354   2.669   5.296  0.0020 -0.5234  0.2896
 6610SOL    HW131466   3.315   2.749   5.261  1.7371  0.8169  1.4360
 6610SOL    HW231467   3.437   2.708   5.322  0.4779 -1.0038 -0.5112
 6611SOL     OW31468   1.178   1.464   5.583  0.4437  0.5630  0.3960
 6611SOL    HW131469   1.111   1.407   5.621  2.1828 -2.2068 -0.7026
 6611SOL    HW231470   1.159   1.552   5.616  0.5085  0.5210  0.5458
 6612SOL     OW31471   1.444   0.010   4.715  0.2481 -0.1888  0.3966
 6612SOL    HW131472   1.370   0.010   4.655 -0.7817  0.1351  1.6491
 6612SOL    HW231473   1.502   0.080   4.686 -0.2886 -0.3224 -0.9736
 6613SOL     OW31474   2.565   1.393   6.322 -0.1273 -0.6875  0.4450
 6613SOL    HW131475   2.560   1.364   6.231  0.5018  0.7340 -0.0579
 6613SOL    HW231476   2.647   1.443   6.314 -1.5545  1.5090 -0.5183
 6614SOL     OW31477   3.197   0.096   7.185  0.2453  0.8203 -0.0699
 6614SOL    HW131478   3.143   0.041   7.129  0.7197  2.3676 -2.0820
 6614SOL    HW231479   3.124   0.156   7.201  0.2366  0.4080  1.4366
 6615SOL     OW31480   2.828   3.543   6.807  0.1770 -0.5910  0.8154
 6615SOL    HW131481   2.777   3.536   6.726  0.6596  2.1786  0.2554
 6615SOL    HW231482   2.878   3.624   6.797 -0.7055 -0.1528 -0.0166
 6616SOL     OW31483   1.765   3.212  12.320 -0.2088 -0.3270 -0.0708
 6616SOL    HW131484   1.724   3.131  12.352  0.3095 -0.3268  0.5816
 6616SOL    HW231485   1.712   3.278  12.364  0.1378  0.5663 -0.9943
 6617SOL     OW31486   1.158   0.186   6.150 -0.4939 -0.3373  0.0194
 6617SOL    HW131487   1.100   0.200   6.224 -1.0424  1.8481 -0.8342
 6617SOL    HW231488   1.116   0.107   6.117  0.7821 -0.6429 -0.8948
 6618SOL     OW31489   0.259   3.301   1.527  0.6459  0.4153 -0.1033
 6618SOL    HW131490   0.178   3.337   1.564  1.6346 -0.5199  2.8849
 6618SOL    HW231491   0.267   3.216   1.569 -1.3228  1.6701  2.7882
 6619SOL     OW31492   1.083   4.630   8.673  0.1713 -0.2655 -0.1027
 6619SOL    HW131493   1.158   4.685   8.694 -0.6895  2.3739 -3.9430
 6619SOL    HW231494   1.098   4.625   8.578 -0.5181 -2.0869 -0.1094
 6620SOL     OW31495   4.294   3.354  15.493  0.3199  0.2462 -0.2382
 6620SOL    HW131496   4.248   3.435  15.515  2.5556  1.2091  0.9461
 6620SOL    HW231497   4.215   3.306  15.468 -0.3673  1.3903 -0.2743
 6621SOL     OW31498   0.594   4.639   3.297 -0.0493 -0.3365 -0.4498
 6621SOL    HW131499   0.583   4.600   3.384  1.0109  0.9075  0.2547
 6621SOL    HW231500   0.685   4.667   3.306 -0.1476 -0.2026  0.1747
 6622SOL     OW31501   0.733   0.459   2.615 -0.7408  0.3936  0.4224
 6622SOL    HW131502   0.815   0.410   2.614 -0.3180  1.0894  0.6636
 6622SOL    HW231503   0.696   0.471   2.528 -0.9422  0.8339  0.5670
 6623SOL     OW31504   3.729   0.186  12.637  0.6067 -0.0890  0.2240
 6623SOL    HW131505   3.633   0.183  12.632  0.6886  0.0023 -1.3125
 6623SOL    HW231506   3.752   0.119  12.573  2.4895  0.0262  0.7978
 6624SOL     OW31507   2.361   2.595   6.168  0.9571 -0.2166 -0.4052
 6624SOL    HW131508   2.388   2.686   6.154  2.7473 -0.8646 -1.1950
 6624SOL    HW231509   2.327   2.604   6.257 -0.1519 -0.6924 -0.7785
 6625SOL     OW31510   3.322   2.630   3.440  0.2997  0.1154  0.4656
 6625SOL    HW131511   3.295   2.670   3.357 -0.0021  1.8148  1.3881
 6625SOL    HW231512   3.407   2.669   3.457  0.6414 -1.1909  1.7183
 6626SOL     OW31513   1.648   0.074   4.359 -0.3440  0.0816 -0.4925
 6626SOL    HW131514   1.676   0.010   4.294 -0.6873  0.1175 -0.6711
 6626SOL    HW231515   1.704   0.048   4.432 -0.9139  0.8362  0.2155
 6627SOL     OW31516   0.321   3.048   4.862 -0.4077  0.8174 -0.1262
 6627SOL    HW131517   0.262   2.976   4.843  0.8292 -0.5832  1.3407
 6627SOL    HW231518   0.405   3.006   4.882 -0.6694  0.9167  1.1382
 6628SOL     OW31519   0.601   1.204   5.790 -0.0418 -0.4806  0.2543
 6628SOL    HW131520   0.606   1.115   5.824  2.6891  0.0268  1.1954
 6628SOL    HW231521   0.661   1.197   5.716 -0.0642 -0.4314  0.2311
 6629SOL     OW31522   1.030   3.658  14.098 -0.7201  0.0427  0.0272
 6629SOL    HW131523   0.971   3.589  14.127  0.4563 -0.8244  0.3759
 6629SOL    HW231524   0.991   3.675  14.012  0.4250  0.5481 -0.3991
 6630SOL     OW31525   2.803   0.944  10.471 -0.0421 -0.8233 -0.5596
 6630SOL    HW131526   2.731   0.980  10.522  1.5523  1.8317 -0.1502
 6630SOL    HW231527   2.813   1.006  10.399  1.4287 -0.9418 -0.4653
 6631SOL     OW31528   4.014   0.539  12.242  0.0990 -0.3828 -0.6624
 6631SOL    HW131529   4.054   0.581  12.318  0.8730  0.6467 -1.6481
 6631SOL    HW231530   3.958   0.478  12.290  0.5998 -2.5157 -2.8001
 6632SOL     OW31531   1.053   1.031   4.759 -0.4179  0.2314  0.8317
 6632SOL    HW131532   1.014   1.002   4.841 -0.0278  1.8997  1.6046
 6632SOL    HW231533   1.134   1.072   4.789  0.9156 -3.5025  2.2584
 6633SOL     OW31534   4.454   2.141  14.930 -0.3698  0.2102  0.3324
 6633SOL    HW131535   4.407   2.198  14.868 -0.5198 -0.1681  0.1010
 6633SOL    HW231536   4.499   2.209  14.980  0.8149 -0.9276  0.8076
 6634SOL     OW31537   3.712   3.957   8.915  0.2176 -0.3677  0.5008
 6634SOL    HW131538   3.748   4.043   8.891  0.6861 -0.2220  1.7220
 6634SOL    HW231539   3.620   3.980   8.901  0.1916 -1.2851 -0.7871
 6635SOL     OW31540   1.319   4.357  13.466 -0.3086 -0.2682 -0.1986
 6635SOL    HW131541   1.249   4.422  13.465 -1.6737 -1.7256  0.2283
 6635SOL    HW231542   1.330   4.342  13.559  1.5485  0.8802 -0.2286
 6636SOL     OW31543   1.031   2.101   1.122  0.0718  0.7087  0.4550
 6636SOL    HW131544   0.940   2.126   1.138 -0.7060 -1.0163 -1.2683
 6636SOL    HW231545   1.060   2.084   1.212  1.1017  0.7946  0.1405
 6637SOL     OW31546   0.339   2.226   5.846  0.4661 -0.5429  0.6599
 6637SOL    HW131547   0.301   2.141   5.868  1.7658 -1.5094 -0.8688
 6637SOL    HW231548   0.431   2.213   5.869  0.8950  3.1467  1.0382
 6638SOL     OW31549   0.850   3.175   1.562 -0.2690  0.1946 -0.5747
 6638SOL    HW131550   0.860   3.157   1.469  1.7878 -0.7089 -0.1911
 6638SOL    HW231551   0.920   3.238   1.580 -0.6127  1.0905 -2.4241
 6639SOL     OW31552   2.990   2.089   6.999  0.0359  0.0216 -0.0372
 6639SOL    HW131553   2.937   2.090   7.078  1.7718 -2.2248  1.1787
 6639SOL    HW231554   2.924   2.046   6.944 -1.4843 -1.4242  2.9322
 6640SOL     OW31555   0.707   4.305  13.322  0.6055 -0.0357  0.1236
 6640SOL    HW131556   0.710   4.232  13.261  1.5061 -0.0506  0.1842
 6640SOL    HW231557   0.639   4.365  13.292 -0.7464 -1.0315  1.2109
 6641SOL     OW31558   3.274   2.866   5.091  0.5602 -0.3438 -0.6549
 6641SOL    HW131559   3.299   2.789   5.040  1.3746  0.6775 -1.7793
 6641SOL    HW231560   3.281   2.934   5.024 -0.8394  0.4343 -0.0062
 6642SOL     OW31561   3.309   0.862   5.377  0.1267  0.0451 -0.3409
 6642SOL    HW131562   3.388   0.904   5.342  0.4876 -0.3257  0.0255
 6642SOL    HW231563   3.279   0.919   5.447  0.7177 -1.0033  0.7721
 6643SOL     OW31564   1.609   2.194   7.883 -0.4829 -0.0260 -0.4660
 6643SOL    HW131565   1.648   2.278   7.858  0.6560 -0.1516  0.8689
 6643SOL    HW231566   1.588   2.208   7.976  0.7639 -0.2999 -0.1438
 6644SOL     OW31567   0.425   3.116  15.677 -0.3670  1.0804  0.5510
 6644SOL    HW131568   0.391   3.114  15.767 -0.2783  2.3644  0.6143
 6644SOL    HW231569   0.396   3.205  15.658  0.3584  1.5109  1.4866
 6645SOL     OW31570   0.153   2.668   8.947 -0.8094 -0.0562 -0.4664
 6645SOL    HW131571   0.156   2.743   8.887  0.7083  0.4288  0.2235
 6645SOL    HW231572   0.145   2.588   8.895 -1.0777  0.0341 -0.5633
 6646SOL     OW31573   1.203   3.166  16.318  0.1857  0.3702  0.0187
 6646SOL    HW131574   1.212   3.073  16.336  1.1775  0.3928 -0.3728
 6646SOL    HW231575   1.136   3.187  16.383 -0.5630 -1.0776 -0.2808
 6647SOL     OW31576   4.648   0.802   2.078 -0.1536 -1.1483  0.4406
 6647SOL    HW131577   4.735   0.832   2.104 -1.2943  1.5958  1.0824
 6647SOL    HW231578   4.591   0.869   2.115 -0.2649 -0.1345 -1.5682
 6648SOL     OW31579   4.306   3.318  16.669 -0.0516  0.0985  0.0250
 6648SOL    HW131580   4.237   3.369  16.625 -1.0057 -0.2923  1.0700
 6648SOL    HW231581   4.362   3.288  16.597  1.2200  2.1396  0.1561
 6649SOL     OW31582   4.727   4.576   7.445  0.2092  0.2862 -0.1368
 6649SOL    HW131583   0.044   4.519   7.390 -1.1053  0.0483 -1.1876
 6649SOL    HW231584   4.705   4.655   7.396  0.3347  0.2015 -0.3292
 6650SOL     OW31585   0.454   1.641   6.686 -0.3513 -0.4456  0.0505
 6650SOL    HW131586   0.549   1.635   6.694 -0.2710  0.0145 -0.5618
 6650SOL    HW231587   0.442   1.735   6.703 -1.7367 -0.0901 -2.8412
 6651SOL     OW31588   2.817   1.758   3.729  0.5255 -0.1666 -0.0980
 6651SOL    HW131589   2.903   1.715   3.728  1.1980  1.2083 -1.8196
 6651SOL    HW231590   2.760   1.705   3.674  0.7043 -0.7229  0.2459
 6652SOL     OW31591   3.319   4.477   2.184  0.1991 -0.4730 -0.1273
 6652SOL    HW131592   3.353   4.559   2.220  2.3170 -0.2267 -2.6484
 6652SOL    HW231593   3.265   4.443   2.255  0.8396 -1.0645  0.0727
 6653SOL     OW31594   3.222   0.240  11.656  0.4276  0.1190  0.1936
 6653SOL    HW131595   3.305   0.269  11.695  0.1907  0.6237  0.3198
 6653SOL    HW231596   3.251   0.149  11.650 -0.5452 -0.1178 -0.7991
 6654SOL     OW31597   3.353   3.123   3.202  0.6134 -0.3298 -0.1900
 6654SOL    HW131598   3.260   3.143   3.194  0.2192 -3.5068 -3.4700
 6654SOL    HW231599   3.372   3.134   3.295 -2.2188 -1.2904  0.5070
 6655SOL     OW31600   3.312   3.948  14.372  0.5563 -0.0853  0.6579
 6655SOL    HW131601   3.390   3.995  14.343  1.0492 -0.4460  1.3909
 6655SOL    HW231602   3.250   3.967  14.301  0.8541  0.9802  0.6875
 6656SOL     OW31603   2.163   3.072  10.197 -0.3687  0.4586 -0.4917
 6656SOL    HW131604   2.088   3.026  10.159 -0.1503 -0.7045  0.4778
 6656SOL    HW231605   2.121   3.150  10.233  0.4427  0.9294 -0.5696
 6657SOL     OW31606   3.886   1.787  11.639  0.2540 -0.3676  0.3556
 6657SOL    HW131607   3.958   1.733  11.672 -0.4105 -1.1345  0.5563
 6657SOL    HW231608   3.808   1.744  11.675  0.4686 -0.7523  0.3625
 6658SOL     OW31609   1.500   2.549   9.108 -1.3204 -0.5050 -0.0532
 6658SOL    HW131610   1.442   2.524   9.179  1.8593  0.3650  2.8806
 6658SOL    HW231611   1.507   2.644   9.120 -1.1187 -0.6972  1.3025
 6659SOL     OW31612   1.222   0.419  16.622  0.3046 -0.4794 -0.4333
 6659SOL    HW131613   1.278   0.384  16.553 -1.0537 -0.3870 -1.6012
 6659SOL    HW231614   1.148   0.449  16.569 -0.1318 -0.4652  0.1749
 6660SOL     OW31615   1.153   0.629   8.535 -0.1487 -0.3828  0.2115
 6660SOL    HW131616   1.180   0.541   8.562  0.3075  0.2437  1.8147
 6660SOL    HW231617   1.180   0.678   8.613  1.8714  0.9680 -1.3419
 6661SOL     OW31618   1.977   2.038   8.475 -0.1450 -0.6018  0.2629
 6661SOL    HW131619   1.890   2.076   8.489  0.0600  0.5370 -1.4673
 6661SOL    HW231620   1.963   1.998   8.389  2.0326 -1.1186  0.1640
 6662SOL     OW31621   0.458   1.494   7.623  0.2435  0.4269 -0.2212
 6662SOL    HW131622   0.550   1.509   7.601  0.5941 -0.5929  0.5402
 6662SOL    HW231623   0.418   1.550   7.557 -0.4589  0.7349  0.4491
 6663SOL     OW31624   2.976   2.434   6.889  0.6041  0.7414 -0.2233
 6663SOL    HW131625   3.015   2.483   6.817 -1.8278  3.3926  0.3060
 6663SOL    HW231626   3.007   2.475   6.970 -2.3515 -1.0743  1.8357
 6664SOL     OW31627   4.158   1.882   6.501 -0.0620 -0.1467 -0.4056
 6664SOL    HW131628   4.202   1.861   6.418 -0.8989 -1.8061 -0.4400
 6664SOL    HW231629   4.066   1.868   6.477 -0.9655  0.5143  2.6301
 6665SOL     OW31630   3.718   2.209   0.383 -0.2924 -0.7024 -0.2560
 6665SOL    HW131631   3.774   2.134   0.363  0.0751 -0.3372 -0.5938
 6665SOL    HW231632   3.727   2.206   0.478 -0.2204  0.2768 -0.2406
 6666SOL     OW31633   4.003   3.881   3.898  0.2331 -0.2947 -0.2224
 6666SOL    HW131634   4.021   3.787   3.894  1.0103 -0.1139 -0.9272
 6666SOL    HW231635   3.908   3.884   3.887  0.2990  0.8488 -0.4928
 6667SOL     OW31636   4.631   4.376   8.277  0.3361  0.2507 -0.5313
 6667SOL    HW131637   4.710   4.350   8.229  0.8284  1.0043 -0.1126
 6667SOL    HW231638   4.595   4.287   8.283 -0.4085  0.4819 -1.5786
 6668SOL     OW31639   2.602   4.664   0.884  0.3798  0.0236  0.0497
 6668SOL    HW131640   2.531   4.630   0.829  1.1560 -3.3902  1.1356
 6668SOL    HW231641   2.628   0.000   0.828 -0.6889  1.7883  1.9092
 6669SOL     OW31642   1.851   4.439   9.223  0.3728  0.0685  0.3507
 6669SOL    HW131643   1.904   4.399   9.154 -1.6522 -0.5018 -0.9047
 6669SOL    HW231644   1.788   4.371   9.248 -0.7923  0.8869 -0.3490
 6670SOL     OW31645   3.420   2.963   4.720  0.4373  0.0031  0.0058
 6670SOL    HW131646   3.439   3.025   4.650 -0.5556 -1.2592 -1.3845
 6670SOL    HW231647   3.501   2.913   4.726  0.3812 -0.1198 -0.2566
 6671SOL     OW31648   3.890   0.713   5.527 -0.3514  0.0929 -0.1445
 6671SOL    HW131649   3.895   0.621   5.551  0.1814  0.3903  0.8778
 6671SOL    HW231650   3.811   0.712   5.473  1.7157 -0.1429 -3.1906
 6672SOL     OW31651   0.346   0.280   8.937 -0.2233  0.4580 -0.4666
 6672SOL    HW131652   0.401   0.358   8.932  0.7748 -0.1984  0.4519
 6672SOL    HW231653   0.308   0.296   9.024  2.3315  1.9198  0.3627
 6673SOL     OW31654   3.102   2.531   7.114 -0.5315 -0.0266 -0.5440
 6673SOL    HW131655   3.116   2.544   7.208  0.2601 -0.6201 -0.5774
 6673SOL    HW231656   3.131   2.613   7.075  0.8326 -0.6712 -0.8988
 6674SOL     OW31657   1.498   2.858   2.513 -0.3654 -0.1217  0.0069
 6674SOL    HW131658   1.590   2.884   2.514 -0.5753  0.6226  0.1843
 6674SOL    HW231659   1.503   2.827   2.422  3.5976 -1.8472  0.7950
 6675SOL     OW31660   4.418   0.513   1.402  0.1563  0.9918  0.2136
 6675SOL    HW131661   4.425   0.570   1.326 -1.5907  0.3412 -0.4433
 6675SOL    HW231662   4.478   0.442   1.380 -2.5628 -0.7528 -1.5038
 6676SOL     OW31663   1.571   3.747   5.116  0.3680 -0.6275  0.7942
 6676SOL    HW131664   1.620   3.792   5.185  3.0885 -0.8234 -0.9725
 6676SOL    HW231665   1.518   3.823   5.092 -0.6107 -0.7129  2.7018
 6677SOL     OW31666   4.100   2.697  13.566 -0.3650 -0.4669  0.1791
 6677SOL    HW131667   4.170   2.724  13.626 -0.2514 -1.6145  0.5807
 6677SOL    HW231668   4.136   2.709  13.478 -1.3891  0.4345 -0.1007
 6678SOL     OW31669   2.244   3.127   3.363  0.2245  0.5493  0.1812
 6678SOL    HW131670   2.277   3.037   3.366 -3.2435 -0.7870 -1.3063
 6678SOL    HW231671   2.155   3.111   3.396 -0.4794  1.8566 -1.0955
 6679SOL     OW31672   2.505   1.419   3.765  0.5778  0.3924 -0.2734
 6679SOL    HW131673   2.498   1.514   3.755  0.8674  0.3518 -0.9080
 6679SOL    HW231674   2.600   1.410   3.771  0.5936  0.8458  0.1505
 6680SOL     OW31675   0.180   1.136   4.344  0.2765  0.4031  0.0889
 6680SOL    HW131676   0.260   1.123   4.395  0.9080 -1.9451 -1.4753
 6680SOL    HW231677   0.215   1.111   4.258 -2.0975 -0.7440 -0.5432
 6681SOL     OW31678   0.766   2.316   0.971 -0.1807  0.0273 -0.3474
 6681SOL    HW131679   0.684   2.364   0.963 -0.0776 -0.0196 -1.8295
 6681SOL    HW231680   0.811   2.359   1.043  1.0658  1.0390 -1.7130
 6682SOL     OW31681   1.139   2.741   4.942 -0.1236 -0.5163 -0.1087
 6682SOL    HW131682   1.082   2.704   4.875  1.0506 -0.5849 -1.0616
 6682SOL    HW231683   1.070   2.764   5.005  1.1079  0.2663  0.9553
 6683SOL     OW31684   0.321   0.560   1.336 -0.3863 -0.4344 -0.4318
 6683SOL    HW131685   0.404   0.595   1.302  0.0036 -0.2572  0.7094
 6683SOL    HW231686   0.359   0.492   1.393  0.7370 -1.1032 -1.9684
 6684SOL     OW31687   2.263   4.395   1.884 -0.0844  0.3797  0.2138
 6684SOL    HW131688   2.299   4.311   1.912 -0.2289 -0.3714 -1.8023
 6684SOL    HW231689   2.343   4.446   1.874  0.7316 -0.7006  1.2854
 6685SOL     OW31690   0.091   2.148  13.203  0.2518 -0.0163  0.4788
 6685SOL    HW131691   0.063   2.199  13.128  1.8116  0.0678 -0.0427
 6685SOL    HW231692   0.012   2.101  13.233 -1.0151  0.2024 -2.4852
 6686SOL     OW31693   4.441   1.606   6.328  0.1108  0.3602 -0.0668
 6686SOL    HW131694   4.383   1.537   6.361 -0.7688  0.9753 -0.3056
 6686SOL    HW231695   4.507   1.598   6.396 -0.2109 -0.5523  0.1346
 6687SOL     OW31696   1.013   1.066   7.746  0.4688 -0.6483  0.0970
 6687SOL    HW131697   0.954   1.132   7.781 -0.9836 -2.5953  1.2953
 6687SOL    HW231698   1.078   1.129   7.713 -1.6499  1.4362 -0.0943
 6688SOL     OW31699   1.670   4.250   5.999  0.0639 -0.1004  0.4237
 6688SOL    HW131700   1.590   4.301   6.013  0.7203  0.4810  1.9249
 6688SOL    HW231701   1.730   4.305   6.049  3.1490 -2.5138 -0.6713
 6689SOL     OW31702   1.877   1.628   3.879 -0.3078  0.4800  0.3104
 6689SOL    HW131703   1.830   1.649   3.960  2.2762  0.9188  1.6930
 6689SOL    HW231704   1.801   1.619   3.822 -0.2672  2.4286 -0.0425
 6690SOL     OW31705   1.187   0.150   2.284  0.0427  0.2148  0.3402
 6690SOL    HW131706   1.242   0.195   2.348 -0.0615  1.0819 -0.1851
 6690SOL    HW231707   1.254   0.112   2.227  1.3896  0.0567  2.0217
 6691SOL     OW31708   0.282   3.953   2.908  0.3094 -0.2232  0.1694
 6691SOL    HW131709   0.373   3.967   2.884 -0.4944  3.6237 -0.5428
 6691SOL    HW231710   0.268   3.868   2.865  0.3371  0.1637 -0.5942
 6692SOL     OW31711   2.865   3.779   6.125 -0.6070  0.2575 -0.3293
 6692SOL    HW131712   2.912   3.794   6.207  0.3702 -0.5665 -0.7400
 6692SOL    HW231713   2.830   3.693   6.147 -0.3930  0.8483  2.2781
 6693SOL     OW31714   3.383   2.647   0.298  0.6062 -0.2337  0.0370
 6693SOL    HW131715   3.382   2.608   0.386 -1.7063 -2.4867 -0.9790
 6693SOL    HW231716   3.307   2.705   0.292  0.7623  0.0638  0.8299
 6694SOL     OW31717   1.460   3.838   4.499 -0.1818  0.4537  0.3527
 6694SOL    HW131718   1.391   3.797   4.447  0.1772  0.6608 -0.3013
 6694SOL    HW231719   1.512   3.762   4.525  0.7195  0.3574 -1.6613
 6695SOL     OW31720   2.118   2.351   2.342 -0.2482  0.2414 -0.0097
 6695SOL    HW131721   2.154   2.317   2.424 -1.0847 -0.1973  0.1690
 6695SOL    HW231722   2.040   2.391   2.382  0.3600  0.4288  1.0174
 6696SOL     OW31723   0.121   1.020   5.855 -0.3627 -0.8545 -0.0074
 6696SOL    HW131724   0.165   0.936   5.838  2.0934  0.1696  1.1949
 6696SOL    HW231725   0.110   1.058   5.768  1.1397  1.0573  0.6548
 6697SOL     OW31726   2.390   3.192   7.722 -0.6503  0.2210  0.4464
 6697SOL    HW131727   2.346   3.236   7.649 -0.3469  0.1563  0.2256
 6697SOL    HW231728   2.322   3.145   7.770 -2.2460  0.3424 -1.6519
 6698SOL     OW31729   0.865   4.470   3.977  0.7226  0.2086  0.0847
 6698SOL    HW131730   0.939   4.438   4.029  1.2978 -0.8061 -1.3647
 6698SOL    HW231731   0.856   4.558   4.013  0.2979 -0.1400  0.8497
 6699SOL     OW31732   0.619   3.421  10.119  0.7955 -0.0136 -0.1125
 6699SOL    HW131733   0.629   3.479  10.044 -1.3297  0.6478  0.1178
 6699SOL    HW231734   0.557   3.357  10.084  0.3194  0.2575  0.2280
 6700SOL     OW31735   4.657   0.271  16.858  0.0322 -0.2058 -0.4323
 6700SOL    HW131736   4.656   0.295  16.765  0.8591  1.3856 -0.0523
 6700SOL    HW231737   4.580   0.216  16.859 -0.2152  0.1060 -2.5188
 6701SOL     OW31738   0.823   4.283   1.731 -0.4488  0.2268 -0.3158
 6701SOL    HW131739   0.736   4.315   1.753  0.2041  1.9304 -0.1847
 6701SOL    HW231740   0.876   4.298   1.809  0.9063  1.4651 -1.4775
 6702SOL     OW31741   0.549   0.639   2.942  0.1104 -0.7289 -0.1549
 6702SOL    HW131742   0.504   0.576   2.999 -0.4491  1.1796  1.4910
 6702SOL    HW231743   0.489   0.637   2.867  0.5082 -1.3818 -0.4573
 6703SOL     OW31744   4.177   3.234  17.166  0.2953  0.8491 -0.4438
 6703SOL    HW131745   4.234   3.220  17.090  0.5768 -0.4581  0.0095
 6703SOL    HW231746   4.168   3.329  17.173 -1.1751  0.5526  1.9280
 6704SOL     OW31747   1.658   3.547  15.626 -0.2741 -0.2252 -0.4405
 6704SOL    HW131748   1.598   3.605  15.673  1.7565  0.5466  1.1862
 6704SOL    HW231749   1.594   3.508  15.565 -2.1437  0.0681  1.3261
 6705SOL     OW31750   0.040   4.025   8.116 -0.7770  0.0661 -0.5509
 6705SOL    HW131751   4.685   4.013   8.095 -0.3557  0.0348 -2.3693
 6705SOL    HW231752   0.084   3.983   8.043 -2.2738 -0.9345 -0.8732
 6706SOL     OW31753   0.956   2.727   7.362 -0.4917  0.7120 -0.3651
 6706SOL    HW131754   0.904   2.782   7.420 -1.9724  0.8586 -1.8425
 6706SOL    HW231755   0.971   2.659   7.428 -1.4837  1.1613  0.3250
 6707SOL     OW31756   3.539   4.395   8.464 -0.4054 -0.0490 -0.5889
 6707SOL    HW131757   3.523   4.489   8.456 -0.7362 -0.1299 -0.8495
 6707SOL    HW231758   3.625   4.386   8.505 -0.2955 -2.1930 -1.3272
 6708SOL     OW31759   2.074   3.449   3.583  0.3439 -0.0459 -0.4611
 6708SOL    HW131760   2.170   3.453   3.592  0.1707 -1.0050  1.6893
 6708SOL    HW231761   2.049   3.541   3.588 -1.5543 -0.5047 -1.3796
 6709SOL     OW31762   0.797   1.224   7.031 -0.1098  0.2554 -0.0546
 6709SOL    HW131763   0.748   1.143   7.014  0.5758 -0.4619  1.4739
 6709SOL    HW231764   0.750   1.246   7.112 -0.1110  2.0379 -0.5423
 6710SOL     OW31765   2.496   4.034   9.553  0.2222  0.5265  0.8241
 6710SOL    HW131766   2.473   4.116   9.508  4.6398  1.0883 -0.3996
 6710SOL    HW231767   2.568   4.067   9.608 -0.3807  2.7042  0.3249
 6711SOL     OW31768   4.723   2.254  12.961 -0.1751 -0.0097 -0.4873
 6711SOL    HW131769   0.036   2.187  12.915  0.0210 -0.3378  0.2079
 6711SOL    HW231770   0.046   2.327  12.942 -1.3868  0.9139 -0.7920
 6712SOL     OW31771   4.512   4.320   4.746  0.2781  0.0791  0.1644
 6712SOL    HW131772   4.530   4.322   4.652  3.1480  3.5621  0.8005
 6712SOL    HW231773   4.467   4.404   4.748 -0.1253 -0.1312  0.0353
 6713SOL     OW31774   0.352   3.281   2.809 -0.5228  0.1117  0.5043
 6713SOL    HW131775   0.428   3.294   2.866 -1.2075 -0.0091  1.4423
 6713SOL    HW231776   0.340   3.367   2.769  0.0224  0.2710  0.6795
 6714SOL     OW31777   1.206   0.747   6.883 -0.2326  0.4961 -0.6518
 6714SOL    HW131778   1.278   0.688   6.861 -1.3152 -0.4251 -1.7525
 6714SOL    HW231779   1.256   0.819   6.920  1.9471 -1.1487 -0.3788
 6715SOL     OW31780   1.158   0.588   4.957 -0.0895 -0.1155 -0.2366
 6715SOL    HW131781   1.171   0.496   4.933  0.6356 -0.6751  2.2546
 6715SOL    HW231782   1.088   0.588   5.022 -0.1215  2.9055 -0.2959
 6716SOL     OW31783   0.292   4.092  14.157 -0.4463 -0.0852  0.1584
 6716SOL    HW131784   0.236   4.140  14.096 -0.4719  0.0557  0.2930
 6716SOL    HW231785   0.353   4.064  14.089 -0.3512  0.9816 -0.1868
 6717SOL     OW31786   0.694   1.906   5.837 -0.4789 -0.0425 -0.3451
 6717SOL    HW131787   0.628   1.837   5.833  1.3048 -1.6037 -2.3096
 6717SOL    HW231788   0.760   1.861   5.890  0.4310 -0.7561 -2.1147
 6718SOL     OW31789   2.731   3.653   5.636  0.0956 -0.0948  0.0854
 6718SOL    HW131790   2.739   3.607   5.553  1.3746 -0.9629  0.6798
 6718SOL    HW231791   2.653   3.609   5.670 -1.5974  2.2632 -0.7923
 6719SOL     OW31792   4.167   2.065   3.759  0.5667 -0.5639 -0.3523
 6719SOL    HW131793   4.165   2.126   3.685 -1.6319 -0.2178 -0.0199
 6719SOL    HW231794   4.224   2.109   3.822 -1.8255 -0.8446  1.9822
 6720SOL     OW31795   4.045   2.698   2.121 -0.2045 -0.4373  0.0110
 6720SOL    HW131796   4.101   2.621   2.108  1.1554  0.3988  0.9596
 6720SOL    HW231797   4.110   2.767   2.130 -0.2104 -0.2575 -1.3839
 6721SOL     OW31798   3.229   1.896   2.720 -0.3629 -0.3516  0.0992
 6721SOL    HW131799   3.274   1.833   2.776  0.7919 -0.0701 -0.5044
 6721SOL    HW231800   3.153   1.845   2.695 -0.4621 -0.9091  1.5401
 6722SOL     OW31801   0.990   3.476   5.094 -0.4985 -0.3388  0.7075
 6722SOL    HW131802   0.946   3.428   5.163 -0.2310 -0.2853  0.9139
 6722SOL    HW231803   1.080   3.471   5.125 -0.1726  1.7672  0.0749
 6723SOL     OW31804   1.488   0.096  16.743 -0.7004  0.4163  0.3514
 6723SOL    HW131805   1.551   0.063  16.807 -1.1639  0.7818  0.9880
 6723SOL    HW231806   1.506   0.024  16.681 -1.9530  0.4438 -0.0438
 6724SOL     OW31807   1.011   2.727   6.546  0.0437  0.6213 -0.2522
 6724SOL    HW131808   1.094   2.775   6.552 -0.5558  1.7032 -0.6622
 6724SOL    HW231809   1.035   2.638   6.571 -1.5422  0.7678  1.7559
 6725SOL     OW31810   3.836   0.336  17.407 -0.3716  0.8192 -0.2350
 6725SOL    HW131811   3.835   0.406  17.342 -0.5394  2.7018  1.7823
 6725SOL    HW231812   3.914   0.347  17.462 -2.4205  3.2173  2.1995
 6726SOL     OW31813   2.570   2.163   2.479 -0.1106 -0.1156  0.0855
 6726SOL    HW131814   2.536   2.249   2.454  1.3993  0.6669  0.7458
 6726SOL    HW231815   2.488   2.116   2.493 -0.8057  1.1028  0.1070
 6727SOL     OW31816   2.743   2.323   6.110 -0.3947  0.1510  0.0308
 6727SOL    HW131817   2.822   2.331   6.163 -0.5354  1.4229  0.0632
 6727SOL    HW231818   2.682   2.376   6.162 -1.2287 -1.3490  0.5654
 6728SOL     OW31819   3.873   2.696   4.389 -0.2777  0.3095 -0.1667
 6728SOL    HW131820   3.891   2.770   4.447 -0.1190  0.8677 -0.9264
 6728SOL    HW231821   3.794   2.733   4.351 -1.3658 -0.0753  1.6806
 6729SOL     OW31822   1.317   2.139  16.985  0.0013  0.5981  0.0762
 6729SOL    HW131823   1.257   2.175  17.051  1.8880  0.6628  1.7732
 6729SOL    HW231824   1.315   2.044  17.001 -1.1382  0.7009  0.5234
 6730SOL     OW31825   2.188   4.644   7.782  0.6430  0.1976 -1.0194
 6730SOL    HW131826   2.279   4.619   7.770  1.6499  1.7410  3.5592
 6730SOL    HW231827   2.157   4.572   7.838 -0.2289 -0.4330 -2.3109
 6731SOL     OW31828   4.410   4.604  12.876 -0.0733  0.0984  0.2149
 6731SOL    HW131829   4.331   4.656  12.888  0.3232  0.7349  0.0640
 6731SOL    HW231830   4.457   4.655  12.810  3.0901 -2.3894  0.5911
 6732SOL     OW31831   4.450   2.869   7.981  0.6622  0.1752 -0.0551
 6732SOL    HW131832   4.476   2.961   7.989 -1.1379  0.6695 -0.0793
 6732SOL    HW231833   4.355   2.867   7.985  0.6769 -0.8243 -0.2928
 6733SOL     OW31834   4.500   0.704   4.200 -0.2087  0.6219 -0.3870
 6733SOL    HW131835   4.478   0.716   4.292 -0.2623  2.3222 -0.6244
 6733SOL    HW231836   4.574   0.763   4.185 -1.5834  2.3134 -0.5224
 6734SOL     OW31837   1.316   1.988   8.438 -0.0528 -0.2326  0.0963
 6734SOL    HW131838   1.373   2.053   8.480 -0.2574 -0.2787  0.4447
 6734SOL    HW231839   1.232   2.032   8.436  1.1811  2.1452  0.8328
 6735SOL     OW31840   2.436   4.458   3.462 -0.0170 -0.2777  0.4452
 6735SOL    HW131841   2.462   4.403   3.389 -0.3716  0.0987  0.0350
 6735SOL    HW231842   2.506   4.523   3.453  0.0556 -0.7975 -2.7406
 6736SOL     OW31843   3.126   4.662   2.874  0.6360 -0.3774 -0.1292
 6736SOL    HW131844   3.198   4.646   2.934  0.0263 -0.6978  0.5208
 6736SOL    HW231845   3.114   0.020   2.872 -0.9603 -0.6470 -3.1581
 6737SOL     OW31846   2.758   0.619   1.810  0.0600  0.4474 -0.0949
 6737SOL    HW131847   2.744   0.659   1.896  2.8187 -0.8245  0.9643
 6737SOL    HW231848   2.726   0.533   1.836  0.8481 -0.3420 -1.8045
 6738SOL     OW31849   3.243   2.516   1.567 -0.0316  0.5085 -0.4666
 6738SOL    HW131850   3.187   2.445   1.538 -1.7321  0.9592  1.6797
 6738SOL    HW231851   3.319   2.465   1.597 -0.2422  1.7717  2.3058
 6739SOL     OW31852   2.144   4.318   3.737  0.1913  0.3128  0.0607
 6739SOL    HW131853   2.233   4.343   3.761 -0.4500  2.1155  0.5604
 6739SOL    HW231854   2.142   4.369   3.656  1.6614  1.2467  0.6176
 6740SOL     OW31855   1.857   2.386   7.914 -0.0454  0.1760 -0.1159
 6740SOL    HW131856   1.900   2.466   7.944 -1.3291  0.1871  1.6409
 6740SOL    HW231857   1.883   2.330   7.987  1.4761  0.3730 -0.4977
 6741SOL     OW31858   2.482   0.923   9.504 -0.4073  0.3839  0.4213
 6741SOL    HW131859   2.442   0.856   9.448 -0.5622 -0.9624  2.1756
 6741SOL    HW231860   2.571   0.895   9.483 -1.2430 -2.3398  0.5118
 6742SOL     OW31861   1.970   0.549   4.226  0.7302  0.7056  0.0822
 6742SOL    HW131862   1.927   0.466   4.247  3.0193 -0.3093  0.8061
 6742SOL    HW231863   1.970   0.540   4.131  0.5708 -1.0752  0.2417
 6743SOL     OW31864   2.615   1.363   6.635 -0.4586 -0.0333 -0.3182
 6743SOL    HW131865   2.541   1.306   6.653  0.3157 -0.3939  1.7246
 6743SOL    HW231866   2.587   1.371   6.544  1.0675 -1.9529 -0.9695
 6744SOL     OW31867   3.065   0.874  16.518  0.4854 -0.4371  0.0419
 6744SOL    HW131868   3.045   0.883  16.611  0.3277  0.9386 -0.1147
 6744SOL    HW231869   3.084   0.965  16.494  0.4731 -0.7507 -1.1724
 6745SOL     OW31870   0.189   3.768   5.564 -0.3886 -0.6862 -0.0002
 6745SOL    HW131871   0.275   3.785   5.525 -1.3941  1.4274 -1.2899
 6745SOL    HW231872   0.212   3.759   5.656  0.3641 -1.3509 -0.2552
 6746SOL     OW31873   4.012   3.997  13.700  0.5321  0.0632  0.1263
 6746SOL    HW131874   4.013   4.085  13.662 -0.4390 -1.2474 -2.9843
 6746SOL    HW231875   3.939   3.957  13.652  1.3773 -0.0081 -1.1091
 6747SOL     OW31876   0.526   4.724  11.015  0.4184 -0.3052  0.3142
 6747SOL    HW131877   0.502   0.077  11.038  0.2875 -0.7875  2.0473
 6747SOL    HW231878   0.600   4.708  11.073  1.6836  0.8652 -0.9771
 6748SOL     OW31879   2.449   0.650   6.826 -0.2732 -0.2174  0.7000
 6748SOL    HW131880   2.416   0.656   6.915 -1.1213  0.9161  0.3047
 6748SOL    HW231881   2.543   0.663   6.831 -0.0931 -0.5119 -1.6221
 6749SOL     OW31882   3.746   0.780   7.951  0.1357  0.1208 -0.3880
 6749SOL    HW131883   3.798   0.856   7.976  0.9322 -0.5310 -0.0568
 6749SOL    HW231884   3.753   0.714   8.020  3.4020  0.2367 -0.5880
 6750SOL     OW31885   0.227   4.509  12.519 -0.5517  0.5059 -0.4621
 6750SOL    HW131886   0.164   4.549  12.460  0.2309  2.0119 -0.2694
 6750SOL    HW231887   0.203   4.555  12.599  0.2273  0.4550 -0.1961
 6751SOL     OW31888   4.353   2.129  12.167 -0.3902 -0.0261  0.3849
 6751SOL    HW131889   4.328   2.126  12.259 -1.0819  0.5875  0.2220
 6751SOL    HW231890   4.418   2.200  12.167  0.8291 -1.1625  0.9811
 6752SOL     OW31891   2.628   1.231   4.746  0.2322  0.0719  0.3442
 6752SOL    HW131892   2.662   1.232   4.835  1.3070  0.1632 -0.0640
 6752SOL    HW231893   2.709   1.200   4.707  0.1620  0.9544 -0.5150
 6753SOL     OW31894   1.145   1.683   9.645 -0.2624  0.1218  0.3594
 6753SOL    HW131895   1.195   1.700   9.725 -0.5895 -0.5186  0.6976
 6753SOL    HW231896   1.121   1.594   9.670 -0.1372  0.1688  0.6445
 6754SOL     OW31897   0.267   3.325  12.293 -0.7881  0.1937 -0.4588
 6754SOL    HW131898   0.290   3.320  12.200  0.2795 -1.4120 -0.1139
 6754SOL    HW231899   0.293   3.416  12.302 -3.2652  0.6741  1.8592
 6755SOL     OW31900   2.461   3.572   2.745  0.4830 -0.0450 -0.3262
 6755SOL    HW131901   2.471   3.483   2.779 -0.2880  0.4279  1.1293
 6755SOL    HW231902   2.551   3.605   2.746  1.9995 -4.0905  0.8668
 6756SOL     OW31903   2.804   0.008   1.169  0.0492  0.4826  0.2320
 6756SOL    HW131904   2.739   0.026   1.236 -0.9345  0.2381 -0.6676
 6756SOL    HW231905   2.780   4.659   1.136 -1.3461  0.6920  0.7047
 6757SOL     OW31906   0.283   3.275   0.253 -0.4659  0.2955 -0.0871
 6757SOL    HW131907   0.299   3.366   0.276  1.3913 -1.0361  3.8079
 6757SOL    HW231908   0.267   3.281   0.158  0.6240  3.2309 -0.0827
 6758SOL     OW31909   1.957   0.490   6.841  0.5426  0.5144  0.0768
 6758SOL    HW131910   1.956   0.528   6.753  1.1306 -0.2296 -0.2477
 6758SOL    HW231911   1.982   0.572   6.885  1.5685  1.0476 -1.4900
 6759SOL     OW31912   2.761   1.431   3.810 -0.4234 -0.2849  0.0770
 6759SOL    HW131913   2.804   1.414   3.726 -0.6291 -0.6803  0.0544
 6759SOL    HW231914   2.834   1.455   3.866 -1.0015  0.7047  0.4271
 6760SOL     OW31915   0.129   2.072   7.433  0.4007 -0.3643  0.2012
 6760SOL    HW131916   0.081   2.067   7.515 -0.1575  1.3946 -0.0112
 6760SOL    HW231917   0.126   2.167   7.422  1.9320 -0.5269 -1.5800
 6761SOL     OW31918   1.788   4.126   8.258  0.1696  1.0827  0.5532
 6761SOL    HW131919   1.800   4.084   8.344 -0.9225 -0.5522 -0.0901
 6761SOL    HW231920   1.693   4.137   8.253 -0.3230 -2.3625  2.1724
 6762SOL     OW31921   0.826   2.904   5.346 -0.5359 -0.2825  0.2600
 6762SOL    HW131922   0.901   2.846   5.331 -0.0301  0.4030  0.1252
 6762SOL    HW231923   0.879   2.963   5.400 -2.0697  0.5509  0.8699
 6763SOL     OW31924   3.313   2.627   4.963 -0.2703  1.1415 -0.1892
 6763SOL    HW131925   3.399   2.588   4.949 -1.0026 -0.6926  0.4118
 6763SOL    HW231926   3.257   2.565   4.916  0.7372 -0.8546  1.2300
 6764SOL     OW31927   1.187   3.844   2.787  0.1257  0.5740  0.0280
 6764SOL    HW131928   1.277   3.816   2.767  0.1416 -1.3003  2.7197
 6764SOL    HW231929   1.153   3.760   2.817  1.9612 -0.9851 -2.2507
 6765SOL     OW31930   2.302   3.920  13.273 -0.1260 -0.7878 -0.3778
 6765SOL    HW131931   2.230   3.961  13.322  0.9428 -0.8591  1.2667
 6765SOL    HW231932   2.347   3.867  13.338  1.8743  2.5911  1.0079
 6766SOL     OW31933   1.781   3.993   9.576  0.4782  0.3741  0.4041
 6766SOL    HW131934   1.858   4.048   9.588  2.2169 -2.0134  0.1755
 6766SOL    HW231935   1.828   3.910   9.570  2.2783  1.3539  1.0468
 6767SOL     OW31936   1.628   2.955   5.264  0.0714  0.1987  0.0906
 6767SOL    HW131937   1.619   2.921   5.354 -1.2462 -0.3096 -0.2327
 6767SOL    HW231938   1.693   2.902   5.219  1.1615  2.4572 -0.9782
 6768SOL     OW31939   0.737   3.917   3.531  0.1755  0.3046 -0.3476
 6768SOL    HW131940   0.673   3.981   3.561  0.1757  0.7694 -1.3450
 6768SOL    HW231941   0.823   3.956   3.549 -0.9520  1.5251  2.3771
 6769SOL     OW31942   2.867   1.557   7.828 -0.1582  0.4767  0.5595
 6769SOL    HW131943   2.838   1.646   7.846  1.3100  0.9090  0.8100
 6769SOL    HW231944   2.859   1.517   7.915 -0.0107 -2.4248 -0.7458
 6770SOL     OW31945   4.268   3.005   3.337  0.9835 -0.3132  0.0428
 6770SOL    HW131946   4.257   2.983   3.430  0.8010 -2.1856 -0.4215
 6770SOL    HW231947   4.363   2.993   3.325  1.4354  2.3261  0.9150
 6771SOL     OW31948   0.854   3.828   2.829  0.5062 -0.1529  0.5460
 6771SOL    HW131949   0.914   3.755   2.813 -0.0361 -0.8981  1.9682
 6771SOL    HW231950   0.803   3.834   2.748  2.8040 -2.4444 -1.0713
 6772SOL     OW31951   2.874   1.558  13.781 -0.8189  0.0608 -0.6575
 6772SOL    HW131952   2.847   1.494  13.714  0.0497 -1.2070  0.2287
 6772SOL    HW231953   2.793   1.571  13.830  1.1001  0.9934  2.2490
 6773SOL     OW31954   3.774   3.581  10.358 -0.0202  0.4011 -0.1078
 6773SOL    HW131955   3.826   3.661  10.354  0.0253  0.3399 -0.7107
 6773SOL    HW231956   3.765   3.562  10.265  0.0876 -0.2238  0.0092
 6774SOL     OW31957   0.246   3.391   5.377  0.2283 -0.3103  0.4135
 6774SOL    HW131958   0.290   3.313   5.345  1.0966 -0.8977  3.0472
 6774SOL    HW231959   0.280   3.466   5.327 -1.7848  0.0151 -0.4825
 6775SOL     OW31960   0.229   4.382   6.772  0.1576 -0.0804 -0.1639
 6775SOL    HW131961   0.321   4.403   6.786  0.0753  0.1883 -0.0181
 6775SOL    HW231962   0.222   4.308   6.833  1.1989  2.4347  2.9976
 6776SOL     OW31963   2.798   4.667   2.548 -0.2964 -0.0049  0.5908
 6776SOL    HW131964   2.715   4.621   2.562 -0.4831  0.0109 -0.4945
 6776SOL    HW231965   2.831   4.625   2.469  1.0691  1.0389  0.6071
 6777SOL     OW31966   1.189   0.266  12.811  0.0041 -0.4034  0.0514
 6777SOL    HW131967   1.100   0.232  12.818 -1.0534  2.1657 -0.5665
 6777SOL    HW231968   1.191   0.320  12.890 -2.0966  1.1122 -0.9275
 6778SOL     OW31969   1.532   1.998   7.597 -0.3229 -0.1347  0.3062
 6778SOL    HW131970   1.584   1.954   7.665  1.4234  0.9903 -0.3134
 6778SOL    HW231971   1.463   1.932   7.593  0.0138 -0.4995  0.4825
 6779SOL     OW31972   1.145   4.556  13.412 -0.0926  0.3466 -0.4333
 6779SOL    HW131973   1.052   4.534  13.407  0.0488 -0.3115 -0.2018
 6779SOL    HW231974   1.169   4.592  13.327  0.3240  0.4375 -0.2747
 6780SOL     OW31975   2.030   3.878   6.271  0.5151  0.1048  0.5472
 6780SOL    HW131976   2.051   3.965   6.307 -1.7207  1.0244 -0.4052
 6780SOL    HW231977   2.035   3.828   6.352  3.1504  2.7709  2.0547
 6781SOL     OW31978   1.348   0.198   0.792 -0.4833  0.0717 -0.2169
 6781SOL    HW131979   1.301   0.270   0.833  2.7560  0.8552  2.1060
 6781SOL    HW231980   1.282   0.130   0.799  0.0874 -0.5833 -1.1238
 6782SOL     OW31981   1.626   0.402   4.445 -0.6984  0.7302  0.0224
 6782SOL    HW131982   1.543   0.429   4.405  0.2776  2.9813 -0.4380
 6782SOL    HW231983   1.676   0.390   4.365 -0.3816 -1.8183  0.6049
 6783SOL     OW31984   4.034   1.856   8.466  0.1287 -0.1133 -0.0022
 6783SOL    HW131985   4.002   1.943   8.444  0.5674 -0.1854 -0.9386
 6783SOL    HW231986   3.981   1.798   8.410 -0.2213 -2.9832  3.3047
 6784SOL     OW31987   2.240   2.811   6.918  0.6201  0.7410  0.3140
 6784SOL    HW131988   2.175   2.769   6.973 -0.2962  0.2393 -1.1501
 6784SOL    HW231989   2.187   2.868   6.862 -1.7736 -2.1018 -0.2888
 6785SOL     OW31990   2.195   2.573   7.525 -0.0955 -0.2445 -0.0012
 6785SOL    HW131991   2.162   2.536   7.606  2.9678 -0.4466  1.1490
 6785SOL    HW231992   2.130   2.642   7.509 -0.8194 -0.4105  2.2858
 6786SOL     OW31993   0.720   2.788   7.766  0.0310  0.2942  0.5122
 6786SOL    HW131994   0.757   2.705   7.796 -0.3883 -0.6642 -1.6882
 6786SOL    HW231995   0.741   2.782   7.673  0.2416 -0.7056  0.6237
 6787SOL     OW31996   3.306   4.107  13.728  0.1708 -0.2162 -0.0109
 6787SOL    HW131997   3.275   4.055  13.654  0.6750  0.6166 -0.7940
 6787SOL    HW231998   3.255   4.188  13.725 -2.1932 -1.7235 -0.6141
 6788SOL     OW31999   1.674   3.289   1.604  0.0033  0.1365 -0.4971
 6788SOL    HW132000   1.732   3.274   1.678  0.1903  3.7340  0.0575
 6788SOL    HW232001   1.730   3.248   1.539 -0.1539 -1.0137  0.0961
 6789SOL     OW32002   0.594   0.197   6.393  0.0916  0.0165  0.5306
 6789SOL    HW132003   0.656   0.166   6.326  0.4987  0.8191  0.5392
 6789SOL    HW232004   0.591   0.117   6.447 -2.1876 -1.5089 -1.9122
 6790SOL     OW32005   0.664   1.844   3.298 -0.3066 -0.3543  0.1375
 6790SOL    HW132006   0.683   1.756   3.265 -0.1668 -0.1345 -0.3682
 6790SOL    HW232007   0.755   1.866   3.318  0.3523 -1.0699 -2.1008
 6791SOL     OW32008   4.693   3.789   3.083  0.1020  0.3681 -0.8279
 6791SOL    HW132009   4.681   3.858   3.019 -2.3790  1.3957  0.7425
 6791SOL    HW232010   0.025   3.734   3.046 -0.4164 -0.1441 -1.0468
 6792SOL     OW32011   3.026   1.343   2.140  0.2609  0.2327  0.2432
 6792SOL    HW132012   3.112   1.304   2.122  0.6301  1.3541 -0.4229
 6792SOL    HW232013   2.967   1.303   2.076  1.3428  3.2650 -2.6618
 6793SOL     OW32014   3.748   2.525   6.745 -0.2537  0.8225  0.1947
 6793SOL    HW132015   3.800   2.525   6.825  2.3248  0.9049 -1.5043
 6793SOL    HW232016   3.685   2.598   6.750 -1.6827 -0.5400  1.9647
 6794SOL     OW32017   2.944   2.148   3.438 -0.2312 -0.0771 -0.0398
 6794SOL    HW132018   2.960   2.233   3.479 -0.4304 -0.3125  0.5188
 6794SOL    HW232019   2.885   2.123   3.508 -0.9752  1.5252 -0.0846
 6795SOL     OW32020   4.001   0.983   5.768  0.2048 -0.3606  0.0415
 6795SOL    HW132021   4.071   0.981   5.833 -1.1422  3.7598  1.6272
 6795SOL    HW232022   3.974   0.891   5.768 -1.5230  0.1404 -0.4816
 6796SOL     OW32023   1.603   3.422   6.761  0.9221  0.0953  0.1304
 6796SOL    HW132024   1.566   3.510   6.770  1.2935  0.2893 -0.2546
 6796SOL    HW232025   1.520   3.378   6.744  1.5783 -1.1851  0.2039
 6797SOL     OW32026   4.553   3.517   3.233  0.4273 -0.7384  0.0129
 6797SOL    HW132027   4.546   3.554   3.145 -0.0268  2.1994  1.2704
 6797SOL    HW232028   4.629   3.460   3.220  0.3979 -0.9184  0.6202
 6798SOL     OW32029   1.845   4.398  15.337 -0.6002 -0.8039 -0.1563
 6798SOL    HW132030   1.928   4.424  15.378 -1.2764 -0.7402  1.1356
 6798SOL    HW232031   1.818   4.335  15.404 -0.7741 -2.1412 -1.4752
 6799SOL     OW32032   0.327   1.860  15.453  0.0324  0.0792 -0.8350
 6799SOL    HW132033   0.263   1.928  15.474  0.4986  0.1041  0.4859
 6799SOL    HW232034   0.272   1.783  15.466  3.3138 -2.0342  0.5991
 6800SOL     OW32035   3.553   1.922   3.512 -0.6044  0.1793 -0.2234
 6800SOL    HW132036   3.568   1.828   3.506 -1.8753 -0.1599  1.8622
 6800SOL    HW232037   3.551   1.938   3.607  0.4553 -0.6843 -0.0585
 6801SOL     OW32038   2.338   4.614   8.060 -0.2363  0.1654  0.3984
 6801SOL    HW132039   2.404   4.606   8.129  0.9721  0.0149 -0.7506
 6801SOL    HW232040   2.329   4.521   8.037 -0.3725 -0.0957  1.5120
 6802SOL     OW32041   4.496   0.467   4.938 -0.2196 -0.0832  0.1172
 6802SOL    HW132042   4.450   0.532   4.991 -0.2440  0.2540 -0.3117
 6802SOL    HW232043   4.458   0.497   4.855  0.8482 -0.5425 -0.5394
 6803SOL     OW32044   1.108   1.293  11.292  0.6092  0.3765  0.2685
 6803SOL    HW132045   1.194   1.277  11.253 -1.1174 -0.8672 -2.9702
 6803SOL    HW232046   1.090   1.200  11.308 -1.5807  0.5222 -1.4099
 6804SOL     OW32047   0.179   3.938   4.114  0.1288  0.4792 -0.0425
 6804SOL    HW132048   0.269   3.932   4.147  0.1071 -1.7684 -0.3521
 6804SOL    HW232049   0.186   3.981   4.029 -0.9178 -2.1025 -1.4279
 6805SOL     OW32050   2.806   2.316   1.806 -0.6986 -0.1171  0.4089
 6805SOL    HW132051   2.733   2.363   1.845 -0.1852  0.7759  0.2717
 6805SOL    HW232052   2.798   2.349   1.716  2.3830  0.2580  0.2838
 6806SOL     OW32053   3.175   2.999   4.871  0.8430  0.4965  0.2880
 6806SOL    HW132054   3.208   3.084   4.900 -1.0377  1.2545  0.2106
 6806SOL    HW232055   3.240   2.966   4.809  1.4270 -0.5645  1.4567
 6807SOL     OW32056   0.045   0.549   4.824  0.5347 -0.2406 -0.2488
 6807SOL    HW132057   4.691   0.529   4.843  0.4242  1.3094  0.8184
 6807SOL    HW232058   0.098   0.562   4.903  0.2571 -2.8662  0.3762
 6808SOL     OW32059   3.300   2.762   6.599  0.1046  0.0331 -0.1891
 6808SOL    HW132060   3.292   2.707   6.521  1.7602  0.2667 -0.5251
 6808SOL    HW232061   3.341   2.696   6.655 -0.2856 -0.0389  0.0140
 6809SOL     OW32062   0.436   3.886   4.145 -0.1833 -0.4693  0.5510
 6809SOL    HW132063   0.526   3.857   4.128 -0.5111 -0.9066 -0.4523
 6809SOL    HW232064   0.430   3.893   4.240 -0.8964 -0.6198  0.5137
 6810SOL     OW32065   4.121   2.820   5.905  0.0881 -0.2971  0.1442
 6810SOL    HW132066   4.172   2.900   5.891  2.2382 -1.4531  1.2804
 6810SOL    HW232067   4.163   2.794   5.987 -1.2466  0.7001  1.1400
 6811SOL     OW32068   1.003   0.660   3.020 -0.2328 -0.1511  0.2584
 6811SOL    HW132069   0.931   0.643   2.959  0.0971 -0.6163 -0.0018
 6811SOL    HW232070   1.071   0.601   2.987 -0.4660  0.2431 -0.9426
 6812SOL     OW32071   3.056   1.611   5.024 -0.4144 -0.1294 -0.6295
 6812SOL    HW132072   3.056   1.515   5.030 -1.0288 -0.1082 -0.3000
 6812SOL    HW232073   2.966   1.631   5.050 -0.4752 -0.8036 -0.2979
 6813SOL     OW32074   4.300   4.676   6.267  0.1277  0.1201 -0.2096
 6813SOL    HW132075   4.337   4.626   6.340  0.2365 -0.6826 -0.8181
 6813SOL    HW232076   4.367   4.677   6.199  0.7707  1.9571  0.4311
 6814SOL     OW32077   0.835   4.667   3.714 -0.5513 -0.0903  0.7492
 6814SOL    HW132078   0.800   4.587   3.674  0.1731 -0.9467  1.8160
 6814SOL    HW232079   0.834   4.641   3.806 -1.5440  0.8009  0.9902
 6815SOL     OW32080   2.026   3.608   7.761 -0.3979 -0.4072 -0.2265
 6815SOL    HW132081   1.962   3.569   7.821 -0.3113  1.9997  1.4435
 6815SOL    HW232082   2.071   3.662   7.826 -0.1495 -0.2176 -0.5592
 6816SOL     OW32083   3.286   1.567   6.042  0.0494  0.4588  0.2993
 6816SOL    HW132084   3.272   1.534   6.131  0.2599  2.1283  0.9632
 6816SOL    HW232085   3.331   1.490   6.007 -2.3795  1.1610 -4.3546
 6817SOL     OW32086   0.630   2.221   6.419 -0.6038 -0.1252 -0.4042
 6817SOL    HW132087   0.578   2.157   6.371 -0.3433 -0.5889 -0.0712
 6817SOL    HW232088   0.577   2.247   6.494  0.2424 -0.5656  0.3469
 6818SOL     OW32089   3.291   3.412   3.103 -0.0215  0.3373  0.2286
 6818SOL    HW132090   3.211   3.376   3.065 -0.1752  0.4728  0.4199
 6818SOL    HW232091   3.313   3.341   3.163 -1.2269 -0.6595 -0.5188
 6819SOL     OW32092   4.238   4.486   3.012  0.1603 -0.0964  0.1470
 6819SOL    HW132093   4.292   4.408   3.026  1.8291  1.4640  2.3264
 6819SOL    HW232094   4.261   4.502   2.920  0.6573  2.2668  0.7033
 6820SOL     OW32095   1.937   2.710   2.456  0.1153  0.0329  0.2871
 6820SOL    HW132096   1.939   2.764   2.377 -0.3253  0.0190  0.2692
 6820SOL    HW232097   2.017   2.732   2.505  0.6258 -0.7528 -0.1917
 6821SOL     OW32098   2.785   4.012   2.763  0.7218  0.1772  0.2494
 6821SOL    HW132099   2.763   4.053   2.846 -1.2662 -1.2750  0.4513
 6821SOL    HW232100   2.730   4.062   2.704 -0.6494 -0.1421  1.2661
 6822SOL     OW32101   3.332   0.495  15.761  0.5089  0.1555 -0.5904
 6822SOL    HW132102   3.390   0.420  15.744  1.0424  0.3653  0.2700
 6822SOL    HW232103   3.246   0.456  15.775  1.0923 -0.6214  0.8622
 6823SOL     OW32104   1.972   2.826   2.213  0.3874 -0.6968  0.0633
 6823SOL    HW132105   2.017   2.897   2.167  0.4403 -2.1453 -2.1539
 6823SOL    HW232106   1.895   2.810   2.158  1.2837 -2.6193 -0.6517
 6824SOL     OW32107   1.796   3.736  17.209  0.6920  0.4197  0.6050
 6824SOL    HW132108   1.762   3.733  17.298  1.4623  0.4059  0.9006
 6824SOL    HW232109   1.783   3.830  17.204 -2.8673 -0.1392 -0.1917
 6825SOL     OW32110   3.132   2.147  15.971 -0.2250 -0.1894  0.3179
 6825SOL    HW132111   3.054   2.192  15.939 -0.3060 -0.1784  0.5307
 6825SOL    HW232112   3.097   2.069  16.012  1.1877 -0.1617  1.5537
 6826SOL     OW32113   1.871   0.576   6.524  0.6281 -0.1566  0.0756
 6826SOL    HW132114   1.803   0.602   6.461  0.2535  0.2612  0.6603
 6826SOL    HW232115   1.897   0.492   6.486 -2.2907 -1.0884  0.1361
 6827SOL     OW32116   3.541   3.226   3.834 -0.1176 -0.0726 -0.2168
 6827SOL    HW132117   3.519   3.319   3.825  0.7542  0.0230 -1.3752
 6827SOL    HW232118   3.584   3.216   3.918  2.1882  0.9495 -1.2672
 6828SOL     OW32119   4.664   1.847  16.078  0.1631 -0.0214 -0.0874
 6828SOL    HW132120   4.683   1.937  16.102 -2.1982 -0.1936  2.4806
 6828SOL    HW232121   4.579   1.859  16.035  0.1802 -0.6531 -0.3054
 6829SOL     OW32122   2.625   2.955  13.491 -0.6055  0.5394  0.0051
 6829SOL    HW132123   2.646   2.995  13.407  0.7721 -0.2313 -0.0298
 6829SOL    HW232124   2.581   3.027  13.536 -0.3339  0.3539  0.5767
 6830SOL     OW32125   2.203   2.600  11.847  0.4937  0.1870  0.0669
 6830SOL    HW132126   2.158   2.518  11.866  1.2319 -0.2982 -0.2804
 6830SOL    HW232127   2.243   2.587  11.762  0.4569  1.6376 -0.1707
 6831SOL     OW32128   3.960   3.167   6.069 -0.5011 -0.7481  0.3591
 6831SOL    HW132129   3.997   3.165   5.981 -0.3887 -0.5588  0.4031
 6831SOL    HW232130   3.910   3.248   6.063  0.5427 -0.3211 -2.4625
 6832SOL     OW32131   2.027   4.257   6.685 -0.2164  0.2451 -0.1425
 6832SOL    HW132132   2.061   4.168   6.683  2.0320  1.0127  3.5074
 6832SOL    HW232133   2.100   4.300   6.729 -1.3120  0.1857  1.7712
 6833SOL     OW32134   2.937   0.210  17.738  0.0784  0.5216 -0.2314
 6833SOL    HW132135   2.882   0.140   0.025  0.7537  0.8719  1.5599
 6833SOL    HW232136   2.889   0.277   0.040 -1.8004  0.1589 -1.5452
 6834SOL     OW32137   3.656   2.660   2.234 -1.2045  0.0329  0.1287
 6834SOL    HW132138   3.736   2.612   2.254  0.0251  1.0872 -2.3538
 6834SOL    HW232139   3.632   2.627   2.148 -1.1847  1.3197 -0.3569
 6835SOL     OW32140   2.886   1.362   7.379 -0.2782  0.4511  0.3904
 6835SOL    HW132141   2.803   1.320   7.358 -0.9672  1.7514  0.4750
 6835SOL    HW232142   2.938   1.282   7.372  1.5027  1.8449 -2.2291
 6836SOL     OW32143   2.823   0.043   6.539 -0.0218 -0.0701  0.0952
 6836SOL    HW132144   2.891   0.085   6.486 -0.9920 -0.1827 -1.2596
 6836SOL    HW232145   2.774   4.723   6.480  1.1068  1.1550 -2.0529
 6837SOL     OW32146   1.581   4.004   9.002 -0.1626  0.6388  0.1457
 6837SOL    HW132147   1.527   4.072   8.961 -0.9179 -0.7318 -1.1126
 6837SOL    HW232148   1.617   3.959   8.925 -0.1856  0.6754  0.1135
 6838SOL     OW32149   0.090   1.334   5.048  0.5082 -0.4985 -0.2254
 6838SOL    HW132150   0.143   1.357   4.972 -0.7561  0.4338 -0.8230
 6838SOL    HW232151   0.004   1.372   5.029 -0.4057 -3.3622 -1.7426
 6839SOL     OW32152   2.187   1.352   3.901 -0.2233 -0.1173  0.0931
 6839SOL    HW132153   2.260   1.290   3.897  0.6861  0.8890  0.9590
 6839SOL    HW232154   2.128   1.321   3.833  0.1271 -3.0987  1.1445
 6840SOL     OW32155   1.678   4.558   4.233 -0.5803  0.2589  0.9106
 6840SOL    HW132156   1.619   4.515   4.294 -0.0773 -3.0822 -0.9451
 6840SOL    HW232157   1.621   4.564   4.156  0.6798  0.7701 -0.0059
 6841SOL     OW32158   3.403   0.361   0.279 -0.2132 -0.3959 -0.2681
 6841SOL    HW132159   3.309   0.376   0.270 -0.0781  0.6158  0.0688
 6841SOL    HW232160   3.443   0.442   0.309  0.7552 -0.6921 -0.7600
 6842SOL     OW32161   3.044   1.879   4.766  1.0092  0.4195 -0.2651
 6842SOL    HW132162   3.076   1.813   4.704 -0.8103  0.3551 -1.1134
 6842SOL    HW232163   3.027   1.953   4.709 -1.7415  1.0985  1.4176
 6843SOL     OW32164   2.938   0.244   5.081  0.1663 -0.1956 -0.1246
 6843SOL    HW132165   2.853   0.217   5.115  0.0911  1.3760  0.9249
 6843SOL    HW232166   2.960   0.314   5.143  0.9319 -0.4761 -0.0796
 6844SOL     OW32167   0.541   0.258   8.200 -0.3371  0.2029  0.0686
 6844SOL    HW132168   0.464   0.282   8.251 -0.3400 -0.5490  0.4171
 6844SOL    HW232169   0.570   0.339   8.158 -1.2900  0.2868 -0.4104
 6845SOL     OW32170   2.258   0.182   7.835 -0.0153  0.6252  0.4026
 6845SOL    HW132171   2.236   0.187   7.928  0.9761 -1.4211  0.7502
 6845SOL    HW232172   2.201   0.109   7.812 -1.0303  1.8272 -0.9096
 6846SOL     OW32173   2.571   3.581   0.266 -0.3915  0.6935 -0.5808
 6846SOL    HW132174   2.567   3.495   0.226  3.0907  0.9892 -1.6416
 6846SOL    HW232175   2.497   3.626   0.224 -2.6289 -1.3077  1.3064
 6847SOL     OW32176   3.238   1.440   6.987  0.5118 -0.0504 -0.3016
 6847SOL    HW132177   3.193   1.515   7.026  1.0499  0.8701 -1.4741
 6847SOL    HW232178   3.195   1.432   6.902  0.0500  1.8701 -0.2396
 6848SOL     OW32179   2.957   2.900   5.956  0.3250 -0.7535 -0.0595
 6848SOL    HW132180   2.999   2.965   5.900  0.6986  0.0520  1.1756
 6848SOL    HW232181   3.042   2.858   5.968 -0.5935 -2.6606 -0.2298
 6849SOL     OW32182   1.605   2.592   8.754 -0.3667 -0.4211  0.0263
 6849SOL    HW132183   1.541   2.659   8.778 -0.3534 -0.9461  1.4841
 6849SOL    HW232184   1.664   2.603   8.829  0.4926  1.1125 -0.8821
 6850SOL     OW32185   3.497   0.412   8.598  0.1879 -0.1344 -0.3397
 6850SOL    HW132186   3.464   0.378   8.515  2.4041  0.2140 -1.3595
 6850SOL    HW232187   3.436   0.374   8.662  0.2881  0.7812  0.3022
 6851SOL     OW32188   4.018   4.360   5.311  0.4472 -0.0084 -0.0466
 6851SOL    HW132189   4.088   4.312   5.356  2.4244  0.2482 -2.8484
 6851SOL    HW232190   4.056   4.365   5.224 -3.1159 -1.4202 -1.7018
 6852SOL     OW32191   2.008   3.709   8.587  0.1993 -0.6148 -0.1452
 6852SOL    HW132192   1.965   3.678   8.667 -2.9097 -2.5709 -2.5143
 6852SOL    HW232193   2.078   3.757   8.630 -1.0002  2.5729 -1.7376
 6853SOL     OW32194   4.015   0.825   7.546 -0.2289 -0.0971 -0.3747
 6853SOL    HW132195   4.055   0.788   7.625  0.6062 -1.7290 -1.5549
 6853SOL    HW232196   4.074   0.899   7.531  2.0193 -1.4824  1.6121
 6854SOL     OW32197   1.064   2.548   4.353  0.2353  0.4450 -0.2490
 6854SOL    HW132198   1.019   2.594   4.282  1.7331  0.3339 -1.2644
 6854SOL    HW232199   0.993   2.515   4.408 -0.1211  1.2017 -0.2512
 6855SOL     OW32200   3.866   4.435   4.243 -0.0795  0.6601  0.2032
 6855SOL    HW132201   3.782   4.479   4.254 -0.0879  0.7662 -0.3131
 6855SOL    HW232202   3.880   4.437   4.149  1.8602 -0.3289  0.4761
 6856SOL     OW32203   3.908   1.846  11.966  0.1557  0.1614 -0.3606
 6856SOL    HW132204   3.956   1.788  11.908 -0.5273 -0.8168  0.0367
 6856SOL    HW232205   3.974   1.883  12.025  1.5842 -0.5140 -1.5716
 6857SOL     OW32206   2.736   1.425   5.719 -0.1227  0.2798  0.9341
 6857SOL    HW132207   2.765   1.514   5.700 -1.9461  0.4855 -0.7817
 6857SOL    HW232208   2.785   1.409   5.800 -1.4449 -2.1861  1.2377
 6858SOL     OW32209   1.760   4.148   5.572 -0.1453 -0.3448  0.0766
 6858SOL    HW132210   1.770   4.102   5.655 -0.8465 -1.3584 -0.3923
 6858SOL    HW232211   1.853   4.165   5.555 -0.8993  1.7635 -1.8884
 6859SOL     OW32212   1.666   3.116   9.284  0.1510  0.6412  0.4279
 6859SOL    HW132213   1.614   3.051   9.236 -0.8085  1.2022  0.7157
 6859SOL    HW232214   1.603   3.187   9.295  1.4846  1.8224  0.4038
 6860SOL     OW32215   2.322   2.972   8.508  0.2279  0.3143  0.3485
 6860SOL    HW132216   2.266   2.964   8.431 -0.5500  3.0590  0.6333
 6860SOL    HW232217   2.402   2.927   8.481  0.1242  0.9507 -0.9980
 6861SOL     OW32218   3.945   4.036   0.846  1.0059  0.2139  0.0052
 6861SOL    HW132219   3.867   4.067   0.800  0.0687  0.0411  1.4589
 6861SOL    HW232220   3.980   4.113   0.890  2.4189 -0.5822  0.2799
 6862SOL     OW32221   4.176   2.918   8.020 -0.0685 -0.1482 -0.0949
 6862SOL    HW132222   4.165   2.824   8.006 -1.3857 -0.4419  2.7833
 6862SOL    HW232223   4.141   2.926   8.109 -0.2334  0.0461 -0.1792
 6863SOL     OW32224   4.525   2.807  16.318 -0.2101  0.4677  0.2132
 6863SOL    HW132225   4.541   2.721  16.279 -0.7892  0.7823 -0.7321
 6863SOL    HW232226   4.432   2.826  16.300  0.2246  2.1675 -0.2629
 6864SOL     OW32227   1.716   2.022   7.295  0.1459 -0.2333  0.4956
 6864SOL    HW132228   1.699   2.018   7.389  0.4130  1.0124  0.5944
 6864SOL    HW232229   1.683   1.936   7.269  0.3733 -0.2196  0.1604
 6865SOL     OW32230   0.840   2.637   3.914  0.0101 -0.1516 -0.4216
 6865SOL    HW132231   0.812   2.547   3.899 -2.4393  0.3706  0.9776
 6865SOL    HW232232   0.779   2.700   3.874  0.1101  1.1734  1.5060
 6866SOL     OW32233   4.152   4.502   1.373  0.5481  0.3302 -0.2399
 6866SOL    HW132234   4.121   4.414   1.349 -0.1143  0.3469  0.5607
 6866SOL    HW232235   4.067   4.543   1.388  1.3128  1.6546  0.4356
 6867SOL     OW32236   1.299   0.701  14.172 -0.2713  0.5780 -0.4568
 6867SOL    HW132237   1.265   0.786  14.146 -2.2510 -0.0917 -0.0563
 6867SOL    HW232238   1.379   0.731  14.216 -0.4184 -1.3059  1.0984
 6868SOL     OW32239   1.799   4.533   1.893 -0.3302 -0.2096 -0.1586
 6868SOL    HW132240   1.873   4.590   1.913 -1.6623  1.7106 -0.7853
 6868SOL    HW232241   1.742   4.593   1.845  1.1370  0.7075 -0.7542
 6869SOL     OW32242   3.225   1.998  16.825  1.0508 -0.1846 -0.3716
 6869SOL    HW132243   3.254   1.939  16.895  1.5006 -1.4771 -1.6384
 6869SOL    HW232244   3.200   2.080  16.867 -0.8803 -0.9985  0.0565
 6870SOL     OW32245   0.519   1.225   5.137  0.3201  0.2662  0.3522
 6870SOL    HW132246   0.530   1.315   5.106 -1.9416  0.0639 -1.0420
 6870SOL    HW232247   0.595   1.186   5.095  0.2217  0.7924 -0.3240
 6871SOL     OW32248   0.449   2.448   8.500  0.1782  0.5289 -0.1280
 6871SOL    HW132249   0.421   2.457   8.591  1.3644 -1.0075  0.3927
 6871SOL    HW232250   0.381   2.401   8.452  0.2283  0.6699 -0.3371
 6872SOL     OW32251   2.399   2.974   1.675  0.0500  0.1094 -0.5482
 6872SOL    HW132252   2.492   2.973   1.655  0.1496  0.2723 -0.0851
 6872SOL    HW232253   2.370   3.019   1.595 -0.1738 -1.1796 -1.2065
 6873SOL     OW32254   2.275   0.924   5.947 -0.0882 -0.4170  0.4404
 6873SOL    HW132255   2.195   0.967   5.978 -0.4179 -0.9750  0.3668
 6873SOL    HW232256   2.334   0.948   6.019  1.4362  1.8818 -1.5836
 6874SOL     OW32257   2.959   3.287  15.042 -0.1826  0.3210 -0.7148
 6874SOL    HW132258   2.980   3.250  14.956 -2.4027  1.3803 -1.6777
 6874SOL    HW232259   2.971   3.206  15.092  1.1542 -0.9903 -3.1546
 6875SOL     OW32260   3.390   1.169   6.207  1.2386  0.6981  0.7621
 6875SOL    HW132261   3.297   1.185   6.220  0.5396  0.7622 -4.2233
 6875SOL    HW232262   3.429   1.208   6.285 -2.2072  1.5819  2.0422
 6876SOL     OW32263   2.081   0.339   8.579  0.9504 -0.0861  0.7855
 6876SOL    HW132264   2.173   0.312   8.586  0.4267 -1.9232  0.5352
 6876SOL    HW232265   2.061   0.380   8.663  0.0993 -0.5839  0.8159
 6877SOL     OW32266   2.611   4.330  14.732 -0.0525  0.3872  0.0398
 6877SOL    HW132267   2.573   4.242  14.735  1.3903 -0.2479 -0.3383
 6877SOL    HW232268   2.636   4.339  14.824 -3.7307  0.5334  1.0603
 6878SOL     OW32269   0.844   3.424  14.192  0.3574  0.0742  1.0598
 6878SOL    HW132270   0.811   3.344  14.151  1.7593 -0.5525  1.1730
 6878SOL    HW232271   0.922   3.387  14.232 -0.9919 -1.5883  2.1418
 6879SOL     OW32272   4.139   2.787   2.494 -0.0872  0.4910  0.0336
 6879SOL    HW132273   4.104   2.872   2.467  1.9883  1.8092  1.4863
 6879SOL    HW232274   4.199   2.772   2.422 -0.1268  0.3235  0.0350
 6880SOL     OW32275   1.216   0.733   8.206  0.3416 -0.2768  0.2792
 6880SOL    HW132276   1.190   0.728   8.113  0.3607  0.6184  0.2293
 6880SOL    HW232277   1.307   0.763   8.203  0.3766 -0.4154 -0.1653
 6881SOL     OW32278   2.178   4.160  11.158  0.4896  0.0179  0.1145
 6881SOL    HW132279   2.247   4.118  11.106 -1.1470 -0.0310 -2.0054
 6881SOL    HW232280   2.211   4.250  11.153  1.2350 -0.2049  1.1131
 6882SOL     OW32281   4.378   3.198   6.137  0.3724  0.2015 -0.0403
 6882SOL    HW132282   4.330   3.191   6.054  0.2707  0.6628 -0.0165
 6882SOL    HW232283   4.445   3.130   6.129 -0.5952 -0.7132 -0.3992
 6883SOL     OW32284   2.655   2.065  16.497 -0.5898 -0.2747 -0.5713
 6883SOL    HW132285   2.656   2.138  16.435 -1.2318  0.6872  0.5545
 6883SOL    HW232286   2.656   1.990  16.438 -1.1206 -0.6121 -0.1457
 6884SOL     OW32287   2.080   3.750   7.431  0.3736  0.2177  0.7339
 6884SOL    HW132288   2.115   3.836   7.407  0.8297 -0.6131 -1.5926
 6884SOL    HW232289   2.137   3.727   7.504  2.1222 -0.8086 -0.9626
 6885SOL     OW32290   0.763   3.635   7.394  0.2444  0.0128  0.3582
 6885SOL    HW132291   0.806   3.555   7.425  1.2531 -0.0853 -1.2803
 6885SOL    HW232292   0.816   3.658   7.317 -0.7540 -0.6761 -0.5438
 6886SOL     OW32293   0.802   3.470   4.064 -0.1254  0.1946  0.5295
 6886SOL    HW132294   0.844   3.511   4.140  3.1122 -1.6429 -0.2627
 6886SOL    HW232295   0.883   3.431   4.032 -0.7795 -1.6199  1.0405
 6887SOL     OW32296   3.705   2.072   3.338 -0.8229  0.4811 -0.1571
 6887SOL    HW132297   3.733   2.111   3.420 -1.4304  0.9685 -0.1847
 6887SOL    HW232298   3.620   2.034   3.362  0.6778 -2.4149  0.6375
 6888SOL     OW32299   4.584   1.474   5.075 -0.1125 -0.0191 -0.0375
 6888SOL    HW132300   4.572   1.549   5.017  2.3813 -0.6765 -1.3792
 6888SOL    HW232301   4.496   1.468   5.114 -0.1516  0.6438 -0.0222
 6889SOL     OW32302   1.937   1.540   4.381  0.2441 -0.2301  0.8335
 6889SOL    HW132303   2.029   1.540   4.356 -0.4374  1.3778 -1.7761
 6889SOL    HW232304   1.915   1.447   4.376  0.1839 -0.0260 -2.5734
 6890SOL     OW32305   3.678   0.240   6.622  0.3971  0.6412  0.9165
 6890SOL    HW132306   3.749   0.229   6.559 -0.3737  0.2605  0.1152
 6890SOL    HW232307   3.724   0.295   6.686  2.7063 -0.5634  0.2770
 6891SOL     OW32308   0.228   2.115   5.060  0.1276  0.0868 -0.2685
 6891SOL    HW132309   0.285   2.067   5.119  0.8345  0.5718 -0.5604
 6891SOL    HW232310   0.188   2.184   5.113 -1.8012 -1.5488  0.4379
 6892SOL     OW32311   4.552   4.185   8.825  0.1290 -0.6474 -0.0244
 6892SOL    HW132312   4.512   4.217   8.907  1.0232 -1.4127  0.7063
 6892SOL    HW232313   4.541   4.258   8.765  2.3699 -0.3111 -0.0226
 6893SOL     OW32314   4.649   4.656   5.439  0.3999 -0.4017 -0.0226
 6893SOL    HW132315   4.692   4.648   5.354 -1.7370  0.2973 -1.1603
 6893SOL    HW232316   4.592   4.732   5.425  0.6815 -0.3949 -1.1605
 6894SOL     OW32317   2.031   1.164   5.835 -0.0742  0.2519 -0.5767
 6894SOL    HW132318   1.969   1.092   5.830  0.3471 -0.0611 -1.1916
 6894SOL    HW232319   2.006   1.212   5.914  2.5756  1.7582 -0.6559
 6895SOL     OW32320   3.598   1.210   9.843 -0.6509 -0.9569  0.5225
 6895SOL    HW132321   3.670   1.154   9.870  0.8314 -0.7013 -2.8480
 6895SOL    HW232322   3.585   1.167   9.758 -0.5639  1.5969 -0.7938
 6896SOL     OW32323   1.271   2.861   2.293 -0.5753  0.5696 -0.0692
 6896SOL    HW132324   1.279   2.956   2.287 -0.5495  0.6812  1.6937
 6896SOL    HW232325   1.356   2.840   2.255 -0.2553  3.5479 -1.0108
 6897SOL     OW32326   0.722   3.154  15.169  0.4652 -0.4642  0.0559
 6897SOL    HW132327   0.770   3.163  15.251 -1.6556  0.7332  1.1703
 6897SOL    HW232328   0.759   3.067  15.152  2.4278  0.4829 -0.4842
 6898SOL     OW32329   2.199   3.530   2.301 -0.2203  0.4896 -0.8921
 6898SOL    HW132330   2.273   3.477   2.331 -0.9895 -0.4646 -0.6713
 6898SOL    HW232331   2.130   3.464   2.300  0.5435 -0.3485  1.7923
 6899SOL     OW32332   1.352   2.102   1.609  0.2126  0.1487  0.7254
 6899SOL    HW132333   1.438   2.135   1.635 -0.7082  3.0125  0.1769
 6899SOL    HW232334   1.329   2.047   1.684  0.5298 -1.5057 -0.4080
 6900SOL     OW32335   1.717   2.297   7.298 -0.9177 -0.2444  0.6167
 6900SOL    HW132336   1.628   2.311   7.331 -1.4813 -0.9341 -0.6155
 6900SOL    HW232337   1.720   2.201   7.295  2.8508 -0.1645  1.8456
 6901SOL     OW32338   3.756   4.713   6.735  0.1062 -0.2230 -0.3405
 6901SOL    HW132339   3.731   0.060   6.697 -3.0674 -0.7577  0.5796
 6901SOL    HW232340   3.681   4.686   6.788  0.1062  0.6611  0.0981
 6902SOL     OW32341   1.991   2.250   8.107 -0.2177  0.2467  0.6126
 6902SOL    HW132342   1.972   2.289   8.193 -1.9786  2.1593 -0.6373
 6902SOL    HW232343   2.068   2.197   8.125 -0.0177  0.5400  0.6239
 6903SOL     OW32344   2.956   3.822  11.544  0.0095 -0.6400 -0.1953
 6903SOL    HW132345   2.966   3.766  11.621  0.8090  1.8845  1.5276
 6903SOL    HW232346   2.920   3.897  11.591  3.4874 -0.0933  1.6426
 6904SOL     OW32347   2.112   2.443   4.726  0.7051 -0.2829 -0.4685
 6904SOL    HW132348   2.061   2.516   4.759  2.4074  1.0400 -0.7962
 6904SOL    HW232349   2.076   2.440   4.637 -0.0027 -0.2817 -0.1839
 6905SOL     OW32350   0.646   3.847   8.376 -0.2042  0.5585 -0.1066
 6905SOL    HW132351   0.727   3.856   8.326  1.3780 -1.7825  2.0804
 6905SOL    HW232352   0.582   3.834   8.305  2.1916 -0.1295 -2.1510
 6906SOL     OW32353   2.122   3.547  12.629 -0.0059 -0.3046 -0.0255
 6906SOL    HW132354   2.160   3.483  12.569 -0.7579 -0.8544  0.0929
 6906SOL    HW232355   2.189   3.615  12.630  0.5855 -0.8584 -1.4811
 6907SOL     OW32356   1.929   0.368   7.941 -0.0744 -0.7483  0.2052
 6907SOL    HW132357   1.841   0.390   7.910  0.8434 -0.0978 -1.9501
 6907SOL    HW232358   1.906   0.333   8.027 -0.0079  0.4516  0.7059
 6908SOL     OW32359   0.264   3.339  13.808 -0.3042  0.1545  0.8119
 6908SOL    HW132360   0.324   3.395  13.857  0.8132 -1.4724  1.3241
 6908SOL    HW232361   0.217   3.404  13.756  1.3429  1.5202  1.0391
 6909SOL     OW32362   2.340   2.092   8.724  0.0370  0.4354  0.1920
 6909SOL    HW132363   2.382   2.044   8.653  1.7126 -0.0535  1.5317
 6909SOL    HW232364   2.414   2.139   8.762  1.6777 -2.2346  0.3072
 6910SOL     OW32365   3.429   1.869   8.748  0.2289 -0.0854  1.0298
 6910SOL    HW132366   3.469   1.893   8.832  2.6540  1.7439 -0.6528
 6910SOL    HW232367   3.338   1.893   8.762 -0.2699 -1.0518 -0.6177
 6911SOL     OW32368   1.317   3.095   8.485 -0.2382 -0.0957  0.0552
 6911SOL    HW132369   1.277   3.175   8.451 -0.4256  1.0212  2.8988
 6911SOL    HW232370   1.363   3.068   8.405 -0.5979  1.2724 -0.6145
 6912SOL     OW32371   1.271   2.079   0.964 -0.0943  0.6369  0.1128
 6912SOL    HW132372   1.299   2.161   0.922 -0.4338  0.0218 -1.3065
 6912SOL    HW232373   1.178   2.090   0.982 -0.1319 -1.2706  1.0662
 6913SOL     OW32374   3.008   2.316   1.148  0.5777 -0.0369 -0.2828
 6913SOL    HW132375   3.075   2.370   1.107 -1.0553  1.7626 -0.5916
 6913SOL    HW232376   3.063   2.246   1.183  0.1242 -0.3023 -0.1031
 6914SOL     OW32377   0.233   2.601  16.944  0.2778 -0.3927 -0.4152
 6914SOL    HW132378   0.313   2.549  16.938  0.4098 -0.1249 -0.8858
 6914SOL    HW232379   0.159   2.540  16.940 -0.8237  0.7399  2.7370
 6915SOL     OW32380   1.241   0.834   4.401 -0.0968  0.0745 -0.3445
 6915SOL    HW132381   1.326   0.879   4.396 -0.4750  0.7194 -0.9176
 6915SOL    HW232382   1.245   0.755   4.347 -1.2410 -0.7098  0.7052
 6916SOL     OW32383   2.363   2.513   8.433  0.1618 -0.0530 -0.0195
 6916SOL    HW132384   2.341   2.494   8.524  0.5444  0.3266  0.1557
 6916SOL    HW232385   2.428   2.580   8.456 -0.1157  0.5189 -0.9029
 6917SOL     OW32386   0.410   1.864  10.569  0.3003 -0.0483 -0.8389
 6917SOL    HW132387   0.423   1.779  10.612  0.1922  0.1965 -0.3365
 6917SOL    HW232388   0.484   1.912  10.606 -0.4586 -0.8498  1.7291
 6918SOL     OW32389   2.962   3.559  11.188 -0.1106  0.4627 -0.1624
 6918SOL    HW132390   2.976   3.646  11.227 -0.3529 -0.7933  2.7655
 6918SOL    HW232391   2.871   3.572  11.162 -0.6679  0.3484  1.6936
 6919SOL     OW32392   3.949   3.371   2.714 -0.1515 -0.3559 -0.7811
 6919SOL    HW132393   4.016   3.394   2.778 -0.6414  0.2190 -0.4701
 6919SOL    HW232394   3.883   3.439   2.723  2.4051  2.2048 -1.5434
 6920SOL     OW32395   3.974   0.442   4.047  0.1179  0.2521 -0.2238
 6920SOL    HW132396   4.004   0.480   4.130  1.5770 -0.9574 -0.2036
 6920SOL    HW232397   3.979   0.347   4.053 -2.0477  0.1101 -0.5013
 6921SOL     OW32398   1.945   0.424   8.364  0.5797  0.2652  0.1031
 6921SOL    HW132399   1.912   0.507   8.397  1.6898  1.0302 -0.7308
 6921SOL    HW232400   1.997   0.388   8.435 -1.0986 -0.2983  1.0522
 6922SOL     OW32401   4.383   4.515   0.361 -0.0568 -0.5535 -0.3788
 6922SOL    HW132402   4.427   4.454   0.303  2.8656 -0.9209  2.2409
 6922SOL    HW232403   4.393   4.467   0.443 -0.0399 -1.5715 -0.9791
 6923SOL     OW32404   4.294   0.301   8.034 -0.0691 -0.5903 -0.6979
 6923SOL    HW132405   4.351   0.283   8.108 -1.6480  0.1810  0.6988
 6923SOL    HW232406   4.219   0.242   8.037 -1.6910  1.4022 -1.5691
 6924SOL     OW32407   3.302   0.414   5.686  0.0457  0.1986 -0.2695
 6924SOL    HW132408   3.326   0.328   5.721  0.3171  0.1032 -0.6923
 6924SOL    HW232409   3.271   0.385   5.600  2.3208  0.8837 -1.3374
 6925SOL     OW32410   2.734   2.081   1.155 -0.6333  0.0141 -0.0860
 6925SOL    HW132411   2.789   2.083   1.233 -0.3918 -2.1548 -0.1995
 6925SOL    HW232412   2.794   2.103   1.084  0.2142  0.7391  0.8473
 6926SOL     OW32413   2.734   2.727   2.728 -0.0674  0.5405  0.1306
 6926SOL    HW132414   2.667   2.758   2.790  0.4804 -0.9217  1.4554
 6926SOL    HW232415   2.795   2.799   2.748  1.4920 -0.5112 -0.8716
 6927SOL     OW32416   1.854   3.039  15.676  0.2121  0.2153  0.4293
 6927SOL    HW132417   1.889   3.125  15.655 -1.0944  0.4374 -0.8218
 6927SOL    HW232418   1.933   2.992  15.704 -1.6936 -2.7524  0.8908
 6928SOL     OW32419   1.149   0.955  14.135 -0.2487  0.4886 -0.2242
 6928SOL    HW132420   1.066   0.979  14.175 -1.0452 -1.8205 -0.4866
 6928SOL    HW232421   1.119   0.953  14.045 -0.4103 -2.5746 -0.0832
 6929SOL     OW32422   1.538   0.703   6.015 -0.0461 -0.3130 -0.3570
 6929SOL    HW132423   1.541   0.615   6.053 -3.6106  0.2516  1.1475
 6929SOL    HW232424   1.456   0.713   5.968 -0.4362 -0.2588  0.3393
 6930SOL     OW32425   3.285   0.942   9.565 -0.1116 -0.3120 -0.8659
 6930SOL    HW132426   3.261   1.014   9.624 -2.0751  0.0785 -2.1278
 6930SOL    HW232427   3.203   0.893   9.553 -0.7656  0.5180  0.1523
 6931SOL     OW32428   0.743   3.903  10.766 -0.5660 -0.1063  0.4690
 6931SOL    HW132429   0.685   3.898  10.842  2.3780  1.0183  2.7813
 6931SOL    HW232430   0.687   3.884  10.691 -0.0365  0.0622  0.0340
 6932SOL     OW32431   3.173   1.712   9.031  0.3435 -0.5937 -0.2061
 6932SOL    HW132432   3.266   1.732   9.019  0.0265  0.1157 -1.4474
 6932SOL    HW232433   3.144   1.715   8.940 -1.2706  2.6110  0.4380
 6933SOL     OW32434   3.913   0.388   2.118  0.2107  0.8442  0.1876
 6933SOL    HW132435   3.990   0.444   2.119  2.1685 -1.8265 -1.2122
 6933SOL    HW232436   3.854   0.417   2.187 -2.0710 -0.6719 -1.1137
 6934SOL     OW32437   2.952   4.198   5.598 -0.0427 -0.0434  0.3126
 6934SOL    HW132438   2.874   4.252   5.596 -1.0661 -1.5210  0.6717
 6934SOL    HW232439   3.014   4.271   5.607  1.7409 -1.2288 -2.6537
 6935SOL     OW32440   2.693   3.148  11.023 -0.4829 -0.4305 -0.3831
 6935SOL    HW132441   2.718   3.072  10.970 -0.2355  0.0448 -0.9524
 6935SOL    HW232442   2.764   3.210  11.007  0.4574 -2.2129 -3.1231
 6936SOL     OW32443   4.312   1.595   3.975  0.1874 -0.0346  0.2625
 6936SOL    HW132444   4.264   1.526   3.928  0.3603  0.2141 -0.2786
 6936SOL    HW232445   4.342   1.546   4.051  0.8000 -0.6970 -0.4042
 6937SOL     OW32446   3.297   4.237   7.554  0.4980 -0.3888  0.1883
 6937SOL    HW132447   3.329   4.327   7.543 -0.3661 -0.2536 -1.1569
 6937SOL    HW232448   3.264   4.221   7.466  0.4289 -1.0807  0.3434
 6938SOL     OW32449   0.016   4.430  14.492  0.0370 -0.2393  0.0251
 6938SOL    HW132450   0.058   4.372  14.429  1.0872 -0.3823  0.8759
 6938SOL    HW232451   4.687   4.374  14.535 -0.1615  1.5721  2.0675
 6939SOL     OW32452   1.423   1.412   8.065 -0.0956  0.4748 -0.3927
 6939SOL    HW132453   1.491   1.387   8.128  0.1160  0.8386 -0.4747
 6939SOL    HW232454   1.412   1.330   8.019 -0.0967 -1.6329  3.3436
 6940SOL     OW32455   1.619   4.701  16.939  0.2295  1.0756  0.4566
 6940SOL    HW132456   1.572   4.618  16.941 -0.1220  1.2250 -2.6369
 6940SOL    HW232457   1.686   4.685  17.006 -0.7565 -2.4599  0.5956
 6941SOL     OW32458   0.223   2.854   1.447 -0.1845 -0.6318 -0.1234
 6941SOL    HW132459   0.218   2.882   1.355  1.5104 -0.2931 -0.1200
 6941SOL    HW232460   0.196   2.763   1.434  4.0007 -1.9656  0.5092
 6942SOL     OW32461   3.566   3.757   3.548 -0.4410  0.3059 -0.4419
 6942SOL    HW132462   3.623   3.751   3.625 -0.8112  1.5556 -0.0678
 6942SOL    HW232463   3.483   3.775   3.592  0.4875  1.6793  0.7746
 6943SOL     OW32464   1.887   4.435   3.855  0.4622 -0.5765  0.1795
 6943SOL    HW132465   1.913   4.518   3.895  0.0668  0.3887 -1.6011
 6943SOL    HW232466   1.969   4.404   3.816  0.0186 -0.7532 -0.5955
 6944SOL     OW32467   0.133   0.645  10.032 -0.4759 -0.3815  0.0856
 6944SOL    HW132468   0.131   0.572  10.094  0.6168 -0.4589  0.0239
 6944SOL    HW232469   0.224   0.638  10.005 -0.8932 -1.2929 -1.0671
 6945SOL     OW32470   1.259   4.118   7.853  0.4788 -0.2318 -0.1263
 6945SOL    HW132471   1.313   4.044   7.826  0.7004  0.1164 -0.6519
 6945SOL    HW232472   1.252   4.171   7.773  0.5768  0.7432  0.5141
 6946SOL     OW32473   0.444   1.644   7.394  0.0679  0.7188  0.6051
 6946SOL    HW132474   0.526   1.684   7.367 -0.5581  1.0611 -0.8141
 6946SOL    HW232475   0.388   1.666   7.319 -0.0481  1.3202  0.8701
 6947SOL     OW32476   4.059   4.094   1.772 -0.0706  0.0995  0.6546
 6947SOL    HW132477   4.041   4.174   1.723 -0.3741 -0.4534 -0.1645
 6947SOL    HW232478   4.049   4.023   1.707 -1.0997  0.2095  0.6800
 6948SOL     OW32479   3.361   4.267   8.297  0.0614  0.8155 -0.4837
 6948SOL    HW132480   3.407   4.317   8.364 -0.3369  0.5992 -0.0453
 6948SOL    HW232481   3.392   4.180   8.321  0.3602  0.9446 -0.4013
 6949SOL     OW32482   2.747   3.637   2.266 -0.9223 -0.5810 -0.0069
 6949SOL    HW132483   2.687   3.697   2.311 -0.7987  0.7761 -1.6438
 6949SOL    HW232484   2.759   3.558   2.319 -1.8226  0.1705  1.3147
 6950SOL     OW32485   1.707   1.662   3.028 -0.2981  0.1206  0.1233
 6950SOL    HW132486   1.720   1.691   2.937 -0.5370 -0.5362 -0.1200
 6950SOL    HW232487   1.763   1.720   3.080 -1.0667  0.4100  0.6340
 6951SOL     OW32488   1.357   1.558   7.838  0.0355  0.0533  0.3142
 6951SOL    HW132489   1.362   1.511   7.921  0.5842 -1.7538 -0.7590
 6951SOL    HW232490   1.451   1.561   7.819 -0.4819 -1.7381 -2.5000
 6952SOL     OW32491   1.226   1.230  15.776 -0.4433 -0.3401 -0.0273
 6952SOL    HW132492   1.257   1.312  15.816 -0.4861 -0.2268 -0.2245
 6952SOL    HW232493   1.313   1.191  15.763  0.6498  1.6668  1.1722
 6953SOL     OW32494   0.532   2.023   7.279  0.5068  0.0068 -0.1088
 6953SOL    HW132495   0.624   2.005   7.297  0.2647 -0.9817  0.1459
 6953SOL    HW232496   0.544   2.085   7.207 -2.2413  0.8066  0.1045
 6954SOL     OW32497   0.085   3.404   6.132  0.1026 -0.0468  0.3681
 6954SOL    HW132498   0.168   3.356   6.135 -0.0310 -0.2566  0.6757
 6954SOL    HW232499   0.042   3.359   6.204  0.1640  1.3679  1.2838
 6955SOL     OW32500   0.437   1.254  13.651  0.2574  0.2829 -0.6829
 6955SOL    HW132501   0.490   1.324  13.690 -2.3258  0.4016  2.6156
 6955SOL    HW232502   0.476   1.234  13.566 -0.7647 -1.5714 -0.6947
 6956SOL     OW32503   0.600   2.896   2.052  0.3745 -0.4669 -0.0107
 6956SOL    HW132504   0.551   2.969   2.015  1.0859  0.6205  1.2117
 6956SOL    HW232505   0.576   2.902   2.145 -1.6997 -0.9514 -0.5127
 6957SOL     OW32506   0.468   1.965   8.372  0.0694  0.3508  0.2686
 6957SOL    HW132507   0.517   1.971   8.290  0.7658 -2.1476  0.5226
 6957SOL    HW232508   0.527   1.905   8.417  0.3682  0.6460  0.2704
 6958SOL     OW32509   3.643   2.028   2.549 -0.7193 -0.3909 -0.2909
 6958SOL    HW132510   3.571   2.081   2.584  0.4734  0.8965  0.2354
 6958SOL    HW232511   3.686   2.089   2.490  0.4438  1.0910  2.0506
 6959SOL     OW32512   2.302   2.772   4.811  0.3616  0.0218  0.5616
 6959SOL    HW132513   2.358   2.708   4.854  0.5355 -0.4401 -0.3582
 6959SOL    HW232514   2.218   2.741   4.846 -0.8069 -0.5884 -2.6867
 6960SOL     OW32515   1.739   0.049   5.360 -0.3233  0.4911  0.4882
 6960SOL    HW132516   1.831   0.043   5.383  0.5029  2.3028 -2.4378
 6960SOL    HW232517   1.737   0.037   5.265 -0.3512  1.2800  0.3913
 6961SOL     OW32518   2.252   1.086  11.440  0.0372  0.4645 -0.2100
 6961SOL    HW132519   2.186   1.046  11.384  2.3857 -0.4393 -2.3089
 6961SOL    HW232520   2.194   1.085  11.517 -0.5582  2.4251 -0.6279
 6962SOL     OW32521   0.712   1.743  10.265 -0.7482  0.0875  0.1567
 6962SOL    HW132522   0.736   1.786  10.183 -2.8791  0.2063 -0.3891
 6962SOL    HW232523   0.635   1.798  10.277  0.0448  0.6502  2.5941
 6963SOL     OW32524   2.552   2.096  13.164 -0.2398 -0.3924  0.6908
 6963SOL    HW132525   2.585   2.125  13.249 -1.1671  2.4126  0.1123
 6963SOL    HW232526   2.523   2.180  13.129  1.1339 -0.3467 -0.3018
 6964SOL     OW32527   0.726   3.660   3.616 -0.3574  0.6911  0.0697
 6964SOL    HW132528   0.634   3.635   3.611 -0.4787  1.0468  0.6748
 6964SOL    HW232529   0.722   3.753   3.593 -1.9128  1.0920  2.0140
 6965SOL     OW32530   0.094   4.378   7.249  0.2715 -0.1979 -0.0138
 6965SOL    HW132531   0.066   4.450   7.193 -0.6661  0.3781  1.2102
 6965SOL    HW232532   0.028   4.316   7.217  0.2206 -0.2093  0.1131
 6966SOL     OW32533   4.033   4.523  15.541 -0.6902  0.2764 -0.0524
 6966SOL    HW132534   4.047   4.449  15.600  0.0468  0.4446 -0.0227
 6966SOL    HW232535   4.111   4.578  15.540 -1.6500  1.6379 -0.4227
 6967SOL     OW32536   1.165   2.259   6.830 -0.6505 -0.2910  0.8500
 6967SOL    HW132537   1.240   2.255   6.890 -0.6196 -1.6329  0.7240
 6967SOL    HW232538   1.129   2.171   6.831  1.2498 -1.0629  2.1669
 6968SOL     OW32539   0.440   4.011   8.421 -0.4310  0.4028 -0.3241
 6968SOL    HW132540   0.489   3.965   8.489  0.1905 -0.4345 -1.3499
 6968SOL    HW232541   0.514   4.054   8.379  1.6511 -2.1711  0.7386
 6969SOL     OW32542   4.259   0.965   6.332  0.2398  0.5049 -0.1262
 6969SOL    HW132543   4.233   0.897   6.270  1.6717  0.0480 -0.2383
 6969SOL    HW232544   4.355   0.965   6.332  0.2443 -0.7563  1.5132
 6970SOL     OW32545   4.624   4.102  13.893 -0.1186 -0.2646  0.4622
 6970SOL    HW132546   4.631   4.160  13.817 -0.5065 -0.1991  0.4761
 6970SOL    HW232547   4.557   4.146  13.944 -0.3287  0.4284 -0.4000
 6971SOL     OW32548   2.316   1.537   5.899  0.2358  0.3172  0.3296
 6971SOL    HW132549   2.261   1.576   5.831 -0.8005 -1.2832  0.2582
 6971SOL    HW232550   2.358   1.612   5.941 -0.4141  1.0219 -0.2858
 6972SOL     OW32551   1.430   1.234   9.408 -0.4336  0.6899  0.3516
 6972SOL    HW132552   1.403   1.254   9.498 -0.2470  0.3889  0.4752
 6972SOL    HW232553   1.510   1.286   9.402 -0.7854  1.0441 -1.2365
 6973SOL     OW32554   0.782   0.924  10.395  0.1943  0.1993 -0.9697
 6973SOL    HW132555   0.847   0.973  10.445  0.6186 -0.0969 -1.2278
 6973SOL    HW232556   0.746   0.973  10.321  1.9482  1.1186 -1.1977
 6974SOL     OW32557   1.246   1.230   9.670  0.2240 -0.3984  0.0383
 6974SOL    HW132558   1.243   1.186   9.755  0.3485  1.0383  0.8041
 6974SOL    HW232559   1.196   1.167   9.619 -1.0222  0.6399 -0.0522
 6975SOL     OW32560   2.040   1.028   7.413  0.1835  0.5102  0.3325
 6975SOL    HW132561   2.088   0.961   7.461  1.8228  1.1877 -0.3528
 6975SOL    HW232562   2.081   1.011   7.328 -2.2397  0.9783 -0.9192
 6976SOL     OW32563   0.327   2.839  16.759 -0.4129 -0.5394  0.0510
 6976SOL    HW132564   0.291   2.819  16.846 -0.5472  1.2306  0.4144
 6976SOL    HW232565   0.354   2.760  16.713  2.7509  0.4279  0.2040
 6977SOL     OW32566   0.959   0.581  14.907  0.1052  0.1429 -0.4208
 6977SOL    HW132567   0.887   0.547  14.855  1.0546 -0.9462 -1.0154
 6977SOL    HW232568   0.963   0.673  14.879  1.1671  0.6555  1.3920
 6978SOL     OW32569   0.953   2.300   3.610 -1.1269 -0.2672  0.2260
 6978SOL    HW132570   1.010   2.372   3.638 -0.7006 -0.2389 -0.6982
 6978SOL    HW232571   1.022   2.239   3.585 -1.9080 -0.6313 -1.0102
 6979SOL     OW32572   4.309   4.602   5.689 -0.0836 -0.5501  0.2395
 6979SOL    HW132573   4.256   4.657   5.630  0.0933 -0.0492  0.5493
 6979SOL    HW232574   4.266   4.616   5.773 -2.1272 -1.7827 -0.5714
 6980SOL     OW32575   0.481   3.586   1.750 -0.2354 -0.5229  0.3989
 6980SOL    HW132576   0.489   3.514   1.813  0.5566  0.5448  1.5165
 6980SOL    HW232577   0.480   3.536   1.669  0.2181  1.2559 -0.7059
 6981SOL     OW32578   1.599   3.931   4.862 -0.2709  0.0869  0.4979
 6981SOL    HW132579   1.524   3.989   4.854  0.3234  0.9021  0.8275
 6981SOL    HW232580   1.617   3.947   4.955 -0.0686 -2.4438  0.8895
 6982SOL     OW32581   0.806   2.178   2.757 -0.2494  0.2402  0.3459
 6982SOL    HW132582   0.881   2.119   2.755  0.8187  1.5967  0.2854
 6982SOL    HW232583   0.753   2.142   2.686 -0.7749  0.2204  0.7460
 6983SOL     OW32584   0.632   2.157   5.820 -0.2822  0.3357  0.3363
 6983SOL    HW132585   0.647   2.173   5.913  2.7471  0.5199 -0.2087
 6983SOL    HW232586   0.657   2.066   5.811  0.2427  0.7669 -2.4955
 6984SOL     OW32587   3.005   1.767   2.662 -0.2702  0.3161  0.0590
 6984SOL    HW132588   2.940   1.808   2.719  0.8626  0.3952  1.3109
 6984SOL    HW232589   2.964   1.760   2.576  1.0136 -0.6230 -0.4840
 6985SOL     OW32590   3.634   3.315   7.570  0.4526  0.1246  0.0541
 6985SOL    HW132591   3.674   3.402   7.573  0.7538 -0.0342  0.6632
 6985SOL    HW232592   3.540   3.331   7.559 -0.2294 -2.2580  2.3028
 6986SOL     OW32593   3.000   1.703   0.400 -0.1531  0.9267 -0.7606
 6986SOL    HW132594   2.924   1.660   0.439  2.3237 -2.3993  0.3491
 6986SOL    HW232595   2.995   1.785   0.450 -0.6279 -1.0556  2.3744
 6987SOL     OW32596   2.525   2.345  10.567 -0.0214 -0.1131 -0.8235
 6987SOL    HW132597   2.620   2.348  10.579 -0.2942 -2.2870  1.8076
 6987SOL    HW232598   2.528   2.322  10.474  0.0293  2.5865 -1.4968
 6988SOL     OW32599   4.342   2.323   2.860 -0.0276  0.0679  0.5634
 6988SOL    HW132600   4.340   2.257   2.928 -2.4374 -2.8745 -2.3925
 6988SOL    HW232601   4.321   2.402   2.911  1.2232  0.2835  0.7375
 6989SOL     OW32602   4.142   0.018   5.527 -0.5241  0.6159  0.1641
 6989SOL    HW132603   4.083   4.681   5.517 -1.1745  0.9168  1.8083
 6989SOL    HW232604   4.128   0.052   5.439  0.2114 -1.1795 -0.6521
 6990SOL     OW32605   4.562   3.151   5.098 -0.6386 -0.1650  0.2231
 6990SOL    HW132606   4.527   3.127   5.184  1.1508 -2.4363  0.3139
 6990SOL    HW232607   4.641   3.199   5.124 -1.6703  1.0979  1.0282
 6991SOL     OW32608   1.972   0.758   0.474  0.0384  0.0317 -0.0325
 6991SOL    HW132609   1.910   0.821   0.436 -0.5225  1.0513  2.5881
 6991SOL    HW232610   2.005   0.720   0.393  0.7543  0.4693  0.0505
 6992SOL     OW32611   0.159   0.796   2.885 -0.7311  0.1225 -0.4410
 6992SOL    HW132612   0.200   0.843   2.813 -1.4723  1.8605  0.2913
 6992SOL    HW232613   0.233   0.782   2.944  0.0484  0.6099 -1.3028
 6993SOL     OW32614   2.035   1.935   3.540 -0.3032 -0.2990  0.0019
 6993SOL    HW132615   2.053   1.845   3.513 -1.4146 -0.1459 -1.2339
 6993SOL    HW232616   1.942   1.925   3.562 -0.3879  1.5533  0.4693
 6994SOL     OW32617   2.915   3.912  17.009 -0.5145  0.5742 -0.3813
 6994SOL    HW132618   2.880   3.997  17.035 -0.0743  0.4030  0.7479
 6994SOL    HW232619   2.995   3.897  17.058  0.8167  1.6795 -2.2199
 6995SOL     OW32620   1.978   0.088   4.427  0.2885  0.3834  0.1437
 6995SOL    HW132621   1.905   0.059   4.483 -1.0165  1.5358 -0.9503
 6995SOL    HW232622   2.056   0.086   4.482  0.2017  1.2063  0.2943
 6996SOL     OW32623   1.650   2.287   5.298  0.1959  0.0652 -0.0788
 6996SOL    HW132624   1.575   2.268   5.241  0.1739  0.5752 -0.2180
 6996SOL    HW232625   1.604   2.323   5.374 -2.4861 -1.7725 -0.8433
 6997SOL     OW32626   3.475   4.117  14.225  0.5346  0.1837  0.1305
 6997SOL    HW132627   3.447   4.134  14.135 -3.6054  1.5918  1.6703
 6997SOL    HW232628   3.470   4.203  14.267  2.0779  1.6483 -2.7330
 6998SOL     OW32629   1.433   2.304   4.152 -0.5473 -0.0318 -0.0132
 6998SOL    HW132630   1.347   2.307   4.110 -0.8581  0.3877  0.6577
 6998SOL    HW232631   1.496   2.269   4.089 -0.4806  0.3855 -0.1845
 6999SOL     OW32632   3.946   0.115  14.215 -0.1173  0.2227 -0.2536
 6999SOL    HW132633   3.916   0.182  14.154 -0.7466  0.3427  0.1764
 6999SOL    HW232634   4.040   0.131  14.221 -0.1743  0.5722 -0.3032
 7000SOL     OW32635   3.669   1.572   3.839  0.2552 -0.2860  0.2619
 7000SOL    HW132636   3.728   1.580   3.764  0.8327 -2.7827  0.4332
 7000SOL    HW232637   3.593   1.629   3.827 -1.9246 -2.8652  1.5564
 7001SOL     OW32638   2.322   2.318   2.974  0.3090  0.1385  0.6398
 7001SOL    HW132639   2.371   2.310   3.056  1.1489 -0.2939  0.0902
 7001SOL    HW232640   2.241   2.269   2.987 -0.7418  1.4102 -1.0749
 7002SOL     OW32641   3.413   1.404   4.888 -0.2340 -0.0148 -0.3326
 7002SOL    HW132642   3.505   1.394   4.863 -0.5781 -3.4306 -0.2136
 7002SOL    HW232643   3.387   1.318   4.922 -0.2795  0.6279  1.2705
 7003SOL     OW32644   1.036   3.499   6.643 -0.1733  0.4997 -0.7980
 7003SOL    HW132645   1.087   3.572   6.608  0.4527  0.5100  0.1472
 7003SOL    HW232646   0.996   3.531   6.724  2.6944  1.7928  0.1186
 7004SOL     OW32647   0.580   4.075   3.020 -0.1559 -0.9086 -0.1450
 7004SOL    HW132648   0.516   4.135   3.057 -0.6735 -0.8907 -1.0671
 7004SOL    HW232649   0.607   4.102   2.932  1.5206  0.3523  0.7591
 7005SOL     OW32650   0.726   4.248  12.103 -0.1356  0.4466 -0.2674
 7005SOL    HW132651   0.704   4.154  12.103  2.0147 -0.0532 -0.1867
 7005SOL    HW232652   0.764   4.259  12.016  0.8710 -0.6976  0.0294
 7006SOL     OW32653   2.681   4.321  17.104  0.0452 -0.2186  0.0556
 7006SOL    HW132654   2.736   4.252  17.142 -0.7173 -2.3765 -2.7349
 7006SOL    HW232655   2.620   4.318  17.178 -1.8315 -1.5056 -1.5432
 7007SOL     OW32656   0.477   3.468   2.443  0.0601 -0.3389 -0.2056
 7007SOL    HW132657   0.504   3.530   2.375  0.3486  1.2441  1.3329
 7007SOL    HW232658   0.561   3.426   2.465 -0.9463 -1.1089  2.2061
 7008SOL     OW32659   1.398   2.618   6.522  0.1577  0.1481 -1.2625
 7008SOL    HW132660   1.477   2.662   6.491 -0.5086  1.7816 -0.6619
 7008SOL    HW232661   1.355   2.693   6.564  1.1487 -1.3212  2.3617
 7009SOL     OW32662   4.508   2.059   8.910 -0.5148  0.5062  0.3421
 7009SOL    HW132663   4.538   2.075   8.821 -1.4670 -0.6388 -0.1813
 7009SOL    HW232664   4.583   2.090   8.961 -1.0524  0.1925  1.3224
 7010SOL     OW32665   1.892   1.565   2.603 -0.4473 -0.5711  0.3515
 7010SOL    HW132666   1.812   1.520   2.576 -1.4937  2.7763 -2.0248
 7010SOL    HW232667   1.944   1.570   2.523  2.5439 -0.8471  2.2893
 7011SOL     OW32668   2.940   4.209   7.183 -0.1576  0.3804  0.1459
 7011SOL    HW132669   2.868   4.147   7.181 -0.3879  0.6145  1.0841
 7011SOL    HW232670   2.889   4.290   7.187  0.3195  0.7399 -1.2565
 7012SOL     OW32671   3.748   3.747  16.141  0.4793 -0.0468 -0.5724
 7012SOL    HW132672   3.666   3.726  16.097 -0.4531  2.8986 -0.2679
 7012SOL    HW232673   3.787   3.775  16.058 -3.0573  1.6430 -1.6776
 7013SOL     OW32674   2.764   0.391   4.155 -0.4490 -0.5777  0.3732
 7013SOL    HW132675   2.683   0.379   4.203 -1.3825  0.7303 -0.8751
 7013SOL    HW232676   2.753   0.320   4.091 -3.1667  0.5345 -0.3513
 7014SOL     OW32677   3.730   3.310   3.491 -0.2500 -0.6722  0.3645
 7014SOL    HW132678   3.750   3.288   3.400 -0.0382 -0.9546  0.4779
 7014SOL    HW232679   3.647   3.357   3.481 -0.1142 -0.4606  0.2475
 7015SOL     OW32680   0.528   2.219   9.250 -0.6852  0.5112  0.7153
 7015SOL    HW132681   0.609   2.175   9.223 -0.9399 -0.0057  0.7764
 7015SOL    HW232682   0.504   2.264   9.170  0.9571 -0.1391 -0.1423
 7016SOL     OW32683   3.010   4.416   4.539 -0.0468 -0.4502  0.2214
 7016SOL    HW132684   2.918   4.439   4.525  0.2495  1.6697  1.7034
 7016SOL    HW232685   3.000   4.364   4.460  1.4899  0.9719 -0.9153
 7017SOL     OW32686   2.005   2.582   8.006  0.0940 -0.1118  0.1084
 7017SOL    HW132687   2.007   2.677   8.015  0.5269 -0.1817  0.7644
 7017SOL    HW232688   2.047   2.553   8.087  0.7461  0.4459 -0.0277
 7018SOL     OW32689   2.607   1.149   2.685  0.2143  0.1766  0.1935
 7018SOL    HW132690   2.592   1.059   2.712  0.3808 -0.0751 -0.5445
 7018SOL    HW232691   2.640   1.123   2.598 -1.8673  1.6934 -1.0441
 7019SOL     OW32692   1.511   3.497   2.549 -0.3202 -0.8487  0.4448
 7019SOL    HW132693   1.553   3.506   2.635  0.9334  0.4627 -0.3042
 7019SOL    HW232694   1.515   3.402   2.541  0.1056 -0.6666 -1.3318
 7020SOL     OW32695   0.038   1.070  16.746 -0.6882  0.1192 -0.1726
 7020SOL    HW132696   4.736   1.154  16.723 -2.0530  0.1292  2.1951
 7020SOL    HW232697   4.732   1.057  16.831 -1.0180  1.8648 -0.0680
 7021SOL     OW32698   1.861   1.405   1.448 -0.2979  0.3617 -0.0864
 7021SOL    HW132699   1.909   1.362   1.378 -0.4502 -1.4218  0.8999
 7021SOL    HW232700   1.895   1.494   1.440 -0.0844  0.2829 -0.0655
 7022SOL     OW32701   1.941   2.894  14.557 -0.8469 -0.2961  0.0282
 7022SOL    HW132702   1.891   2.824  14.598 -1.3451 -0.3260 -0.6338
 7022SOL    HW232703   1.876   2.911  14.488 -1.9235 -1.6218  0.7290
 7023SOL     OW32704   2.182   1.438   4.881  0.4167  0.1563 -0.5787
 7023SOL    HW132705   2.212   1.524   4.911 -0.3864 -0.5129  2.1975
 7023SOL    HW232706   2.158   1.450   4.789 -1.5613 -2.8017 -0.4635
 7024SOL     OW32707   3.309   2.510   6.462 -0.1625 -0.2003 -0.2446
 7024SOL    HW132708   3.376   2.464   6.513  0.5273  1.5898  0.4426
 7024SOL    HW232709   3.332   2.491   6.371 -1.1993 -2.4658 -0.0427
 7025SOL     OW32710   2.989   3.186   6.319  0.6060  0.0336 -0.7983
 7025SOL    HW132711   3.031   3.103   6.340  0.1970 -0.1502 -0.7149
 7025SOL    HW232712   2.913   3.150   6.274 -0.7018  1.5907  0.1633
 7026SOL     OW32713   1.479   2.716   8.536 -0.5874  0.4323  0.5630
 7026SOL    HW132714   1.523   2.679   8.460  0.4790 -0.0590  1.4273
 7026SOL    HW232715   1.527   2.671   8.605  2.4766  0.9525 -1.2255
 7027SOL     OW32716   2.548   3.402  10.919 -0.3313 -0.0595  0.0066
 7027SOL    HW132717   2.468   3.394  10.970 -0.7691  1.9849 -0.3346
 7027SOL    HW232718   2.602   3.333  10.956  1.0513 -0.0864 -2.0084
 7028SOL     OW32719   1.199   1.684   6.636  0.0083 -0.4250  0.3302
 7028SOL    HW132720   1.167   1.623   6.570 -1.6980  0.8638 -0.0200
 7028SOL    HW232721   1.121   1.721   6.678 -0.9590 -2.8266  0.6461
 7029SOL     OW32722   2.867   1.253   9.824  0.0745  0.0415 -0.2019
 7029SOL    HW132723   2.804   1.303   9.877  0.6732  1.8638 -1.2031
 7029SOL    HW232724   2.933   1.319   9.804 -0.6190  0.2681 -1.7346
 7030SOL     OW32725   2.930   1.254  14.315 -0.5280 -0.1276 -0.2842
 7030SOL    HW132726   2.928   1.337  14.362  0.2384 -0.6702  0.7428
 7030SOL    HW232727   3.016   1.242  14.275 -0.7894 -1.6507 -0.4189
 7031SOL     OW32728   4.080   0.208   5.705 -0.4479 -0.2974  0.1276
 7031SOL    HW132729   4.103   0.137   5.645 -1.4854 -1.1499  0.7356
 7031SOL    HW232730   4.151   0.205   5.769 -0.5260 -1.7336  0.1632
 7032SOL     OW32731   1.593   3.893   5.705 -0.1514  0.2852 -0.6754
 7032SOL    HW132732   1.598   3.890   5.801  1.9483  1.0429 -0.7606
 7032SOL    HW232733   1.642   3.815   5.679  1.6165  1.7987 -1.9176
 7033SOL     OW32734   0.917   3.123   1.315 -0.0337  0.6871 -0.1622
 7033SOL    HW132735   0.952   3.209   1.292 -2.1440  1.1182 -1.6756
 7033SOL    HW232736   0.837   3.110   1.265 -0.8765  0.0642  1.3690
 7034SOL     OW32737   3.557   2.531   4.892  0.3868 -0.2014 -0.2771
 7034SOL    HW132738   3.624   2.599   4.890  0.0457  0.1274 -0.5060
 7034SOL    HW232739   3.598   2.451   4.859  1.2191 -0.1474  0.6151
 7035SOL     OW32740   1.766   2.569   1.843 -0.5186  0.0245 -0.0853
 7035SOL    HW132741   1.776   2.475   1.857  0.6009  0.1208 -0.1938
 7035SOL    HW232742   1.850   2.616   1.844 -1.1183  1.0868  0.1003
 7036SOL     OW32743   2.311   1.446   6.337 -0.1512  0.3383 -0.4579
 7036SOL    HW132744   2.406   1.442   6.345 -0.2377  1.1448  1.2538
 7036SOL    HW232745   2.280   1.515   6.397 -1.3124 -1.4336  1.0034
 7037SOL     OW32746   1.816   0.851   7.389 -0.1884 -0.3835 -1.2227
 7037SOL    HW132747   1.866   0.931   7.407 -0.7234 -0.2466 -0.3668
 7037SOL    HW232748   1.853   0.836   7.302  1.2848  0.0221 -0.6729
 7038SOL     OW32749   4.736   1.125   3.173 -0.5903  0.5279 -0.1815
 7038SOL    HW132750   4.677   1.184   3.127  1.0226  2.7550  0.5902
 7038SOL    HW232751   0.068   1.120   3.108 -2.3832 -0.4975 -2.0009
 7039SOL     OW32752   2.346   3.524   3.652  0.6755  0.4067 -0.1427
 7039SOL    HW132753   2.353   3.507   3.746 -1.0564  0.6010  0.0082
 7039SOL    HW232754   2.352   3.618   3.634 -1.7831  0.4267 -0.8623
 7040SOL     OW32755   3.215   2.191  15.469  0.5081 -0.2629 -0.2969
 7040SOL    HW132756   3.241   2.240  15.548 -0.5610 -0.2561  0.0488
 7040SOL    HW232757   3.131   2.227  15.442  1.3301  0.1913 -2.2755
 7041SOL     OW32758   0.282   2.890   8.515  0.1730  0.2665  0.1269
 7041SOL    HW132759   0.274   2.885   8.419 -0.5992  0.5735  0.1731
 7041SOL    HW232760   0.358   2.947   8.526  1.1252 -1.2389  1.3269
 7042SOL     OW32761   0.554   0.803   7.913 -1.0297  0.0736  0.5570
 7042SOL    HW132762   0.632   0.852   7.938  0.0335 -2.3082  1.8589
 7042SOL    HW232763   0.509   0.820   7.996 -2.4552 -1.2294  0.0551
 7043SOL     OW32764   2.760   4.246   9.620  0.0416 -0.5134 -0.1760
 7043SOL    HW132765   2.752   4.215   9.529 -1.2002 -0.6690 -0.0217
 7043SOL    HW232766   2.811   4.178   9.663 -1.9699 -2.1752 -0.3915
 7044SOL     OW32767   2.564   2.284   1.192 -0.3469  0.4419 -0.3500
 7044SOL    HW132768   2.601   2.235   1.119 -2.3792 -3.0184  0.9259
 7044SOL    HW232769   2.650   2.316   1.221  0.8979 -1.5812 -1.7537
 7045SOL     OW32770   4.185   3.363  15.122 -0.3215 -0.3315 -0.0350
 7045SOL    HW132771   4.204   3.283  15.074  0.1290 -0.0909 -0.2517
 7045SOL    HW232772   4.133   3.321  15.191  0.0213  0.5234  0.7485
 7046SOL     OW32773   1.003   0.291   6.837 -0.1591  0.2137  0.2034
 7046SOL    HW132774   0.968   0.254   6.918  1.8346 -1.7365  0.1974
 7046SOL    HW232775   1.076   0.230   6.827  0.6412  0.9193  1.7559
 7047SOL     OW32776   0.692   3.649   4.732 -0.9472 -0.2316  0.1735
 7047SOL    HW132777   0.676   3.555   4.721 -3.1868 -0.1198  2.3020
 7047SOL    HW232778   0.613   3.688   4.769 -0.6143 -1.3337  2.0987
 7048SOL     OW32779   3.489   2.061   8.960  0.3393  0.7581  0.1395
 7048SOL    HW132780   3.465   2.139   8.910 -0.9033 -0.2459 -0.8235
 7048SOL    HW232781   3.527   2.097   9.040  1.2022 -0.5956  0.3416
 7049SOL     OW32782   0.614   4.570   5.225  0.0142  0.2981 -0.1513
 7049SOL    HW132783   0.549   4.613   5.280 -1.8850 -0.1275 -2.0763
 7049SOL    HW232784   0.608   4.484   5.267 -1.2605  0.5591  0.1908
 7050SOL     OW32785   0.896   1.782  13.326  0.2780 -0.2776  0.0799
 7050SOL    HW132786   0.941   1.718  13.380 -0.3219 -2.5413 -2.0843
 7050SOL    HW232787   0.890   1.750  13.236  0.4811  1.1725 -0.4494
 7051SOL     OW32788   2.540   0.483   8.743 -0.0183  0.2049  0.0488
 7051SOL    HW132789   2.490   0.490   8.662 -0.0243 -0.5721 -0.0167
 7051SOL    HW232790   2.614   0.441   8.700  1.2556  2.7115 -0.1739
 7052SOL     OW32791   3.885   0.278   6.450 -0.1519 -0.5354 -0.2839
 7052SOL    HW132792   3.910   0.367   6.476  2.9461 -0.9943 -1.7181
 7052SOL    HW232793   3.860   0.290   6.358 -0.8706  0.0889 -0.0138
 7053SOL     OW32794   1.213   0.160   3.949 -0.0981 -1.2668  0.2372
 7053SOL    HW132795   1.217   0.074   3.990 -0.1825 -0.8041  1.2059
 7053SOL    HW232796   1.294   0.151   3.898 -0.2322  0.5566 -0.2761
 7054SOL     OW32797   0.834   0.473   8.058  0.3850  0.4360 -0.3642
 7054SOL    HW132798   0.880   0.406   8.109  1.3794  1.4568  0.0769
 7054SOL    HW232799   0.753   0.491   8.106  0.4473  0.5167 -0.2894
 7055SOL     OW32800   1.199   3.025   2.002 -0.1101 -0.0928 -0.2118
 7055SOL    HW132801   1.279   3.073   1.981 -0.1042  0.0542  0.1454
 7055SOL    HW232802   1.139   3.067   1.941 -1.1664 -3.0020 -1.1854
 7056SOL     OW32803   3.962   1.359  10.647 -0.5012  0.6211  0.1949
 7056SOL    HW132804   4.014   1.328  10.573  1.6183 -0.1146  1.9937
 7056SOL    HW232805   4.033   1.369  10.711 -0.1049 -0.9720 -0.0150
 7057SOL     OW32806   0.569   3.449   7.930 -0.1230  0.4558 -0.9283
 7057SOL    HW132807   0.503   3.448   7.861  1.0642 -0.6716 -2.0358
 7057SOL    HW232808   0.620   3.525   7.902  1.2346 -0.8907 -2.0913
 7058SOL     OW32809   4.463   1.944   6.897  0.8173 -0.5477  0.0965
 7058SOL    HW132810   4.422   1.986   6.822 -0.2169 -0.5528  0.6455
 7058SOL    HW232811   4.548   1.910   6.870 -0.4230 -2.8749 -0.8769
 7059SOL     OW32812   2.954   2.787   8.486 -0.1332  0.1986  0.1327
 7059SOL    HW132813   2.970   2.857   8.549 -1.9564 -0.0477  0.8576
 7059SOL    HW232814   3.032   2.793   8.431 -1.3634 -1.4026 -1.7705
 7060SOL     OW32815   1.513   0.769   7.785  0.2570 -0.3147 -0.3443
 7060SOL    HW132816   1.534   0.813   7.703  0.3065  0.5190  0.1199
 7060SOL    HW232817   1.418   0.755   7.780  0.3353 -0.3975 -1.5357
 7061SOL     OW32818   3.678   4.191   7.731 -0.6205  0.2061  0.0095
 7061SOL    HW132819   3.618   4.266   7.736 -0.1117  0.5658  0.7257
 7061SOL    HW232820   3.670   4.155   7.819 -0.8677 -0.6513 -0.3651
 7062SOL     OW32821   4.129   3.307   2.926 -0.1753 -0.0943 -0.3744
 7062SOL    HW132822   4.143   3.214   2.940 -0.9817 -0.2706 -0.7008
 7062SOL    HW232823   4.180   3.352   2.993 -0.6993  1.2453 -0.8639
 7063SOL     OW32824   3.836   3.216   4.419  0.5772  0.2476 -0.6364
 7063SOL    HW132825   3.908   3.263   4.461  0.2914  0.0404  0.0977
 7063SOL    HW232826   3.865   3.125   4.418  0.3902  0.1672  0.9910
 7064SOL     OW32827   0.360   3.591  12.626 -0.1953  0.4349 -0.2574
 7064SOL    HW132828   0.293   3.645  12.668  0.5386  2.4957 -1.7609
 7064SOL    HW232829   0.333   3.504  12.657  4.1249 -1.1268 -0.8968
 7065SOL     OW32830   2.537   4.646   7.709  0.2334 -0.0986 -0.4511
 7065SOL    HW132831   2.528   4.559   7.748 -0.5834  1.3047  2.5135
 7065SOL    HW232832   2.612   4.686   7.755  0.0085 -0.3069  0.0985
 7066SOL     OW32833   4.411   3.083  13.717  0.0621 -0.7927 -0.5612
 7066SOL    HW132834   4.345   3.078  13.787 -0.1987 -0.0223 -0.7512
 7066SOL    HW232835   4.358   3.078  13.637 -1.6320  0.7611  0.4657
 7067SOL     OW32836   3.746   1.071   8.287 -0.1221 -0.0547 -0.3494
 7067SOL    HW132837   3.781   1.004   8.346 -2.8577  1.4031  2.9604
 7067SOL    HW232838   3.764   1.149   8.340 -0.9111  0.9165 -1.5186
 7068SOL     OW32839   0.266   0.126   2.846 -0.3947 -0.7690  0.2425
 7068SOL    HW132840   0.336   0.190   2.837 -1.3743  0.0091 -1.9611
 7068SOL    HW232841   0.223   0.116   2.760 -3.3126  0.1594  1.5759
 7069SOL     OW32842   0.151   4.428   6.304 -0.5464 -0.0634 -0.1623
 7069SOL    HW132843   0.215   4.449   6.236  0.4645  2.3563  1.5486
 7069SOL    HW232844   0.138   4.515   6.342 -2.3788  0.0853 -1.1502
 7070SOL     OW32845   1.434   4.063  13.034  0.2225 -0.3079  0.6806
 7070SOL    HW132846   1.362   4.125  13.045 -1.6877 -2.3991  0.0432
 7070SOL    HW232847   1.509   4.115  13.062 -0.3547  0.5353  0.6497
 7071SOL     OW32848   0.012   1.951   4.998 -0.0230 -0.4044  0.2498
 7071SOL    HW132849   0.069   2.028   5.000 -1.4428  0.6702 -0.3007
 7071SOL    HW232850   4.670   1.986   4.957 -0.8874  0.2358  2.4588
 7072SOL     OW32851   1.424   1.889   7.164  0.3439 -0.1748 -0.3000
 7072SOL    HW132852   1.373   1.901   7.243 -1.0166 -1.8615 -0.9221
 7072SOL    HW232853   1.393   1.801   7.142 -1.6258  0.3047  0.6292
 7073SOL     OW32854   2.934   1.827   8.138  0.7709  0.1497 -0.3726
 7073SOL    HW132855   3.006   1.764   8.137 -0.1186 -0.8357 -2.5680
 7073SOL    HW232856   2.960   1.883   8.065  0.4145  1.3299  0.3969
 7074SOL     OW32857   0.795   3.327   7.410  0.5644  0.2840  0.3527
 7074SOL    HW132858   0.833   3.239   7.416 -0.6514 -0.4290 -2.6835
 7074SOL    HW232859   0.816   3.348   7.319  0.8851  1.5044  0.6988
 7075SOL     OW32860   0.861   4.485   6.789 -0.4017 -0.3233  0.1889
 7075SOL    HW132861   0.800   4.536   6.843 -0.0932 -0.7049  0.8936
 7075SOL    HW232862   0.905   4.423   6.847 -0.3224 -2.7628 -2.4903
 7076SOL     OW32863   1.611   4.066   3.553 -0.5928 -0.8470  0.1858
 7076SOL    HW132864   1.559   4.063   3.473 -1.5531  1.7490  0.7003
 7076SOL    HW232865   1.682   4.125   3.527 -0.3032 -2.0409 -1.6852
 7077SOL     OW32866   1.779   1.166   3.404  0.3899 -0.1269  0.2931
 7077SOL    HW132867   1.874   1.170   3.416  0.7005 -1.2244 -1.7217
 7077SOL    HW232868   1.781   1.104   3.331  1.0339  1.1727 -0.8136
 7078SOL     OW32869   4.353   0.984   9.271 -0.1280 -0.1062 -0.5732
 7078SOL    HW132870   4.379   1.064   9.317  0.7294 -0.4596 -0.4388
 7078SOL    HW232871   4.275   1.017   9.227 -0.5553 -1.6752 -0.9905
 7079SOL     OW32872   3.493   3.579   3.352  0.3027  0.0082  0.2462
 7079SOL    HW132873   3.477   3.508   3.414 -0.0189 -0.1237  0.0115
 7079SOL    HW232874   3.498   3.650   3.416  1.3955 -0.2569  0.4687
 7080SOL     OW32875   0.904   4.591  10.359  0.2888  0.2836 -0.4337
 7080SOL    HW132876   0.982   4.626  10.315  0.9399 -0.5180  0.0908
 7080SOL    HW232877   0.872   4.663  10.413 -1.3470 -0.7571 -0.0158
 7081SOL     OW32878   3.446   0.901   2.695 -0.0002  0.0165  0.5536
 7081SOL    HW132879   3.384   0.947   2.751 -0.0157  1.3632 -0.5793
 7081SOL    HW232880   3.415   0.898   2.604  2.0628 -1.0414 -0.1117
 7082SOL     OW32881   2.454   4.625   3.812  0.1370 -0.3268  0.0425
 7082SOL    HW132882   2.379   4.609   3.868  1.4162  0.9415  2.1198
 7082SOL    HW232883   2.413   4.678   3.743 -2.5065 -1.0568  1.0797
 7083SOL     OW32884   1.663   0.105  13.343  0.5950  0.1963  0.0090
 7083SOL    HW132885   1.752   0.102  13.380  0.1546 -0.7044  1.0106
 7083SOL    HW232886   1.645   0.192  13.308 -0.4053 -0.3665 -0.8665
 7084SOL     OW32887   0.158   1.381   8.426 -0.0107 -0.3349 -0.4825
 7084SOL    HW132888   0.120   1.440   8.491  1.6673 -0.9987  1.1007
 7084SOL    HW232889   0.222   1.443   8.392 -0.2645 -0.1904 -0.6981
 7085SOL     OW32890   3.851   0.629   1.727 -0.0524  0.0545  0.2426
 7085SOL    HW132891   3.937   0.618   1.686 -0.1211 -0.6622  0.2906
 7085SOL    HW232892   3.843   0.551   1.783  0.2395  0.7473  1.2342
 7086SOL     OW32893   3.014   4.476   1.624  0.5674  0.5211  0.3798
 7086SOL    HW132894   2.926   4.469   1.586  0.9972 -2.5725 -0.0207
 7086SOL    HW232895   3.012   4.564   1.663 -1.3575  0.2688  0.8675
 7087SOL     OW32896   2.830   4.011  10.723 -0.1856 -0.0412  0.1952
 7087SOL    HW132897   2.829   3.957  10.802 -1.4826  0.6847  0.6716
 7087SOL    HW232898   2.759   4.069  10.749 -1.0777 -0.2976 -1.6571
 7088SOL     OW32899   0.501   3.036  10.598  0.3711 -0.5365 -0.4136
 7088SOL    HW132900   0.488   3.123  10.637 -0.6370 -0.4643 -0.8984
 7088SOL    HW232901   0.444   3.045  10.522  0.9225  1.2416 -0.6207
 7089SOL     OW32902   4.170   2.653   7.910  0.0542  0.1331  0.0361
 7089SOL    HW132903   4.160   2.564   7.946 -2.6499 -0.4779 -2.2576
 7089SOL    HW232904   4.254   2.651   7.865 -1.2784 -2.6511 -2.3152
 7090SOL     OW32905   0.553   2.887   6.606  0.0247 -0.6417  0.3701
 7090SOL    HW132906   0.515   2.823   6.666  1.3528 -0.9252  0.9029
 7090SOL    HW232907   0.480   2.931   6.562  0.1881 -0.1845  0.5519
 7091SOL     OW32908   0.610   0.295  11.185  0.0411 -0.3324 -0.6464
 7091SOL    HW132909   0.531   0.322  11.232  1.3522  0.7238  0.9579
 7091SOL    HW232910   0.681   0.352  11.216 -0.5187  0.7996 -1.4536
 7092SOL     OW32911   1.664   1.742  11.045 -0.0360 -0.4345 -0.8902
 7092SOL    HW132912   1.701   1.831  11.043  0.7025 -0.7505 -1.1692
 7092SOL    HW232913   1.741   1.704  11.004 -0.0724 -1.6360  0.1616
 7093SOL     OW32914   4.728   0.434   5.857  0.1258  0.1847  0.2978
 7093SOL    HW132915   0.036   0.394   5.783  0.7192 -0.7520  1.1698
 7093SOL    HW232916   0.064   0.479   5.899  0.2050 -0.0124  0.3691
 7094SOL     OW32917   4.628   1.642  12.802 -0.6557 -0.0860  0.5247
 7094SOL    HW132918   4.615   1.561  12.850 -0.7153 -0.0764  0.5246
 7094SOL    HW232919   4.714   1.621  12.765 -0.3336  1.2165  0.5284
 7095SOL     OW32920   2.738   0.566   8.444  0.2136  0.0741 -0.3237
 7095SOL    HW132921   2.643   0.566   8.437  0.0296  1.6324  2.2656
 7095SOL    HW232922   2.758   0.473   8.452 -0.4337 -0.1604 -1.4649
 7096SOL     OW32923   3.897   1.975   6.685 -0.7027 -0.7430 -0.2481
 7096SOL    HW132924   3.918   2.045   6.746  1.6099 -0.1266 -1.7614
 7096SOL    HW232925   3.801   1.976   6.689 -0.5913  0.8453  2.0003
 7097SOL     OW32926   1.810   1.349  10.202 -0.0579 -0.5280  0.0187
 7097SOL    HW132927   1.836   1.277  10.259  1.5610  0.3726  0.4070
 7097SOL    HW232928   1.752   1.392  10.265  0.4161  1.1179 -0.6730
 7098SOL     OW32929   2.316   0.044   5.686  0.0060 -0.0733 -0.4645
 7098SOL    HW132930   2.410   0.049   5.673  0.0300 -0.0043 -0.2612
 7098SOL    HW232931   2.292   0.133   5.663  0.5100 -0.1967 -1.4435
 7099SOL     OW32932   3.632   2.762   4.249  0.5587 -0.6730 -0.3781
 7099SOL    HW132933   3.569   2.758   4.321 -1.8714  0.2205 -2.4032
 7099SOL    HW232934   3.611   2.852   4.220  2.0287 -0.3158 -0.3109
 7100SOL     OW32935   2.703   1.601  12.835 -0.4021  0.5794 -0.2166
 7100SOL    HW132936   2.782   1.582  12.886 -1.7569 -2.4831  0.7406
 7100SOL    HW232937   2.727   1.554  12.756 -1.5993  0.3739 -0.4611
 7101SOL     OW32938   0.180   3.634   3.753 -0.0031  0.3185  0.9177
 7101SOL    HW132939   0.192   3.641   3.848 -0.4967 -0.2697  1.0208
 7101SOL    HW232940   0.170   3.541   3.729  1.5398  0.2700  0.4007
 7102SOL     OW32941   0.332   2.047   9.100  0.1814  0.6463  0.1445
 7102SOL    HW132942   0.312   1.989   9.173  3.2899 -0.0817  0.4173
 7102SOL    HW232943   0.428   2.048   9.097  0.2473 -2.1496  0.8972
 7103SOL     OW32944   1.717   0.510   7.819 -0.3862  0.2325 -0.5000
 7103SOL    HW132945   1.645   0.450   7.798 -0.6769  1.1600 -2.1307
 7103SOL    HW232946   1.685   0.599   7.811 -0.0102  0.3224 -1.0260
 7104SOL     OW32947   0.325   1.273  12.912 -0.1564 -0.0400  0.1098
 7104SOL    HW132948   0.381   1.338  12.870 -0.4149  0.7593  1.0086
 7104SOL    HW232949   0.241   1.319  12.911 -2.5069 -4.3174 -1.8542
 7105SOL     OW32950   2.162   2.347  15.735  0.6844 -0.1777 -0.0651
 7105SOL    HW132951   2.075   2.321  15.764  0.1276  1.8527  0.0634
 7105SOL    HW232952   2.205   2.263  15.721  1.7909  0.2484  0.7293
 7106SOL     OW32953   3.575   4.700   6.012  0.3930 -0.1931 -0.0147
 7106SOL    HW132954   3.495   4.654   5.987 -0.2673  1.2153 -0.4548
 7106SOL    HW232955   3.634   4.626   6.026  1.0868  0.0531 -1.6819
 7107SOL     OW32956   3.307   3.306  14.983  0.1715 -0.0184 -0.1574
 7107SOL    HW132957   3.227   3.339  14.942 -0.0395  0.9061  1.0122
 7107SOL    HW232958   3.349   3.275  14.903  1.8172  2.4684 -0.2353
 7108SOL     OW32959   4.655   2.443   8.981 -0.1315 -0.1296 -0.0525
 7108SOL    HW132960   4.617   2.456   8.894  1.1312  2.2953 -0.2177
 7108SOL    HW232961   4.583   2.483   9.030 -0.6101  0.0396 -0.8923
 7109SOL     OW32962   3.672   1.872   4.026 -0.7113  0.1149 -0.2989
 7109SOL    HW132963   3.640   1.825   3.950  0.2501  2.6393 -2.2693
 7109SOL    HW232964   3.618   1.951   4.027 -1.7946 -0.6375 -0.3273
 7110SOL     OW32965   1.831   3.728   8.364  0.4632  0.0442  0.6122
 7110SOL    HW132966   1.900   3.710   8.428  1.6042  0.1962 -0.5816
 7110SOL    HW232967   1.872   3.699   8.283 -0.9569 -1.8824  0.5858
 7111SOL     OW32968   4.269   2.846   0.332 -0.4226 -0.2990  0.4220
 7111SOL    HW132969   4.175   2.854   0.350 -0.9141  0.9233 -2.8209
 7111SOL    HW232970   4.292   2.861   0.424 -1.3702  1.3294  0.3830
 7112SOL     OW32971   2.912   1.420   1.534 -0.7333 -0.3371  0.3184
 7112SOL    HW132972   2.834   1.396   1.484 -1.3334  0.0910  1.0317
 7112SOL    HW232973   2.885   1.392   1.622  1.5057  1.3350  1.5411
 7113SOL     OW32974   4.583   0.020  12.691 -0.0503 -0.1820  0.1288
 7113SOL    HW132975   4.618   0.109  12.688  3.0631 -1.3891  1.6635
 7113SOL    HW232976   4.665   4.708  12.697  0.0473 -0.2506 -1.5887
 7114SOL     OW32977   2.012   3.894  11.994 -0.5503  0.3214  0.1525
 7114SOL    HW132978   1.932   3.868  12.040  0.2279  1.9789  2.4559
 7114SOL    HW232979   2.005   3.990  12.001  1.5420  0.4397  0.5487
 7115SOL     OW32980   2.802   3.385  13.238 -0.4432  0.2235 -0.1290
 7115SOL    HW132981   2.811   3.470  13.281  0.4584  0.2933 -0.4401
 7115SOL    HW232982   2.827   3.405  13.148  0.6899 -4.6637 -0.9034
 7116SOL     OW32983   2.199   3.067   7.865 -0.0370  0.4996 -0.2129
 7116SOL    HW132984   2.243   2.989   7.899  0.7596  2.2615  2.8793
 7116SOL    HW232985   2.138   3.019   7.809 -0.1742 -0.3776  0.6904
 7117SOL     OW32986   2.108   4.394   4.365 -0.2559 -0.1373  0.1161
 7117SOL    HW132987   2.044   4.453   4.323 -1.1998 -0.8061  0.6281
 7117SOL    HW232988   2.066   4.394   4.451 -2.8031  0.8934 -1.1189
 7118SOL     OW32989   4.476   2.445   7.138 -0.3009  0.8502  0.3370
 7118SOL    HW132990   4.410   2.408   7.079 -0.9578  1.9323  0.3941
 7118SOL    HW232991   4.556   2.407   7.104 -1.2002  0.2182 -1.0599
 7119SOL     OW32992   1.578   1.561  15.722  0.6165  0.3553  0.4579
 7119SOL    HW132993   1.628   1.598  15.650  1.3067  0.4919  1.0004
 7119SOL    HW232994   1.492   1.553  15.680  1.6385 -0.3322 -1.4918
 7120SOL     OW32995   0.320   1.327   6.839 -0.3355 -0.2796 -0.4219
 7120SOL    HW132996   0.288   1.397   6.895 -2.8408 -0.0257 -2.1631
 7120SOL    HW232997   0.245   1.268   6.838  0.5511 -1.3960 -1.1421
 7121SOL     OW32998   4.509   3.400   8.431 -0.0215 -0.2521 -0.2632
 7121SOL    HW132999   4.431   3.454   8.422  1.0157  1.5486  1.5836
 7121SOL    HW233000   4.492   3.362   8.517 -1.1932  0.9702  0.0437
 7122SOL     OW33001   0.338   1.232   1.101  0.0833 -0.0115  0.0061
 7122SOL    HW133002   0.421   1.209   1.059 -1.1429 -1.5423 -1.5596
 7122SOL    HW233003   0.365   1.266   1.187 -2.1628  0.2980  0.5841
 7123SOL     OW33004   3.330   2.868   1.202  0.2254 -0.0861 -0.5720
 7123SOL    HW133005   3.403   2.901   1.255  0.4393 -2.1223  0.4018
 7123SOL    HW233006   3.281   2.947   1.180  1.6365  1.0102  0.2108
 7124SOL     OW33007   3.777   0.230   0.204 -0.0149 -0.3898  0.3711
 7124SOL    HW133008   3.730   0.281   0.138  1.4312 -1.4888 -1.4966
 7124SOL    HW233009   3.729   0.147   0.206 -0.6779 -0.0453 -1.1343
 7125SOL     OW33010   0.703   0.822   5.735  0.3132 -0.1797  0.0902
 7125SOL    HW133011   0.706   0.783   5.822 -1.5939  0.9844  0.6796
 7125SOL    HW233012   0.658   0.754   5.685 -1.3728 -0.2113  1.6772
 7126SOL     OW33013   1.512   2.301   5.528  0.0359  0.1126  0.0064
 7126SOL    HW133014   1.574   2.242   5.570 -0.8099 -0.3773  0.5577
 7126SOL    HW233015   1.482   2.368   5.590  1.4570  1.1765 -0.4599
 7127SOL     OW33016   4.098   0.280   1.767  0.5683  0.5988  0.4323
 7127SOL    HW133017   4.073   0.215   1.701  1.7639  2.5370 -1.9746
 7127SOL    HW233018   4.046   0.359   1.748 -0.5839 -0.6666 -1.7254
 7128SOL     OW33019   3.937   1.507   4.008  0.0406 -0.3624  0.4392
 7128SOL    HW133020   3.923   1.574   3.940 -1.5676 -1.9134 -0.7511
 7128SOL    HW233021   4.017   1.466   3.977 -0.6172 -1.8383  0.7194
 7129SOL     OW33022   1.120   3.235   7.735 -0.2753 -0.3047 -0.3774
 7129SOL    HW133023   1.120   3.265   7.826 -0.5055 -1.3429 -0.0320
 7129SOL    HW233024   1.040   3.182   7.737  0.6871 -1.7228  0.9288
 7130SOL     OW33025   2.395   3.607   2.130 -0.2849  0.1318  0.7097
 7130SOL    HW133026   2.307   3.580   2.155  0.4868  1.3108  4.6041
 7130SOL    HW233027   2.397   3.602   2.034  0.3006 -0.2060  0.7437
 7131SOL     OW33028   2.956   0.036   1.413  0.1428 -0.0850 -0.2907
 7131SOL    HW133029   3.026   4.734   1.466 -2.0710  0.9646  3.4243
 7131SOL    HW233030   2.939   4.708   1.344  1.2943  0.1312 -0.7728
 7132SOL     OW33031   0.550   0.378   6.888 -0.1613 -0.5698  0.0205
 7132SOL    HW133032   0.538   0.454   6.946 -0.4750 -0.4033 -0.2653
 7132SOL    HW233033   0.621   0.338   6.939  0.4059  1.6418  0.9675
 7133SOL     OW33034   2.570   0.124   5.660 -0.0066  0.2566 -0.1018
 7133SOL    HW133035   2.589   0.206   5.613 -1.6246 -0.2266 -1.5890
 7133SOL    HW233036   2.584   0.148   5.752  1.6243 -0.2172 -0.2316
 7134SOL     OW33037   3.263   4.069   9.912 -0.1092  0.5615 -0.4246
 7134SOL    HW133038   3.244   4.160   9.933  1.1725  0.6444  0.3367
 7134SOL    HW233039   3.354   4.054   9.937 -0.5975 -0.9716  0.4112
 7135SOL     OW33040   2.866   3.826  15.651  0.7837 -0.1632 -0.1172
 7135SOL    HW133041   2.916   3.759  15.605 -1.6598 -0.5509 -2.2357
 7135SOL    HW233042   2.819   3.871  15.581 -1.4093 -1.6149  0.4186
 7136SOL     OW33043   3.292   1.478   6.303 -0.0545  0.4849 -0.5991
 7136SOL    HW133044   3.346   1.430   6.365 -2.0128 -2.9688 -1.5613
 7136SOL    HW233045   3.301   1.561   6.350  0.3265  0.1395 -0.0702
 7137SOL     OW33046   4.669   4.338   1.375  0.0008  0.3769  0.5312
 7137SOL    HW133047   4.678   4.391   1.296 -0.2605  0.6984  0.7174
 7137SOL    HW233048   4.590   4.377   1.411  0.1920 -0.3717  1.7922
 7138SOL     OW33049   1.288   2.006   5.838 -0.2693 -0.1416 -0.3492
 7138SOL    HW133050   1.296   2.064   5.913 -1.1812  2.1461 -2.0005
 7138SOL    HW233051   1.212   2.049   5.798 -0.3909 -0.4908 -0.5015
 7139SOL     OW33052   0.502   4.415   3.068  0.0935  0.1565 -0.0795
 7139SOL    HW133053   0.597   4.401   3.059 -0.2528 -1.8949 -0.4052
 7139SOL    HW233054   0.487   4.489   3.009  0.8731  0.5068  0.1555
 7140SOL     OW33055   1.877   3.823  17.485  0.0192  1.2350  0.4611
 7140SOL    HW133056   1.923   3.770  17.420 -1.3952  0.2251  0.2812
 7140SOL    HW233057   1.785   3.801  17.474 -0.2619  1.0000  3.1682
 7141SOL     OW33058   3.670   2.442   9.170  0.3581  0.1588 -0.0943
 7141SOL    HW133059   3.722   2.402   9.241 -1.3132 -1.2487  0.3375
 7141SOL    HW233060   3.607   2.370   9.170  0.3533  0.1624  0.1535
 7142SOL     OW33061   0.209   0.522   7.895 -0.3065 -0.1265 -0.6805
 7142SOL    HW133062   0.212   0.585   7.967 -0.5508  1.2487 -1.8753
 7142SOL    HW233063   0.266   0.557   7.828  0.5099 -2.8469 -1.4026
 7143SOL     OW33064   0.648   2.839   0.294  0.1510 -0.6450  0.4634
 7143SOL    HW133065   0.572   2.893   0.274  1.1272 -0.2373 -2.2707
 7143SOL    HW233066   0.694   2.903   0.349  0.7429  0.2771 -1.1044
 7144SOL     OW33067   3.139   0.757   7.140 -0.0318 -0.3532 -0.3762
 7144SOL    HW133068   3.161   0.771   7.048 -0.4147 -1.4830 -0.6305
 7144SOL    HW233069   3.157   0.664   7.155 -1.1328 -0.4160  0.5274
 7145SOL     OW33070   2.463   3.487   7.552  0.6980  0.2097 -0.0941
 7145SOL    HW133071   2.515   3.414   7.586 -0.7629  0.0296  1.7994
 7145SOL    HW233072   2.445   3.533   7.634  0.6224  0.2578 -0.1378
 7146SOL     OW33073   0.276   0.088   2.235 -0.6043  0.2359  0.4916
 7146SOL    HW133074   0.211   0.151   2.264 -0.8531  0.1958  0.0214
 7146SOL    HW233075   0.317   0.085   2.322  0.4043  0.0306  0.0038
 7147SOL     OW33076   0.984   2.282   1.364  0.3969  0.0275 -0.2739
 7147SOL    HW133077   1.039   2.215   1.406  1.5443  1.2327  0.1273
 7147SOL    HW233078   0.967   2.346   1.433  0.4808  0.0527 -0.2767
 7148SOL     OW33079   3.093   4.206   6.864 -0.2076 -0.0837 -0.7796
 7148SOL    HW133080   3.154   4.205   6.789 -0.4619  0.5255 -0.9927
 7148SOL    HW233081   3.136   4.279   6.908 -1.4097 -0.6074  1.2127
 7149SOL     OW33082   2.951   2.137   4.670 -0.9106  0.3464 -0.5318
 7149SOL    HW133083   3.047   2.135   4.668 -0.9137 -0.3580  0.0255
 7149SOL    HW233084   2.934   2.167   4.581  1.0153  0.2219 -0.9320
 7150SOL     OW33085   3.195   1.891   6.102  0.6334  0.3381  0.0372
 7150SOL    HW133086   3.158   1.868   6.187  1.1396 -0.8384 -0.0541
 7150SOL    HW233087   3.127   1.952   6.074  1.2438  0.9021 -0.2102
 7151SOL     OW33088   0.770   1.070   5.633  0.1906  0.1313 -0.9789
 7151SOL    HW133089   0.756   1.050   5.541  1.0824  1.9530 -1.4925
 7151SOL    HW233090   0.743   0.989   5.677 -1.6656  0.9418 -0.6001
 7152SOL     OW33091   3.107   1.492   0.567 -0.2228 -0.2763 -0.0895
 7152SOL    HW133092   3.070   1.549   0.500  0.2518 -3.0000 -2.6493
 7152SOL    HW233093   3.087   1.544   0.645  2.4697  1.3769 -0.5006
 7153SOL     OW33094   1.779   4.182   8.630  0.2471 -0.5237  0.0646
 7153SOL    HW133095   1.852   4.231   8.592  0.1139  1.1564  2.0093
 7153SOL    HW233096   1.707   4.239   8.602  0.9714  0.0782 -0.5753
 7154SOL     OW33097   1.134   4.461   8.376 -0.4928 -0.4414 -0.4435
 7154SOL    HW133098   1.061   4.477   8.316  0.2401  3.6802 -0.2677
 7154SOL    HW233099   1.138   4.366   8.384 -0.4030 -0.4159 -0.1938
 7155SOL     OW33100   2.104   3.477   8.342 -0.3232 -0.1249 -0.2029
 7155SOL    HW133101   2.172   3.438   8.287  1.5941  1.7809  0.7988
 7155SOL    HW233102   2.140   3.565   8.355 -1.7580  0.2038  1.7124
 7156SOL     OW33103   2.503   0.013   6.776  0.3423  0.2019 -0.3930
 7156SOL    HW133104   2.428   0.064   6.746 -0.6800 -0.6415  0.6978
 7156SOL    HW233105   2.508   4.683   6.707  1.4594 -0.0715 -0.0480
 7157SOL     OW33106   1.235   0.859   7.315  0.1973 -0.1730 -0.6290
 7157SOL    HW133107   1.213   0.773   7.278 -0.8174 -0.4489  0.6382
 7157SOL    HW233108   1.326   0.878   7.292 -0.2927  1.0115 -1.5673
 7158SOL     OW33109   1.107   1.519   5.980  0.0416  0.6876 -0.0571
 7158SOL    HW133110   1.184   1.551   6.026  1.8278 -1.1613 -1.7464
 7158SOL    HW233111   1.125   1.427   5.960 -1.3889  0.4504 -0.2636
 7159SOL     OW33112   2.659   0.756   3.221 -0.3037 -0.0704  0.2438
 7159SOL    HW133113   2.699   0.839   3.246 -0.5966 -0.2389  1.2968
 7159SOL    HW233114   2.627   0.721   3.305 -2.2545 -1.5060 -1.0877
 7160SOL     OW33115   0.568   4.438   2.070 -0.1856 -0.0498  0.0313
 7160SOL    HW133116   0.536   4.522   2.104 -0.5690 -0.9912  1.9930
 7160SOL    HW233117   0.659   4.433   2.099 -0.5984 -0.1227  1.3166
 7161SOL     OW33118   0.508   2.020   2.162  0.1101 -0.2700 -0.6881
 7161SOL    HW133119   0.581   1.958   2.166 -1.7906 -2.4153  0.4366
 7161SOL    HW233120   0.534   2.083   2.231 -0.2268 -1.1009  0.1986
 7162SOL     OW33121   1.192   0.931   9.956  0.0895 -0.7913 -0.3217
 7162SOL    HW133122   1.124   0.924  10.023  0.4732  1.6552  0.3290
 7162SOL    HW233123   1.213   1.022   9.978  0.8175 -1.1042  0.2739
 7163SOL     OW33124   3.921   0.925  12.914 -0.5451  0.5262 -0.4896
 7163SOL    HW133125   3.935   0.979  12.992  1.1051  2.8784 -2.4296
 7163SOL    HW233126   3.828   0.900  12.914 -0.6919  1.0430  0.6206
 7164SOL     OW33127   1.203   0.713  11.100  0.4073 -0.2348 -0.0134
 7164SOL    HW133128   1.278   0.705  11.040  1.0661  0.1991  0.7468
 7164SOL    HW233129   1.188   0.806  11.082  1.3832 -0.2483 -0.9160
 7165SOL     OW33130   0.166   2.387   2.803  0.4567 -0.1995  0.2490
 7165SOL    HW133131   0.259   2.367   2.796  0.7370  1.1740 -0.0132
 7165SOL    HW233132   0.162   2.480   2.779  3.0928  0.1411  1.1536
 7166SOL     OW33133   2.979   2.533   8.645  0.3566  0.2097  0.3307
 7166SOL    HW133134   3.051   2.495   8.595 -1.8177 -3.6599  0.1969
 7166SOL    HW233135   2.949   2.603   8.587 -1.8581 -1.6585 -0.7793
 7167SOL     OW33136   0.841   3.552   4.346  0.6053 -0.4139 -0.1736
 7167SOL    HW133137   0.872   3.566   4.436 -3.0218 -0.7571  1.1358
 7167SOL    HW233138   0.862   3.459   4.338  1.4008 -0.1354 -1.2984
 7168SOL     OW33139   1.788   3.461   3.639  0.0348 -0.3066 -0.3023
 7168SOL    HW133140   1.778   3.539   3.585 -0.2496  0.4801  0.8772
 7168SOL    HW233141   1.861   3.419   3.595  1.3245  0.5446  0.9965
 7169SOL     OW33142   4.641   2.243   1.351 -0.3837  0.0007  0.1793
 7169SOL    HW133143   4.735   2.225   1.353 -0.4318 -0.3698 -0.7996
 7169SOL    HW233144   4.622   2.272   1.440 -3.5655  1.4914 -0.9715
 7170SOL     OW33145   1.615   1.508   2.247 -0.2109  0.1653 -0.1984
 7170SOL    HW133146   1.546   1.525   2.183 -0.3465 -1.3627 -0.4619
 7170SOL    HW233147   1.656   1.593   2.262 -0.6648  0.4627 -0.6399
 7171SOL     OW33148   1.497   4.473  10.109 -0.5312  0.1653  0.2930
 7171SOL    HW133149   1.442   4.503  10.181 -0.6574  1.0688 -0.1834
 7171SOL    HW233150   1.445   4.403  10.070  2.4809 -1.4975 -0.6727
 7172SOL     OW33151   3.107   1.603  15.049 -0.4451 -0.5603  0.1924
 7172SOL    HW133152   3.080   1.635  15.135  0.2799 -1.1597  0.6457
 7172SOL    HW233153   3.023   1.571  15.016 -0.0679 -1.6624  0.3079
 7173SOL     OW33154   0.606   1.369  15.068 -0.4974  0.2755  0.0216
 7173SOL    HW133155   0.605   1.274  15.078  2.7842  0.3977  1.8331
 7173SOL    HW233156   0.520   1.376  15.028 -0.4200  2.0370  0.1470
 7174SOL     OW33157   1.040   1.587   9.299  0.1000 -0.1164  0.1283
 7174SOL    HW133158   1.097   1.643   9.351 -1.1383  1.4275 -0.2037
 7174SOL    HW233159   0.954   1.627   9.304  0.5549  1.1506 -1.7805
 7175SOL     OW33160   1.317   1.319   2.433  0.3204  0.4851 -0.0229
 7175SOL    HW133161   1.248   1.284   2.488 -0.4231  0.0452 -1.2326
 7175SOL    HW233162   1.354   1.383   2.494  0.6235 -0.5264  0.8522
 7176SOL     OW33163   4.389   2.863   4.794  0.4319 -0.6011  0.5267
 7176SOL    HW133164   4.387   2.922   4.719 -1.1815  0.3774  1.3331
 7176SOL    HW233165   4.480   2.835   4.801 -0.0939 -2.2963  0.5886
 7177SOL     OW33166   0.684   2.756   8.544  0.1244  0.6464  0.6810
 7177SOL    HW133167   0.623   2.726   8.476  1.3748 -0.4440  0.0409
 7177SOL    HW233168   0.665   2.696   8.617 -1.5940  0.6648  0.2526
 7178SOL     OW33169   2.229   4.563  12.258  0.2948  0.2420  0.4844
 7178SOL    HW133170   2.181   4.573  12.340  0.7962 -1.9236  1.0386
 7178SOL    HW233171   2.284   4.640  12.274  0.1021  0.2441  1.1151
 7179SOL     OW33172   0.485   0.155  17.649  0.0860  0.1000  0.6311
 7179SOL    HW133173   0.474   0.123  17.738 -0.4787  0.3829  0.6616
 7179SOL    HW233174   0.397   0.150  17.614  0.1728 -3.8525  1.0132
 7180SOL     OW33175   1.222   4.472   5.934 -0.0929  0.3112  0.7640
 7180SOL    HW133176   1.286   4.440   5.997 -0.2392 -0.4020  0.5517
 7180SOL    HW233177   1.260   4.556   5.906  0.9241 -1.1187 -2.1405
 7181SOL     OW33178   1.281   3.451   3.237  0.2616 -0.0595  0.2649
 7181SOL    HW133179   1.207   3.430   3.294 -0.2630 -0.9243 -0.7434
 7181SOL    HW233180   1.238   3.509   3.174  2.0362 -0.0388 -0.9207
 7182SOL     OW33181   2.214   4.361   1.402  0.7371  0.5524 -0.3385
 7182SOL    HW133182   2.258   4.316   1.475 -1.6029  3.7059  3.0526
 7182SOL    HW233183   2.284   4.397   1.348  2.7410 -1.8641  0.5830
 7183SOL     OW33184   1.539   0.741   0.266 -0.3173  0.0620  0.2211
 7183SOL    HW133185   1.510   0.802   0.199  0.0660 -0.0989 -0.0908
 7183SOL    HW233186   1.466   0.739   0.329  0.8400 -0.0657  1.5551
 7184SOL     OW33187   3.455   1.451   8.006  0.1710 -0.7553  0.3183
 7184SOL    HW133188   3.402   1.375   8.032 -0.6085 -0.6368 -0.9560
 7184SOL    HW233189   3.399   1.520   8.042  0.1031 -0.6452 -0.0003
 7185SOL     OW33190   3.181   2.233   2.222  0.2678 -0.3873 -0.0079
 7185SOL    HW133191   3.114   2.220   2.155  1.0027 -2.5598 -0.3010
 7185SOL    HW233192   3.197   2.144   2.251 -1.7433 -0.9664 -0.6836
 7186SOL     OW33193   4.499   3.994   8.116  0.5642 -0.3428 -0.7734
 7186SOL    HW133194   4.436   4.062   8.094 -0.2964 -0.3873  1.5835
 7186SOL    HW233195   4.480   3.974   8.208  2.0640 -1.0999 -0.6192
 7187SOL     OW33196   0.635   4.349   6.464  0.8098 -0.0859  0.3127
 7187SOL    HW133197   0.628   4.276   6.403 -0.5594  0.5370 -0.2664
 7187SOL    HW233198   0.728   4.340   6.484  0.9852  1.0334  0.0198
 7188SOL     OW33199   4.498   3.074  11.109 -0.6875 -0.5794  0.0481
 7188SOL    HW133200   4.563   3.103  11.046 -0.9390  0.5538  0.3083
 7188SOL    HW233201   4.548   3.042  11.184  2.5037  0.1557 -1.7939
 7189SOL     OW33202   2.739   3.947   0.807 -0.3361 -0.0685 -0.0692
 7189SOL    HW133203   2.668   4.009   0.824  0.7647  1.0822  0.3347
 7189SOL    HW233204   2.809   3.976   0.865 -0.5336 -0.8974  0.5861
 7190SOL     OW33205   1.024   4.673   2.256 -0.4115  0.1395  0.1926
 7190SOL    HW133206   1.066   4.619   2.189  1.5302  1.8589  0.0182
 7190SOL    HW233207   1.084   0.011   2.258 -0.3228  0.1245 -1.6612
 7191SOL     OW33208   2.136   3.926   3.513  0.2905  0.0798  0.4605
 7191SOL    HW133209   2.089   4.000   3.551  1.0046  0.1539  1.1880
 7191SOL    HW233210   2.210   3.976   3.478  2.2650 -1.0227  3.1041
 7192SOL     OW33211   2.164   2.269   3.987  0.1475 -0.6287  0.1524
 7192SOL    HW133212   2.125   2.193   4.031 -0.5176 -2.1560 -3.1219
 7192SOL    HW233213   2.249   2.285   4.029  0.4765  0.8882 -1.0843
 7193SOL     OW33214   0.897   0.226   6.307  0.1300 -0.4330 -0.7212
 7193SOL    HW133215   0.861   0.142   6.279 -1.5374  0.1040 -0.2360
 7193SOL    HW233216   0.893   0.205   6.400 -2.0431 -3.1367 -1.4508
 7194SOL     OW33217   1.457   0.880  13.107  0.1923  0.7042 -0.3844
 7194SOL    HW133218   1.388   0.913  13.051 -0.0137  1.5780  0.3796
 7194SOL    HW233219   1.536   0.911  13.061  0.8089 -1.0294 -0.5070
 7195SOL     OW33220   0.329   3.511   2.684 -0.0032 -0.3661  0.1847
 7195SOL    HW133221   0.390   3.528   2.612 -0.3429 -2.9895 -0.6984
 7195SOL    HW233222   0.294   3.599   2.696  1.9642  0.7615 -2.2491
 7196SOL     OW33223   3.451   3.353   2.791 -0.3568  0.0241  0.4077
 7196SOL    HW133224   3.469   3.259   2.797 -1.5015 -0.2408 -0.3665
 7196SOL    HW233225   3.395   3.362   2.714  1.1772  0.8972 -0.6029
 7197SOL     OW33226   4.684   2.683   1.110 -0.3921  0.3280 -0.2201
 7197SOL    HW133227   4.684   2.616   1.178 -0.0790  1.8246  1.2440
 7197SOL    HW233228   4.614   2.634   1.067 -0.4142  1.7406 -1.7953
 7198SOL     OW33229   2.219   0.407   4.914  0.3009 -0.2476  0.0077
 7198SOL    HW133230   2.273   0.360   4.851 -1.3835  0.7103 -2.1451
 7198SOL    HW233231   2.258   0.495   4.920  0.6153 -0.5251  2.1589
 7199SOL     OW33232   0.259   0.744   8.960  0.0444  0.2344 -0.1017
 7199SOL    HW133233   0.299   0.658   8.951 -0.8274 -0.2169  0.3076
 7199SOL    HW233234   0.169   0.723   8.935  0.6326  0.1860 -2.2121
 7200SOL     OW33235   1.773   4.447   6.169  0.1904  0.2867 -0.0974
 7200SOL    HW133236   1.866   4.463   6.152 -0.0076 -0.1410 -1.6033
 7200SOL    HW233237   1.737   4.500   6.240 -3.8210  1.2735 -2.8363
 7201SOL     OW33238   1.142   2.032   6.990 -0.9175 -0.1521 -0.1489
 7201SOL    HW133239   1.199   2.080   7.050 -1.3494  0.3870 -0.1647
 7201SOL    HW233240   1.173   1.943   7.002 -0.0868  0.3693  1.6310
 7202SOL     OW33241   4.241   2.372   7.869 -0.1235 -0.0622 -0.5147
 7202SOL    HW133242   4.218   2.400   7.781  2.8464  3.0198 -0.3067
 7202SOL    HW233243   4.158   2.333   7.896  0.4916 -0.0961  1.2979
 7203SOL     OW33244   0.958   0.339   2.717 -0.1235  0.3615 -0.2514
 7203SOL    HW133245   0.925   0.310   2.802  1.3068  0.8114  0.4556
 7203SOL    HW233246   1.047   0.305   2.713  0.5329  2.0009  0.3832
 7204SOL     OW33247   0.402   0.101   9.137  0.1716  0.3654  0.2126
 7204SOL    HW133248   0.402   0.110   9.042 -2.0572 -3.0587 -0.1015
 7204SOL    HW233249   0.418   0.190   9.171 -1.2197  0.1210  1.5009
 7205SOL     OW33250   1.708   4.364   1.435  0.2399  0.0553  0.4047
 7205SOL    HW133251   1.797   4.331   1.420 -0.1650 -1.5774  1.5919
 7205SOL    HW233252   1.676   4.294   1.492 -1.4857 -0.2903 -0.9954
 7206SOL     OW33253   1.106   0.519   3.285 -0.1522 -0.2732 -0.3125
 7206SOL    HW133254   1.051   0.441   3.290  0.7535 -0.7673  1.9897
 7206SOL    HW233255   1.082   0.554   3.199 -2.5062 -1.9939 -0.3528
 7207SOL     OW33256   0.586   3.469   3.902  0.4150  0.0963  0.3319
 7207SOL    HW133257   0.661   3.453   3.960  0.8481  1.3727  0.1184
 7207SOL    HW233258   0.639   3.493   3.826 -0.4859  0.1017 -0.2920
 7208SOL     OW33259   3.721   2.795  10.384 -0.0058 -0.2055 -0.0368
 7208SOL    HW133260   3.671   2.856  10.330  1.3036 -0.3026 -1.3640
 7208SOL    HW233261   3.681   2.818  10.468 -2.1663 -1.3959 -0.7620
 7209SOL     OW33262   0.767   1.025   8.623  0.3700 -0.1164  0.0118
 7209SOL    HW133263   0.808   1.111   8.621 -2.9328  1.3983 -1.2301
 7209SOL    HW233264   0.783   1.000   8.714  0.1195  0.6581  0.2689
 7210SOL     OW33265   1.893   2.853   4.024 -0.6335  0.1847 -0.1236
 7210SOL    HW133266   1.828   2.784   4.012  1.8613 -2.0922 -0.4552
 7210SOL    HW233267   1.905   2.841   4.118 -0.3505 -0.8342 -0.2978
 7211SOL     OW33268   2.097   1.242   3.651  0.2560  0.3333  0.2520
 7211SOL    HW133269   2.090   1.195   3.568 -3.1242  1.0580  0.1479
 7211SOL    HW233270   2.011   1.285   3.648  0.4420  0.4219 -3.5466
 7212SOL     OW33271   4.504   0.974  11.754 -0.1517 -0.2799 -0.0732
 7212SOL    HW133272   4.578   0.916  11.769  0.8384  0.9047 -0.3144
 7212SOL    HW233273   4.448   0.899  11.738 -0.5783  0.1782 -0.7373
 7213SOL     OW33274   4.482   3.966   0.757  0.4873  0.9413  0.0437
 7213SOL    HW133275   4.410   3.902   0.756  2.5171 -1.3079 -0.8352
 7213SOL    HW233276   4.527   3.937   0.836  0.7558 -0.8092 -0.7514
 7214SOL     OW33277   1.410   4.113  11.842  0.2814 -0.1283 -0.7152
 7214SOL    HW133278   1.361   4.145  11.766  1.0683 -0.2530 -1.2701
 7214SOL    HW233279   1.497   4.151  11.833  0.1798 -0.5017 -3.1206
 7215SOL     OW33280   3.004   4.698   1.776  0.0540 -0.7489 -0.6350
 7215SOL    HW133281   3.016   4.663   1.865  2.4828 -0.2953 -0.8027
 7215SOL    HW233282   3.093   4.727   1.759 -0.4569  0.3137 -1.4977
 7216SOL     OW33283   0.070   0.896   6.789 -0.5780  0.5793  0.7274
 7216SOL    HW133284   0.114   0.840   6.852 -2.8515 -1.1281  0.8093
 7216SOL    HW233285   4.721   0.918   6.825 -1.3343 -0.9394 -0.1194
 7217SOL     OW33286   0.398   0.341  11.333  0.0063 -0.0422 -0.3482
 7217SOL    HW133287   0.364   0.385  11.411 -0.0254  0.5645 -0.7073
 7217SOL    HW233288   0.347   0.380  11.262  1.6485  0.3770 -1.2839
 7218SOL     OW33289   2.658   3.898   8.688 -0.1070  0.1254 -0.3380
 7218SOL    HW133290   2.658   3.805   8.666  1.0477 -0.2211  1.1422
 7218SOL    HW233291   2.693   3.899   8.777  0.9977  0.8671 -0.7865
 7219SOL     OW33292   1.612   3.755  17.426  0.3253 -0.3324  0.5738
 7219SOL    HW133293   1.534   3.725  17.380 -1.1130  0.3321  2.5839
 7219SOL    HW233294   1.563   3.813  17.485 -0.0499 -0.9894  0.9081
 7220SOL     OW33295   1.611   1.091   4.133 -0.5490 -0.2996  0.2252
 7220SOL    HW133296   1.571   1.019   4.085 -1.1904 -0.2981  0.7655
 7220SOL    HW233297   1.542   1.158   4.136 -1.5359 -1.4513  3.0182
 7221SOL     OW33298   2.352   3.275   4.798 -0.0192  0.1392 -0.4516
 7221SOL    HW133299   2.317   3.206   4.853 -0.6809 -0.8058 -2.0577
 7221SOL    HW233300   2.446   3.259   4.807  0.0020  0.7387  0.3978
 7222SOL     OW33301   0.434   2.055   7.537 -0.7085 -0.2834 -0.5970
 7222SOL    HW133302   0.486   2.135   7.541  1.0473 -1.4076 -0.5530
 7222SOL    HW233303   0.445   2.017   7.450  0.6544  3.8442 -2.2060
 7223SOL     OW33304   2.589   1.839   8.106  0.0864  0.9123 -0.0159
 7223SOL    HW133305   2.573   1.820   8.198  1.2358 -2.3281 -0.4837
 7223SOL    HW233306   2.684   1.827   8.098 -0.6508 -4.8027  0.0721
 7224SOL     OW33307   3.834   2.815   6.625  0.6926 -0.5168  0.1601
 7224SOL    HW133308   3.761   2.857   6.578 -0.7096 -1.4408  1.5035
 7224SOL    HW233309   3.793   2.794   6.709  2.8770  1.1601  1.6209
 7225SOL     OW33310   4.084   3.072  14.325  0.1398 -0.1796 -0.3889
 7225SOL    HW133311   3.997   3.091  14.289 -0.9343 -1.3188  1.5302
 7225SOL    HW233312   4.068   2.981  14.353 -0.6791 -0.4300 -1.6465
 7226SOL     OW33313   4.227   1.342   4.800 -0.2318 -0.1904 -0.2597
 7226SOL    HW133314   4.311   1.377   4.767 -1.4325  1.3559 -1.7083
 7226SOL    HW233315   4.232   1.399   4.876 -1.3609  1.4050 -1.3735
 7227SOL     OW33316   3.118   3.439  14.814  0.1834 -0.3821  0.6184
 7227SOL    HW133317   3.101   3.528  14.844  1.6418 -0.5205  1.8440
 7227SOL    HW233318   3.029   3.414  14.790  0.9382  0.7018 -3.3223
 7228SOL     OW33319   3.322   3.991   9.018 -0.4543  0.3023 -0.6451
 7228SOL    HW133320   3.384   3.973   9.089 -0.6841 -0.4006 -0.6229
 7228SOL    HW233321   3.327   4.086   9.023 -1.7070  0.4556 -2.3467
 7229SOL     OW33322   0.333   3.135   2.565  0.3951 -0.4218  0.1472
 7229SOL    HW133323   0.295   3.200   2.506  0.0110 -0.0760  0.7596
 7229SOL    HW233324   0.358   3.202   2.629 -0.6286 -1.3172  1.4822
 7230SOL     OW33325   4.252   0.558   8.396 -0.2980 -0.1260  0.5119
 7230SOL    HW133326   4.292   0.474   8.374  1.5315  1.1582 -1.0099
 7230SOL    HW233327   4.331   0.611   8.407 -2.1734  2.5452  1.1080
 7231SOL     OW33328   2.204   3.543   9.175  0.1985  0.2155 -0.3338
 7231SOL    HW133329   2.262   3.562   9.101  1.1479 -0.6817  0.1879
 7231SOL    HW233330   2.232   3.457   9.206 -0.2158 -0.0293 -0.6297
 7232SOL     OW33331   2.114   3.002  15.796  0.2679 -0.2888 -0.3146
 7232SOL    HW133332   2.078   3.077  15.843  0.7797 -0.7986  0.9015
 7232SOL    HW233333   2.167   2.967  15.868  1.6134  0.4072 -0.9675
 7233SOL     OW33334   0.687   4.252   9.188  0.5495  0.4206 -0.2487
 7233SOL    HW133335   0.605   4.228   9.231  1.2316 -2.3807 -0.4959
 7233SOL    HW233336   0.661   4.269   9.098  1.2278  2.0639 -0.1416
 7234SOL     OW33337   0.099   2.074   5.583 -0.0135  0.0283 -0.1181
 7234SOL    HW133338   0.095   2.073   5.487  0.9012 -0.2702 -0.1566
 7234SOL    HW233339   0.191   2.057   5.602  0.5942  1.9677 -1.3528
 7235SOL     OW33340   0.011   4.681   5.714  0.2063  0.3510  0.1984
 7235SOL    HW133341   4.731   4.594   5.751  1.2019 -0.4405 -1.2076
 7235SOL    HW233342   4.721   4.681   5.623 -0.5557 -0.8741  0.4158
 7236SOL     OW33343   2.811   2.176   4.420  0.4077 -0.5095  0.3086
 7236SOL    HW133344   2.741   2.123   4.459  0.4374 -0.9151 -0.1852
 7236SOL    HW233345   2.813   2.148   4.328 -0.2543 -1.3256  0.5407
 7237SOL     OW33346   3.760   4.358   5.257 -0.0746 -0.4821  0.1262
 7237SOL    HW133347   3.730   4.274   5.223 -0.1586 -0.6208  0.5441
 7237SOL    HW233348   3.853   4.351   5.274  0.3763  0.6055 -1.8893
 7238SOL     OW33349   3.267   3.863   3.055  0.0632 -0.2465 -0.2262
 7238SOL    HW133350   3.362   3.856   3.055  0.0861 -0.0806 -2.0682
 7238SOL    HW233351   3.250   3.783   3.004  0.5922 -0.9490  0.7027
 7239SOL     OW33352   4.441   3.008   7.661  0.0243  0.1670 -0.0286
 7239SOL    HW133353   4.388   3.050   7.594  0.9998  1.4251 -0.0285
 7239SOL    HW233354   4.379   2.982   7.729 -0.6858 -0.2019 -0.8262
 7240SOL     OW33355   0.015   1.058   9.087  0.3501  0.2801  0.1110
 7240SOL    HW133356   4.716   1.028   9.170 -0.2300 -0.6559 -0.4723
 7240SOL    HW233357   0.058   1.133   9.127 -0.5326  0.4447  0.7328
 7241SOL     OW33358   3.819   1.588   6.658  0.3971  0.2206 -0.0016
 7241SOL    HW133359   3.827   1.611   6.750  0.1092  1.3742 -0.2732
 7241SOL    HW233360   3.760   1.656   6.626 -1.7797 -2.1541 -0.9692
 7242SOL     OW33361   0.995   4.727   7.150 -0.3964 -0.5044 -0.8987
 7242SOL    HW133362   1.031   4.684   7.228 -1.2210 -0.3694 -0.4477
 7242SOL    HW233363   1.040   4.682   7.078  2.0425 -0.3290  0.5334
 7243SOL     OW33364   0.859   2.188   9.042  0.0079  0.6916  0.4411
 7243SOL    HW133365   0.841   2.094   9.048 -0.3926  0.7818  0.7088
 7243SOL    HW233366   0.806   2.206   8.965 -0.8405  0.4652  0.9773
 7244SOL     OW33367   0.937   2.985   4.380 -0.0946  0.0340  0.4645
 7244SOL    HW133368   0.964   2.905   4.424 -0.8751 -0.4758  0.0137
 7244SOL    HW233369   0.882   3.019   4.450 -1.1630  0.2686 -0.4871
 7245SOL     OW33370   1.376   0.542   5.713  0.4901  0.0786  0.0663
 7245SOL    HW133371   1.355   0.619   5.766  0.8144  1.2072 -1.4399
 7245SOL    HW233372   1.293   0.494   5.719  0.5919 -0.2565 -1.2220
 7246SOL     OW33373   3.501   4.265   3.371  0.1362 -0.3811 -0.7287
 7246SOL    HW133374   3.533   4.175   3.374 -2.1499 -1.2157 -1.1776
 7246SOL    HW233375   3.567   4.303   3.428 -0.9126 -0.4442  0.5351
 7247SOL     OW33376   1.771   0.263   8.209  0.3729 -0.4580  0.1517
 7247SOL    HW133377   1.715   0.332   8.245 -1.0467 -1.8881  0.7313
 7247SOL    HW233378   1.852   0.282   8.256 -1.3906  0.6664  2.7918
 7248SOL     OW33379   1.163   2.457   8.914  0.9342  0.3117  0.0212
 7248SOL    HW133380   1.128   2.370   8.893  1.8508 -0.0972  0.1789
 7248SOL    HW233381   1.087   2.476   8.969  0.4903  0.9493 -0.8182
 7249SOL     OW33382   3.304   1.847   7.539  0.7062 -0.3380  0.3401
 7249SOL    HW133383   3.236   1.793   7.498  0.1577  0.2551  0.4591
 7249SOL    HW233384   3.322   1.924   7.485  0.3324  0.3686  1.2158
 7250SOL     OW33385   2.824   4.729   5.598  0.3926 -0.1885  0.7585
 7250SOL    HW133386   2.831   0.078   5.555  3.1287 -0.6851  0.1457
 7250SOL    HW233387   2.794   4.676   5.524 -0.9115 -1.8462  2.4921
 7251SOL     OW33388   2.580   3.557   3.391  0.0790 -0.6075  0.7864
 7251SOL    HW133389   2.621   3.573   3.476 -3.6302  0.5453  2.3716
 7251SOL    HW233390   2.492   3.525   3.412 -0.6912  0.8364 -0.3039
 7252SOL     OW33391   3.213   3.258   9.730 -0.0433 -0.4428 -0.0147
 7252SOL    HW133392   3.240   3.314   9.657 -1.0011 -0.3363 -0.2780
 7252SOL    HW233393   3.296   3.211   9.739  0.0311 -0.4066 -0.5512
 7253SOL     OW33394   2.712   3.179   2.578  0.2457  0.1903  0.6070
 7253SOL    HW133395   2.707   3.101   2.522  1.1748  0.9739 -0.5751
 7253SOL    HW233396   2.629   3.158   2.619  0.9360 -1.7942  1.0113
 7254SOL     OW33397   0.427   0.721   7.298 -0.1928  0.1715  0.2220
 7254SOL    HW133398   0.457   0.796   7.350 -0.1126 -0.2597  0.8098
 7254SOL    HW233399   0.387   0.759   7.220 -0.0264  2.0701  1.0584
 7255SOL     OW33400   1.379   2.785   6.883 -0.2976  0.4879 -0.7898
 7255SOL    HW133401   1.474   2.792   6.871  0.0658  1.2608  2.6085
 7255SOL    HW233402   1.369   2.709   6.939 -0.2100 -0.3329 -1.8800
 7256SOL     OW33403   2.939   3.497   6.191  0.3197  0.2318 -0.0192
 7256SOL    HW133404   3.024   3.454   6.178  0.0227  0.4811 -2.7454
 7256SOL    HW233405   2.883   3.474   6.117 -1.7234 -0.6154  1.7947
 7257SOL     OW33406   4.104   1.142   8.092 -0.3860 -0.4887 -0.6895
 7257SOL    HW133407   4.035   1.204   8.066 -0.8520 -1.1326 -1.0006
 7257SOL    HW233408   4.068   1.066   8.047  1.6658 -0.0934 -2.9895
 7258SOL     OW33409   0.561   2.466   0.900 -0.1116  0.1399 -0.1149
 7258SOL    HW133410   0.566   2.551   0.857  2.1422 -0.3904 -0.8715
 7258SOL    HW233411   0.511   2.419   0.833  1.3989 -2.8681  0.8782
 7259SOL     OW33412   3.942   4.470   9.452 -0.3751  0.1169  0.2633
 7259SOL    HW133413   3.984   4.539   9.503 -1.1584  0.4718  0.4343
 7259SOL    HW233414   4.021   4.421   9.432 -0.1136 -0.0051  1.6147
 7260SOL     OW33415   0.738   3.765   7.969  0.0474  0.2613  0.5602
 7260SOL    HW133416   0.767   3.718   8.047  1.6624  0.1898 -0.1006
 7260SOL    HW233417   0.711   3.694   7.910  0.3188  1.4679 -0.9917
 7261SOL     OW33418   3.476   0.920   8.808  0.2674  0.1191  0.3685
 7261SOL    HW133419   3.396   0.931   8.757  0.8613 -1.3900 -0.9131
 7261SOL    HW233420   3.442   0.943   8.894  2.5130  1.6031  0.8652
 7262SOL     OW33421   3.512   2.467   4.564  0.0984  0.4486 -0.3087
 7262SOL    HW133422   3.532   2.384   4.520 -2.1813 -0.3876  0.2325
 7262SOL    HW233423   3.600   2.499   4.583 -0.0045  1.9111 -2.3225
 7263SOL     OW33424   1.189   0.475   2.935 -0.2687  0.6573  0.2058
 7263SOL    HW133425   1.270   0.510   2.971  1.1716 -2.7273  0.2991
 7263SOL    HW233426   1.215   0.470   2.843 -2.3270  2.1066 -0.4457
 7264SOL     OW33427   3.512   2.746   3.151  1.0059  0.4655 -0.4141
 7264SOL    HW133428   3.423   2.734   3.185  0.9807  0.4758 -0.4777
 7264SOL    HW233429   3.555   2.811   3.207  2.2546 -1.1541  0.5095
 7265SOL     OW33430   0.633   2.322   0.020 -0.3562  0.7054  0.3156
 7265SOL    HW133431   0.572   2.279   0.080  1.6969 -0.8190  1.3531
 7265SOL    HW233432   0.584   2.396  17.732  0.7384  0.4802 -1.7435
 7266SOL     OW33433   3.138   2.168   6.780  0.0176  0.4328  0.1565
 7266SOL    HW133434   3.085   2.141   6.856  1.1641 -0.2286  0.7229
 7266SOL    HW233435   3.155   2.262   6.792 -1.0369  0.3190  2.7973
 7267SOL     OW33436   4.422   0.309   5.747 -0.2644  0.3838  0.5582
 7267SOL    HW133437   4.403   0.227   5.793  2.4666 -1.7470 -2.0879
 7267SOL    HW233438   4.514   0.293   5.725 -0.5056  1.5479 -1.3197
 7268SOL     OW33439   4.578   3.463   3.884 -0.3672  0.1666  0.1317
 7268SOL    HW133440   4.597   3.416   3.965 -2.1954  0.6325  0.8201
 7268SOL    HW233441   4.651   3.438   3.826  0.7083  1.5539  0.8789
 7269SOL     OW33442   3.202   0.754   6.882 -0.3830 -0.0890 -0.2572
 7269SOL    HW133443   3.284   0.765   6.834 -0.0950  1.7720  0.6603
 7269SOL    HW233444   3.141   0.718   6.818  0.7069 -1.7552 -0.3675
 7270SOL     OW33445   2.046   1.190   3.381  0.0443  0.1689  0.4651
 7270SOL    HW133446   2.099   1.115   3.406  0.4086 -0.2129 -1.4358
 7270SOL    HW233447   2.088   1.204   3.296 -2.6598  0.9755 -0.7737
 7271SOL     OW33448   3.198   2.761   8.793  0.0420  1.0252 -0.2755
 7271SOL    HW133449   3.227   2.722   8.710 -0.1847 -0.6025  0.3995
 7271SOL    HW233450   3.218   2.851   8.768 -0.9805  1.2993 -0.1112
 7272SOL     OW33451   2.200   2.386   5.364  0.1125  0.0943 -0.5542
 7272SOL    HW133452   2.247   2.307   5.337 -0.5330 -0.7147  0.6622
 7272SOL    HW233453   2.159   2.407   5.280 -1.2229  1.1971  0.3713
 7273SOL     OW33454   2.284   0.499  15.653 -0.8832 -0.6480 -0.3116
 7273SOL    HW133455   2.238   0.582  15.664  0.5022  0.6287 -4.2213
 7273SOL    HW233456   2.341   0.514  15.578  0.8150 -2.5602  0.5961
 7274SOL     OW33457   3.074   4.466   6.692  0.4320  0.5847  0.2467
 7274SOL    HW133458   3.093   4.401   6.625  0.0466  0.5499  0.1744
 7274SOL    HW233459   3.101   4.548   6.650 -1.1697  0.5225 -0.8994
 7275SOL     OW33460   2.878   3.386   1.684 -0.4878  0.6054 -0.7986
 7275SOL    HW133461   2.852   3.369   1.774  1.1862 -0.1188 -0.4550
 7275SOL    HW233462   2.931   3.307   1.671  0.7246  0.9459  2.1320
 7276SOL     OW33463   3.276   0.538  10.473 -0.5780 -0.0175 -0.6856
 7276SOL    HW133464   3.311   0.548  10.562 -0.6816 -1.0728 -0.5279
 7276SOL    HW233465   3.220   0.462  10.487  0.1027 -0.1823  1.1855
 7277SOL     OW33466   4.722   4.485   3.072 -0.0408 -0.4743  0.3883
 7277SOL    HW133467   0.063   4.522   3.032 -0.6306 -0.0799 -0.3809
 7277SOL    HW233468   4.705   4.554   3.137 -1.6355 -0.0842 -0.4576
 7278SOL     OW33469   1.037   3.044   0.681 -0.1772 -0.8471 -0.0499
 7278SOL    HW133470   1.094   3.080   0.613 -0.6554  0.0339  0.0119
 7278SOL    HW233471   1.106   3.003   0.734 -0.4794 -0.8999  0.3005
 7279SOL     OW33472   3.921   4.279   5.807  0.2912  0.5101 -0.0220
 7279SOL    HW133473   3.996   4.318   5.762  1.5135 -1.1888  0.5605
 7279SOL    HW233474   3.886   4.219   5.741  0.9595  3.0323 -2.6939
 7280SOL     OW33475   1.579   4.632   6.919 -0.1707 -0.1316 -0.1995
 7280SOL    HW133476   1.644   4.597   6.980 -1.3369 -1.6438  0.1652
 7280SOL    HW233477   1.576   4.726   6.939 -0.5428 -0.0840 -0.4886
 7281SOL     OW33478   2.386   1.113   8.618 -0.1804  0.2691  0.3087
 7281SOL    HW133479   2.462   1.072   8.574  0.5913 -0.1099  1.9871
 7281SOL    HW233480   2.399   1.104   8.712  0.3675  0.7099  0.2763
 7282SOL     OW33481   3.431   0.376  11.379 -0.6837 -0.0098 -0.6537
 7282SOL    HW133482   3.510   0.420  11.347  1.1531 -2.1567  0.9093
 7282SOL    HW233483   3.430   0.286  11.348  1.8057 -0.2632 -0.0124
 7283SOL     OW33484   0.073   0.226   4.210 -0.6795  0.3304  0.3088
 7283SOL    HW133485   0.062   0.196   4.300 -2.4750  3.8436  1.2762
 7283SOL    HW233486   0.005   0.181   4.158 -1.0601  0.9393  0.2760
 7284SOL     OW33487   1.306   1.306   4.455 -0.1610  0.0274 -0.1010
 7284SOL    HW133488   1.394   1.344   4.457 -1.1871  2.4052  0.2307
 7284SOL    HW233489   1.330   1.224   4.499  0.8480  0.4642  0.1624
 7285SOL     OW33490   3.463   2.067   7.780  0.5260  0.3049  0.3312
 7285SOL    HW133491   3.525   2.106   7.717  1.6271 -0.9222  0.6470
 7285SOL    HW233492   3.467   2.127   7.854 -0.1205  0.0011  0.6129
 7286SOL     OW33493   0.339   0.687   5.191 -0.2223 -0.5955 -0.1368
 7286SOL    HW133494   0.293   0.628   5.132 -0.7437 -2.0048  1.6690
 7286SOL    HW233495   0.276   0.759   5.189  0.0818 -0.3107  0.2629
 7287SOL     OW33496   0.562   0.466   7.239 -0.8753  0.2838 -0.2173
 7287SOL    HW133497   0.492   0.532   7.236  0.4891  1.7513  0.6762
 7287SOL    HW233498   0.626   0.498   7.302 -0.9284 -1.5399  0.7689
 7288SOL     OW33499   2.889   2.026  14.060  0.0384  0.0577 -0.4324
 7288SOL    HW133500   2.918   2.117  14.051  0.2360 -0.0498 -0.9239
 7288SOL    HW233501   2.886   2.015  14.155  2.3093 -1.1814 -0.5214
 7289SOL     OW33502   1.422   2.169   2.099 -0.0872  0.5353 -0.0717
 7289SOL    HW133503   1.351   2.220   2.057  0.1561  0.5565 -0.4590
 7289SOL    HW233504   1.436   2.236   2.166  0.9665  0.2932 -0.0502
 7290SOL     OW33505   3.242   3.746   8.682 -0.3252 -0.3392  0.0808
 7290SOL    HW133506   3.311   3.789   8.732 -0.7629  0.4457 -0.0035
 7290SOL    HW233507   3.162   3.763   8.732  0.3338  1.9271  0.3382
 7291SOL     OW33508   1.112   4.131   3.400 -0.2882  0.3832 -0.3539
 7291SOL    HW133509   1.054   4.111   3.473 -0.0856  0.5348 -0.1529
 7291SOL    HW233510   1.191   4.162   3.444 -0.8419  1.8705 -0.4091
 7292SOL     OW33511   2.215   1.331  11.301  0.1102 -0.4035  0.0697
 7292SOL    HW133512   2.244   1.255  11.351  0.0749 -1.4858 -1.5544
 7292SOL    HW233513   2.287   1.389  11.326 -0.5980  0.9585 -1.0558
 7293SOL     OW33514   3.607   3.488  15.030 -0.6293  0.1929  0.3336
 7293SOL    HW133515   3.699   3.474  15.054 -0.2570 -0.9736 -1.7578
 7293SOL    HW233516   3.608   3.505  14.936 -1.5212 -1.1981  0.0752
 7294SOL     OW33517   3.295   0.639   8.422 -0.1275 -0.0328 -0.3227
 7294SOL    HW133518   3.343   0.637   8.504  0.6985 -0.1487 -0.8034
 7294SOL    HW233519   3.207   0.633   8.457  0.1350  0.0176  0.3480
 7295SOL     OW33520   2.631   1.859   5.807 -0.3816  0.2528 -0.0234
 7295SOL    HW133521   2.702   1.833   5.749 -1.8639 -2.9963 -0.3747
 7295SOL    HW233522   2.667   1.937   5.849  1.7399 -0.1457 -1.0914
 7296SOL     OW33523   0.470   1.631  11.647 -0.0920  0.1214 -0.2156
 7296SOL    HW133524   0.497   1.704  11.591  2.1371  0.2154  0.9839
 7296SOL    HW233525   0.440   1.682  11.723 -2.4847 -1.7630  0.0904
 7297SOL     OW33526   2.630   1.956   9.272 -0.9854  0.7506  0.1301
 7297SOL    HW133527   2.639   1.889   9.339 -1.6054  0.4363 -0.1078
 7297SOL    HW233528   2.617   1.917   9.185  0.0615  1.6602 -0.4528
 7298SOL     OW33529   2.872   3.566   8.236  0.0012  0.1125  0.2591
 7298SOL    HW133530   2.796   3.520   8.201  1.1848  0.1075 -2.3255
 7298SOL    HW233531   2.883   3.625   8.161 -0.4056 -0.4227 -0.2218
 7299SOL     OW33532   4.013   2.696   6.331 -0.8093  0.0069  0.3109
 7299SOL    HW133533   3.991   2.623   6.389 -1.2857  0.1457  0.3088
 7299SOL    HW233534   3.930   2.714   6.286 -1.2394  2.4916  2.0904
 7300SOL     OW33535   4.459   3.850   2.065  0.1409  0.6810 -0.1979
 7300SOL    HW133536   4.386   3.898   2.025  0.4476  1.3385  0.0300
 7300SOL    HW233537   4.478   3.776   2.008  2.3355  2.0026 -1.1746
 7301SOL     OW33538   3.958   0.399   1.218  0.4629 -0.0126  0.3370
 7301SOL    HW133539   3.956   0.491   1.244  0.1281  0.0346  0.1548
 7301SOL    HW233540   3.867   0.392   1.188  0.8891 -2.0206 -0.5182
 7302SOL     OW33541   1.843   1.820   3.265 -0.0715  0.0573  0.3488
 7302SOL    HW133542   1.783   1.807   3.338 -2.8134  0.4098 -1.8019
 7302SOL    HW233543   1.836   1.916   3.263 -0.0955  0.0344 -0.8659
 7303SOL     OW33544   4.689   1.508  11.697 -0.1346 -0.0642 -0.0958
 7303SOL    HW133545   4.689   1.465  11.612  2.1505  3.3043 -1.7862
 7303SOL    HW233546   4.671   1.429  11.748 -1.8103 -0.4145 -1.2306
 7304SOL     OW33547   1.146   2.630  16.227  0.2670  0.0440  0.3938
 7304SOL    HW133548   1.236   2.598  16.237  0.2094  0.5711  2.5815
 7304SOL    HW233549   1.149   2.712  16.276  0.3923 -0.3677  1.0735
 7305SOL     OW33550   0.644   2.322  14.957 -0.2759  0.3949  0.1628
 7305SOL    HW133551   0.612   2.269  14.884 -0.1515 -0.0334  0.4135
 7305SOL    HW233552   0.565   2.368  14.985 -1.2053 -1.5113  0.7039
 7306SOL     OW33553   3.079   4.208   2.191 -0.4558 -0.6260 -0.4143
 7306SOL    HW133554   3.165   4.167   2.201 -1.0109 -1.4117  1.0731
 7306SOL    HW233555   3.088   4.290   2.239  0.7548 -1.7142  1.2244
 7307SOL     OW33556   1.393   4.118   2.497 -0.3335  0.3491  0.0949
 7307SOL    HW133557   1.319   4.142   2.552 -1.0055 -1.4266 -0.0333
 7307SOL    HW233558   1.458   4.182   2.527 -0.7228  0.7295  0.1300
 7308SOL     OW33559   1.963   3.555   2.724 -0.0264 -0.0799  0.4634
 7308SOL    HW133560   1.923   3.547   2.638 -2.2951  0.3528  1.4901
 7308SOL    HW233561   2.040   3.605   2.697  1.3755 -2.4622  0.0258
 7309SOL     OW33562   3.286   0.935   2.897 -0.0626  0.0297  0.5457
 7309SOL    HW133563   3.215   0.907   2.955 -0.3400  0.7736  0.5763
 7309SOL    HW233564   3.357   0.941   2.962 -0.6749  0.6908  1.1577
 7310SOL     OW33565   3.606   4.458  11.069  0.0130 -0.5219 -0.6937
 7310SOL    HW133566   3.511   4.458  11.075  0.0303  1.7377 -0.2959
 7310SOL    HW233567   3.642   4.426  11.152 -0.3992 -3.5660 -1.6888
 7311SOL     OW33568   3.581   1.112  16.380 -0.5082  0.2323  0.5614
 7311SOL    HW133569   3.510   1.051  16.399  1.8474 -2.1038  1.9541
 7311SOL    HW233570   3.528   1.191  16.384 -0.0134  0.6345 -0.7443
 7312SOL     OW33571   3.174   2.265   7.871  0.6143 -0.8373  0.3711
 7312SOL    HW133572   3.266   2.272   7.897  0.9897 -1.8203 -0.6637
 7312SOL    HW233573   3.173   2.178   7.831 -2.2024 -1.5656  1.9617
 7313SOL     OW33574   2.059   4.169   7.196  0.3778 -0.3610  0.0001
 7313SOL    HW133575   2.108   4.222   7.133 -0.7997 -0.7971 -1.3051
 7313SOL    HW233576   2.000   4.129   7.132 -2.7285  3.6728  0.3229
 7314SOL     OW33577   0.016   0.845   4.177  0.2339 -0.1480  0.1614
 7314SOL    HW133578   4.727   0.818   4.089  0.4897 -2.2676  0.7483
 7314SOL    HW233579   0.110   0.863   4.176  0.1114  0.5339  0.6086
 7315SOL     OW33580   3.876   2.899   4.768  0.5137 -0.3765 -0.6070
 7315SOL    HW133581   3.942   2.893   4.837  0.6768  0.2854 -0.7128
 7315SOL    HW233582   3.942   2.872   4.704  0.5018 -1.2382 -0.2628
 7316SOL     OW33583   0.179   0.142   3.735  0.4551 -0.4260 -0.2116
 7316SOL    HW133584   0.167   0.236   3.718  3.1310 -0.4645 -2.1627
 7316SOL    HW233585   0.200   0.141   3.829 -0.7041  0.2676  0.0633
 7317SOL     OW33586   2.885   0.572   0.876  0.3057 -0.2329  0.3437
 7317SOL    HW133587   2.926   0.494   0.839 -1.1414 -1.2785  0.9797
 7317SOL    HW233588   2.848   0.541   0.958  0.5288  1.6726  1.1695
 7318SOL     OW33589   2.899   3.423  14.642  0.5622  0.4845  0.0115
 7318SOL    HW133590   2.875   3.348  14.588  0.3889  0.2470  0.4211
 7318SOL    HW233591   2.937   3.476  14.572 -0.3623  2.4560  0.9965
 7319SOL     OW33592   1.765   4.183   2.728  0.4024 -0.4206  0.4656
 7319SOL    HW133593   1.686   4.232   2.707 -0.0348 -0.1316  2.8216
 7319SOL    HW233594   1.790   4.227   2.810 -1.3259 -0.5401  1.0471
 7320SOL     OW33595   0.999   0.311   8.499 -0.2900  0.7421  0.0065
 7320SOL    HW133596   0.904   0.325   8.506 -0.3710 -0.7111  1.8294
 7320SOL    HW233597   1.034   0.363   8.571 -2.9990  2.5488  0.0506
 7321SOL     OW33598   4.551   3.236  17.280  0.5513 -0.4470  0.1410
 7321SOL    HW133599   4.521   3.145  17.285  0.7302 -0.5280 -0.3392
 7321SOL    HW233600   4.570   3.249  17.187 -0.6286 -1.1156 -0.1962
 7322SOL     OW33601   2.197   0.283   4.358  0.3430 -0.0022 -0.3213
 7322SOL    HW133602   2.216   0.200   4.403 -1.1757  0.3526  0.9817
 7322SOL    HW233603   2.111   0.298   4.398 -0.0894  0.4560 -1.4318
 7323SOL     OW33604   4.573   1.450  15.509  0.2077  0.5833 -0.4542
 7323SOL    HW133605   4.631   1.526  15.518  0.7386 -0.0240  1.3673
 7323SOL    HW233606   4.492   1.501  15.514 -0.2304 -0.0122 -1.6892
 7324SOL     OW33607   2.517   3.244  11.385  0.4521 -0.4094 -0.2710
 7324SOL    HW133608   2.513   3.324  11.332 -0.6457 -0.9647 -1.0286
 7324SOL    HW233609   2.526   3.279  11.474  0.7421 -2.3495  0.4486
 7325SOL     OW33610   0.008   2.622  14.046 -0.2757  0.1581  0.1283
 7325SOL    HW133611   0.062   2.602  14.122 -0.3736  2.0876  0.7090
 7325SOL    HW233612   4.705   2.536  14.042  1.5911 -0.8064  2.2685
 7326SOL     OW33613   3.314   3.612  14.970  0.2072 -0.0781  0.4007
 7326SOL    HW133614   3.260   3.537  14.995 -1.4763  0.5404 -1.4144
 7326SOL    HW233615   3.398   3.594  15.013  0.9121 -0.2451 -1.0346
 7327SOL     OW33616   2.803   0.242   7.429  0.4041 -0.0028 -0.1954
 7327SOL    HW133617   2.792   0.305   7.500 -1.7795 -0.0557 -0.5106
 7327SOL    HW233618   2.712   0.219   7.411  0.0183  1.0402  0.4451
 7328SOL     OW33619   2.830   0.023   7.852 -0.2062 -0.3324  0.3467
 7328SOL    HW133620   2.819   4.689   7.790  1.8513  1.3450 -1.9675
 7328SOL    HW233621   2.757   0.013   7.913  0.1862  1.8338  1.2029
 7329SOL     OW33622   1.735   1.797   6.034  0.3017 -0.3281 -0.0991
 7329SOL    HW133623   1.673   1.863   6.003 -3.1412 -3.5028  0.0070
 7329SOL    HW233624   1.723   1.792   6.129  3.4129  0.0109  0.3182
 7330SOL     OW33625   0.083   0.338  10.478  0.1301 -0.0370  0.0245
 7330SOL    HW133626   0.023   0.328  10.404  1.5940  0.9381 -1.2707
 7330SOL    HW233627   0.112   0.248  10.491 -0.6410 -0.1356  1.1599
 7331SOL     OW33628   4.535   1.040   7.131  0.4594  0.6478  0.6936
 7331SOL    HW133629   4.508   1.124   7.168  1.5048  1.0457  0.5354
 7331SOL    HW233630   4.610   1.000   7.175  0.5639  0.0947  0.0074
 7332SOL     OW33631   4.456   4.377   7.511  0.0918 -0.1540 -0.4995
 7332SOL    HW133632   4.417   4.441   7.452 -0.2225 -0.2237 -0.3669
 7332SOL    HW233633   4.379   4.338   7.553  0.2261  0.8800  0.7243
 7333SOL     OW33634   3.746   0.938   2.927 -0.5410 -0.4570  0.4103
 7333SOL    HW133635   3.666   0.919   2.975  0.8978 -1.0880  2.5777
 7333SOL    HW233636   3.798   0.959   3.005  1.2415  1.6256 -1.3375
 7334SOL     OW33637   1.086   2.720  17.739  0.7529 -0.6261  0.4438
 7334SOL    HW133638   1.115   2.693   0.079 -1.3594 -2.2639  0.6555
 7334SOL    HW233639   1.168   2.740  17.695 -0.0507 -1.4397 -1.4112
 7335SOL     OW33640   4.310   1.866   5.317 -0.0232 -0.1451  0.1324
 7335SOL    HW133641   4.268   1.862   5.403 -1.6606  0.2154 -0.6620
 7335SOL    HW233642   4.390   1.915   5.338 -0.2570  0.1116  0.4254
 7336SOL     OW33643   2.120   2.140   1.986  0.5439 -0.0692  0.2620
 7336SOL    HW133644   2.176   2.212   2.016  0.0541  0.6820 -0.6108
 7336SOL    HW233645   2.152   2.074   2.046  1.5514  0.4090  0.2539
 7337SOL     OW33646   3.282   1.290  16.391  0.8478 -0.1873  0.0287
 7337SOL    HW133647   3.233   1.369  16.415  1.7777  0.9656 -1.8588
 7337SOL    HW233648   3.371   1.322  16.406  0.5521  0.7815 -0.2546
 7338SOL     OW33649   4.020   4.290   1.280  0.1594 -0.0377 -0.0970
 7338SOL    HW133650   3.948   4.342   1.245  0.4939 -0.1446 -0.9355
 7338SOL    HW233651   3.969   4.220   1.322  2.2619 -0.6220  1.4790
 7339SOL     OW33652   3.052   3.172   6.682  0.3678  0.1058  0.1089
 7339SOL    HW133653   3.001   3.200   6.757  0.9193  2.1640 -0.2777
 7339SOL    HW233654   3.037   3.078   6.687  0.0241  0.1711  0.2644
 7340SOL     OW33655   2.539   3.353   3.812 -0.4460  0.2961 -0.7625
 7340SOL    HW133656   2.474   3.393   3.870  0.5195  0.4568  0.2201
 7340SOL    HW233657   2.507   3.268   3.782  1.5385 -0.8479  0.3449
 7341SOL     OW33658   0.902   2.613  15.409 -0.4380 -0.0631 -0.1496
 7341SOL    HW133659   0.864   2.550  15.348 -2.2083 -1.4642  2.4113
 7341SOL    HW233660   0.995   2.607  15.383 -0.8581  0.3157 -1.7361
 7342SOL     OW33661   2.143   2.107   0.608 -0.3990 -0.8409 -0.0412
 7342SOL    HW133662   2.226   2.068   0.581  0.2014 -2.5771  4.3239
 7342SOL    HW233663   2.137   2.085   0.701 -2.2807  0.4852  0.1473
 7343SOL     OW33664   3.680   3.354   2.485 -0.4147 -0.1617  0.0903
 7343SOL    HW133665   3.644   3.355   2.397 -2.3593  2.1398  0.9089
 7343SOL    HW233666   3.671   3.262   2.508 -1.6581  0.2068  1.0799
 7344SOL     OW33667   4.282   2.638  13.344 -0.0049 -0.1246 -0.3992
 7344SOL    HW133668   4.329   2.585  13.408 -1.6156 -1.5826 -0.4060
 7344SOL    HW233669   4.355   2.665  13.289 -0.1283 -0.7954 -0.8978
 7345SOL     OW33670   1.831   3.114   7.386 -0.6124  0.1311 -0.2584
 7345SOL    HW133671   1.776   3.184   7.422 -1.6837 -0.6957 -0.2593
 7345SOL    HW233672   1.771   3.040   7.397 -0.6782  0.6535  3.1232
 7346SOL     OW33673   2.953   3.298   8.499 -1.2210  0.2362 -0.3691
 7346SOL    HW133674   2.890   3.297   8.570  1.3796  0.9017  1.9739
 7346SOL    HW233675   2.921   3.237   8.433  0.5492  1.0112 -1.9534
 7347SOL     OW33676   1.812   3.467  14.069 -0.5012 -0.3761  0.8804
 7347SOL    HW133677   1.861   3.507  14.140  0.9775  0.2435 -0.4940
 7347SOL    HW233678   1.876   3.412  14.024 -1.3388 -0.1759 -0.5798
 7348SOL     OW33679   3.025   2.088   7.483  0.2057  0.1307  0.0225
 7348SOL    HW133680   3.063   2.071   7.397  0.0513  0.7284 -0.1660
 7348SOL    HW233681   2.953   2.148   7.465  0.6905  0.1499 -1.7877
 7349SOL     OW33682   4.640   1.209   9.373  0.2533 -0.1818 -0.3226
 7349SOL    HW133683   4.547   1.228   9.390  0.6439  1.0203  0.5075
 7349SOL    HW233684   4.667   1.300   9.387 -0.0741 -0.1369  0.0411
 7350SOL     OW33685   2.759   2.037  17.553  0.1306  0.0937 -0.3953
 7350SOL    HW133686   2.810   2.114  17.526  2.4599 -1.3956 -0.2305
 7350SOL    HW233687   2.748   1.998  17.467  0.4123 -1.3306  0.2269
 7351SOL     OW33688   1.597   3.511   9.599  0.0930  0.7029 -1.0088
 7351SOL    HW133689   1.596   3.468   9.513 -2.6663 -3.3771  1.0663
 7351SOL    HW233690   1.691   3.524   9.611 -0.2534  0.2541  1.9617
 7352SOL     OW33691   3.735   4.334   3.510 -0.2443  0.2505 -0.4221
 7352SOL    HW133692   3.711   4.374   3.593  0.8427  1.1366 -0.5316
 7352SOL    HW233693   3.735   4.243   3.540 -0.4324 -0.3426 -2.1963
 7353SOL     OW33694   1.665   3.936   1.761  0.1863  0.8738  0.2113
 7353SOL    HW133695   1.667   3.854   1.712 -2.9595  0.4299  0.8003
 7353SOL    HW233696   1.716   3.915   1.839 -0.4180 -0.2701  0.3052
 7354SOL     OW33697   0.661   3.559  13.952  0.1249 -0.1418 -0.1446
 7354SOL    HW133698   0.703   3.644  13.945  2.7469 -1.2399  1.9959
 7354SOL    HW233699   0.733   3.499  13.930 -1.2286 -2.1839  0.9345
 7355SOL     OW33700   0.332   2.968   7.244  0.1183  0.0749 -0.2848
 7355SOL    HW133701   0.353   2.911   7.318 -0.9637  0.9463  0.6771
 7355SOL    HW233702   0.387   3.043   7.267 -0.9160  0.7991 -0.1752
 7356SOL     OW33703   1.174   1.788   3.739 -0.0335  0.9507 -0.0974
 7356SOL    HW133704   1.247   1.738   3.776 -0.6187  0.5832  0.5688
 7356SOL    HW233705   1.127   1.823   3.815 -2.1247 -0.4567 -0.7527
 7357SOL     OW33706   2.227   0.213   9.733 -0.2936 -0.0303 -0.1191
 7357SOL    HW133707   2.164   0.142   9.741 -1.0872  0.4462 -2.2410
 7357SOL    HW233708   2.176   0.282   9.690 -3.7936 -2.5503 -0.0307
 7358SOL     OW33709   1.067   0.940   3.622 -0.4021 -0.4155  0.0254
 7358SOL    HW133710   1.034   0.988   3.545  1.6207  3.5230  1.6457
 7358SOL    HW233711   1.101   0.862   3.577  2.1090 -0.7487  2.5297
 7359SOL     OW33712   0.656   1.261   6.656 -0.3370 -0.6498  0.0933
 7359SOL    HW133713   0.733   1.299   6.614  0.7861 -3.6871 -0.6233
 7359SOL    HW233714   0.650   1.321   6.730  2.2776 -1.0604  0.6166
 7360SOL     OW33715   3.290   1.652   4.893  0.0751  0.8699  0.1868
 7360SOL    HW133716   3.211   1.636   4.945  0.3108 -2.7852 -0.5639
 7360SOL    HW233717   3.326   1.563   4.891 -1.2757  0.2978  1.4667
 7361SOL     OW33718   4.559   0.976   6.854  0.4723  0.5823  0.0579
 7361SOL    HW133719   4.522   1.016   6.932  0.7422  2.9435 -1.0450
 7361SOL    HW233720   4.509   1.027   6.790  0.5180 -0.7783 -1.0762
 7362SOL     OW33721   3.263   3.557   5.350  0.5505 -0.3264  0.0656
 7362SOL    HW133722   3.227   3.479   5.392 -0.1994 -0.4671 -0.8365
 7362SOL    HW233723   3.317   3.581   5.425 -0.4142 -0.9723  0.9680
 7363SOL     OW33724   1.774   2.683  14.626 -0.2573 -0.0571  0.2162
 7363SOL    HW133725   1.690   2.708  14.664 -0.0540 -0.6711  1.0809
 7363SOL    HW233726   1.748   2.680  14.534  2.1297  0.5175 -0.4862
 7364SOL     OW33727   2.187   0.146   9.092 -0.6976  0.0488  0.4388
 7364SOL    HW133728   2.160   0.093   9.017  0.0426  1.0437 -0.5271
 7364SOL    HW233729   2.231   0.213   9.038  0.4441 -0.6465  0.5092
 7365SOL     OW33730   1.422   2.468   1.717  0.6298  0.1836 -0.0350
 7365SOL    HW133731   1.482   2.394   1.715 -1.0150 -1.1242 -0.2850
 7365SOL    HW233732   1.469   2.530   1.660 -0.4087  1.3532  0.3759
 7366SOL     OW33733   2.110   3.696   5.845 -0.1321  0.8471  1.0024
 7366SOL    HW133734   2.114   3.668   5.936 -0.5274 -1.4865  0.3100
 7366SOL    HW233735   2.063   3.624   5.804  0.7132  0.0581  1.4243
 7367SOL     OW33736   3.488   4.061  11.987 -0.1114 -0.0077 -0.0429
 7367SOL    HW133737   3.468   3.969  11.970  0.2209 -0.4494  1.8896
 7367SOL    HW233738   3.416   4.107  11.944  0.5400  0.6498 -0.4143
 7368SOL     OW33739   0.974   1.390  10.250  0.2513 -0.2543 -1.0259
 7368SOL    HW133740   0.886   1.425  10.237  0.1720 -0.0183  0.1613
 7368SOL    HW233741   0.974   1.301  10.213 -0.9532 -0.4545 -0.5343
 7369SOL     OW33742   0.559   3.382   2.968  0.5659  0.5717  0.2565
 7369SOL    HW133743   0.539   3.473   2.989  2.7640  0.9681  0.5938
 7369SOL    HW233744   0.540   3.336   3.050  0.5948 -0.1448 -0.1437
 7370SOL     OW33745   2.560   1.171   9.598  0.2173  0.1348  0.0657
 7370SOL    HW133746   2.523   1.084   9.581  2.3502 -0.7853  0.1043
 7370SOL    HW233747   2.650   1.140   9.593  0.1604 -0.3977  2.1978
 7371SOL     OW33748   2.126   4.015   7.429  0.5139 -0.4241  0.5231
 7371SOL    HW133749   2.091   4.051   7.510 -1.3120 -1.1228  0.0469
 7371SOL    HW233750   2.068   4.060   7.367  1.2953  1.9783  1.5053
 7372SOL     OW33751   4.523   3.845   1.451  0.7301  0.6731  0.6484
 7372SOL    HW133752   4.449   3.898   1.482 -0.1589  0.4855 -1.1500
 7372SOL    HW233753   4.570   3.912   1.400 -0.3229  1.1663  0.3191
 7373SOL     OW33754   4.012   0.496   5.140 -0.7300 -0.8765  0.1501
 7373SOL    HW133755   3.995   0.578   5.094  1.3733 -0.1238  0.6998
 7373SOL    HW233756   4.011   0.434   5.067 -1.5141 -2.2117  1.2770
 7374SOL     OW33757   4.657   2.254   5.385 -0.5077  0.1515 -0.1642
 7374SOL    HW133758   4.579   2.298   5.419 -0.9880 -0.8376  0.0375
 7374SOL    HW233759   4.642   2.166   5.419  0.4823 -0.4483 -1.2730
 7375SOL     OW33760   4.632   3.163   2.114  0.3055 -0.5485  0.5855
 7375SOL    HW133761   4.694   3.140   2.045  0.2926  1.9083 -0.2257
 7375SOL    HW233762   4.660   3.252   2.135  1.4396 -1.5295  3.2562
 7376SOL     OW33763   1.731   2.901  15.464  0.3322 -0.4144  0.0857
 7376SOL    HW133764   1.799   2.907  15.531  1.4015 -2.6297 -0.7912
 7376SOL    HW233765   1.655   2.870  15.512  1.0653  0.2608  1.6923
 7377SOL     OW33766   4.712   4.225   6.216  0.6169  0.1706  0.0615
 7377SOL    HW133767   4.670   4.233   6.301 -2.3160 -0.4105 -1.3302
 7377SOL    HW233768   0.012   4.314   6.218  2.5691 -0.5460 -2.8446
 7378SOL     OW33769   2.488   0.918  10.271  0.4304  0.0454  0.6920
 7378SOL    HW133770   2.522   0.987  10.329 -0.3308 -0.5049  1.7840
 7378SOL    HW233771   2.413   0.947  10.220  0.5863 -0.3361  0.2488
 7379SOL     OW33772   3.372   4.005   0.364  0.2179  0.3444 -0.3534
 7379SOL    HW133773   3.321   3.925   0.379  1.1214 -0.1404  0.1174
 7379SOL    HW233774   3.348   4.068   0.432 -0.7687 -0.1682 -0.2237
 7380SOL     OW33775   1.925   0.583  14.044 -0.3974 -0.2889  0.0995
 7380SOL    HW133776   1.927   0.508  13.984 -1.2304 -0.0318 -0.2498
 7380SOL    HW233777   1.834   0.608  14.031 -0.4264  0.0631  1.0144
 7381SOL     OW33778   1.315   3.768   2.019 -0.5683  0.2794 -0.1371
 7381SOL    HW133779   1.375   3.716   2.072 -2.2866 -0.2916  1.2512
 7381SOL    HW233780   1.327   3.856   2.056 -0.8929  1.8070 -3.6061
 7382SOL     OW33781   1.535   2.074   6.722  0.3644 -0.0762 -0.6230
 7382SOL    HW133782   1.490   1.997   6.688  1.6930 -0.5724 -1.2692
 7382SOL    HW233783   1.624   2.038   6.719 -0.1793 -1.4002 -0.9924
 7383SOL     OW33784   1.710   0.205   9.447 -0.3196  0.5202 -0.3225
 7383SOL    HW133785   1.711   0.127   9.391 -0.8180 -0.6624  1.3344
 7383SOL    HW233786   1.712   0.279   9.386  2.0886  0.3380 -0.4442
 7384SOL     OW33787   1.487   3.358  12.328  0.1873 -0.1141  0.2809
 7384SOL    HW133788   1.478   3.453  12.317  1.5248  0.1478  1.3090
 7384SOL    HW233789   1.546   3.360  12.403  0.9370  0.6032 -0.3289
 7385SOL     OW33790   0.531   4.696   2.163 -0.5953 -0.4441  0.0330
 7385SOL    HW133791   0.563   0.041   2.128  1.1805 -2.2610 -2.5562
 7385SOL    HW233792   0.444   4.710   2.202 -0.7795 -0.5198 -0.3501
 7386SOL     OW33793   3.826   0.275  10.300  0.2197 -0.1194  0.0527
 7386SOL    HW133794   3.791   0.222  10.371 -0.4678  0.7926  0.3957
 7386SOL    HW233795   3.776   0.356  10.305 -0.9892 -0.7476 -1.6697
 7387SOL     OW33796   1.789   0.600  12.571  0.4738  0.1817  0.3263
 7387SOL    HW133797   1.700   0.587  12.605  0.5770  0.9388  0.8946
 7387SOL    HW233798   1.773   0.619  12.479 -0.6646 -0.8589  0.2962
 7388SOL     OW33799   1.895   2.312  17.707 -0.1457  0.0884 -1.2325
 7388SOL    HW133800   1.988   2.329  17.698  0.3966 -2.4668 -0.5425
 7388SOL    HW233801   1.893   2.225   0.001 -1.6510  0.7108  0.0056
 7389SOL     OW33802   1.890   3.410   8.498 -0.4012 -0.5776 -0.4066
 7389SOL    HW133803   1.963   3.425   8.438  0.5447 -0.7733  0.6847
 7389SOL    HW233804   1.894   3.479   8.564 -3.2077 -1.3605  0.5545
 7390SOL     OW33805   2.360   4.585   1.353 -0.0098  0.2342  0.1144
 7390SOL    HW133806   2.270   4.610   1.335  0.0573 -0.3827 -1.1104
 7390SOL    HW233807   2.364   4.603   1.447 -2.0002 -0.2925  0.2943
 7391SOL     OW33808   2.610   0.463   7.910 -0.1117 -0.6753 -1.1264
 7391SOL    HW133809   2.663   0.404   7.964  0.1929  0.2695 -0.3818
 7391SOL    HW233810   2.678   0.528   7.890 -1.0260  0.6327  0.0212
 7392SOL     OW33811   2.644   4.456  11.342  0.1541  0.8431  0.5790
 7392SOL    HW133812   2.730   4.498  11.344  0.3000  0.7061 -3.3659
 7392SOL    HW233813   2.634   4.452  11.437 -1.2461 -0.5706  0.3751
 7393SOL     OW33814   3.757   3.332   7.004  0.3487  0.3112 -0.2019
 7393SOL    HW133815   3.740   3.263   6.941 -1.2289  1.9001 -1.5351
 7393SOL    HW233816   3.776   3.400   6.940  0.2179  0.5613  0.0232
 7394SOL     OW33817   3.746   1.611   4.596  0.0287 -0.0384  0.1476
 7394SOL    HW133818   3.793   1.611   4.680 -0.7164 -0.3684  0.5586
 7394SOL    HW233819   3.738   1.706   4.585  0.3889 -0.0577 -0.3079
 7395SOL     OW33820   0.869   4.261   3.356  0.6900  0.7345  0.0641
 7395SOL    HW133821   0.831   4.191   3.410 -0.5127  2.2525  1.1842
 7395SOL    HW233822   0.962   4.241   3.350  1.1951  2.9263  0.6958
 7396SOL     OW33823   1.137   3.062  10.633  0.2050 -0.1408 -0.4783
 7396SOL    HW133824   1.136   2.973  10.669  0.1447 -0.0988 -0.3758
 7396SOL    HW233825   1.171   3.048  10.545 -1.8472  0.3692 -1.3647
 7397SOL     OW33826   1.590   1.712   6.561 -0.0019  0.0645 -0.0800
 7397SOL    HW133827   1.634   1.777   6.615 -0.5527  0.2099  0.1838
 7397SOL    HW233828   1.497   1.731   6.572  0.0794  1.0434 -1.1268
 7398SOL     OW33829   0.751   0.168   3.150 -0.2694  0.5904  0.4250
 7398SOL    HW133830   0.806   0.246   3.156 -1.3927  1.4305 -0.2681
 7398SOL    HW233831   0.818   0.100   3.149 -0.5198  0.3578 -1.3427
 7399SOL     OW33832   0.126   2.049  15.492 -0.1470  0.1125 -0.2900
 7399SOL    HW133833   0.159   2.129  15.450 -1.4314  0.2870 -0.9504
 7399SOL    HW233834   0.032   2.058  15.503 -0.2178 -0.3245 -0.5820
 7400SOL     OW33835   3.449   2.447   8.428 -0.0344  0.1221  0.6423
 7400SOL    HW133836   3.386   2.376   8.445  0.8734 -0.0212  3.4689
 7400SOL    HW233837   3.514   2.409   8.368 -0.8098  0.2644 -0.2809
 7401SOL     OW33838   1.654   2.406  13.254  0.1239  0.5391  0.2908
 7401SOL    HW133839   1.638   2.350  13.178  3.7541 -0.5250  0.3032
 7401SOL    HW233840   1.627   2.344  13.323  1.7314 -1.0363 -0.4825
 7402SOL     OW33841   1.934   3.084  17.122  0.2764  0.1647  0.9427
 7402SOL    HW133842   1.867   3.147  17.150 -1.0667 -0.7658 -0.2026
 7402SOL    HW233843   1.965   3.069  17.211 -1.2137  0.4284  1.4961
 7403SOL     OW33844   2.423   3.141   2.385  0.1302  0.3189 -0.2106
 7403SOL    HW133845   2.490   3.073   2.382 -1.9403 -1.7142  0.1448
 7403SOL    HW233846   2.368   3.118   2.310  0.7357  1.2010 -0.9260
 7404SOL     OW33847   0.341   1.422   1.593  0.5097  0.0017  0.1442
 7404SOL    HW133848   0.246   1.428   1.589  0.4476 -0.9197  0.1504
 7404SOL    HW233849   0.362   1.515   1.603  0.4716 -0.0059  0.2890
 7405SOL     OW33850   0.009   1.340   4.182  0.2123 -0.6512 -0.3868
 7405SOL    HW133851   0.044   1.284   4.251  0.6196 -0.1493 -0.1874
 7405SOL    HW233852   0.068   1.309   4.113 -1.5739  0.8788 -2.6260
 7406SOL     OW33853   3.844   1.966   7.481 -0.7378  0.6430  0.2137
 7406SOL    HW133854   3.809   1.900   7.422  1.6086 -1.8478  1.6154
 7406SOL    HW233855   3.934   1.967   7.448 -0.8734  0.2744 -0.1750
 7407SOL     OW33856   0.607   3.250   5.525 -0.0711 -0.0732 -0.0158
 7407SOL    HW133857   0.545   3.274   5.594  1.5308  1.1518  1.0055
 7407SOL    HW233858   0.569   3.166   5.500  1.7002 -0.7036 -0.5603
 7408SOL     OW33859   3.320   0.763   2.023  0.2774 -0.2367  0.0177
 7408SOL    HW133860   3.329   0.679   2.068  0.4725 -0.3013 -0.1460
 7408SOL    HW233861   3.341   0.733   1.934 -0.1242 -0.9480  0.1624
 7409SOL     OW33862   3.806   0.529   2.320  0.4840  0.4110 -0.2978
 7409SOL    HW133863   3.802   0.523   2.416 -0.3199  0.4413 -0.3339
 7409SOL    HW233864   3.843   0.616   2.309  0.3725  0.8692  2.7990
 7410SOL     OW33865   0.576   0.488   9.810  0.5156 -0.2375  0.3398
 7410SOL    HW133866   0.636   0.561   9.819 -1.4753  1.8147 -2.8471
 7410SOL    HW233867   0.581   0.460   9.718  0.2352  1.1207 -0.0877
 7411SOL     OW33868   0.901   2.724   5.077 -0.2743 -0.3935 -0.2880
 7411SOL    HW133869   0.884   2.664   5.004 -0.6557  0.5501 -0.9687
 7411SOL    HW233870   0.880   2.669   5.153  0.4317 -0.7795 -0.3741
 7412SOL     OW33871   1.720   0.110   7.707  0.0700 -0.4348  0.9198
 7412SOL    HW133872   1.803   0.073   7.678 -0.2156  1.9254 -2.9459
 7412SOL    HW233873   1.733   0.198   7.671  0.6790 -0.7263  0.4289
 7413SOL     OW33874   0.017   2.558   8.162 -0.9760 -0.2598  0.1338
 7413SOL    HW133875   0.034   2.506   8.241 -2.0630 -1.6145 -0.5257
 7413SOL    HW233876   4.674   2.601   8.190 -1.0274 -1.5037  1.8794
 7414SOL     OW33877   2.293   3.646   1.863  0.1176 -0.3477 -0.3341
 7414SOL    HW133878   2.254   3.579   1.807 -1.2164 -1.6043  2.1076
 7414SOL    HW233879   2.386   3.626   1.861  0.4943  1.1686  2.1113
 7415SOL     OW33880   4.191   3.152   4.901 -0.6710 -0.1353  0.3413
 7415SOL    HW133881   4.220   3.169   4.811  0.2285 -0.6772  0.5182
 7415SOL    HW233882   4.173   3.059   4.889 -1.8767  0.0904  0.4924
 7416SOL     OW33883   2.481   0.779   2.519  0.6298 -0.3684 -0.4041
 7416SOL    HW133884   2.495   0.685   2.506  2.9636  0.1422 -1.4132
 7416SOL    HW233885   2.479   0.813   2.430  2.0516 -0.4749 -0.4652
 7417SOL     OW33886   0.890   3.089   7.714 -0.2684 -0.1053 -0.6314
 7417SOL    HW133887   0.832   3.083   7.638 -1.9631 -0.8555  0.7076
 7417SOL    HW233888   0.827   3.111   7.783  0.8591  0.4771  0.2061
 7418SOL     OW33889   4.122   0.667  16.561 -0.0735 -0.3019  0.0178
 7418SOL    HW133890   4.128   0.605  16.633  1.5183 -1.8893 -1.4695
 7418SOL    HW233891   4.209   0.671  16.521  0.1771 -0.0485  0.5886
 7419SOL     OW33892   2.420   2.333   9.178  0.7708  0.4562  0.0234
 7419SOL    HW133893   2.418   2.237   9.186 -1.0214  0.4662 -0.3588
 7419SOL    HW233894   2.367   2.345   9.099  2.5762  1.5789 -1.0079
 7420SOL     OW33895   0.768   4.730   6.350 -0.1588 -0.2430 -0.5655
 7420SOL    HW133896   0.829   4.684   6.409 -0.6741  0.3911  0.4562
 7420SOL    HW233897   0.733   4.658   6.296 -2.3890 -0.1120  0.7309
 7421SOL     OW33898   3.089   2.790  10.354  0.3473 -0.2899  0.0651
 7421SOL    HW133899   3.119   2.810  10.266 -0.4112  1.1176  0.1258
 7421SOL    HW233900   3.004   2.748  10.338 -0.4107  1.2776 -0.0665
 7422SOL     OW33901   3.142   4.431   7.823  0.4443  0.2453 -0.6781
 7422SOL    HW133902   3.230   4.399   7.802  0.9983  1.0958  0.3326
 7422SOL    HW233903   3.102   4.387   7.748 -1.3036  0.7360 -0.0337
 7423SOL     OW33904   0.152   1.739  10.535  0.1489  0.0802  0.1188
 7423SOL    HW133905   0.093   1.720  10.608  0.9047  0.7236  0.8926
 7423SOL    HW233906   0.215   1.668  10.541  1.6787  1.3878 -0.3961
 7424SOL     OW33907   2.457   3.967  17.566  0.6881 -0.1643  0.3241
 7424SOL    HW133908   2.407   3.976  17.647 -0.3578 -2.4404 -0.0646
 7424SOL    HW233909   2.491   3.878  17.577  1.6925  0.2387  0.5209
 7425SOL     OW33910   3.286   0.321   8.891 -0.1006  0.0124  0.1498
 7425SOL    HW133911   3.372   0.351   8.920 -0.1281 -0.7418  1.0249
 7425SOL    HW233912   3.281   0.238   8.939  1.7271 -0.7040 -0.9078
 7426SOL     OW33913   4.349   2.078   4.884  0.1678  0.1667  0.6214
 7426SOL    HW133914   4.312   2.165   4.901 -3.9770 -0.8690 -3.1137
 7426SOL    HW233915   4.435   2.112   4.858 -0.5288  1.4432 -0.0224
 7427SOL     OW33916   1.283   0.616  12.293 -0.5216 -0.5144 -0.3752
 7427SOL    HW133917   1.333   0.685  12.338 -0.7856 -0.2173 -0.5333
 7427SOL    HW233918   1.297   0.651  12.205 -3.3819  2.9861  0.5289
 7428SOL     OW33919   4.457   3.828  13.903  0.3844  0.4572  0.2858
 7428SOL    HW133920   4.408   3.753  13.935  1.2300 -0.7486 -1.2599
 7428SOL    HW233921   4.390   3.897  13.904  1.8304  1.8978 -1.1348
 7429SOL     OW33922   1.013   1.549   7.209 -0.2341  0.1870  0.2629
 7429SOL    HW133923   1.007   1.458   7.240  0.3498  0.1681  0.3167
 7429SOL    HW233924   0.978   1.531   7.121 -0.5713  2.2923 -0.0366
 7430SOL     OW33925   4.193   1.641   0.714 -0.5863  0.3635 -0.7459
 7430SOL    HW133926   4.244   1.601   0.785 -1.0972 -1.2279 -1.2682
 7430SOL    HW233927   4.150   1.716   0.754  0.4271  0.1244  0.8101
 7431SOL     OW33928   1.591   0.473   5.519  0.6671  0.2361  0.1334
 7431SOL    HW133929   1.521   0.510   5.573  0.1958  1.7887 -1.5407
 7431SOL    HW233930   1.567   0.382   5.505 -1.3202  1.2192 -2.8871
 7432SOL     OW33931   0.741   1.556   4.123  0.3918  0.3475  0.4022
 7432SOL    HW133932   0.722   1.505   4.202 -1.1073 -0.6546 -0.6046
 7432SOL    HW233933   0.770   1.499   4.052 -2.1875 -0.0790 -0.3158
 7433SOL     OW33934   2.825   4.515   2.307 -0.1998  0.3882 -0.4869
 7433SOL    HW133935   2.849   4.483   2.220 -3.0522  0.9471 -1.5106
 7433SOL    HW233936   2.868   4.452   2.363 -0.8172 -1.0757 -1.6624
 7434SOL     OW33937   4.426   0.157   4.183 -0.3091  0.4222 -0.8034
 7434SOL    HW133938   4.390   0.177   4.096 -0.3392  2.4132 -0.3500
 7434SOL    HW233939   4.372   0.216   4.236 -0.4887 -0.3966 -0.0723
 7435SOL     OW33940   0.981   3.496  13.003  0.0079 -0.0577  0.3450
 7435SOL    HW133941   0.936   3.433  12.947  0.4797  0.4810 -0.6251
 7435SOL    HW233942   0.929   3.575  12.992  1.0658  0.4659 -0.8717
 7436SOL     OW33943   0.373   4.733   3.161 -0.4011 -0.4057  0.1963
 7436SOL    HW133944   0.367   0.039   3.247  2.2260  1.1751 -0.4158
 7436SOL    HW233945   0.461   4.699   3.178 -0.7044 -1.0260  0.5329
 7437SOL     OW33946   2.845   3.853   4.027 -0.3358 -0.2098 -0.3260
 7437SOL    HW133947   2.843   3.878   4.120  2.2851  3.0548 -1.1134
 7437SOL    HW233948   2.809   3.765   4.031  1.3394 -0.8921 -0.3366
 7438SOL     OW33949   1.447   2.450   9.612  0.6457 -0.2241  0.1427
 7438SOL    HW133950   1.477   2.519   9.671  0.3389 -0.2837  0.3717
 7438SOL    HW233951   1.395   2.399   9.675 -1.6212  1.0007 -0.7535
 7439SOL     OW33952   1.330   0.035  10.780  0.3334  0.2101  0.1822
 7439SOL    HW133953   1.270   0.080  10.839 -1.5013  0.9550 -2.2466
 7439SOL    HW233954   1.386   4.731  10.846 -1.3733  1.0341  2.1324
 7440SOL     OW33955   2.009   0.152   4.830  0.1604 -0.1174 -0.0352
 7440SOL    HW133956   1.917   0.139   4.851  0.6380 -0.9827  1.5053
 7440SOL    HW233957   2.049   0.148   4.917  1.4388  2.4770 -0.4979
 7441SOL     OW33958   1.094   0.797   6.579  0.2019  0.2496 -0.0299
 7441SOL    HW133959   1.104   0.749   6.661 -0.9724 -1.3546 -0.8260
 7441SOL    HW233960   1.040   0.872   6.604  0.6871  0.6768 -0.2699
 7442SOL     OW33961   1.131   3.145   5.154  0.5601 -0.0949 -0.5228
 7442SOL    HW133962   1.203   3.086   5.132  0.5778  0.2467 -1.3817
 7442SOL    HW233963   1.150   3.161   5.246 -0.4544  0.0289 -0.3319
 7443SOL     OW33964   3.449   2.382   1.675 -0.2916  0.2125 -0.0568
 7443SOL    HW133965   3.455   2.291   1.705 -2.9420 -0.0110 -0.2345
 7443SOL    HW233966   3.519   2.384   1.609  0.1207  0.8438  0.3977
 7444SOL     OW33967   1.052   3.889   4.850  0.2339  0.0316 -0.2617
 7444SOL    HW133968   1.033   3.796   4.840  2.9298 -0.8013  2.2424
 7444SOL    HW233969   1.042   3.883   4.945  1.2129  1.7313 -0.0504
 7445SOL     OW33970   2.326   0.988  12.170 -0.3238 -0.3002  0.6323
 7445SOL    HW133971   2.397   0.986  12.106 -2.2742 -0.6245 -1.4886
 7445SOL    HW233972   2.283   0.905  12.147  1.8963 -1.5525  1.0112
 7446SOL     OW33973   0.034   0.093   9.096 -0.1961 -0.0947 -0.2739
 7446SOL    HW133974   0.058   0.036   9.024 -0.8987 -0.4676 -0.2163
 7446SOL    HW233975   4.682   0.125   9.079 -1.2289 -4.0144 -2.1919
 7447SOL     OW33976   0.852   2.718   2.453 -0.3072  0.0397 -0.1676
 7447SOL    HW133977   0.858   2.708   2.548 -1.6773 -2.2852 -0.3315
 7447SOL    HW233978   0.846   2.813   2.439 -1.9059  0.0747  0.7806
 7448SOL     OW33979   0.112   2.587   5.171  0.2702  0.1228  0.2697
 7448SOL    HW133980   0.068   2.667   5.141  0.0069  0.6611  2.1000
 7448SOL    HW233981   0.054   2.562   5.242 -0.1378  2.5355  0.7871
 7449SOL     OW33982   1.856   3.539  13.234  0.4463 -0.0458  0.2400
 7449SOL    HW133983   1.830   3.448  13.244  1.9248 -0.6214 -1.1946
 7449SOL    HW233984   1.789   3.567  13.171 -2.3369 -3.1040  1.8836
 7450SOL     OW33985   2.654   4.225   1.269 -0.1968 -0.1129  0.2639
 7450SOL    HW133986   2.637   4.266   1.354  0.5405  1.2768 -0.2620
 7450SOL    HW233987   2.710   4.151   1.291 -0.1157  0.3061  1.4293
 7451SOL     OW33988   1.471   0.700  10.661  0.2320 -0.4691  0.5602
 7451SOL    HW133989   1.553   0.676  10.617  1.0876 -0.1653  1.9803
 7451SOL    HW233990   1.407   0.636  10.630 -0.8470  0.5511  0.6758
 7452SOL     OW33991   4.679   2.547   3.985 -0.2445 -0.0166  0.3193
 7452SOL    HW133992   4.664   2.620   3.925 -1.1914  0.0789  0.6838
 7452SOL    HW233993   4.734   2.589   4.051  0.9229  0.0708 -0.6906
 7453SOL     OW33994   2.297   2.969   1.917 -0.8859  0.6470  0.0833
 7453SOL    HW133995   2.383   2.962   1.958 -0.5093 -0.1985 -0.8623
 7453SOL    HW233996   2.299   2.969   1.822 -1.0099 -1.3801  0.0689
 7454SOL     OW33997   2.849   3.167   2.137  0.5452 -0.4628 -0.4791
 7454SOL    HW133998   2.806   3.086   2.109 -1.1591  0.4110 -0.4257
 7454SOL    HW233999   2.926   3.158   2.080 -0.6023  0.9248 -2.2606
 7455SOL     OW34000   0.184   0.135   7.694 -0.3393 -0.4004 -0.4914
 7455SOL    HW134001   0.249   0.180   7.748  1.3205  0.2141 -2.9945
 7455SOL    HW234002   0.232   0.067   7.646 -2.3674 -1.0811 -1.5369
 7456SOL     OW34003   3.831   1.654  14.735 -0.2346  0.4232 -0.6384
 7456SOL    HW134004   3.898   1.722  14.751  0.7222 -1.2272  2.4624
 7456SOL    HW234005   3.764   1.696  14.789  0.3150  2.2456 -1.3771
 7457SOL     OW34006   4.447   1.487   2.610 -0.1209 -0.3452  0.1627
 7457SOL    HW134007   4.491   1.403   2.596  3.3407  1.2383  1.5407
 7457SOL    HW234008   4.498   1.552   2.561 -1.3048  0.1814 -0.3789
 7458SOL     OW34009   3.381   0.686   7.617 -0.3330 -0.2920  0.0617
 7458SOL    HW134010   3.466   0.718   7.646  0.4504 -3.0120  0.7499
 7458SOL    HW234011   3.365   0.746   7.544  0.2561  1.4748  1.3968
 7459SOL     OW34012   3.369   4.667   1.726  0.7400 -0.6707  0.5230
 7459SOL    HW134013   3.442   4.703   1.777  1.4742 -3.2740  1.3011
 7459SOL    HW234014   3.362   4.579   1.762  0.9027  0.0121  2.2239
 7460SOL     OW34015   2.374   4.363   2.540 -0.2974 -0.4600  0.3283
 7460SOL    HW134016   2.278   4.355   2.536 -0.1101 -0.6349 -4.7756
 7460SOL    HW234017   2.400   4.316   2.460 -0.6341  1.2381 -0.7865
 7461SOL     OW34018   1.656   1.718   5.506 -0.1050  0.1739  0.0988
 7461SOL    HW134019   1.649   1.807   5.540 -3.5428  0.2767 -0.8232
 7461SOL    HW234020   1.650   1.745   5.414  1.3903  0.3720  0.0513
 7462SOL     OW34021   1.038   1.968   6.180 -0.4020 -0.0675  0.0868
 7462SOL    HW134022   0.967   2.020   6.217 -0.2534 -0.5720  1.0774
 7462SOL    HW234023   1.048   1.909   6.255  1.9586 -0.2813 -0.3923
 7463SOL     OW34024   4.145   2.328   8.775  0.0273 -0.1339 -0.0870
 7463SOL    HW134025   4.232   2.368   8.782 -0.1516 -0.0309  1.5441
 7463SOL    HW234026   4.143   2.276   8.856 -2.0460 -0.9423 -0.6695
 7464SOL     OW34027   3.168   2.141   9.109  0.1822 -0.0925 -0.6687
 7464SOL    HW134028   3.082   2.102   9.090 -0.0292  0.1595 -0.2278
 7464SOL    HW234029   3.230   2.072   9.130 -0.6879 -0.6734 -0.0164
 7465SOL     OW34030   4.021   3.237   2.050  0.4110  0.0947  0.5791
 7465SOL    HW134031   4.076   3.171   2.007  2.6552  1.1224  1.8566
 7465SOL    HW234032   4.078   3.287   2.109  0.0486  2.1166 -0.8061
 7466SOL     OW34033   1.211   2.331   8.288  0.5802 -0.0284 -0.0110
 7466SOL    HW134034   1.154   2.369   8.355  1.5270  1.8888 -0.2801
 7466SOL    HW234035   1.168   2.246   8.290  2.1487 -0.7583  2.0984
 7467SOL     OW34036   0.504   3.194  11.738  0.3748  0.3062  0.1565
 7467SOL    HW134037   0.486   3.157  11.824 -2.1063  0.8670 -0.1273
 7467SOL    HW234038   0.441   3.265  11.742 -0.3660 -0.2875 -0.8531
 7468SOL     OW34039   1.453   3.643   6.720 -0.2924  0.5991 -0.4562
 7468SOL    HW134040   1.445   3.652   6.625 -1.3022 -0.9697 -0.5280
 7468SOL    HW234041   1.496   3.727   6.735  2.0031 -0.5000 -0.8761
 7469SOL     OW34042   3.156   3.280  15.963 -0.1696 -0.2821  0.3117
 7469SOL    HW134043   3.135   3.373  15.970 -1.0927 -0.7316  3.0554
 7469SOL    HW234044   3.078   3.246  15.918  0.3273  2.4696 -2.6931
 7470SOL     OW34045   2.608   2.601   6.522  0.8929 -0.4728  0.2444
 7470SOL    HW134046   2.609   2.543   6.445 -1.2663 -2.2857  1.5909
 7470SOL    HW234047   2.539   2.563   6.577  1.2190  0.8296  1.5463
 7471SOL     OW34048   4.556   1.424   3.375  0.1270  0.0665  0.3259
 7471SOL    HW134049   4.627   1.446   3.315 -0.1320  0.7116  0.2570
 7471SOL    HW234050   4.604   1.422   3.457  1.7746  2.0550 -0.5778
 7472SOL     OW34051   4.528   0.671   1.836 -0.5100 -0.7840 -0.0560
 7472SOL    HW134052   4.541   0.732   1.909 -1.3033 -1.3241  0.5469
 7472SOL    HW234053   4.603   0.695   1.781 -1.8346  0.4825 -1.3033
 7473SOL     OW34054   0.143   1.906   1.949  0.1485 -0.5975 -0.2944
 7473SOL    HW134055   0.159   1.994   1.984 -0.5437  0.1666 -1.8543
 7473SOL    HW234056   0.071   1.925   1.889  0.8855 -3.6208 -2.1185
 7474SOL     OW34057   2.876   3.963   8.210  0.2187 -0.1506 -0.0483
 7474SOL    HW134058   2.905   4.007   8.130  1.9173  2.3317  1.9154
 7474SOL    HW234059   2.961   3.942   8.249  1.5065  2.5573 -1.4117
 7475SOL     OW34060   1.636   3.868   7.241  0.0445 -0.0879  0.4424
 7475SOL    HW134061   1.550   3.895   7.208  0.7709 -0.4220 -1.7615
 7475SOL    HW234062   1.638   3.793   7.181  0.9637  0.3233 -0.0387
 7476SOL     OW34063   3.809   2.848  12.920 -0.5897  0.0251  0.1579
 7476SOL    HW134064   3.750   2.773  12.913 -0.7516  0.2833 -1.3499
 7476SOL    HW234065   3.861   2.826  12.842 -1.1861 -0.2141 -0.1719
 7477SOL     OW34066   3.004   2.554   5.648 -0.2700  0.4425  0.8161
 7477SOL    HW134067   3.071   2.505   5.696 -1.1968 -1.0757  0.5309
 7477SOL    HW234068   3.057   2.633   5.631 -1.2928  1.0672  0.5564
 7478SOL     OW34069   0.700   4.496  12.223 -0.1488  0.7731 -0.1435
 7478SOL    HW134070   0.718   4.543  12.141  1.0558 -0.8284 -0.7921
 7478SOL    HW234071   0.702   4.407  12.187 -1.9680  0.9821 -0.7827
 7479SOL     OW34072   2.700   0.214   5.198  0.5121  0.1503 -0.4718
 7479SOL    HW134073   2.724   0.220   5.290  0.9752 -1.4386 -0.4792
 7479SOL    HW234074   2.663   0.126   5.186  0.5833 -0.2562  2.4551
 7480SOL     OW34075   1.856   3.956   6.689  0.1481 -0.5201  0.2347
 7480SOL    HW134076   1.808   4.020   6.636  0.7009  1.4167  2.0207
 7480SOL    HW234077   1.943   3.996   6.687  0.2623 -0.5291  3.7472
 7481SOL     OW34078   3.755   4.627   4.569  0.8154 -0.9797  0.2904
 7481SOL    HW134079   3.712   4.683   4.505  0.9435 -1.5567 -0.3121
 7481SOL    HW234080   3.689   4.619   4.637 -0.0078  0.2059 -0.3710
 7482SOL     OW34081   3.211   0.609   3.881  0.0642  0.1343  0.3296
 7482SOL    HW134082   3.274   0.670   3.842 -0.0068  0.1611  0.2571
 7482SOL    HW234083   3.143   0.673   3.902 -0.8540 -0.7665  0.0684
 7483SOL     OW34084   4.693   2.122   9.125 -0.4899 -0.4340 -0.3811
 7483SOL    HW134085   4.640   2.197   9.151  0.7646  0.3176 -0.0012
 7483SOL    HW234086   0.021   2.138   9.193 -1.1683 -1.3005  0.4756
 7484SOL     OW34087   0.792   0.344   9.954 -0.4377 -0.3809 -0.2999
 7484SOL    HW134088   0.827   0.294   9.881  0.0771  2.3317 -1.9127
 7484SOL    HW234089   0.718   0.394   9.920 -0.6907 -0.9910 -0.6427
 7485SOL     OW34090   4.189   0.742   3.989  0.1337  0.0098 -0.2949
 7485SOL    HW134091   4.189   0.658   3.942  1.9173 -0.8991  1.3539
 7485SOL    HW234092   4.098   0.771   3.983  0.0564 -0.1550  0.0998
 7486SOL     OW34093   2.206   4.085   9.679 -0.2124 -0.4112 -0.0189
 7486SOL    HW134094   2.289   4.077   9.725  0.0569 -0.1215 -0.4626
 7486SOL    HW234095   2.229   4.106   9.589 -0.6657 -0.0558 -0.0528
 7487SOL     OW34096   3.374   3.982   7.064  0.4574 -0.6825  0.1563
 7487SOL    HW134097   3.371   4.077   7.053  0.4904 -0.7658 -0.5506
 7487SOL    HW234098   3.390   3.964   6.971  1.1239  0.4107  0.0513
 7488SOL     OW34099   2.792   1.962   1.916 -0.1533 -0.3827  0.1348
 7488SOL    HW134100   2.705   1.972   1.878 -0.4472  0.8072  1.1164
 7488SOL    HW234101   2.810   1.869   1.899 -1.0555 -0.3039 -1.2620
 7489SOL     OW34102   4.511   2.670   9.469 -0.1925 -0.3194 -0.6781
 7489SOL    HW134103   4.469   2.753   9.445  1.2343  0.6770  0.2661
 7489SOL    HW234104   4.446   2.633   9.528 -0.5949 -0.5756 -1.2834
 7490SOL     OW34105   4.205   3.150   7.863 -0.1947  0.0438 -0.2137
 7490SOL    HW134106   4.267   3.168   7.933  2.0438  0.5636 -2.3385
 7490SOL    HW234107   4.169   3.065   7.891 -2.8678  0.8928 -1.0900
 7491SOL     OW34108   4.594   3.924   1.019 -0.2305 -0.2759  0.2791
 7491SOL    HW134109   4.520   3.893   1.071 -0.2028 -0.1023  0.4228
 7491SOL    HW234110   4.662   3.865   1.051  1.2479  1.0846 -0.3765
 7492SOL     OW34111   2.370   1.060   3.680 -0.7246 -0.1080 -0.4841
 7492SOL    HW134112   2.281   1.047   3.712 -0.6492  1.1799  0.2324
 7492SOL    HW234113   2.413   0.975   3.676  1.3315  0.9507 -0.8787
 7493SOL     OW34114   2.983   1.532   7.112 -0.2086 -0.3413 -0.2521
 7493SOL    HW134115   2.945   1.452   7.077 -1.0808  0.5271 -1.2935
 7493SOL    HW234116   2.918   1.596   7.083 -0.7949 -1.2561 -0.9540
 7494SOL     OW34117   0.940   2.418   4.657 -0.4657  0.2716  0.2640
 7494SOL    HW134118   1.024   2.447   4.694 -0.4847  1.5277 -0.6699
 7494SOL    HW234119   0.939   2.325   4.680  1.3134  0.3895  0.8459
 7495SOL     OW34120   2.561   1.403   7.569 -0.0568  0.3761  0.1198
 7495SOL    HW134121   2.588   1.410   7.477  0.7818  1.4596  0.4575
 7495SOL    HW234122   2.502   1.478   7.573  0.0794  0.6035 -1.8359
 7496SOL     OW34123   0.617   2.117   4.795  0.1636  0.0422 -0.3254
 7496SOL    HW134124   0.590   2.183   4.859  0.8318 -0.4932  0.5092
 7496SOL    HW234125   0.691   2.077   4.841  0.1625 -0.5736 -0.8584
 7497SOL     OW34126   1.696   1.602   6.320  0.3818  0.0288 -0.7861
 7497SOL    HW134127   1.667   1.680   6.368  0.1658 -1.8699  2.1741
 7497SOL    HW234128   1.788   1.586   6.344 -0.0089 -1.0026  0.0036
 7498SOL     OW34129   4.390   3.139   2.294 -0.0575 -0.0765 -0.4392
 7498SOL    HW134130   4.360   3.100   2.376  0.1311 -1.0970 -0.8565
 7498SOL    HW234131   4.396   3.231   2.320 -0.0521  0.3219 -1.8064
 7499SOL     OW34132   4.600   4.540   4.257  0.2054  0.0946  0.0899
 7499SOL    HW134133   4.552   4.570   4.179 -0.3944  0.4782  0.5983
 7499SOL    HW234134   4.626   4.624   4.295 -0.1193 -0.0635  0.6570
 7500SOL     OW34135   2.653   2.750   3.395 -0.5226 -0.3911 -0.5872
 7500SOL    HW134136   2.708   2.741   3.473 -0.4164 -1.5003 -0.7869
 7500SOL    HW234137   2.615   2.662   3.385  0.7130 -1.3878  3.5523
 7501SOL     OW34138   0.859   4.288   6.594 -0.0307  0.3273 -0.3559
 7501SOL    HW134139   0.906   4.343   6.657 -0.0598  1.0020 -0.9223
 7501SOL    HW234140   0.891   4.198   6.602  0.9483  0.7157  0.0920
 7502SOL     OW34141   2.781   2.311   3.265  0.4092 -0.3669 -0.1740
 7502SOL    HW134142   2.859   2.299   3.317  0.3710 -0.4756 -0.1426
 7502SOL    HW234143   2.815   2.346   3.183  0.4609  0.4887  0.2176
 7503SOL     OW34144   0.351   3.645   4.016 -0.0764 -0.1066 -0.7712
 7503SOL    HW134145   0.428   3.590   4.002  0.2709 -0.4023  2.2005
 7503SOL    HW234146   0.386   3.714   4.074  1.2825  0.0757 -1.7895
 7504SOL     OW34147   2.049   2.120   7.677 -0.1253  0.4129  0.1244
 7504SOL    HW134148   2.044   2.201   7.727 -0.1916  0.4132  0.1167
 7504SOL    HW234149   2.068   2.161   7.592 -0.2008 -0.8126 -0.4865
 7505SOL     OW34150   2.220   0.747   5.058 -0.0100 -0.3869 -0.1689
 7505SOL    HW134151   2.292   0.684   5.067  1.1492  0.9799  0.2275
 7505SOL    HW234152   2.253   0.809   5.123  0.4779 -1.2304  0.3931
 7506SOL     OW34153   3.283   0.670  16.554  0.0658 -0.2892 -0.2653
 7506SOL    HW134154   3.228   0.747  16.537  0.6766  0.9567  3.5517
 7506SOL    HW234155   3.291   0.669  16.649  0.5530 -0.2637 -0.3106
 7507SOL     OW34156   2.238   4.425   9.187  0.8552  0.4814 -0.6026
 7507SOL    HW134157   2.328   4.450   9.166  0.3364 -0.3506 -3.8145
 7507SOL    HW234158   2.249   4.347   9.242 -2.4497 -1.2818 -2.4308
 7508SOL     OW34159   2.007   1.968   6.155 -0.6098 -0.0016 -0.1122
 7508SOL    HW134160   1.991   1.935   6.244  1.4051  0.7349  0.5182
 7508SOL    HW234161   2.023   1.884   6.113  1.5366  1.8262 -2.9424
 7509SOL     OW34162   4.062   1.825   0.461  0.2959 -0.0287  0.7053
 7509SOL    HW134163   4.087   1.773   0.537 -1.8094 -1.1678  0.6154
 7509SOL    HW234164   4.140   1.880   0.455 -0.8928  1.4232 -1.5890
 7510SOL     OW34165   3.310   1.762   5.880 -0.4185  0.1520 -0.4148
 7510SOL    HW134166   3.288   1.838   5.935  1.6918  0.6048 -0.1728
 7510SOL    HW234167   3.282   1.699   5.946 -0.8023 -0.7289 -1.4387
 7511SOL     OW34168   3.354   2.211   1.330 -0.0363  0.1714  0.5795
 7511SOL    HW134169   3.351   2.137   1.391  1.2350  0.3224  0.8243
 7511SOL    HW234170   3.284   2.184   1.271 -0.6670  4.3327 -0.5112
 7512SOL     OW34171   1.504   4.478   2.392 -0.1637 -0.7587  0.2384
 7512SOL    HW134172   1.507   4.493   2.297  1.6924 -0.2551  0.3640
 7512SOL    HW234173   1.413   4.451   2.402 -0.6117  0.1676 -1.2986
 7513SOL     OW34174   3.478   0.465   5.071 -0.7015 -0.3804  0.6308
 7513SOL    HW134175   3.491   0.536   5.008  0.4569  0.1689  1.4743
 7513SOL    HW234176   3.422   0.512   5.134  1.3647  2.4073  0.4248
 7514SOL     OW34177   3.499   3.011   2.311 -0.4947  0.2562  0.3515
 7514SOL    HW134178   3.433   2.970   2.367  0.8341 -2.5664 -0.1840
 7514SOL    HW234179   3.583   2.983   2.346 -0.3532  0.6192  0.3037
 7515SOL     OW34180   2.283   2.973   9.504  0.7554 -0.4497  0.2708
 7515SOL    HW134181   2.254   2.929   9.425 -0.3166 -0.9940  0.9651
 7515SOL    HW234182   2.220   2.938   9.568  0.5113  1.7792  1.2453
 7516SOL     OW34183   4.025   3.357   7.795  0.2685 -0.5046 -0.1678
 7516SOL    HW134184   4.096   3.299   7.824  0.0299 -0.1279  1.1710
 7516SOL    HW234185   4.057   3.446   7.779  2.9049 -0.9856  2.5132
 7517SOL     OW34186   4.528   3.218  15.583 -0.6920 -0.5025  0.2736
 7517SOL    HW134187   4.504   3.134  15.544  0.7263  0.3879 -2.4943
 7517SOL    HW234188   4.455   3.276  15.562 -0.6957 -1.9938 -3.7191
 7518SOL     OW34189   2.554   4.208   3.589  0.1530  0.1165  0.0156
 7518SOL    HW134190   2.610   4.241   3.519  3.6707  0.0341  2.7877
 7518SOL    HW234191   2.490   4.156   3.541 -2.2696  0.8902  2.3876
 7519SOL     OW34192   3.428   3.528   5.914 -0.1402  0.0184 -0.0547
 7519SOL    HW134193   3.508   3.520   5.862 -1.0856 -0.5576 -1.4389
 7519SOL    HW234194   3.363   3.567   5.856 -2.9376 -2.8054  1.1700
 7520SOL     OW34195   0.521   2.786   1.810 -0.1544 -0.2109 -0.2522
 7520SOL    HW134196   0.552   2.855   1.869 -3.1113  1.2489 -0.3978
 7520SOL    HW234197   0.582   2.716   1.831  3.2013  1.8011 -3.2847
 7521SOL     OW34198   2.202   0.335   3.210 -0.1700  0.1268  0.0859
 7521SOL    HW134199   2.143   0.353   3.284  0.2992  0.0063  0.4900
 7521SOL    HW234200   2.207   0.242   3.234  1.2760 -0.0990 -1.1188
 7522SOL     OW34201   3.017   1.387   8.273  0.2360  0.2520 -0.2778
 7522SOL    HW134202   3.043   1.298   8.249 -1.1826 -0.1010 -0.4966
 7522SOL    HW234203   3.092   1.436   8.239 -0.2122  0.5470 -0.8391
 7523SOL     OW34204   1.226   4.625   7.304 -0.1583 -0.3786  0.0438
 7523SOL    HW134205   1.285   4.615   7.229 -1.6232  1.3265 -1.3436
 7523SOL    HW234206   1.286   4.664   7.368 -1.4120 -0.4833  1.2838
 7524SOL     OW34207   0.588   0.420   4.406 -0.0670  0.3008  0.3187
 7524SOL    HW134208   0.498   0.448   4.420 -0.5585 -0.6818 -0.9602
 7524SOL    HW234209   0.574   0.327   4.389  1.4514  0.3558 -1.2857
 7525SOL     OW34210   3.552   4.361   7.241 -0.1444  0.0777  0.7000
 7525SOL    HW134211   3.640   4.393   7.222  0.1199 -1.7630 -1.1211
 7525SOL    HW234212   3.569   4.284   7.295  0.3475 -2.5368 -3.2208
 7526SOL     OW34213   4.159   4.658  17.439  0.0114 -0.6571  0.1140
 7526SOL    HW134214   4.116   4.656  17.524  0.2233  2.5991  0.2896
 7526SOL    HW234215   4.085   4.617  17.395 -1.2709  3.4516 -1.5922
 7527SOL     OW34216   1.947   3.985   8.491 -0.3691 -0.0407  0.3580
 7527SOL    HW134217   1.903   4.041   8.555  0.5638  1.5041 -0.3600
 7527SOL    HW234218   1.953   3.911   8.551  1.0468 -1.5107 -1.5755
 7528SOL     OW34219   2.633   4.434  11.629 -0.1655 -0.2225  0.0164
 7528SOL    HW134220   2.557   4.406  11.680  0.0078 -2.3282 -0.8338
 7528SOL    HW234221   2.702   4.447  11.694 -1.1033  1.0589  0.7430
 7529SOL     OW34222   1.554   1.467   9.343  0.2775  0.0391 -0.1007
 7529SOL    HW134223   1.508   1.551   9.349  0.9791  0.3591  0.9034
 7529SOL    HW234224   1.537   1.434   9.255 -0.6262  2.5437 -0.8705
 7530SOL     OW34225   2.024   0.641  12.686  0.4046 -0.9201  0.5526
 7530SOL    HW134226   1.950   0.603  12.638 -1.7291  2.3763  1.1706
 7530SOL    HW234227   2.092   0.651  12.619 -0.0238  0.0811  0.2529
 7531SOL     OW34228   4.592   4.297   2.799 -0.1420 -0.2222  0.0243
 7531SOL    HW134229   4.618   4.208   2.825 -0.3000  0.1879  1.5819
 7531SOL    HW234230   4.659   4.349   2.842 -0.3613  0.2664 -0.2315
 7532SOL     OW34231   2.992   0.066   8.490  0.1059  0.7605 -0.4038
 7532SOL    HW134232   3.037   0.078   8.573 -0.1743  0.2665 -0.1774
 7532SOL    HW234233   2.999   4.708   8.480  1.8858  0.8045  0.4527
 7533SOL     OW34234   1.777   1.892   9.514 -0.2570  0.0362  0.4412
 7533SOL    HW134235   1.824   1.951   9.572  0.0247 -0.5941  0.8579
 7533SOL    HW234236   1.755   1.820   9.574 -0.4875  1.5616  2.1920
 7534SOL     OW34237   1.133   1.343   4.274 -0.1459  0.5008 -0.0253
 7534SOL    HW134238   1.183   1.325   4.353 -1.5218 -1.7783  0.2957
 7534SOL    HW234239   1.099   1.431   4.293  0.0242  0.7380 -0.8078
 7535SOL     OW34240   4.260   2.511   2.098 -0.3391 -0.0969  0.1353
 7535SOL    HW134241   4.340   2.527   2.048 -1.0527 -0.6868 -1.2094
 7535SOL    HW234242   4.284   2.427   2.138 -2.1682  0.8413  3.2127
 7536SOL     OW34243   4.600   0.016   7.241 -0.0192 -0.4599  0.2250
 7536SOL    HW134244   4.532   4.685   7.240 -1.0058  0.5147  0.2698
 7536SOL    HW234245   4.563   0.085   7.296 -0.3121  1.2412 -2.1132
 7537SOL     OW34246   0.410   0.362   9.217  0.1613 -0.3953 -0.2015
 7537SOL    HW134247   0.504   0.361   9.237  0.2029 -2.5124 -0.4932
 7537SOL    HW234248   0.382   0.433   9.275  0.5341 -0.8699  0.5568
 7538SOL     OW34249   1.781   2.226   1.462 -0.5564 -0.0617  0.1952
 7538SOL    HW134250   1.858   2.188   1.420 -1.0141 -1.5418  0.6863
 7538SOL    HW234251   1.827   2.263   1.537 -1.5450  0.0509  0.7522
 7539SOL     OW34252   0.901   4.068   7.759 -0.3012  0.0163  0.0194
 7539SOL    HW134253   0.963   4.140   7.749 -0.7034 -0.0193 -2.8858
 7539SOL    HW234254   0.821   4.117   7.743  0.2900  0.7311 -0.7886
 7540SOL     OW34255   3.815   2.511   8.974 -1.0583 -0.7386 -0.3865
 7540SOL    HW134256   3.759   2.491   9.048 -1.4032 -3.0059 -1.2763
 7540SOL    HW234257   3.834   2.604   8.988  3.7406 -1.6635 -0.6109
 7541SOL     OW34258   4.335   1.816  12.439  0.0537  0.1389  0.0437
 7541SOL    HW134259   4.325   1.757  12.514  0.0107 -0.6809 -0.5996
 7541SOL    HW234260   4.391   1.759  12.386 -0.4806 -1.4485  1.1769
 7542SOL     OW34261   4.383   1.500   7.962  0.1988  0.0896 -0.5381
 7542SOL    HW134262   4.324   1.562   7.920  0.6454  1.7638  1.3147
 7542SOL    HW234263   4.352   1.413   7.940  2.7452 -0.4320 -2.0864
 7543SOL     OW34264   4.166   0.188   6.244 -0.3899 -0.3497  0.6126
 7543SOL    HW134265   4.152   0.217   6.334 -0.3452 -1.0398  0.8458
 7543SOL    HW234266   4.215   0.107   6.258 -0.7057 -0.4571  1.1230
 7544SOL     OW34267   3.409   3.459   7.869  0.1088 -0.0903 -0.5964
 7544SOL    HW134268   3.496   3.471   7.906 -0.7972  1.5382  1.0790
 7544SOL    HW234269   3.418   3.535   7.812 -0.3457 -1.0623 -1.9696
 7545SOL     OW34270   0.568   3.661   3.048 -0.3802  0.6881 -0.5075
 7545SOL    HW134271   0.600   3.735   2.997 -1.4453 -0.8119 -3.3834
 7545SOL    HW234272   0.587   3.699   3.134  2.2691  0.9729 -1.2331
 7546SOL     OW34273   1.057   4.301  16.286  0.1143 -0.5834  0.2766
 7546SOL    HW134274   1.054   4.363  16.358  1.3578 -1.3236  0.9671
 7546SOL    HW234275   1.021   4.358  16.218 -2.2593 -3.3011 -0.7528
 7547SOL     OW34276   1.256   0.109   7.707  0.0294 -0.1445 -0.5194
 7547SOL    HW134277   1.334   0.096   7.761 -0.3552  2.6025  0.7050
 7547SOL    HW234278   1.242   0.022   7.669  0.3791 -1.4065  2.1938
 7548SOL     OW34279   1.191   4.347   3.686  0.5521 -0.9429  0.5477
 7548SOL    HW134280   1.230   4.382   3.766  2.7684 -2.9292  0.3225
 7548SOL    HW234281   1.220   4.256   3.692 -0.5500 -1.2676  0.8871
 7549SOL     OW34282   0.195   3.076   9.087 -0.4330 -0.3318  0.0254
 7549SOL    HW134283   0.111   3.078   9.133 -1.1165 -1.1091 -1.2015
 7549SOL    HW234284   0.161   3.043   9.004  0.7928 -0.0016 -0.6074
 7550SOL     OW34285   2.534   4.148   4.650 -0.0581 -0.0504 -0.5275
 7550SOL    HW134286   2.575   4.231   4.624 -1.7333  0.6011 -1.1086
 7550SOL    HW234287   2.606   4.088   4.630  0.1616 -0.5451  1.6987
 7551SOL     OW34288   3.734   3.327   7.833  0.2776 -0.1587 -0.4123
 7551SOL    HW134289   3.712   3.299   7.744 -0.9510  0.7402 -0.3926
 7551SOL    HW234290   3.827   3.304   7.839 -0.3071 -2.2505  0.5885
 7552SOL     OW34291   0.241   1.343   8.865  0.1360  0.0174  0.8403
 7552SOL    HW134292   0.149   1.367   8.869 -0.2915 -1.2362 -1.2625
 7552SOL    HW234293   0.248   1.295   8.782 -0.7155  1.1070  0.1277
 7553SOL     OW34294   4.239   3.233   6.560  0.2867 -0.1904 -0.6015
 7553SOL    HW134295   4.285   3.251   6.478  3.0164 -0.3518  0.9253
 7553SOL    HW234296   4.148   3.222   6.531 -0.0458 -0.9164  0.6855
 7554SOL     OW34297   0.016   1.426  13.689  0.0770 -0.2290 -0.3793
 7554SOL    HW134298   4.673   1.478  13.691  0.1062 -0.1347 -1.5575
 7554SOL    HW234299   4.717   1.337  13.690 -2.0295  0.6677  2.9450
 7555SOL     OW34300   1.525   2.009   8.141 -0.6280  0.3095 -0.6706
 7555SOL    HW134301   1.582   2.016   8.217 -1.2764  2.8909 -0.3977
 7555SOL    HW234302   1.468   2.087   8.140 -1.3829 -0.2239  0.6333
 7556SOL     OW34303   4.587   3.412   1.944  0.3366  0.0721  0.5822
 7556SOL    HW134304   4.557   3.486   1.892  0.0126 -0.2813  0.2705
 7556SOL    HW234305   4.518   3.347   1.933  0.7449 -0.0383 -1.2316
 7557SOL     OW34306   3.632   0.153  17.412  0.1947  0.7698 -0.2830
 7557SOL    HW134307   3.646   0.120  17.501  0.1177 -0.6164 -0.7911
 7557SOL    HW234308   3.696   0.224  17.408 -0.0723  0.9040 -2.0185
 7558SOL     OW34309   4.687   3.503   5.576 -0.5300  0.3315  0.0867
 7558SOL    HW134310   4.724   3.437   5.634  1.5351  0.7755 -0.7050
 7558SOL    HW234311   4.686   3.580   5.632  1.0897 -0.7229  1.5497
 7559SOL     OW34312   1.511   2.741  15.602 -0.8721 -0.4981 -0.0608
 7559SOL    HW134313   1.536   2.687  15.677  3.1246  1.0622 -0.2793
 7559SOL    HW234314   1.423   2.771  15.626 -0.4056  0.6735  0.1724
 7560SOL     OW34315   1.917   0.095   6.344 -0.4505  0.1671 -0.6526
 7560SOL    HW134316   1.875   0.180   6.329  2.0244  1.2662 -1.3055
 7560SOL    HW234317   1.844   0.033   6.353  0.3031 -0.9301 -2.1901
 7561SOL     OW34318   0.496   3.032   5.418 -0.2815  0.1062 -0.1244
 7561SOL    HW134319   0.547   2.965   5.373 -0.4428 -0.9649  1.2915
 7561SOL    HW234320   0.457   3.078   5.343 -1.9359  1.8139  1.7644
 7562SOL     OW34321   3.628   4.384   2.913  0.4363 -0.1705 -0.0694
 7562SOL    HW134322   3.615   4.304   2.965  1.2242 -0.3740 -0.1772
 7562SOL    HW234323   3.694   4.426   2.968  3.0261  0.5811 -3.7147
 7563SOL     OW34324   1.106   1.132  17.141  0.3441  0.1089 -0.0248
 7563SOL    HW134325   1.201   1.121  17.134  0.4977  0.4280  1.6058
 7563SOL    HW234326   1.077   1.045  17.167  0.2600  0.4352  0.9690
 7564SOL     OW34327   4.262   3.479   0.762  0.0227  0.1810 -0.3224
 7564SOL    HW134328   4.342   3.451   0.716  0.7216  0.6899  0.5786
 7564SOL    HW234329   4.206   3.418   0.715  1.3638  1.2530 -3.3811
 7565SOL     OW34330   1.574   0.067  16.364  0.2220  0.5826  0.1492
 7565SOL    HW134331   1.657   0.078  16.317  0.9872 -0.5000  1.2229
 7565SOL    HW234332   1.571   0.149  16.413  0.3219  1.7644 -1.8263
 7566SOL     OW34333   3.297   0.824  10.322 -0.1092 -0.4453  0.3297
 7566SOL    HW134334   3.292   0.734  10.355  0.1645 -0.4361  0.3939
 7566SOL    HW234335   3.315   0.876  10.401  1.4319  0.7339 -0.8158
 7567SOL     OW34336   2.148   3.756   8.016  0.4372  0.1356 -0.4790
 7567SOL    HW134337   2.084   3.822   8.043  1.3222  0.4097  0.9416
 7567SOL    HW234338   2.121   3.680   8.067  1.9617 -1.0013 -1.3606
 7568SOL     OW34339   0.034   2.541   3.464 -0.0278 -0.3187 -0.5358
 7568SOL    HW134340   4.730   2.519   3.547  0.5784  1.3859  0.2118
 7568SOL    HW234341   4.702   2.570   3.405  0.1732  0.1463 -0.5415
 7569SOL     OW34342   4.365   3.680   5.429  0.1188 -0.3925  0.0717
 7569SOL    HW134343   4.278   3.713   5.450  1.2433  3.8475 -1.9641
 7569SOL    HW234344   4.370   3.604   5.487 -2.3788  0.0187  0.7956
 7570SOL     OW34345   2.941   2.255  14.627  0.4048  0.0633 -0.6209
 7570SOL    HW134346   2.993   2.322  14.583 -0.1698  0.9787  0.0869
 7570SOL    HW234347   2.957   2.279  14.718 -1.3537  1.0587 -0.5569
 7571SOL     OW34348   3.433   1.795   9.014  0.0291  0.0782 -0.7203
 7571SOL    HW134349   3.431   1.887   9.042  2.1908 -0.2802  0.5707
 7571SOL    HW234350   3.522   1.771   9.038 -0.3612  0.2258  0.9034
 7572SOL     OW34351   4.013   4.051  16.832  0.8086  0.8260 -0.0603
 7572SOL    HW134352   4.013   4.027  16.925 -0.5689  0.0049 -0.2788
 7572SOL    HW234353   3.919   4.064  16.824  0.7660 -0.0829 -0.9535
 7573SOL     OW34354   4.151   3.920   5.228  0.0302  0.0926  0.3005
 7573SOL    HW134355   4.182   3.903   5.317 -0.2496 -2.3304 -0.0586
 7573SOL    HW234356   4.232   3.960   5.198  0.1781 -0.5481 -0.1625
 7574SOL     OW34357   3.481   0.376   6.016  0.1096 -0.2041 -0.1830
 7574SOL    HW134358   3.527   0.414   6.091 -1.3001 -2.4734  1.8312
 7574SOL    HW234359   3.509   0.438   5.949  0.6421 -0.1196  0.1225
 7575SOL     OW34360   3.596   1.616   7.075  0.4063  0.2296 -0.3110
 7575SOL    HW134361   3.589   1.658   7.161 -0.2858 -1.6177  0.5495
 7575SOL    HW234362   3.510   1.642   7.042 -1.1559 -1.5666  2.3410
 7576SOL     OW34363   3.707   1.427   5.117  0.2845 -0.0849  0.3314
 7576SOL    HW134364   3.767   1.380   5.175  0.8790 -0.3490 -0.5076
 7576SOL    HW234365   3.668   1.487   5.181 -0.7886 -1.3632  0.8868
 7577SOL     OW34366   2.581   0.260   6.887  0.0038 -0.2333 -0.1586
 7577SOL    HW134367   2.564   0.167   6.873 -2.6874  0.3410 -0.8319
 7577SOL    HW234368   2.604   0.300   6.803  1.3163 -0.5832  0.0457
 7578SOL     OW34369   0.597   3.144   6.148  0.2947  0.0056 -0.0073
 7578SOL    HW134370   0.684   3.134   6.109  0.5403 -2.7561  1.2236
 7578SOL    HW234371   0.565   3.055   6.161  1.8657 -0.6722 -0.7716
 7579SOL     OW34372   3.455   1.122  13.252 -0.0007 -0.0521  0.0761
 7579SOL    HW134373   3.373   1.107  13.298  1.5291 -1.3680  2.3375
 7579SOL    HW234374   3.506   1.185  13.303  0.9540  0.2998 -1.2881
 7580SOL     OW34375   4.705   0.307   8.267  0.0514  0.2711 -0.1862
 7580SOL    HW134376   4.632   0.250   8.240 -0.4777  0.6378  0.4782
 7580SOL    HW234377   4.736   0.261   8.345  4.3174  0.4250 -1.7766
 7581SOL     OW34378   3.606   0.304   5.542  0.2996  0.1150 -0.4534
 7581SOL    HW134379   3.514   0.290   5.519  0.1941  2.1385 -1.2618
 7581SOL    HW234380   3.620   0.378   5.483 -0.0613 -0.7278 -1.5925
 7582SOL     OW34381   1.044   2.418  10.666  0.1125  0.0014 -0.5913
 7582SOL    HW134382   1.002   2.496  10.631  0.3982  0.5767  0.3451
 7582SOL    HW234383   1.136   2.425  10.642  0.7238 -1.1796  1.4025
 7583SOL     OW34384   3.810   4.157   1.478 -0.1989  0.2346  0.1273
 7583SOL    HW134385   3.796   4.087   1.542  2.5607 -0.3938  0.0505
 7583SOL    HW234386   3.818   4.104   1.399 -0.2531  1.1278 -0.4728
 7584SOL     OW34387   0.159   2.697   3.764  0.8160 -0.1842  0.0156
 7584SOL    HW134388   0.241   2.711   3.813  0.4908  2.6087 -0.2052
 7584SOL    HW234389   0.190   2.704   3.673  0.9745 -1.1868 -0.0029
 7585SOL     OW34390   1.918   1.583   7.806  0.2419 -0.3511  0.4979
 7585SOL    HW134391   1.951   1.641   7.738  0.0726 -0.1261  0.6068
 7585SOL    HW234392   1.992   1.589   7.866  0.7722 -2.0098  0.0241
 7586SOL     OW34393   1.075   3.496   1.686  0.4875  0.2762  0.3640
 7586SOL    HW134394   1.113   3.576   1.649  0.4966  1.3233  2.6342
 7586SOL    HW234395   1.005   3.537   1.737 -0.2200 -0.5761  0.0804
 7587SOL     OW34396   0.293   4.705   9.377  0.5611  0.1035 -0.0562
 7587SOL    HW134397   0.229   0.039   9.364  1.3115  0.9624  0.9719
 7587SOL    HW234398   0.356   4.730   9.310 -1.0976 -1.6053 -2.2745
 7588SOL     OW34399   0.644   3.849  14.208 -0.5245  0.2029 -0.6056
 7588SOL    HW134400   0.636   3.754  14.217  0.5178  0.1745  0.0075
 7588SOL    HW234401   0.643   3.876  14.300  0.0914 -0.3462 -0.4358
 7589SOL     OW34402   4.708   2.472  14.731  0.2348  0.0255 -0.3223
 7589SOL    HW134403   4.705   2.391  14.681 -1.6242 -0.5158  0.6538
 7589SOL    HW234404   0.010   2.527  14.663  2.4431  0.6411  1.4288
 7590SOL     OW34405   2.724   2.040   4.192  0.9963 -0.3883  0.3773
 7590SOL    HW134406   2.769   1.966   4.232  3.0749  0.5511 -0.2625
 7590SOL    HW234407   2.634   2.011   4.179  0.2197  1.4730  1.4437
 7591SOL     OW34408   0.680   2.459  11.065 -0.3500  0.0901 -0.1626
 7591SOL    HW134409   0.724   2.532  11.110  2.0242 -2.0615  1.0235
 7591SOL    HW234410   0.597   2.492  11.032 -1.4131 -2.6601 -0.2282
 7592SOL     OW34411   1.789   4.398   3.204 -0.0099  0.0848  0.3860
 7592SOL    HW134412   1.792   4.376   3.297 -0.7516  2.1410  0.8904
 7592SOL    HW234413   1.856   4.465   3.195 -2.6659  2.3367 -3.0673
 7593SOL     OW34414   2.761   2.458   7.230  0.1645 -0.9337 -0.3845
 7593SOL    HW134415   2.792   2.469   7.320  1.1066 -1.1408 -0.6827
 7593SOL    HW234416   2.726   2.547   7.225  2.2111 -0.0092  1.5242
 7594SOL     OW34417   2.277   4.143   5.625 -0.1441 -0.1747  0.1395
 7594SOL    HW134418   2.203   4.179   5.577  0.7545  3.1795  1.3157
 7594SOL    HW234419   2.223   4.090   5.683 -1.6057  2.1657  0.8950
 7595SOL     OW34420   0.485   4.280  15.531 -0.2503  0.2200  0.1753
 7595SOL    HW134421   0.488   4.186  15.548 -1.3811  0.0456 -0.5217
 7595SOL    HW234422   0.427   4.299  15.605 -1.4465  2.0012 -1.2233
 7596SOL     OW34423   0.499   1.579   2.057  0.3552 -0.0439  0.0971
 7596SOL    HW134424   0.408   1.609   2.064 -0.4143 -2.1233 -0.8722
 7596SOL    HW234425   0.499   1.485   2.036 -0.6124  0.1882 -0.9392
 7597SOL     OW34426   2.613   0.035   1.398 -0.2649  0.3421  0.4245
 7597SOL    HW134427   2.525   0.050   1.431 -0.5249  1.6210 -0.8509
 7597SOL    HW234428   2.646   0.124   1.389 -0.6384  0.4652  0.2750
 7598SOL     OW34429   2.395   2.350   1.403 -0.5527 -0.4938 -0.8037
 7598SOL    HW134430   2.440   2.312   1.328 -0.8460  0.1307 -1.2940
 7598SOL    HW234431   2.380   2.438   1.369  0.0017 -0.7119 -1.6022
 7599SOL     OW34432   1.721   2.612   3.649 -0.6495 -0.6423  0.3798
 7599SOL    HW134433   1.737   2.525   3.615  1.5131  0.0315 -0.2974
 7599SOL    HW234434   1.802   2.654   3.620 -0.9909 -1.5468 -1.8926
 7600SOL     OW34435   1.227   0.188   1.751 -0.0292 -0.1035  0.0213
 7600SOL    HW134436   1.309   0.218   1.790  0.8895  0.3344 -2.2477
 7600SOL    HW234437   1.245   0.141   1.670  1.0381 -1.4006  1.0059
 7601SOL     OW34438   0.787   2.769   0.914  0.1303 -0.2274 -0.3923
 7601SOL    HW134439   0.774   2.863   0.903 -0.4875 -0.1795  0.7368
 7601SOL    HW234440   0.843   2.767   0.991  0.4628 -1.8298 -0.6901
 7602SOL     OW34441   4.538   4.485   5.610 -0.4347  0.0908 -0.5349
 7602SOL    HW134442   4.467   4.539   5.645 -0.0426 -0.4495  1.0977
 7602SOL    HW234443   4.564   4.539   5.536 -1.9632 -0.3227 -1.3498
 7603SOL     OW34444   0.483   2.195  10.317  0.5345  0.5006  0.0491
 7603SOL    HW134445   0.491   2.177  10.223 -0.9067  1.0305 -0.1697
 7603SOL    HW234446   0.546   2.267  10.309 -0.6653  1.4859 -0.5176
 7604SOL     OW34447   4.672   3.340   4.144  0.0203  0.0869 -0.0206
 7604SOL    HW134448   0.026   3.330   4.173  0.1131 -0.2357 -0.4355
 7604SOL    HW234449   4.626   3.258   4.162 -1.3590  1.6452  3.5536
 7605SOL     OW34450   1.508   3.383  15.965  0.0823 -1.0565  0.6905
 7605SOL    HW134451   1.448   3.357  16.035  0.3664 -1.7559  0.6779
 7605SOL    HW234452   1.524   3.471  15.997  1.0620 -1.4129  1.1751
 7606SOL     OW34453   3.055   2.916   6.372  0.2349 -0.2983  0.1257
 7606SOL    HW134454   3.015   2.858   6.309 -1.0957  1.5768 -0.7447
 7606SOL    HW234455   3.006   2.890   6.450  1.0579 -0.7305  0.4992
 7607SOL     OW34456   0.267   1.924   9.340  0.3422 -0.1188 -0.2213
 7607SOL    HW134457   0.268   2.009   9.385  0.7915 -1.7133  2.7851
 7607SOL    HW234458   0.174   1.909   9.350  0.5697 -0.0354  1.9627
 7608SOL     OW34459   0.780   0.141   5.722 -0.0430  0.6307  0.6643
 7608SOL    HW134460   0.693   0.102   5.717  0.3842 -0.2523  0.1401
 7608SOL    HW234461   0.765   0.229   5.688 -0.5634  0.4196  0.3611
 7609SOL     OW34462   4.413   2.527  11.180  0.6418  0.1586  0.1362
 7609SOL    HW134463   4.385   2.611  11.144 -0.4210 -1.5530 -3.0412
 7609SOL    HW234464   4.503   2.515  11.151  0.4618 -0.5581 -0.1288
 7610SOL     OW34465   4.166   2.000   4.285  0.0785  0.3360 -0.7190
 7610SOL    HW134466   4.180   1.919   4.235 -0.5048 -0.3430  0.2318
 7610SOL    HW234467   4.077   2.033   4.280 -1.2458 -2.9805  0.7722
 7611SOL     OW34468   3.344   2.205   3.876 -0.0193 -0.3047 -0.1396
 7611SOL    HW134469   3.395   2.234   3.800 -0.2583  3.4921  1.1462
 7611SOL    HW234470   3.295   2.137   3.830  2.1704 -1.1750 -1.2274
 7612SOL     OW34471   3.329   1.539   3.628 -0.0190 -0.0649  0.5052
 7612SOL    HW134472   3.395   1.499   3.571  0.6626 -0.3924  1.5378
 7612SOL    HW234473   3.308   1.460   3.678 -1.4739 -0.0008  0.0042
 7613SOL     OW34474   2.143   2.946   6.144 -0.6022 -0.4357 -0.2374
 7613SOL    HW134475   2.203   2.917   6.212 -1.4970 -1.2165  0.2209
 7613SOL    HW234476   2.114   3.028   6.184  0.5490 -1.4451  2.6710
 7614SOL     OW34477   2.627   3.722  11.520  0.1312 -0.0878 -0.1082
 7614SOL    HW134478   2.649   3.815  11.523 -0.4537  0.0554 -0.3918
 7614SOL    HW234479   2.550   3.716  11.577 -1.4919 -0.2356 -2.3334
 7615SOL     OW34480   4.084   2.168   1.476 -0.3379  0.1336  0.1418
 7615SOL    HW134481   4.090   2.137   1.566 -0.6653 -1.8122 -0.5035
 7615SOL    HW234482   4.065   2.091   1.423  2.3069 -1.1610  1.0760
 7616SOL     OW34483   1.248   1.920   1.817 -0.1471  0.6853  0.0237
 7616SOL    HW134484   1.299   1.916   1.898 -0.5231  2.2891  0.3443
 7616SOL    HW234485   1.183   1.850   1.828  1.9563 -1.4356 -1.0602
 7617SOL     OW34486   4.458   1.906   7.983 -0.0062 -0.1181 -0.0937
 7617SOL    HW134487   4.507   1.832   8.020  0.1184 -0.2518 -0.5239
 7617SOL    HW234488   4.371   1.885   8.016 -0.2663  1.5294  0.2997
 7618SOL     OW34489   2.292   2.867   7.556 -0.1635 -0.2578  0.1871
 7618SOL    HW134490   2.231   2.929   7.518 -0.5692  0.5020  2.0425
 7618SOL    HW234491   2.342   2.838   7.480 -1.1013 -2.4703  0.4154
 7619SOL     OW34492   2.161   2.011   3.042  0.2085  0.4304 -0.2685
 7619SOL    HW134493   2.234   1.960   3.007  0.3043  0.7488 -0.5345
 7619SOL    HW234494   2.197   2.050   3.121 -2.8320  1.2100  0.7345
 7620SOL     OW34495   4.464   2.771  15.959  0.2631 -0.4238  0.1793
 7620SOL    HW134496   4.461   2.700  16.023 -0.0422 -1.2407 -0.7328
 7620SOL    HW234497   4.557   2.789  15.946  0.5723  0.5401  3.8382
 7621SOL     OW34498   0.672   4.353   5.417  0.9452 -0.5459  0.2445
 7621SOL    HW134499   0.740   4.287   5.420 -0.2662 -1.7342  1.4939
 7621SOL    HW234500   0.674   4.392   5.504 -0.8634  0.7548 -0.2842
 7622SOL     OW34501   4.395   3.221  12.458  0.0944  0.2266 -0.1633
 7622SOL    HW134502   4.324   3.185  12.512  0.3157 -0.7723 -0.5510
 7622SOL    HW234503   4.466   3.159  12.470 -0.3838 -0.0447  1.1914
 7623SOL     OW34504   2.857   2.782   3.607 -0.2462  0.0759 -0.2094
 7623SOL    HW134505   2.863   2.767   3.701 -1.2796  1.1875  0.0405
 7623SOL    HW234506   2.824   2.872   3.608  0.7424  0.4300  0.8906
 7624SOL     OW34507   3.652   0.512  10.362 -0.1217 -0.0769  0.1902
 7624SOL    HW134508   3.575   0.463  10.333 -1.2380  2.8204 -1.6590
 7624SOL    HW234509   3.649   0.586  10.302 -0.0289  0.3879  0.7631
 7625SOL     OW34510   1.329   3.326   4.514 -0.9608  0.1010 -0.1575
 7625SOL    HW134511   1.405   3.300   4.566 -0.5552  1.1608 -0.2282
 7625SOL    HW234512   1.270   3.364   4.579 -1.7724  1.4236 -1.6774
 7626SOL     OW34513   1.387   2.657   7.846  0.6411 -0.5986  0.7722
 7626SOL    HW134514   1.385   2.622   7.935 -1.8822  0.5143  1.1707
 7626SOL    HW234515   1.322   2.727   7.860 -1.1359 -2.0501 -0.2642
 7627SOL     OW34516   2.232   0.805   5.680 -0.2683  0.1524  0.9113
 7627SOL    HW134517   2.316   0.833   5.644  1.2463 -2.9341  2.0513
 7627SOL    HW234518   2.231   0.865   5.755  0.0075 -1.0775  1.8856
 7628SOL     OW34519   2.668   1.462   9.425  0.2215 -0.7575 -0.0248
 7628SOL    HW134520   2.730   1.468   9.498  0.7639  1.3676 -0.6629
 7628SOL    HW234521   2.722   1.483   9.349  2.3749  0.7831  1.9200
 7629SOL     OW34522   2.901   0.348   2.406  0.1840  0.3285 -0.1993
 7629SOL    HW134523   2.878   0.397   2.485  0.8775 -0.8380  0.7398
 7629SOL    HW234524   2.845   0.270   2.405  1.1092 -0.3361 -0.4781
 7630SOL     OW34525   3.590   2.328   4.203 -0.3306 -0.2355 -0.5844
 7630SOL    HW134526   3.666   2.382   4.180 -0.5451  0.7773  1.0545
 7630SOL    HW234527   3.520   2.387   4.174  0.8138  0.7783 -1.2837
 7631SOL     OW34528   1.990   1.281   1.675  0.0201  0.0634  0.4105
 7631SOL    HW134529   2.062   1.229   1.640 -0.0074  1.0506 -1.1103
 7631SOL    HW234530   1.940   1.287   1.593  1.8482  0.5516 -0.6706
 7632SOL     OW34531   2.085   1.615  11.602  0.3667 -0.3269 -0.4197
 7632SOL    HW134532   2.154   1.677  11.627 -0.0012 -0.2130  0.3022
 7632SOL    HW234533   2.066   1.631  11.509  1.5930 -1.9319 -0.9305
 7633SOL     OW34534   1.908   0.158   3.367 -0.1189  0.1765 -0.2715
 7633SOL    HW134535   1.841   0.145   3.301 -0.2619  0.9424 -0.2760
 7633SOL    HW234536   1.926   0.251   3.353 -1.2298  0.7726  2.2675
 7634SOL     OW34537   0.210   2.302   7.627  0.7471 -0.1132 -0.5943
 7634SOL    HW134538   0.133   2.350   7.598 -1.7595 -2.1230  2.7652
 7634SOL    HW234539   0.171   2.220   7.656 -0.0533 -1.0572 -4.3855
 7635SOL     OW34540   2.248   3.810   8.671 -0.4568 -0.2224 -0.0534
 7635SOL    HW134541   2.299   3.804   8.590 -1.3488 -0.1257 -0.6170
 7635SOL    HW234542   2.282   3.897   8.694  0.6741 -1.1329  1.8035
 7636SOL     OW34543   2.511   1.806  13.156  0.0860 -0.4652 -0.7166
 7636SOL    HW134544   2.487   1.898  13.147 -0.0434 -0.4848 -0.5664
 7636SOL    HW234545   2.553   1.814  13.241 -0.5146  0.7363 -0.5405
 7637SOL     OW34546   0.245   1.458   3.447 -0.1359  0.3609 -0.3106
 7637SOL    HW134547   0.338   1.482   3.442 -0.4031  1.9777  2.2616
 7637SOL    HW234548   0.240   1.373   3.404  0.0811  0.9872 -1.5537
 7638SOL     OW34549   1.100   1.478  15.472  0.3960  0.0616  0.1455
 7638SOL    HW134550   1.136   1.548  15.418  0.4523  0.2016  0.3650
 7638SOL    HW234551   1.167   1.415  15.444  0.0968  0.1153 -0.6800
 7639SOL     OW34552   2.201   1.562   4.350 -0.2592  0.5556 -0.0871
 7639SOL    HW134553   2.281   1.550   4.400  0.7896  2.1186 -1.3524
 7639SOL    HW234554   2.209   1.494   4.284  0.4062  0.0287  0.5364
 7640SOL     OW34555   2.180   2.411   9.408 -0.6560  0.1606  0.0852
 7640SOL    HW134556   2.233   2.481   9.447 -0.2198 -0.0959 -0.0556
 7640SOL    HW234557   2.236   2.371   9.342  0.7369  2.7829 -0.3313
 7641SOL     OW34558   2.864   0.261  15.659 -0.0681 -0.5882 -0.3059
 7641SOL    HW134559   2.809   0.310  15.598  0.8158 -0.2441 -0.8184
 7641SOL    HW234560   2.806   0.202  15.707 -2.7926  1.5906 -0.9183
 7642SOL     OW34561   2.264   3.349  14.265  0.3658  0.0511 -0.4481
 7642SOL    HW134562   2.209   3.427  14.269 -1.6445 -1.2428 -3.2973
 7642SOL    HW234563   2.214   3.290  14.322 -1.7729  2.5632  0.2228
 7643SOL     OW34564   3.898   1.649   4.827 -0.1229  0.4226 -0.0465
 7643SOL    HW134565   3.978   1.698   4.808 -2.2972  3.0406 -2.4185
 7643SOL    HW234566   3.875   1.705   4.902  0.0084  1.3290 -0.6859
 7644SOL     OW34567   0.860   2.441   2.576 -0.2404 -0.5449 -0.2933
 7644SOL    HW134568   0.915   2.365   2.559  0.6057  0.0906 -0.3967
 7644SOL    HW234569   0.917   2.510   2.612 -0.1185 -1.1641  0.6937
 7645SOL     OW34570   1.858   1.328   2.186 -0.8690 -0.2462  0.0395
 7645SOL    HW134571   1.877   1.335   2.092 -0.8505  1.0953  0.1547
 7645SOL    HW234572   1.849   1.420   2.210  2.4062  0.2654 -0.7085
 7646SOL     OW34573   3.845   3.037  13.157 -0.2621 -0.3647 -0.0249
 7646SOL    HW134574   3.793   2.974  13.107 -0.0011 -1.0396  0.5340
 7646SOL    HW234575   3.786   3.112  13.155  0.1432  0.0393  2.8116
 7647SOL     OW34576   4.725   2.735   4.229 -0.0696  0.3709 -0.6022
 7647SOL    HW134577   0.044   2.791   4.176  0.1337  0.8565  0.1165
 7647SOL    HW234578   0.046   2.717   4.303  0.2159 -0.3429 -1.0068
 7648SOL     OW34579   3.057   0.074   2.536 -0.1925 -0.7803  0.1467
 7648SOL    HW134580   3.121   0.141   2.560 -0.6886  0.0710 -0.9117
 7648SOL    HW234581   2.990   0.067   2.604  0.3534 -0.7427  0.6887
 7649SOL     OW34582   4.426   3.724  11.765  0.1234 -0.1046 -0.2713
 7649SOL    HW134583   4.475   3.774  11.831 -0.1606  1.5705 -1.3058
 7649SOL    HW234584   4.451   3.768  11.683  2.8013  0.1752  0.6853
 7650SOL     OW34585   4.126   1.991   7.617 -0.3853  0.5663  0.2775
 7650SOL    HW134586   4.206   2.005   7.667 -0.6350  2.5099  0.1161
 7650SOL    HW234587   4.057   2.005   7.682  1.5632  1.8000  2.1018
 7651SOL     OW34588   3.341   1.966   8.103  0.0144 -0.5358  0.6528
 7651SOL    HW134589   3.427   1.937   8.072  0.7176  1.7111  0.5003
 7651SOL    HW234590   3.355   2.044   8.157 -1.5255  0.1094  0.1083
 7652SOL     OW34591   1.653   0.213   0.770 -0.2611 -0.1059  0.1205
 7652SOL    HW134592   1.746   0.192   0.761 -0.1021  0.3965  0.6216
 7652SOL    HW234593   1.626   0.125   0.744  0.2902 -0.1278 -0.3841
 7653SOL     OW34594   3.435   1.840   1.347 -0.4849  0.4211  0.3336
 7653SOL    HW134595   3.518   1.792   1.344  0.1205  1.5020 -0.3965
 7653SOL    HW234596   3.433   1.877   1.259 -0.7588  1.3458  0.7265
 7654SOL     OW34597   1.748   0.514   4.885  0.2896  0.4964 -0.5394
 7654SOL    HW134598   1.659   0.549   4.883  0.0773 -0.0695 -1.1826
 7654SOL    HW234599   1.751   0.500   4.980  0.9516  0.0166 -0.6295
 7655SOL     OW34600   0.174   3.117  17.723  0.2764  0.3961  0.5374
 7655SOL    HW134601   0.143   3.153  17.640  1.6816 -2.1241 -1.0570
 7655SOL    HW234602   0.268   3.118  17.707 -0.0062  0.3319 -1.1209
 7656SOL     OW34603   3.352   2.168   3.106 -0.4380  0.2426  0.0921
 7656SOL    HW134604   3.316   2.154   3.018 -1.3350 -1.7659  0.7861
 7656SOL    HW234605   3.441   2.145   3.082 -0.7791 -1.6575  0.6522
 7657SOL     OW34606   3.392   1.901  12.606  0.5511  0.2243  0.0605
 7657SOL    HW134607   3.424   1.829  12.552 -2.4654 -0.5708 -0.6230
 7657SOL    HW234608   3.393   1.959  12.531  1.7748  1.0807  0.7373
 7658SOL     OW34609   2.271   1.978   3.431  0.5239 -0.4571 -0.8041
 7658SOL    HW134610   2.183   1.976   3.468 -0.2725  1.7884 -2.6492
 7658SOL    HW234611   2.277   2.073   3.440  1.6735 -0.7908  1.9774
 7659SOL     OW34612   3.075   3.740   7.008  0.1568  0.4137  0.6412
 7659SOL    HW134613   3.159   3.717   6.968  0.0014  0.3024  0.3798
 7659SOL    HW234614   3.064   3.828   6.973 -0.5611  0.1822  0.2945
 7660SOL     OW34615   3.534   2.101  14.720  0.6932  0.0276  0.1097
 7660SOL    HW134616   3.483   2.062  14.790  1.3212 -1.3403 -0.1869
 7660SOL    HW234617   3.622   2.070  14.741  1.1785  0.5912 -1.0560
 7661SOL     OW34618   3.648   4.434   1.640  0.1108 -0.1676 -0.5642
 7661SOL    HW134619   3.607   4.495   1.702 -0.3163 -0.7652 -0.2684
 7661SOL    HW234620   3.658   4.355   1.692 -0.9554  0.4424  0.5620
 7662SOL     OW34621   0.862   1.905   9.128 -0.0571 -0.1737  0.4310
 7662SOL    HW134622   0.957   1.899   9.117  0.0510  0.6069  0.8835
 7662SOL    HW234623   0.841   1.831   9.185 -0.6163 -1.9173 -2.0505
 7663SOL     OW34624   1.376   4.323   6.752 -0.1479  0.1496 -0.4308
 7663SOL    HW134625   1.349   4.415   6.755  1.0424  0.3714  2.5490
 7663SOL    HW234626   1.314   4.282   6.812 -0.1666  0.2897 -0.3550
 7664SOL     OW34627   0.100   1.623   9.210 -0.5980  0.8948  0.2493
 7664SOL    HW134628   0.090   1.683   9.136  0.9124 -0.1125 -0.7677
 7664SOL    HW234629   0.061   1.667   9.285 -0.0652  0.3659  0.8302
 7665SOL     OW34630   3.928   2.855   1.587  0.0334 -0.0947 -0.8965
 7665SOL    HW134631   3.931   2.950   1.577 -2.4538  0.2023  0.9609
 7665SOL    HW234632   3.835   2.843   1.605 -0.0982  0.9490 -0.8616
 7666SOL     OW34633   0.762   3.416   7.148 -0.6565  0.3342 -0.0458
 7666SOL    HW134634   0.763   3.495   7.095  4.0021  0.5299  0.3561
 7666SOL    HW234635   0.751   3.349   7.080 -1.9069 -0.3168  0.7966
 7667SOL     OW34636   0.469   0.032  12.058 -0.2948  0.6439  0.0194
 7667SOL    HW134637   0.556   4.733  12.077 -0.0531  2.4672  2.3655
 7667SOL    HW234638   0.440   4.705  11.993  2.0925 -0.0059 -0.4086
 7668SOL     OW34639   1.768   0.610   0.187  0.3990 -0.0646  0.1524
 7668SOL    HW134640   1.814   0.689   0.217 -0.0102  0.5984 -0.9607
 7668SOL    HW234641   1.676   0.629   0.206  0.4088 -2.3850  2.4597
 7669SOL     OW34642   4.283   3.287   4.423 -0.0683 -0.4182  0.1132
 7669SOL    HW134643   4.207   3.345   4.431 -0.6466 -1.1444 -0.2321
 7669SOL    HW234644   4.299   3.271   4.516  0.2282 -1.5925 -0.1469
 7670SOL     OW34645   4.030   4.097   5.987 -0.1433 -0.2703  0.3432
 7670SOL    HW134646   4.117   4.137   5.983  0.0500 -0.6983  0.2570
 7670SOL    HW234647   3.980   4.164   5.940  1.3429  0.7919  0.2877
 7671SOL     OW34648   2.601   2.864   9.182 -0.6570 -0.3278 -0.1402
 7671SOL    HW134649   2.551   2.810   9.243 -1.7045 -0.9553 -1.5560
 7671SOL    HW234650   2.672   2.804   9.159  0.1030  0.6739 -0.4720
 7672SOL     OW34651   1.941   0.868   5.837  0.4702 -0.2385  0.0639
 7672SOL    HW134652   1.861   0.879   5.890 -0.4140  0.0481 -1.3133
 7672SOL    HW234653   1.964   0.778   5.860  0.8069 -0.1495  0.0670
 7673SOL     OW34654   2.630   1.307   7.298 -0.0545 -0.1040  0.1601
 7673SOL    HW134655   2.596   1.396   7.288 -1.4044 -0.7868 -1.4211
 7673SOL    HW234656   2.567   1.243   7.265 -0.7044  0.5089  0.1840
 7674SOL     OW34657   3.912   4.638   6.012  0.5178 -0.2837  0.6580
 7674SOL    HW134658   3.918   4.648   6.107  0.2703  1.2386  0.5177
 7674SOL    HW234659   3.881   4.549   5.996  0.8278 -0.2496 -0.1678
 7675SOL     OW34660   3.812   1.531   7.346 -0.0939  0.0059 -0.7771
 7675SOL    HW134661   3.786   1.452   7.298 -0.3175 -0.2343 -0.2592
 7675SOL    HW234662   3.768   1.505   7.427 -1.4897 -0.6544 -1.7566
 7676SOL     OW34663   2.058   0.179  15.514 -0.6527  0.2343  0.0696
 7676SOL    HW134664   2.082   0.206  15.602 -1.1668  0.9972 -0.0258
 7676SOL    HW234665   1.965   0.156  15.520 -0.4690 -0.8669 -1.2274
 7677SOL     OW34666   2.734   0.574  10.627 -0.8316 -0.2758  0.1066
 7677SOL    HW134667   2.825   0.552  10.607 -1.3487  0.7034 -3.2916
 7677SOL    HW234668   2.707   0.488  10.659  0.0290 -0.4274  0.4289
 7678SOL     OW34669   0.588   4.424  14.469  0.0010 -0.5889  0.1853
 7678SOL    HW134670   0.560   4.366  14.399  1.7379 -2.0150  0.6526
 7678SOL    HW234671   0.678   4.437  14.437 -1.0710  1.7069 -1.8546
 7679SOL     OW34672   0.151   0.074   6.423 -0.0440 -0.0810 -0.3471
 7679SOL    HW134673   0.152   0.169   6.407  0.2489  0.1356  0.9320
 7679SOL    HW234674   0.057   0.063   6.413 -0.1319 -0.3131  0.7812
 7680SOL     OW34675   1.431   1.979   3.948  0.3706  0.3669  0.1863
 7680SOL    HW134676   1.423   2.071   3.922  3.9665  0.6876  0.2176
 7680SOL    HW234677   1.519   1.957   3.916  0.9412 -0.9743  2.7113
 7681SOL     OW34678   3.759   2.649  14.267  0.1111 -0.2103  0.3018
 7681SOL    HW134679   3.739   2.666  14.359 -0.7316 -1.2440  0.3081
 7681SOL    HW234680   3.809   2.569  14.283  0.4100  0.1701  1.2641
 7682SOL     OW34681   2.064   3.879  10.364  0.1112 -0.4927  0.3902
 7682SOL    HW134682   2.053   3.884  10.269  3.2388  1.8459  0.1449
 7682SOL    HW234683   2.052   3.968  10.395  0.6073 -0.9964  2.0507
 7683SOL     OW34684   1.320   3.700   4.790 -0.1723  0.4602  0.1059
 7683SOL    HW134685   1.257   3.768   4.766 -0.0441  1.5638  2.8472
 7683SOL    HW234686   1.319   3.714   4.885  0.7913 -1.5501  0.4029
 7684SOL     OW34687   3.184   1.855   4.384 -0.3939  0.1021 -0.5772
 7684SOL    HW134688   3.186   1.774   4.333  1.4644 -1.2113  1.6240
 7684SOL    HW234689   3.235   1.830   4.461 -0.3377 -0.4076 -0.7839
 7685SOL     OW34690   3.434   3.626   8.513  0.1776  0.1194  0.2088
 7685SOL    HW134691   3.366   3.656   8.573  0.2258  2.4596 -0.9236
 7685SOL    HW234692   3.383   3.575   8.449 -1.6328 -0.8025  2.3616
 7686SOL     OW34693   1.486   0.278   3.346  0.0965  0.1464  0.3578
 7686SOL    HW134694   1.406   0.236   3.377 -0.1332 -0.3668 -0.9553
 7686SOL    HW234695   1.522   0.210   3.289 -0.4924  0.5282 -0.4567
 7687SOL     OW34696   3.685   2.784   8.558  0.2811 -0.1176  0.2651
 7687SOL    HW134697   3.657   2.777   8.649 -1.9013  1.1993 -0.2938
 7687SOL    HW234698   3.700   2.690   8.550  2.3618  0.2805 -0.4614
 7688SOL     OW34699   4.605   4.099   5.852  0.2550 -0.2079 -0.2955
 7688SOL    HW134700   4.665   4.029   5.827  0.5363 -0.1335  0.1833
 7688SOL    HW234701   4.655   4.177   5.829  0.7179 -0.1491  0.9383
 7689SOL     OW34702   0.644   1.503   3.056 -0.0844  0.0113  0.0413
 7689SOL    HW134703   0.732   1.467   3.043 -0.0475 -0.7260  2.4027
 7689SOL    HW234704   0.647   1.509   3.151 -0.6816  0.3346  0.0412
 7690SOL     OW34705   3.674   4.443   4.959  0.3307 -0.2656  0.0409
 7690SOL    HW134706   3.656   4.519   4.904  0.5681  0.9523  1.6410
 7690SOL    HW234707   3.689   4.366   4.904  0.1375  0.4497 -1.0023
 7691SOL     OW34708   1.304   0.218  13.599 -0.2178 -0.3327 -0.2594
 7691SOL    HW134709   1.216   0.243  13.571 -0.0367  1.0015  0.4207
 7691SOL    HW234710   1.279   0.125  13.604 -0.7397 -0.1433  0.5482
 7692SOL     OW34711   0.022   3.638   6.272 -0.2771  0.3852  0.4582
 7692SOL    HW134712   0.012   3.713   6.214 -2.4922  1.2294  1.9299
 7692SOL    HW234713   0.053   3.579   6.203  2.4079 -0.2544  2.2157
 7693SOL     OW34714   2.734   3.576   6.518 -0.0117  0.3926 -0.1843
 7693SOL    HW134715   2.757   3.484   6.519  0.0646  0.4571  2.2398
 7693SOL    HW234716   2.821   3.615   6.507  0.2361  0.3685  1.6912
 7694SOL     OW34717   1.123   3.779   6.490  0.1444 -0.2540 -0.1776
 7694SOL    HW134718   1.090   3.802   6.403  0.1788  0.9582  0.1317
 7694SOL    HW234719   1.179   3.855   6.509 -0.4712  0.1603 -0.0104
 7695SOL     OW34720   2.789   1.320   7.724 -0.3762  0.2084  0.3076
 7695SOL    HW134721   2.824   1.405   7.748  1.8921 -0.0155 -2.2927
 7695SOL    HW234722   2.710   1.346   7.678 -0.9530 -1.5590  0.2979
 7696SOL     OW34723   3.184   0.701  10.773  0.1650  0.0408  0.0046
 7696SOL    HW134724   3.270   0.672  10.742  0.4684  1.7573 -0.7144
 7696SOL    HW234725   3.134   0.740  10.701  0.2334 -0.0129 -0.0713
 7697SOL     OW34726   1.402   0.464   1.557  0.6569 -0.6039  0.4289
 7697SOL    HW134727   1.442   0.394   1.507  0.7044  1.0303 -1.8536
 7697SOL    HW234728   1.397   0.542   1.502  1.0322 -0.4481  0.6171
 7698SOL     OW34729   3.161   0.913  12.121 -0.4546  0.3385  0.0183
 7698SOL    HW134730   3.134   0.984  12.063  1.6550  1.1344 -0.0103
 7698SOL    HW234731   3.192   0.843  12.063  0.5103  1.1817 -0.4851
 7699SOL     OW34732   0.123   1.691   7.966 -0.1574 -0.5433  0.2937
 7699SOL    HW134733   0.180   1.614   7.975  0.2354  0.0674  3.2851
 7699SOL    HW234734   0.136   1.743   8.046 -0.1894 -0.9122  0.5400
 7700SOL     OW34735   1.459   2.750   4.673  0.1614  0.1360  0.1813
 7700SOL    HW134736   1.432   2.838   4.700 -0.7277 -0.5150  1.4069
 7700SOL    HW234737   1.386   2.724   4.618 -1.2776 -0.3901  2.3223
 7701SOL     OW34738   4.593   0.328   3.979  0.0125 -0.1214 -0.3968
 7701SOL    HW134739   4.575   0.237   3.954  0.2696 -0.5582  1.0324
 7701SOL    HW234740   4.682   0.337   3.945  0.4774 -2.1773  0.2811
 7702SOL     OW34741   4.147   4.510   4.753  0.1616 -0.0724 -0.1557
 7702SOL    HW134742   4.090   4.504   4.676 -0.3340 -1.0644  0.2991
 7702SOL    HW234743   4.087   4.567   4.799 -0.1562 -0.1808 -0.4325
 7703SOL     OW34744   0.634   3.465   0.330 -0.5690  0.3896  0.3621
 7703SOL    HW134745   0.661   3.401   0.264 -0.4740  0.8851 -0.0837
 7703SOL    HW234746   0.556   3.494   0.284  0.9698  2.1307 -1.1688
 7704SOL     OW34747   2.896   2.308   9.884  0.2852  0.5937  0.2375
 7704SOL    HW134748   2.879   2.343   9.797 -1.3705  1.0108  0.7131
 7704SOL    HW234749   2.877   2.383   9.942 -1.2268  0.9475 -0.7046
 7705SOL     OW34750   2.050   2.162   5.717 -0.4241 -0.0011 -0.2673
 7705SOL    HW134751   2.052   2.112   5.635 -0.9139  2.4347 -1.7495
 7705SOL    HW234752   2.065   2.251   5.686  2.1745  0.5891  2.7274
 7706SOL     OW34753   0.807   1.590  12.541 -0.0024  0.1513 -0.0640
 7706SOL    HW134754   0.788   1.572  12.449 -0.8428 -0.7254  0.2749
 7706SOL    HW234755   0.759   1.672  12.552  0.2930  0.1188  1.3755
 7707SOL     OW34756   0.741   3.001   6.466  0.2780  0.4512 -0.0943
 7707SOL    HW134757   0.702   2.993   6.379 -0.6330  0.1515  0.3411
 7707SOL    HW234758   0.684   2.937   6.509 -0.8685 -0.7372 -3.4239
 7708SOL     OW34759   1.399   3.872   7.096 -0.3549 -0.1743 -0.2384
 7708SOL    HW134760   1.350   3.821   7.032  0.9774 -0.4523 -1.0382
 7708SOL    HW234761   1.325   3.915   7.138 -1.2790 -3.3038  1.2952
 7709SOL     OW34762   0.498   3.498   7.305  0.0439 -0.9406  0.3750
 7709SOL    HW134763   0.464   3.587   7.300  1.3451 -0.5283 -1.0214
 7709SOL    HW234764   0.583   3.504   7.261 -0.2751 -1.7348 -0.3393
 7710SOL     OW34765   2.284   1.370   7.363 -0.3618 -0.0450  0.2364
 7710SOL    HW134766   2.253   1.461   7.371 -0.4207 -0.1063  0.7421
 7710SOL    HW234767   2.223   1.324   7.421 -0.4867  0.7074  0.7146
 7711SOL     OW34768   2.904   1.028   6.150  0.1205 -0.2515 -0.0899
 7711SOL    HW134769   2.999   1.040   6.151 -0.1923  2.3674 -1.1749
 7711SOL    HW234770   2.906   0.940   6.185  0.2168  0.0851  0.7449
 7712SOL     OW34771   1.573   4.223   7.024 -0.4559 -0.3479 -1.3087
 7712SOL    HW134772   1.555   4.136   7.059  0.5905  0.2209  0.6495
 7712SOL    HW234773   1.567   4.217   6.929  3.1320  0.6828 -1.6005
 7713SOL     OW34774   1.817   0.094   8.882 -0.2611  0.4195 -0.0455
 7713SOL    HW134775   1.827   0.051   8.798 -1.5599  1.9906 -1.0055
 7713SOL    HW234776   1.784   0.019   8.931 -0.3136 -1.2765 -2.6704
 7714SOL     OW34777   2.624   2.855   6.885 -0.1461  0.5932 -0.3329
 7714SOL    HW134778   2.619   2.763   6.858  1.5149  0.6765 -0.9275
 7714SOL    HW234779   2.654   2.898   6.805 -1.3369  0.7257 -0.7007
 7715SOL     OW34780   4.342   1.516  10.635  0.4331 -0.9063  0.1089
 7715SOL    HW134781   4.423   1.533  10.586 -0.4069 -0.0951 -1.0075
 7715SOL    HW234782   4.306   1.456  10.569  1.0279 -0.3789 -0.7021
 7716SOL     OW34783   4.710   0.012  16.994  0.0774 -0.0030  0.3376
 7716SOL    HW134784   0.024   4.692  16.937 -0.1823  0.9500 -0.8645
 7716SOL    HW234785   4.701   0.090  16.939  2.4303 -1.2533 -1.8409
 7717SOL     OW34786   2.067   1.745   3.129  0.2270 -0.4311  0.3162
 7717SOL    HW134787   2.113   1.817   3.085  1.6314 -0.3151  1.9718
 7717SOL    HW234788   2.004   1.785   3.189  0.8833  0.6935  0.2521
 7718SOL     OW34789   1.711   0.251  14.186 -0.6559 -0.0427  0.0540
 7718SOL    HW134790   1.798   0.212  14.195  0.1988  1.8240 -0.1650
 7718SOL    HW234791   1.700   0.253  14.091 -2.4688  0.4828  0.2805
 7719SOL     OW34792   1.027   2.923  12.899  0.1152  0.4283  0.2036
 7719SOL    HW134793   0.958   2.940  12.964 -0.6311 -0.5991 -0.3386
 7719SOL    HW234794   1.085   2.884  12.965 -0.1739  0.7025  0.6248
 7720SOL     OW34795   2.750   2.647   5.689 -0.0832 -0.3363 -0.2171
 7720SOL    HW134796   2.721   2.569   5.736  0.3755 -0.1445  0.3758
 7720SOL    HW234797   2.844   2.631   5.687 -0.0426 -0.1760  0.3066
 7721SOL     OW34798   1.077   1.030   7.084  0.3901 -0.3481 -0.4669
 7721SOL    HW134799   1.012   0.992   7.143 -0.4779 -1.1610 -1.9526
 7721SOL    HW234800   1.030   1.032   7.001  1.8135  2.1482 -1.2246
 7722SOL     OW34801   0.312   4.154   2.625  0.3489 -0.5262  0.5856
 7722SOL    HW134802   0.282   4.197   2.545 -0.9612  0.4229  1.5847
 7722SOL    HW234803   0.351   4.232   2.664 -1.0929  1.1047 -1.2212
 7723SOL     OW34804   3.227   1.561   8.191 -0.5651 -0.5387 -0.2678
 7723SOL    HW134805   3.231   1.640   8.246  0.8790 -0.4258 -0.5519
 7723SOL    HW234806   3.198   1.603   8.110  2.2674 -1.7072 -1.8810
 7724SOL     OW34807   1.433   0.043   3.823  0.2951  0.2927 -0.0214
 7724SOL    HW134808   1.509   0.093   3.794 -0.0120  1.1632  0.6754
 7724SOL    HW234809   1.401   0.013   3.738 -2.2960 -0.1021  1.0736
 7725SOL     OW34810   2.467   1.741   5.183  0.4612 -0.2488  0.8416
 7725SOL    HW134811   2.558   1.712   5.192  0.5221 -0.0784  0.7613
 7725SOL    HW234812   2.466   1.818   5.240  2.1757  0.7530 -0.4856
 7726SOL     OW34813   4.562   4.663   1.430  0.6296  0.2093 -0.0624
 7726SOL    HW134814   4.631   4.628   1.486  1.1101 -1.2057 -1.5253
 7726SOL    HW234815   4.483   4.610   1.439  1.0392 -0.5925 -1.1291
 7727SOL     OW34816   2.599   3.008   3.093 -0.2992 -0.1255 -0.2650
 7727SOL    HW134817   2.646   3.076   3.142  0.5322 -0.7584 -0.1747
 7727SOL    HW234818   2.672   2.947   3.081 -0.3048  0.0632 -1.3163
 7728SOL     OW34819   4.723   4.346   3.777 -0.1231  0.1397  0.0470
 7728SOL    HW134820   4.710   4.432   3.817  1.3010  0.4198 -0.0930
 7728SOL    HW234821   0.029   4.366   3.694 -1.9906 -1.7390 -1.3533
 7729SOL     OW34822   1.876   4.675   8.342 -0.8050  0.0652  0.3130
 7729SOL    HW134823   1.942   4.703   8.279  0.6066 -1.7696  0.9912
 7729SOL    HW234824   1.843   4.591   8.309 -0.5657  0.1692 -0.1900
 7730SOL     OW34825   4.472   4.641  13.166 -0.2106  0.5828 -0.2250
 7730SOL    HW134826   4.445   4.681  13.083 -0.7673 -0.9144 -0.7547
 7730SOL    HW234827   4.500   4.722  13.209 -0.3448  0.0343  0.8961
 7731SOL     OW34828   2.402   0.100  15.620 -0.0192  0.0664  0.2393
 7731SOL    HW134829   2.343   0.158  15.668  0.0537  0.8838 -0.6389
 7731SOL    HW234830   2.350   0.087  15.541 -0.0671  0.2271  0.2429
 7732SOL     OW34831   2.262   2.808   2.891  0.0391  0.3768  0.1253
 7732SOL    HW134832   2.221   2.885   2.930  0.9055 -0.2752  2.3008
 7732SOL    HW234833   2.353   2.839   2.892 -0.3999  1.7585 -2.2928
 7733SOL     OW34834   2.104   4.625   2.745  0.0322  0.6416 -0.0798
 7733SOL    HW134835   2.171   4.664   2.802  0.1160  1.0876 -0.4783
 7733SOL    HW234836   2.019   4.659   2.772 -0.1142 -1.1702  1.6836
 7734SOL     OW34837   0.244   2.531   0.860  0.7024 -0.2278  0.0024
 7734SOL    HW134838   0.228   2.444   0.823 -1.3271  0.3654 -0.4924
 7734SOL    HW234839   0.313   2.563   0.803 -1.9445 -1.6865 -3.9954
 7735SOL     OW34840   2.198   1.208   6.416 -0.4188 -0.0852 -0.0713
 7735SOL    HW134841   2.190   1.279   6.351 -0.2781  1.0056  1.1108
 7735SOL    HW234842   2.201   1.140   6.348 -0.9261 -2.4085  2.2473
 7736SOL     OW34843   1.286   0.984   4.146  0.0541  0.2978  0.0365
 7736SOL    HW134844   1.229   0.977   4.223 -0.5301  0.1378 -0.4103
 7736SOL    HW234845   1.314   0.894   4.133  0.1702  0.4445 -0.7277
 7737SOL     OW34846   3.242   4.361  13.693  0.3478 -0.3330  0.0419
 7737SOL    HW134847   3.178   4.407  13.747 -0.9197 -0.5065 -1.3217
 7737SOL    HW234848   3.284   4.433  13.645 -2.5066 -0.1995 -2.2409
 7738SOL     OW34849   2.965   0.693   2.508 -0.3315  0.2439 -0.0825
 7738SOL    HW134850   2.931   0.616   2.553 -0.8910  0.1484 -0.6716
 7738SOL    HW234851   2.960   0.763   2.574  1.5039 -0.0707  0.3965
 7739SOL     OW34852   1.896   3.229   2.062  0.0562 -0.8689  0.6074
 7739SOL    HW134853   1.973   3.175   2.043 -1.3223 -2.7921  0.6042
 7739SOL    HW234854   1.935   3.260   2.144  0.4251  0.9848 -0.2612
 7740SOL     OW34855   0.558   2.913  15.507 -0.2998 -0.1389 -0.8736
 7740SOL    HW134856   0.539   2.986  15.566 -1.0650 -1.0622  0.0185
 7740SOL    HW234857   0.653   2.897  15.502 -0.1793  0.3860 -0.2909
 7741SOL     OW34858   2.199   3.345   9.612  0.3875  0.2710  0.0119
 7741SOL    HW134859   2.114   3.334   9.569 -1.1533  0.9910  2.8864
 7741SOL    HW234860   2.174   3.358   9.703  1.3006 -1.9530  0.5623
 7742SOL     OW34861   1.387   3.407   7.151  0.1406 -0.5567 -0.2552
 7742SOL    HW134862   1.420   3.333   7.100  1.7016 -0.3276  0.4250
 7742SOL    HW234863   1.310   3.444   7.108 -0.9449 -1.5670  0.7916
 7743SOL     OW34864   0.215   3.368   4.738  0.5787  0.3706  0.0939
 7743SOL    HW134865   0.165   3.448   4.756  2.1474  1.4271 -0.2333
 7743SOL    HW234866   0.291   3.397   4.687 -0.8389  1.3865 -1.4245
 7744SOL     OW34867   3.725   0.281   8.860 -0.4287 -0.1373  0.3088
 7744SOL    HW134868   3.699   0.204   8.910  0.6604  0.4336  1.7550
 7744SOL    HW234869   3.701   0.257   8.771  0.2452  2.1305 -0.4841
 7745SOL     OW34870   1.702   1.542  13.047 -0.0445 -0.4681  0.5998
 7745SOL    HW134871   1.783   1.503  13.016  0.4674  0.1936  1.1039
 7745SOL    HW234872   1.717   1.598  13.123  0.3779  0.8366 -0.4375
 7746SOL     OW34873   3.434   2.367  11.230  0.6925 -0.2143 -0.6447
 7746SOL    HW134874   3.442   2.461  11.246  1.0689 -0.6507  1.7941
 7746SOL    HW234875   3.446   2.339  11.321 -1.2423  0.7080 -0.1156
 7747SOL     OW34876   3.287   1.421  13.217 -0.3671 -0.0272 -0.0819
 7747SOL    HW134877   3.263   1.390  13.130  1.2992  3.1967 -1.7031
 7747SOL    HW234878   3.315   1.340  13.260  0.8195  1.4480  1.9450
 7748SOL     OW34879   2.836   1.478   6.776 -0.0193  0.0927 -0.6325
 7748SOL    HW134880   2.766   1.446   6.720 -1.8912  1.0383  1.1971
 7748SOL    HW234881   2.817   1.430   6.857  0.0372  1.6204  0.2852
 7749SOL     OW34882   0.189   4.289   5.571 -0.2630 -0.5142 -0.5053
 7749SOL    HW134883   0.249   4.328   5.507  0.5898  1.6699  1.6214
 7749SOL    HW234884   0.242   4.215   5.601  0.2327 -1.2979 -3.3180
 7750SOL     OW34885   2.274   0.565   3.022 -0.1145  0.1475 -0.1263
 7750SOL    HW134886   2.247   0.495   3.082  1.5514 -0.4425 -0.0433
 7750SOL    HW234887   2.345   0.522   2.974 -0.9758  0.4808 -1.7050
 7751SOL     OW34888   1.338   4.646   6.390  0.0395  0.5350 -0.7029
 7751SOL    HW134889   1.305   4.735   6.398 -1.7874 -0.4833  3.1003
 7751SOL    HW234890   1.380   4.640   6.305  0.4316  0.0565 -0.4752
 7752SOL     OW34891   3.470   4.261   3.997  0.1802  0.2853  0.1332
 7752SOL    HW134892   3.514   4.197   4.054 -0.6463 -1.8234 -1.5949
 7752SOL    HW234893   3.379   4.243   4.024  0.0217  0.6364 -0.1759
 7753SOL     OW34894   4.354   2.102   8.601 -0.1585  0.0925  0.1099
 7753SOL    HW134895   4.378   2.056   8.520 -1.0484 -0.5553  0.2228
 7753SOL    HW234896   4.264   2.127   8.582 -0.4219 -0.4213  0.6795
 7754SOL     OW34897   0.238   0.126   4.002 -0.8876  0.4141  0.0073
 7754SOL    HW134898   0.323   0.146   4.042 -0.8729  2.3139 -0.9563
 7754SOL    HW234899   0.177   0.136   4.075  0.0318  1.2659  0.6513
 7755SOL     OW34900   2.002   0.238  10.910 -0.4304  0.7441 -0.0104
 7755SOL    HW134901   2.077   0.216  10.967 -0.4556  1.1356  0.1750
 7755SOL    HW234902   1.939   0.259  10.979  0.2345  1.1406  0.4850
 7756SOL     OW34903   2.851   2.365   9.633  0.5584  0.5735 -0.5230
 7756SOL    HW134904   2.836   2.431   9.565  2.1201 -2.0399 -3.3930
 7756SOL    HW234905   2.883   2.291   9.582 -0.5356 -1.0899  1.1860
 7757SOL     OW34906   1.964   3.412   3.316 -0.4749 -0.3462  0.4149
 7757SOL    HW134907   1.891   3.474   3.317  1.5102  1.9759  0.9034
 7757SOL    HW234908   1.929   3.346   3.256 -1.3595 -0.7869  1.4164
 7758SOL     OW34909   4.261   4.473   2.734  0.4624  0.0523  0.2911
 7758SOL    HW134910   4.299   4.409   2.673 -1.8494  0.4096 -1.5201
 7758SOL    HW234911   4.256   4.556   2.685 -0.0727 -0.4155 -0.4452
 7759SOL     OW34912   0.358   0.404   6.675 -0.3945  0.5991 -0.1055
 7759SOL    HW134913   0.429   0.403   6.740  1.0291 -0.1270 -1.6700
 7759SOL    HW234914   0.323   0.315   6.678 -2.0845  1.2314 -1.1160
 7760SOL     OW34915   1.114   3.086   5.460 -0.0273 -0.0851 -0.4582
 7760SOL    HW134916   1.092   3.056   5.549  0.3729 -1.1691 -0.7262
 7760SOL    HW234917   1.112   2.999   5.420  1.9012 -0.7100  0.7576
 7761SOL     OW34918   1.074   1.957   3.543 -0.1632  0.4451  0.2783
 7761SOL    HW134919   1.037   1.970   3.455 -2.2431 -1.1974  0.9270
 7761SOL    HW234920   1.077   1.862   3.554  3.7272  0.4540 -0.7224
 7762SOL     OW34921   2.271   0.644   8.313  0.0671  0.0790  0.3155
 7762SOL    HW134922   2.199   0.590   8.280  0.2207  0.2864 -0.3709
 7762SOL    HW234923   2.303   0.676   8.229 -1.5751  0.8361 -0.0236
 7763SOL     OW34924   0.880   3.235   5.193 -0.1343 -0.4857 -0.3312
 7763SOL    HW134925   0.823   3.161   5.174 -0.1599 -0.0496 -1.9412
 7763SOL    HW234926   0.962   3.191   5.169  1.5061  1.3452  1.8340
 7764SOL     OW34927   3.654   3.763  14.732 -0.4752 -0.0318 -0.5927
 7764SOL    HW134928   3.620   3.678  14.758 -1.5271  0.6126  0.1380
 7764SOL    HW234929   3.685   3.800  14.815 -0.0931 -2.4049  0.3113
 7765SOL     OW34930   1.970   4.230   4.992 -0.2818 -0.2371 -0.6435
 7765SOL    HW134931   1.880   4.247   5.021 -0.4724 -0.2965 -1.2090
 7765SOL    HW234932   1.999   4.320   5.008 -0.7325  0.0194 -1.3059
 7766SOL     OW34933   3.688   4.651   0.811 -0.9200  0.0446  0.2995
 7766SOL    HW134934   3.733   4.674   0.893 -0.4315 -1.0768  0.3560
 7766SOL    HW234935   3.633   4.726   0.789 -1.0029  0.0083  0.3828
 7767SOL     OW34936   4.282   0.779  13.026  0.5393 -0.6119 -0.1781
 7767SOL    HW134937   4.192   0.748  13.021  0.2704 -0.0806  1.3347
 7767SOL    HW234938   4.311   0.725  13.100 -1.6501 -1.5720 -0.0282
 7768SOL     OW34939   0.341   3.517   2.110 -0.4240  0.0824  0.1123
 7768SOL    HW134940   0.399   3.443   2.089  0.5739  1.8961 -3.4758
 7768SOL    HW234941   0.291   3.511   2.029  0.0673 -0.5439 -0.1455
 7769SOL     OW34942   1.858   3.361   6.816  0.6826  0.6140 -0.4179
 7769SOL    HW134943   1.775   3.383   6.774  0.1635  2.0709  1.4006
 7769SOL    HW234944   1.908   3.441   6.802 -0.1767  1.3579  0.8239
 7770SOL     OW34945   3.447   2.993  17.727  0.3491  0.9333  0.0067
 7770SOL    HW134946   3.431   2.906  17.691 -0.3364  0.5283  1.2808
 7770SOL    HW234947   3.360   3.032  17.732 -0.2425 -0.7213  2.8616
 7771SOL     OW34948   4.195   0.440  17.334  0.8772  0.0898  0.1355
 7771SOL    HW134949   4.132   0.407  17.397  1.0443 -0.4518  0.0145
 7771SOL    HW234950   4.256   0.367  17.340  0.1542 -0.5804 -0.7187
 7772SOL     OW34951   0.913   4.460  12.440 -0.2190 -0.7061  0.1336
 7772SOL    HW134952   0.863   4.541  12.449 -0.1594 -0.6432 -0.0986
 7772SOL    HW234953   1.003   4.493  12.440 -0.8574  1.0424 -1.8585
 7773SOL     OW34954   3.528   1.799   4.919  0.3609 -0.5871 -0.0317
 7773SOL    HW134955   3.447   1.750   4.935 -0.6568  0.5420 -1.6406
 7773SOL    HW234956   3.577   1.778   4.998 -0.3498  1.3761  0.9221
 7774SOL     OW34957   3.411   2.370   5.770  0.2602  0.6708  0.4704
 7774SOL    HW134958   3.483   2.423   5.735  0.9695 -0.2008  0.6098
 7774SOL    HW234959   3.392   2.312   5.697 -1.3886  0.4276  1.1006
 7775SOL     OW34960   2.961   1.983  14.642 -0.5321  0.2536  1.2107
 7775SOL    HW134961   2.923   1.970  14.555 -0.0433  2.7406  0.6293
 7775SOL    HW234962   3.005   2.068  14.643 -1.8956  0.9953 -1.2482
 7776SOL     OW34963   3.549   4.248   4.408 -0.1400  0.1484  0.3110
 7776SOL    HW134964   3.488   4.253   4.334  1.3205 -0.0960 -0.9013
 7776SOL    HW234965   3.535   4.336   4.444 -1.6560  0.8299 -1.9512
 7777SOL     OW34966   1.757   2.494   4.262  0.3221 -0.0189  0.1756
 7777SOL    HW134967   1.663   2.482   4.250  0.6037 -0.1464 -2.0524
 7777SOL    HW234968   1.754   2.560   4.332 -0.0188  0.1047  0.0453
 7778SOL     OW34969   3.074   4.220   8.355 -0.2650  0.4020 -0.7611
 7778SOL    HW134970   3.101   4.273   8.279 -1.7741  0.8298 -1.0020
 7778SOL    HW234971   3.141   4.152   8.358 -0.4531  0.2757  0.4608
 7779SOL     OW34972   2.013   2.861   6.750  0.0716  0.7145  0.2259
 7779SOL    HW134973   1.960   2.940   6.764 -1.6812 -0.7024  1.6231
 7779SOL    HW234974   1.959   2.813   6.688  1.3595 -0.0294 -0.3261
 7780SOL     OW34975   4.449   1.299   7.186  0.3589  0.1299 -0.2840
 7780SOL    HW134976   4.360   1.305   7.222  0.7663  0.8178  0.6104
 7780SOL    HW234977   4.445   1.353   7.107  2.1148  1.3713  0.4731
 7781SOL     OW34978   3.891   2.309   5.041  0.1189 -0.0136 -0.0449
 7781SOL    HW134979   3.974   2.303   4.994 -0.1730  0.9804 -0.6725
 7781SOL    HW234980   3.821   2.290   4.979 -0.9938  0.3572  1.0968
 7782SOL     OW34981   1.302   0.997   6.334 -0.0090  0.0031  0.6810
 7782SOL    HW134982   1.235   0.934   6.306  1.8043 -1.3157 -0.6264
 7782SOL    HW234983   1.272   1.028   6.420  0.7015 -0.3706  1.0537
 7783SOL     OW34984   3.907   0.242  15.473  0.0828 -0.1513  0.4670
 7783SOL    HW134985   3.988   0.235  15.523  0.3826 -1.3311 -0.1916
 7783SOL    HW234986   3.918   0.336  15.458 -3.1319  0.9158  4.5581
 7784SOL     OW34987   3.307   0.218   4.686 -0.8056 -0.0859  0.5601
 7784SOL    HW134988   3.261   0.266   4.755  0.8494  1.1969  0.7966
 7784SOL    HW234989   3.230   0.174   4.650 -0.4824 -0.1608 -0.0484
 7785SOL     OW34990   3.184   0.552  16.861  0.6605  0.2544 -0.3607
 7785SOL    HW134991   3.254   0.596  16.910 -1.7583 -0.5062  3.7930
 7785SOL    HW234992   3.240   0.488  16.818  0.0727 -0.0093 -0.7340
 7786SOL     OW34993   3.227   2.123   4.625  0.0578  0.0259  0.5131
 7786SOL    HW134994   3.238   2.218   4.630  3.3908 -0.3763  0.7194
 7786SOL    HW234995   3.318   2.096   4.638  0.1113  1.3511  3.0754
 7787SOL     OW34996   2.132   2.109   6.730  0.2739 -0.1853  0.0703
 7787SOL    HW134997   2.196   2.140   6.795 -1.3847  0.8475  1.2120
 7787SOL    HW234998   2.049   2.151   6.751 -0.3166 -2.2539  1.7770
 7788SOL     OW34999   4.491   4.074  12.250 -0.3145 -0.2191  0.1309
 7788SOL    HW135000   4.495   3.979  12.252  3.4326  0.0086  2.9593
 7788SOL    HW235001   4.575   4.091  12.291  0.0818  0.2128 -0.8447
 7789SOL     OW35002   2.283   3.273   6.787 -0.2779 -0.1346 -0.1520
 7789SOL    HW135003   2.296   3.182   6.759  0.0540  1.0453 -3.7526
 7789SOL    HW235004   2.260   3.272   6.880  0.7251 -1.3470  0.0957
 7790SOL     OW35005   1.783   0.063   6.760  0.0626  0.1581 -0.2380
 7790SOL    HW135006   1.872   0.029   6.750  0.7515  2.8775 -3.1188
 7790SOL    HW235007   1.782   0.124   6.834 -2.3447 -1.3070  0.9551
 7791SOL     OW35008   4.126   2.852   1.751 -0.5600 -0.0341  0.1542
 7791SOL    HW135009   4.129   2.756   1.755  2.9465  0.1042  0.7844
 7791SOL    HW235010   4.056   2.868   1.688 -1.5546 -1.8541  0.7867
 7792SOL     OW35011   4.648   0.363   5.149 -0.5610  0.5424  0.0474
 7792SOL    HW135012   4.609   0.394   5.067 -1.2237  0.8320  0.4695
 7792SOL    HW235013   4.657   0.271   5.127 -3.2398  0.1447  0.5708
 7793SOL     OW35014   2.426   1.550   4.498 -0.2786 -0.1663  0.2108
 7793SOL    HW135015   2.426   1.468   4.449  2.0411  1.1492 -1.9657
 7793SOL    HW235016   2.444   1.514   4.585 -2.6788 -0.2262  0.6734
 7794SOL     OW35017   3.226   2.150  14.261 -0.5564  0.2082  0.2956
 7794SOL    HW135018   3.245   2.239  14.232  1.1899  0.7696  3.1457
 7794SOL    HW235019   3.276   2.147  14.343  1.0682 -0.4140 -0.7148
 7795SOL     OW35020   0.516   1.881  11.538  0.1496 -0.4112 -0.5185
 7795SOL    HW135021   0.475   1.961  11.570 -0.8753 -1.5378  0.9923
 7795SOL    HW235022   0.605   1.909  11.517 -0.3714  1.0792 -0.7225
 7796SOL     OW35023   4.179   3.389   2.209 -1.0156 -0.2855  0.7133
 7796SOL    HW135024   4.198   3.483   2.208  1.1824 -0.6979  2.6991
 7796SOL    HW235025   4.243   3.376   2.280 -0.1081 -0.0711 -0.0660
 7797SOL     OW35026   4.426   3.414   6.269 -0.1415  0.3094 -0.4319
 7797SOL    HW135027   4.476   3.452   6.195  0.3671  2.3690  0.9565
 7797SOL    HW235028   4.413   3.326   6.234 -0.8858  0.0741  0.4749
 7798SOL     OW35029   2.067   1.569   2.377  0.2089 -0.0221 -0.4389
 7798SOL    HW135030   2.059   1.587   2.283 -4.4959  2.6740  0.4733
 7798SOL    HW235031   2.138   1.631   2.396  1.3625 -1.0491 -1.3846
 7799SOL     OW35032   0.056   0.268  16.189 -0.6613  0.2261 -0.3140
 7799SOL    HW135033   0.121   0.338  16.190 -2.6252  2.0637 -0.8603
 7799SOL    HW235034   4.708   0.311  16.196 -0.1764  1.1834 -0.3315
 7800SOL     OW35035   4.128   2.783   5.177 -0.4770 -0.0531  0.1738
 7800SOL    HW135036   4.042   2.789   5.218  0.0979  0.3286  1.3455
 7800SOL    HW235037   4.185   2.783   5.254 -1.8601  1.9624  1.1847
 7801SOL     OW35038   3.633   0.861   0.863 -0.2473 -0.7341 -0.4227
 7801SOL    HW135039   3.563   0.801   0.836 -0.0031 -0.9148 -0.6529
 7801SOL    HW235040   3.703   0.800   0.842  0.4242  0.2513 -1.0525
 7802SOL     OW35041   4.564   4.697   4.550  0.1371  0.0319 -0.1648
 7802SOL    HW135042   4.485   4.716   4.602 -0.2229 -0.0542 -0.6782
 7802SOL    HW235043   4.539   4.626   4.491 -0.9822  0.9207 -0.7623
 7803SOL     OW35044   2.904   1.369   5.939  0.7495  0.1228 -0.2164
 7803SOL    HW135045   2.940   1.375   6.027  0.8890  0.7679 -0.3148
 7803SOL    HW235046   2.989   1.363   5.894  1.3859  0.4007  0.9453
 7804SOL     OW35047   3.410   0.024   5.517 -0.2655  0.0301  0.3376
 7804SOL    HW135048   3.454   0.039   5.600  1.1114 -2.2023  0.0163
 7804SOL    HW235049   3.323   4.726   5.535 -0.4365 -0.0172 -0.5837
 7805SOL     OW35050   2.245   3.265   7.052  0.5089  0.3176  0.8320
 7805SOL    HW135051   2.319   3.281   7.110  0.8552  1.9407 -0.0766
 7805SOL    HW235052   2.174   3.272   7.116 -0.3603  0.1187 -0.0941
 7806SOL     OW35053   0.222   3.626   8.224 -0.0416  0.5211  0.5804
 7806SOL    HW135054   0.132   3.608   8.248 -0.0917  0.0643  0.0446
 7806SOL    HW235055   0.264   3.540   8.232 -0.8891 -0.0169 -0.8778
 7807SOL     OW35056   1.627   1.597  12.187  0.0701  0.2828 -0.0396
 7807SOL    HW135057   1.562   1.580  12.256 -0.9068  2.7085 -0.3712
 7807SOL    HW235058   1.660   1.508  12.172  0.9033  0.7249 -0.7980
 7808SOL     OW35059   0.719   1.136   3.728  0.3094  0.0718  0.3812
 7808SOL    HW135060   0.670   1.188   3.793  0.2645 -0.4021  0.7249
 7808SOL    HW235061   0.647   1.109   3.671  1.6507 -0.8553 -0.8624
 7809SOL     OW35062   1.156   2.373  16.979 -0.6328 -0.5267 -0.2146
 7809SOL    HW135063   1.235   2.427  16.972 -0.9310 -0.2324 -1.3324
 7809SOL    HW235064   1.096   2.435  17.021  0.3608  0.3869 -0.1406
 7810SOL     OW35065   0.006   1.911  13.992 -0.1405  0.1016 -0.0065
 7810SOL    HW135066   0.047   1.912  13.906 -1.6488 -1.0148 -0.7282
 7810SOL    HW235067   4.649   1.898  13.977 -0.3968 -1.2634  2.8010
 7811SOL     OW35068   2.784   1.069   5.931  0.0513 -0.0842 -0.4684
 7811SOL    HW135069   2.821   1.063   6.019  0.5304  1.5999 -0.5524
 7811SOL    HW235070   2.812   1.160   5.924 -0.5432  0.0588 -0.9773
 7812SOL     OW35071   3.124   3.100   2.059  0.1265 -0.6382  0.0438
 7812SOL    HW135072   3.202   3.077   2.010  1.4351  0.0227  1.7868
 7812SOL    HW235073   3.142   3.158   2.134 -2.1364 -4.4715  3.5154
 7813SOL     OW35074   2.657   1.926  14.317 -0.1361  0.0363 -0.2294
 7813SOL    HW135075   2.662   2.002  14.376 -1.7526  0.6239 -0.8376
 7813SOL    HW235076   2.593   1.871  14.361  0.3430 -0.2150  0.1489
 7814SOL     OW35077   1.233   0.700   8.798 -0.8067 -0.1131  0.0683
 7814SOL    HW135078   1.320   0.731   8.775 -1.4036  3.0218  2.0794
 7814SOL    HW235079   1.260   0.678   8.887  0.3801 -1.1007 -0.5456
 7815SOL     OW35080   0.347   3.088  13.859  0.4062  0.0443  0.2803
 7815SOL    HW135081   0.302   3.068  13.941 -0.9042  0.7906 -0.2427
 7815SOL    HW235082   0.301   3.166  13.827 -0.5301 -0.4052  0.5333
 7816SOL     OW35083   1.471   3.615   9.841  0.3342 -1.1450 -0.1134
 7816SOL    HW135084   1.491   3.700   9.880  1.2188 -1.1040 -0.6496
 7816SOL    HW235085   1.512   3.617   9.755 -1.3633  0.0064 -0.8958
 7817SOL     OW35086   1.308   0.770   4.794  0.0666  0.3589 -0.0183
 7817SOL    HW135087   1.245   0.711   4.837  1.6111 -0.1328  1.5739
 7817SOL    HW235088   1.293   0.857   4.830 -1.2369 -1.1322  3.0653
 7818SOL     OW35089   3.595   0.531   6.466 -0.0908 -0.0664  0.2362
 7818SOL    HW135090   3.580   0.442   6.496  0.7865 -0.3196 -0.0723
 7818SOL    HW235091   3.512   0.573   6.489  1.2127  1.4627  2.1026
 7819SOL     OW35092   3.642   0.315   9.252 -0.3894  0.1155  0.0800
 7819SOL    HW135093   3.640   0.225   9.219  1.1726 -0.1652  0.7464
 7819SOL    HW235094   3.596   0.298   9.334  2.5612 -0.7563  1.5373
 7820SOL     OW35095   4.114   3.376  12.406  0.3121  0.0642  0.2826
 7820SOL    HW135096   4.187   3.386  12.344  2.2123 -0.6813  2.3982
 7820SOL    HW235097   4.069   3.304  12.361 -0.1057  0.2719  0.3714
 7821SOL     OW35098   3.818   3.958   4.241  0.3334 -0.1316  0.6673
 7821SOL    HW135099   3.789   3.998   4.323  0.2201  1.3547 -0.0952
 7821SOL    HW235100   3.755   3.887   4.239  3.1012 -2.6927  4.0064
 7822SOL     OW35101   1.186   2.246   0.497 -0.3645 -0.9684 -0.1573
 7822SOL    HW135102   1.178   2.341   0.508  0.2402 -0.7795 -1.2508
 7822SOL    HW235103   1.281   2.233   0.505  0.1185  2.3168 -0.6631
 7823SOL     OW35104   4.057   2.399  13.096 -0.2011 -0.3144  0.3227
 7823SOL    HW135105   4.146   2.408  13.131  0.1625  4.1130 -1.7488
 7823SOL    HW235106   4.020   2.334  13.156 -1.8213 -0.4273 -0.8255
 7824SOL     OW35107   3.063   1.116   8.266 -0.3094 -0.7314 -0.5576
 7824SOL    HW135108   3.095   1.029   8.243  0.7368 -0.3937 -0.3542
 7824SOL    HW235109   3.048   1.101   8.359 -0.5611  0.8205 -0.3381
 7825SOL     OW35110   2.423   1.285   1.057 -0.1859 -0.1667  0.5933
 7825SOL    HW135111   2.464   1.371   1.065 -0.3913 -0.0494  0.3742
 7825SOL    HW235112   2.370   1.292   0.978  0.1389  0.2369  0.4091
 7826SOL     OW35113   3.211   3.015   9.077 -0.4576 -0.1375  0.3595
 7826SOL    HW135114   3.243   3.061   9.154 -1.5642  4.5929 -2.0303
 7826SOL    HW235115   3.170   2.936   9.113 -3.1666  1.6489  1.2118
 7827SOL     OW35116   4.032   4.603   7.125 -0.2544  0.7144 -0.3112
 7827SOL    HW135117   4.058   4.614   7.217  0.8246  1.8176 -0.7424
 7827SOL    HW235118   4.076   4.521   7.102  0.1560  0.3497  1.7145
 7828SOL     OW35119   2.624   4.125  10.843 -0.7324 -0.8360  0.5912
 7828SOL    HW135120   2.650   4.216  10.858 -1.1747 -0.7221  0.6749
 7828SOL    HW235121   2.568   4.110  10.919 -0.2121 -0.7908  0.9831
 7829SOL     OW35122   4.695   4.693   8.749 -0.0414  0.6571 -0.1726
 7829SOL    HW135123   4.704   4.651   8.663 -3.0306 -1.8863  0.7443
 7829SOL    HW235124   0.048   4.722   8.762  0.4716 -0.2009 -1.7190
 7830SOL     OW35125   3.923   1.463  15.837  0.1670  0.1882  0.1820
 7830SOL    HW135126   3.831   1.455  15.811  0.6015  1.5485 -1.8289
 7830SOL    HW235127   3.918   1.508  15.921  0.5856  0.3698  0.1117
 7831SOL     OW35128   0.640   0.333  15.706  0.3463 -0.0046 -0.2816
 7831SOL    HW135129   0.563   0.277  15.694  1.5971 -2.0151  0.9985
 7831SOL    HW235130   0.600   0.404  15.756  0.5846 -0.4554  0.5561
 7832SOL     OW35131   0.648   3.430   2.183 -0.4117  0.2739 -0.1090
 7832SOL    HW135132   0.681   3.384   2.105  0.0944  1.7221 -0.7462
 7832SOL    HW235133   0.717   3.412   2.246 -1.4360 -1.8345  0.4168
 7833SOL     OW35134   2.488   2.785   0.296 -0.4312 -0.1991  0.0234
 7833SOL    HW135135   2.406   2.835   0.304 -0.3135 -0.3893  2.5214
 7833SOL    HW235136   2.559   2.842   0.325 -0.4979 -0.0930 -0.0195
 7834SOL     OW35137   0.818   1.981   4.594 -0.5440  0.3277 -0.2108
 7834SOL    HW135138   0.745   2.032   4.630 -0.4643  0.9422 -0.9112
 7834SOL    HW235139   0.838   2.030   4.514  0.4401 -0.7993 -0.6635
 7835SOL     OW35140   3.789   1.867  10.978  0.2897 -0.1018  0.2945
 7835SOL    HW135141   3.861   1.806  10.961  1.8192  1.9802 -0.7885
 7835SOL    HW235142   3.837   1.949  10.990  0.7127  0.0979 -2.5537
 7836SOL     OW35143   0.919   1.348   3.713 -0.2257 -0.3295  0.2051
 7836SOL    HW135144   0.863   1.271   3.710 -1.9550  0.9464 -0.7318
 7836SOL    HW235145   0.901   1.387   3.799 -2.4222  0.2574 -0.5152
 7837SOL     OW35146   2.119   3.153  14.393 -0.2020  0.0070  0.3252
 7837SOL    HW135147   2.123   3.062  14.365  0.1845 -0.2456  1.2060
 7837SOL    HW235148   2.024   3.159  14.403 -0.2446  2.5464 -1.3862
 7838SOL     OW35149   2.783   0.979  16.484  0.3231  0.2456 -0.5356
 7838SOL    HW135150   2.771   0.952  16.575 -0.5179  0.0308 -0.7094
 7838SOL    HW235151   2.873   0.948  16.473 -0.1445 -1.0968 -0.5419
 7839SOL     OW35152   4.078   0.380   7.545 -0.2533 -0.8853 -0.0038
 7839SOL    HW135153   4.046   0.393   7.635 -0.4003 -1.5127  0.0297
 7839SOL    HW235154   4.010   0.430   7.499 -0.5750 -1.0883  0.2441
 7840SOL     OW35155   1.762   3.873   7.738 -0.2786  0.1861 -0.0339
 7840SOL    HW135156   1.752   3.782   7.766 -1.2926  0.1292 -0.5818
 7840SOL    HW235157   1.748   3.859   7.645  0.0237  0.3741 -0.1071
 7841SOL     OW35158   0.678   3.972   9.025  0.9262 -0.7664  0.6107
 7841SOL    HW135159   0.664   4.017   8.942 -0.5720 -0.6945  0.9040
 7841SOL    HW235160   0.771   3.956   9.006  1.8803  1.0176  3.8130
 7842SOL     OW35161   2.073   0.069   7.599 -0.6871 -0.2918  0.6149
 7842SOL    HW135162   2.021   0.017   7.538 -1.5715 -0.2321  1.3055
 7842SOL    HW235163   2.096   4.736   7.660  0.9518 -0.6275 -0.4075
 7843SOL     OW35164   4.220   4.275   6.312  0.5555  0.1385 -0.0771
 7843SOL    HW135165   4.178   4.319   6.386  0.8534  0.7454 -0.2700
 7843SOL    HW235166   4.309   4.309   6.319  0.4487  0.6296 -1.0337
 7844SOL     OW35167   2.052   3.640   4.357 -0.4399 -0.0215  0.0018
 7844SOL    HW135168   1.984   3.595   4.408  0.4955 -1.1623  0.2502
 7844SOL    HW235169   2.092   3.701   4.419  0.1740  1.8688 -2.2227
 7845SOL     OW35170   0.757   3.378   1.197  0.0543 -0.0493  0.7142
 7845SOL    HW135171   0.791   3.448   1.252 -1.7533  0.7521  0.7977
 7845SOL    HW235172   0.685   3.347   1.251  0.0204  0.1100  0.7587
 7846SOL     OW35173   3.615   4.532   4.271 -0.4502 -0.0476 -0.3545
 7846SOL    HW135174   3.532   4.495   4.303 -0.8461 -0.9309 -2.4137
 7846SOL    HW235175   3.606   4.535   4.176 -3.5330 -0.1523 -0.0558
 7847SOL     OW35176   3.678   3.843   4.657  0.0590  0.3931  0.1299
 7847SOL    HW135177   3.655   3.912   4.594  0.4733  0.2023 -0.2259
 7847SOL    HW235178   3.774   3.842   4.654  0.0031 -0.7629 -1.2619
 7848SOL     OW35179   4.396   4.593   2.178 -0.4599  0.6777  0.2467
 7848SOL    HW135180   4.466   4.529   2.181 -1.3892 -0.3920 -0.6844
 7848SOL    HW235181   4.380   4.624   2.267  3.2677 -1.0120  1.4676
 7849SOL     OW35182   0.878   1.351   2.899 -0.2375  0.5370 -0.3694
 7849SOL    HW135183   0.905   1.418   2.837 -0.1112 -2.5248 -3.5926
 7849SOL    HW235184   0.923   1.278   2.856 -1.7364  0.7642 -2.3174
 7850SOL     OW35185   3.858   1.203  16.036 -0.3509  0.2888  0.0208
 7850SOL    HW135186   3.851   1.198  15.940  2.1042 -2.0148 -0.0160
 7850SOL    HW235187   3.948   1.223  16.060 -0.3271  0.5909 -0.3199
 7851SOL     OW35188   2.635   3.133   1.773 -0.0399 -0.0927  0.2723
 7851SOL    HW135189   2.615   3.167   1.686 -1.6848  0.8508  1.0044
 7851SOL    HW235190   2.676   3.211   1.811  2.2241  0.1164 -2.6548
 7852SOL     OW35191   4.516   4.331   3.049 -0.1141 -0.1077 -0.1127
 7852SOL    HW135192   4.588   4.386   3.081 -0.3925  0.1474  0.0748
 7852SOL    HW235193   4.539   4.328   2.956 -0.3517  0.2239 -0.1808
 7853SOL     OW35194   3.860   2.231   9.007 -0.0813  0.0690  0.5712
 7853SOL    HW135195   3.950   2.222   9.038 -0.3386  2.0254  1.8900
 7853SOL    HW235196   3.868   2.326   9.001  2.1460 -0.3873 -3.3314
 7854SOL     OW35197   1.624   1.491   5.634 -0.6051 -0.3400 -0.1769
 7854SOL    HW135198   1.647   1.447   5.552 -2.7032 -0.4525 -0.7099
 7854SOL    HW235199   1.633   1.582   5.605 -0.6767 -1.1458 -2.7576
 7855SOL     OW35200   2.178   2.722  11.251  0.0989  0.3296 -0.4365
 7855SOL    HW135201   2.142   2.685  11.170  0.6828 -0.2523 -0.4266
 7855SOL    HW235202   2.105   2.705  11.311 -0.9180  1.4387 -1.3791
 7856SOL     OW35203   4.641   3.145  17.567  0.0458  0.1517  0.1724
 7856SOL    HW135204   4.611   3.149  17.476 -1.4116 -0.8367  0.6120
 7856SOL    HW235205   4.656   3.238  17.587 -2.4209  0.9728 -1.7755
 7857SOL     OW35206   3.435   0.894   7.124 -0.0964 -0.0712 -0.2465
 7857SOL    HW135207   3.392   0.812   7.148  0.5289 -0.7521 -1.5059
 7857SOL    HW235208   3.370   0.950   7.168  2.4283  0.6467  2.5249
 7858SOL     OW35209   1.833   4.211  14.781  0.1349  0.1571  0.7761
 7858SOL    HW135210   1.774   4.282  14.757 -0.0630  0.4950  2.2560
 7858SOL    HW235211   1.775   4.159  14.837  1.2091 -0.2573  1.5105
 7859SOL     OW35212   2.633   4.632   3.356 -0.2557  0.3845 -0.0041
 7859SOL    HW135213   2.620   4.722   3.386  1.5632  0.4596  0.5604
 7859SOL    HW235214   2.613   4.642   3.263 -1.0170  3.1503  0.4535
 7860SOL     OW35215   2.329   1.431   8.849 -0.5027  0.3106 -0.4675
 7860SOL    HW135216   2.337   1.386   8.933 -1.4193 -1.1172 -1.1407
 7860SOL    HW235217   2.392   1.390   8.789 -0.7082  1.6380 -1.5971
 7861SOL     OW35218   2.929   3.210   8.210  0.5222  0.6427 -0.2729
 7861SOL    HW135219   2.984   3.248   8.141  0.1310  2.1375  0.2281
 7861SOL    HW235220   2.842   3.241   8.186  0.4902  0.8199  0.0709
 7862SOL     OW35221   1.215   4.149   6.462  0.4357 -0.0608  0.4814
 7862SOL    HW135222   1.226   4.099   6.543 -0.2991  0.0776  0.6591
 7862SOL    HW235223   1.135   4.116   6.421  0.0593 -0.0691  1.2219
 7863SOL     OW35224   3.881   2.818  16.768  0.9356  0.2350 -0.3010
 7863SOL    HW135225   3.820   2.861  16.709 -0.6576 -0.4348  0.8543
 7863SOL    HW235226   3.926   2.894  16.805 -0.4045 -0.3591  2.5228
 7864SOL     OW35227   3.886   0.777   9.119 -0.4061  0.3952  0.1451
 7864SOL    HW135228   3.850   0.794   9.032  1.5252  1.9343 -0.3450
 7864SOL    HW235229   3.805   0.788   9.168  0.1771  1.9904  0.7321
 7865SOL     OW35230   1.262   0.457  13.350  0.3403 -1.5753 -0.0223
 7865SOL    HW135231   1.204   0.406  13.407 -2.7320  2.3506  0.3887
 7865SOL    HW235232   1.336   0.427  13.403  1.1376  1.5440  0.6310
 7866SOL     OW35233   3.835   3.059   2.134  0.1220 -0.4599 -0.4624
 7866SOL    HW135234   3.862   2.993   2.071 -1.3228 -0.6461 -0.8816
 7866SOL    HW235235   3.898   3.127   2.111  1.2051 -1.5338 -0.6909
 7867SOL     OW35236   3.343   2.465   6.842  0.4162 -0.5060  0.1283
 7867SOL    HW135237   3.344   2.553   6.879 -2.6250 -0.8541  1.0353
 7867SOL    HW235238   3.266   2.472   6.785  1.4938  0.5675 -1.2053
 7868SOL     OW35239   0.536   1.471   5.814 -0.0615 -0.4332  0.2161
 7868SOL    HW135240   0.552   1.384   5.776  1.4720 -0.9888  2.1891
 7868SOL    HW235241   0.589   1.471   5.893 -0.1500 -0.6805  0.2778
 7869SOL     OW35242   2.081   2.019  15.362 -0.1950 -0.1235  0.3988
 7869SOL    HW135243   2.144   2.091  15.350  0.4939 -0.6878  0.6542
 7869SOL    HW235244   2.144   1.947  15.371  1.3735  1.2156  0.2764
 7870SOL     OW35245   1.698   3.722   6.942  0.3455  0.2100 -0.9285
 7870SOL    HW135246   1.645   3.794   6.910 -0.1043  0.1411 -0.3453
 7870SOL    HW235247   1.634   3.698   7.009  1.1848 -0.2483 -0.2947
 7871SOL     OW35248   0.900   2.421   1.561 -0.3901 -0.5965 -0.3577
 7871SOL    HW135249   0.812   2.386   1.546 -0.8446 -0.4319  1.9514
 7871SOL    HW235250   0.902   2.430   1.656  0.8043 -0.9459 -0.3490
 7872SOL     OW35251   4.413   3.481  14.733  0.1683  0.0593  0.9129
 7872SOL    HW135252   4.362   3.559  14.712  0.9810  0.2966 -0.2041
 7872SOL    HW235253   4.397   3.473  14.827 -0.2681  1.1177  0.9289
 7873SOL     OW35254   1.012   0.775   5.805 -0.3865 -0.4057 -0.4410
 7873SOL    HW135255   1.012   0.808   5.895  0.7335 -0.2940 -0.4851
 7873SOL    HW235256   0.948   0.703   5.810  0.7391 -1.2830  1.3974
 7874SOL     OW35257   1.705   1.870   3.945 -0.5358 -0.1646  0.6103
 7874SOL    HW135258   1.709   1.792   4.000 -1.4822 -0.9171 -0.3986
 7874SOL    HW235259   1.709   1.937   4.013  1.5723  0.1495  0.1943
 7875SOL     OW35260   1.169   1.288   3.612  0.2280  0.0799 -0.0789
 7875SOL    HW135261   1.191   1.380   3.622 -0.9441  0.1855  1.4055
 7875SOL    HW235262   1.076   1.292   3.635 -0.1503 -2.2450 -1.1660
 7876SOL     OW35263   2.934   2.751   6.932 -0.9401 -0.0630 -0.4088
 7876SOL    HW135264   2.844   2.720   6.943 -0.9669  0.0561 -0.2935
 7876SOL    HW235265   2.937   2.826   6.991  1.7782 -1.2048  0.9202
 7877SOL     OW35266   1.448   0.980  15.015 -0.2880  0.5466  0.2918
 7877SOL    HW135267   1.380   0.919  15.044  0.8996 -0.8489  0.1129
 7877SOL    HW235268   1.402   1.064  15.011 -0.6738  0.4869  3.2217
 7878SOL     OW35269   1.053   2.109   0.745  0.2526  0.3959 -0.1968
 7878SOL    HW135270   0.972   2.157   0.730 -0.3030  0.0736  1.7647
 7878SOL    HW235271   1.097   2.130   0.663 -0.8877  0.0516 -0.8890
 7879SOL     OW35272   2.770   1.690   1.980 -0.0913  0.0600 -0.3410
 7879SOL    HW135273   2.697   1.714   2.037  1.1362  1.8026  0.4912
 7879SOL    HW235274   2.736   1.625   1.920 -1.4723  2.0523 -1.7303
 7880SOL     OW35275   2.352   4.240   1.582 -0.1663  0.1128  0.3591
 7880SOL    HW135276   2.316   4.219   1.668 -2.0753 -3.2426 -1.2514
 7880SOL    HW235277   2.436   4.195   1.569 -0.0644  0.0133  1.3813
 7881SOL     OW35278   3.959   3.119   6.634  0.0598 -0.0380 -0.2528
 7881SOL    HW135279   3.953   3.045   6.573  0.0246  0.6279 -1.0621
 7881SOL    HW235280   3.890   3.105   6.699 -0.1970 -0.5541 -0.6431
 7882SOL     OW35281   4.469   1.424   9.775  0.5384 -0.2069 -0.3910
 7882SOL    HW135282   4.507   1.491   9.832 -0.8342 -0.5666  0.9380
 7882SOL    HW235283   4.428   1.477   9.707  1.6729  0.9368 -0.1923
 7883SOL     OW35284   0.767   0.525  14.714  0.2138  0.3856  0.2096
 7883SOL    HW135285   0.798   0.491  14.630 -1.0619 -2.4402  0.8796
 7883SOL    HW235286   0.746   0.617  14.693  0.6010  0.4753  0.2098
 7884SOL     OW35287   0.686   2.591   4.689  0.0705  0.5254  0.1354
 7884SOL    HW135288   0.592   2.592   4.669  0.2846 -3.7354 -0.9717
 7884SOL    HW235289   0.725   2.578   4.603  1.1589  0.1711  0.6856
 7885SOL     OW35290   4.399   2.446   6.503  0.6917  0.7286 -0.0797
 7885SOL    HW135291   4.400   2.530   6.457  2.0793  0.4504 -0.5728
 7885SOL    HW235292   4.315   2.474   6.539 -0.2488  0.7947 -2.3270
 7886SOL     OW35293   1.579   0.294  13.941  0.2824 -0.2304 -0.1269
 7886SOL    HW135294   1.593   0.237  13.866 -4.4244 -0.8769 -0.4963
 7886SOL    HW235295   1.558   0.374  13.894 -1.5208  0.1592  1.3232
 7887SOL     OW35296   3.950   0.815   4.136  0.0664  0.2084 -0.5107
 7887SOL    HW135297   3.928   0.901   4.098 -0.6630 -0.2155 -1.0554
 7887SOL    HW235298   3.881   0.768   4.089 -0.1482  0.1519 -0.1390
 7888SOL     OW35299   3.094   1.290   7.920  0.1728  0.0231  0.1138
 7888SOL    HW135300   3.012   1.282   7.969 -0.0567  0.7447 -0.1596
 7888SOL    HW235301   3.069   1.221   7.859  0.7547  0.4086 -0.5598
 7889SOL     OW35302   0.982   3.605   4.848  0.4180  0.0275 -0.1517
 7889SOL    HW135303   0.891   3.618   4.822 -0.5235 -0.9700  2.5437
 7889SOL    HW235304   0.982   3.555   4.931 -0.7805  0.2638 -0.0116
 7890SOL     OW35305   1.834   1.945   8.240  0.3777  0.1115 -0.0807
 7890SOL    HW135306   1.810   1.855   8.219 -1.9773  0.5722  0.6849
 7890SOL    HW235307   1.770   1.964   8.308  0.4799 -0.3970  0.1530
 7891SOL     OW35308   0.927   4.566   8.182  0.2155  0.5467  0.3071
 7891SOL    HW135309   0.964   4.640   8.134 -1.2750  0.4750 -0.9416
 7891SOL    HW235310   0.833   4.566   8.167  0.3876  0.2922 -0.7944
 7892SOL     OW35311   2.852   1.804  13.686  0.2595  0.1677 -0.5231
 7892SOL    HW135312   2.925   1.823  13.745  0.5920  1.0370 -1.2074
 7892SOL    HW235313   2.864   1.710  13.698  0.0753  0.1357 -0.5849
 7893SOL     OW35314   0.344   0.248  12.155 -0.0383 -0.6165 -0.2028
 7893SOL    HW135315   0.372   0.165  12.116  0.7439  0.1708 -1.3486
 7893SOL    HW235316   0.323   0.226  12.245  1.1061 -1.0749 -0.0508
 7894SOL     OW35317   4.201   4.352   0.142 -0.5409 -0.1334  0.1057
 7894SOL    HW135318   4.143   4.397   0.203  1.1065  1.1160  0.7284
 7894SOL    HW235319   4.281   4.401   0.157 -0.2890  0.1269 -2.1271
 7895SOL     OW35320   2.115   1.151   9.460 -0.1157 -0.1574  0.2849
 7895SOL    HW135321   2.093   1.107   9.378 -1.9160  0.3667  0.5059
 7895SOL    HW235322   2.090   1.084   9.525  1.0181  0.5272  1.4401
 7896SOL     OW35323   0.981   2.812   3.537 -0.8228 -0.2317 -0.5283
 7896SOL    HW135324   0.961   2.722   3.511  1.0801 -0.1828 -2.1848
 7896SOL    HW235325   0.999   2.798   3.630 -0.9998  1.1471 -0.2891
 7897SOL     OW35326   0.592   3.980   7.095  0.0536  0.0965  0.0861
 7897SOL    HW135327   0.590   4.062   7.045  0.7512 -0.0365 -0.1608
 7897SOL    HW235328   0.561   4.003   7.183 -1.2529 -0.7982 -0.1398
 7898SOL     OW35329   3.563   4.571   8.199 -0.4272  0.2506 -0.2583
 7898SOL    HW135330   3.513   4.514   8.258 -0.3830  0.1839 -0.2851
 7898SOL    HW235331   3.626   4.612   8.258  0.9546 -0.8689 -0.9395
 7899SOL     OW35332   3.864   4.445   2.165 -0.5217 -0.3113  0.1819
 7899SOL    HW135333   3.896   4.401   2.086 -2.8303 -0.7425 -0.5144
 7899SOL    HW235334   3.889   4.392   2.241 -2.0974 -2.0345 -0.4811
 7900SOL     OW35335   4.657   2.216  10.321 -0.6940 -0.4958  0.0123
 7900SOL    HW135336   4.615   2.146  10.271 -1.9833 -0.7964  1.5283
 7900SOL    HW235337   0.010   2.187  10.311 -0.1219  1.0872  0.6588
 7901SOL     OW35338   3.291   3.503   4.086 -0.6611 -0.2215 -0.8465
 7901SOL    HW135339   3.299   3.454   4.168  1.2996  0.1506 -0.8215
 7901SOL    HW235340   3.204   3.542   4.100 -0.2261  0.8313 -1.0788
 7902SOL     OW35341   2.806   0.779   5.936  0.3076 -0.3764  0.2180
 7902SOL    HW135342   2.884   0.727   5.958 -0.0075 -1.0353 -0.2159
 7902SOL    HW235343   2.843   0.837   5.870 -0.8094  0.0179 -0.0530
 7903SOL     OW35344   1.474   0.608   4.900  0.0614  0.0894  0.2491
 7903SOL    HW135345   1.432   0.530   4.862 -2.7047  1.0608  1.3369
 7903SOL    HW235346   1.433   0.673   4.843 -1.1807  0.2171  1.3082
 7904SOL     OW35347   3.064   3.516  10.291 -0.3426  0.3427  0.2737
 7904SOL    HW135348   2.976   3.523  10.255  0.1274  0.0700 -0.8990
 7904SOL    HW235349   3.050   3.521  10.386  0.6593 -2.5731  0.5878
 7905SOL     OW35350   0.205   2.387   1.618  0.2636  0.1460  0.1721
 7905SOL    HW135351   0.285   2.419   1.661  0.2754 -1.2122  1.1632
 7905SOL    HW235352   0.198   2.301   1.659 -0.3202 -0.9844 -2.3111
 7906SOL     OW35353   2.501   0.386  11.506  0.0658 -0.3954  0.3576
 7906SOL    HW135354   2.591   0.397  11.475 -0.2416  0.7905 -0.1555
 7906SOL    HW235355   2.499   0.443  11.583  0.7646 -0.1997  0.2259
 7907SOL     OW35356   2.387   3.975   1.721  0.0043  0.7831 -0.1755
 7907SOL    HW135357   2.434   3.917   1.661 -1.6775  0.0453 -0.7876
 7907SOL    HW235358   2.295   3.949   1.716 -0.3299  1.6007  1.8800
 7908SOL     OW35359   4.314   4.597  17.135 -0.1599  0.2494  0.4009
 7908SOL    HW135360   4.266   4.566  17.059  1.8932 -1.3333 -0.2403
 7908SOL    HW235361   4.313   4.523  17.195 -4.2415  0.2120  0.3003
 7909SOL     OW35362   1.889   3.526  17.063  0.0668 -0.1883 -0.0884
 7909SOL    HW135363   1.851   3.460  17.121  0.2123 -0.4539 -0.2963
 7909SOL    HW235364   1.870   3.598  17.124  0.3497 -0.7789  0.7038
 7910SOL     OW35365   0.931   3.145  12.400  0.4252 -0.3990 -0.9643
 7910SOL    HW135366   0.862   3.143  12.466  0.5002 -2.5405 -0.9707
 7910SOL    HW235367   0.905   3.081  12.334 -0.0304 -0.7096 -0.4857
 7911SOL     OW35368   3.919   0.721   8.205  0.3720  0.3191 -0.1602
 7911SOL    HW135369   3.996   0.758   8.248  0.0980 -0.4978  1.0511
 7911SOL    HW235370   3.938   0.627   8.204 -1.6415 -0.0787 -0.2927
 7912SOL     OW35371   1.805   2.757  10.935 -0.2954  0.0753  0.2862
 7912SOL    HW135372   1.893   2.728  10.960  1.0445  2.7559 -1.2200
 7912SOL    HW235373   1.765   2.684  10.890 -0.0662  0.7202 -0.9561
 7913SOL     OW35374   3.095   0.975   8.818  0.1193  0.3883  0.5702
 7913SOL    HW135375   3.030   1.020   8.763 -0.8301  0.9069  2.1187
 7913SOL    HW235376   3.167   0.975   8.755 -0.8012  0.9780 -0.5084
 7914SOL     OW35377   1.240   0.479   9.198  0.1406  0.7926  0.0339
 7914SOL    HW135378   1.174   0.414   9.223 -0.0280  0.7284 -0.5920
 7914SOL    HW235379   1.234   0.522   9.284 -2.2386  0.1867  0.1564
 7915SOL     OW35380   1.482   0.923   5.008  0.4395  0.4968  0.4168
 7915SOL    HW135381   1.557   0.940   4.951  0.9010  1.0246  1.1770
 7915SOL    HW235382   1.520   0.937   5.095  1.8335  0.0994 -0.1416
 7916SOL     OW35383   2.982   1.104   7.353  0.5016 -0.0269  0.3128
 7916SOL    HW135384   3.020   1.108   7.266  0.0815  0.1441  0.1390
 7916SOL    HW235385   2.941   1.019   7.370 -2.3304  1.0963 -0.9567
 7917SOL     OW35386   4.297   1.111  14.991 -0.1677  0.1056  0.0459
 7917SOL    HW135387   4.325   1.166  15.064 -2.2660  2.2530 -0.8008
 7917SOL    HW235388   4.266   1.174  14.926 -0.4915 -0.5894 -0.4852
 7918SOL     OW35389   0.631   4.550   2.825  1.0218  0.3839 -0.5717
 7918SOL    HW135390   0.695   4.620   2.814  0.7357  0.4019 -2.0374
 7918SOL    HW235391   0.692   4.478   2.843  1.8371  1.2999  0.3829
 7919SOL     OW35392   1.472   0.446   9.428  0.0376 -0.8515 -0.2177
 7919SOL    HW135393   1.561   0.419   9.405 -0.8484 -3.0353 -1.1418
 7919SOL    HW235394   1.443   0.504   9.357 -0.0841  0.8994  1.2659
 7920SOL     OW35395   0.521   0.985   3.579  0.2577 -0.2919 -0.1242
 7920SOL    HW135396   0.488   0.931   3.651 -1.1800 -0.3020 -0.7995
 7920SOL    HW235397   0.575   0.922   3.531  1.9115  1.4804 -0.6140
 7921SOL     OW35398   4.697   2.245   2.688 -0.0177 -0.5869 -0.1492
 7921SOL    HW135399   0.039   2.288   2.719  0.3618 -1.7424  0.4467
 7921SOL    HW235400   4.707   2.264   2.595  1.7081 -0.2530  0.1063
 7922SOL     OW35401   4.499   0.587  12.274  0.5104 -0.5475 -0.4765
 7922SOL    HW135402   4.454   0.509  12.241 -3.5427  1.4819  0.1983
 7922SOL    HW235403   4.543   0.558  12.354  0.2276  0.2441 -0.0333
 7923SOL     OW35404   0.010   2.334  13.782  0.0822 -0.0385  0.6426
 7923SOL    HW135405   4.655   2.310  13.786  0.5759 -2.2074 -0.9122
 7923SOL    HW235406   0.034   2.343  13.874 -0.1939  0.0304  0.7073
 7924SOL     OW35407   3.482   0.599  10.948 -0.8368  0.3759 -0.1109
 7924SOL    HW135408   3.444   0.526  10.998  1.2254 -0.3214  0.4164
 7924SOL    HW235409   3.412   0.661  10.967  0.0786  1.4222 -0.1682
 7925SOL     OW35410   3.163   3.947   6.442 -0.1155  0.5345  0.3553
 7925SOL    HW135411   3.175   4.021   6.383  0.3853  0.3506  0.2336
 7925SOL    HW235412   3.239   3.891   6.427  0.4472  1.6933 -1.0627
 7926SOL     OW35413   4.428   4.584   6.020 -0.0703 -0.2643  0.8685
 7926SOL    HW135414   4.342   4.568   5.982  0.4433  0.2426 -0.4716
 7926SOL    HW235415   4.475   4.501   6.012 -0.5974 -0.7357  2.6084
 7927SOL     OW35416   0.972   2.954   6.372  0.5444  0.4428 -0.2933
 7927SOL    HW135417   0.888   2.975   6.413  0.6616  1.7270 -0.7007
 7927SOL    HW235418   0.987   2.864   6.402 -0.3227  0.0114 -1.1603
 7928SOL     OW35419   2.088   0.516  13.625 -0.4282  0.0631  0.5693
 7928SOL    HW135420   2.125   0.440  13.669 -2.1285 -0.2853  1.4111
 7928SOL    HW235421   2.096   0.585  13.692 -2.5782 -0.4985  1.4187
 7929SOL     OW35422   3.625   0.411   2.731 -0.3719 -0.4164 -0.2117
 7929SOL    HW135423   3.555   0.356   2.695 -0.1031 -1.7737  1.4016
 7929SOL    HW235424   3.589   0.432   2.817  2.2629  0.8091  0.5813
 7930SOL     OW35425   1.122   2.326  17.542  0.0547  0.2236  0.3063
 7930SOL    HW135426   1.075   2.250  17.576  0.7401 -0.5318 -0.4423
 7930SOL    HW235427   1.094   2.384  17.612 -0.3714  1.5773 -0.9977
 7931SOL     OW35428   2.387   0.043  12.266 -0.2447 -0.2946 -0.3909
 7931SOL    HW135429   2.472   0.013  12.234 -0.1290 -0.9161  0.5039
 7931SOL    HW235430   2.369   0.125  12.219  0.2860  0.9086  1.4980
 7932SOL     OW35431   0.019   2.628   4.555 -0.0726  0.3057 -0.7409
 7932SOL    HW135432   0.100   2.633   4.505  0.3229  0.7419 -0.0504
 7932SOL    HW235433   4.701   2.560   4.516 -2.2258  0.3011  2.3384
 7933SOL     OW35434   1.407   3.237   1.677 -0.4947 -0.3716 -0.4478
 7933SOL    HW135435   1.440   3.171   1.739  1.1869  0.4515 -0.4590
 7933SOL    HW235436   1.487   3.243   1.624 -0.2512 -1.0784 -0.1652
 7934SOL     OW35437   1.722   2.625   9.369  0.2212 -0.4982  0.0578
 7934SOL    HW135438   1.667   2.573   9.428  1.1321  0.7290  1.9885
 7934SOL    HW235439   1.658   2.661   9.308 -0.1589  0.1470  0.8408
 7935SOL     OW35440   4.205   2.740   7.608 -0.1903  0.1580  0.1690
 7935SOL    HW135441   4.194   2.835   7.610  1.6348  0.3961 -1.0940
 7935SOL    HW235442   4.293   2.723   7.642 -0.4128 -3.2689 -0.9128
 7936SOL     OW35443   0.156   1.865   4.654 -0.1746  0.2340  0.0735
 7936SOL    HW135444   0.094   1.792   4.653  0.1868 -0.0670 -0.7957
 7936SOL    HW235445   0.183   1.870   4.562  1.5110 -1.4889  0.4733
 7937SOL     OW35446   0.492   4.618   6.482  0.2291 -0.1295  0.2301
 7937SOL    HW135447   0.545   4.628   6.561  2.8099 -2.4180 -1.1853
 7937SOL    HW235448   0.522   4.535   6.446  1.6012  0.5223 -0.1208
 7938SOL     OW35449   2.865   4.096   4.847  0.8636 -0.8247 -0.1234
 7938SOL    HW135450   2.846   4.015   4.894  0.9036 -1.4862 -1.2477
 7938SOL    HW235451   2.956   4.114   4.871  0.3831 -0.8978  1.7139
 7939SOL     OW35452   1.275   2.176   6.369  0.1310 -0.8608 -0.0009
 7939SOL    HW135453   1.347   2.221   6.414 -2.3870 -0.8124  3.9335
 7939SOL    HW235454   1.244   2.123   6.442  1.8025  1.6929  2.5623
 7940SOL     OW35455   1.443   1.901   4.210 -0.2215 -0.0158 -0.3132
 7940SOL    HW135456   1.536   1.922   4.216 -0.3424  0.3459  0.3397
 7940SOL    HW235457   1.417   1.931   4.123 -1.6941 -0.9075 -0.1871
 7941SOL     OW35458   2.450   3.676   4.293  0.0707  0.3882  0.2218
 7941SOL    HW135459   2.400   3.755   4.314  0.2305  0.4249  0.4757
 7941SOL    HW235460   2.494   3.713   4.217  1.9983 -1.6831  0.3361
 7942SOL     OW35461   3.834   0.110   5.754  0.4519 -0.3114 -0.4787
 7942SOL    HW135462   3.921   0.149   5.750  1.3821 -2.4442 -1.2053
 7942SOL    HW235463   3.832   0.089   5.847  0.8252 -0.1287 -0.4305
 7943SOL     OW35464   4.285   3.566   8.368  0.4836 -0.3515 -0.4485
 7943SOL    HW135465   4.206   3.517   8.389  1.4727 -0.9296  1.9819
 7943SOL    HW235466   4.260   3.580   8.276 -0.2163 -2.5537 -0.5867
 7944SOL     OW35467   3.447   2.040   9.298 -0.0262 -0.5696  0.3796
 7944SOL    HW135468   3.535   2.068   9.271 -1.4283  2.3086 -1.3189
 7944SOL    HW235469   3.425   2.112   9.357 -0.7558 -0.8309  0.4341
 7945SOL     OW35470   0.392   3.778   0.562 -0.6414 -0.0111  0.1978
 7945SOL    HW135471   0.333   3.775   0.637 -0.8959 -0.5596 -0.0272
 7945SOL    HW235472   0.424   3.688   0.562 -0.4871  0.0273 -2.0182
 7946SOL     OW35473   2.921   1.702   4.079  0.1782  0.2790  0.4100
 7946SOL    HW135474   2.828   1.704   4.060  0.0228 -1.7478  1.0282
 7946SOL    HW235475   2.920   1.765   4.151 -2.1128  2.7826 -1.8003
 7947SOL     OW35476   2.441   4.085   9.835 -0.6026  0.3605 -0.3174
 7947SOL    HW135477   2.494   4.160   9.861  0.7785 -0.7051 -0.0167
 7947SOL    HW235478   2.420   4.058   9.924 -3.6034  1.1973 -0.7911
 7948SOL     OW35479   2.817   3.958   3.252 -0.0202 -0.2560  0.5814
 7948SOL    HW135480   2.790   3.931   3.165 -2.3965  1.1942  0.8654
 7948SOL    HW235481   2.911   3.959   3.235  0.3658 -0.4428  2.6899
 7949SOL     OW35482   3.410   3.262   2.288 -0.0948 -0.6238 -0.0816
 7949SOL    HW135483   3.443   3.172   2.292 -1.3189 -1.0416  0.5704
 7949SOL    HW235484   3.374   3.261   2.377 -1.6196 -0.6140 -0.6838
 7950SOL     OW35485   0.104   1.511   5.295 -0.2776 -0.2752 -0.0178
 7950SOL    HW135486   0.043   1.449   5.333  0.8791 -2.3024 -1.4561
 7950SOL    HW235487   0.100   1.498   5.200 -1.5966  0.1077 -0.0146
 7951SOL     OW35488   4.026   0.227  17.075 -0.7058  0.4302 -0.0707
 7951SOL    HW135489   3.944   0.276  17.071 -0.1689  1.4431  1.3744
 7951SOL    HW235490   4.011   0.168  17.149 -0.9750  1.5289  0.7504
 7952SOL     OW35491   2.457   0.811   3.663 -0.4029  0.1384 -0.0649
 7952SOL    HW135492   2.529   0.793   3.724 -1.1638  0.5971  0.9635
 7952SOL    HW235493   2.480   0.741   3.602  0.2140  0.1749  0.1193
 7953SOL     OW35494   1.084   3.524   4.012  0.2919 -0.1329 -0.2413
 7953SOL    HW135495   1.120   3.435   4.017  0.5028 -0.1301 -1.7448
 7953SOL    HW235496   1.083   3.547   3.919 -0.2491  1.2057  0.1044
 7954SOL     OW35497   3.256   3.313   5.523  0.6043  0.3423 -0.4526
 7954SOL    HW135498   3.170   3.280   5.547  0.1025  1.7583 -0.2797
 7954SOL    HW235499   3.304   3.230   5.522  1.9495  1.1410 -2.3396
 7955SOL     OW35500   3.311   0.189   8.570  0.3596  0.0194 -0.8150
 7955SOL    HW135501   3.290   0.207   8.478  2.9273 -1.4321 -1.6728
 7955SOL    HW235502   3.232   0.157   8.614  2.2985 -0.4388  2.3237
 7956SOL     OW35503   4.475   4.348  12.337 -0.0103 -0.4997 -0.0673
 7956SOL    HW135504   4.436   4.397  12.264  0.3481  2.5669  1.8110
 7956SOL    HW235505   4.483   4.259  12.303  0.1815 -0.6468  0.3746
 7957SOL     OW35506   2.949   0.563  11.310 -0.4060  0.3833 -0.7700
 7957SOL    HW135507   2.924   0.531  11.223  0.9643  0.6021 -1.2406
 7957SOL    HW235508   2.991   0.491  11.358 -3.6202  0.6575  2.3909
 7958SOL     OW35509   3.105   1.117   2.586 -0.2146 -0.3065 -0.2112
 7958SOL    HW135510   3.041   1.122   2.658  2.4753  1.3292  2.0587
 7958SOL    HW235511   3.046   1.098   2.513 -0.5349 -1.6502  0.3764
 7959SOL     OW35512   2.055   3.624  17.348  0.1278  0.4666  0.1855
 7959SOL    HW135513   2.088   3.698  17.400  2.5425  0.3223 -1.1831
 7959SOL    HW235514   2.082   3.646  17.259  1.7490 -1.0358  0.3243
 7960SOL     OW35515   4.393   0.450   6.159  0.4809 -0.2510  0.3255
 7960SOL    HW135516   4.436   0.509   6.097 -0.5520 -0.6067 -0.7321
 7960SOL    HW235517   4.457   0.380   6.172  0.7595 -0.1030 -0.2568
 7961SOL     OW35518   3.986   2.162   3.999 -0.1989 -0.2680  0.1880
 7961SOL    HW135519   3.919   2.153   3.931 -1.1475 -2.0138  1.3251
 7961SOL    HW235520   3.967   2.087   4.057  1.5116 -0.8771 -0.0413
 7962SOL     OW35521   3.979   0.646   3.836 -0.5441 -0.2015  0.3752
 7962SOL    HW135522   3.995   0.582   3.766  2.6425  0.3932  0.5398
 7962SOL    HW235523   3.942   0.588   3.903  1.8150 -1.4796  0.6065
 7963SOL     OW35524   3.847   4.650  16.273  0.0047  0.3419  0.1515
 7963SOL    HW135525   3.924   4.672  16.221  0.0657  0.8460  0.4514
 7963SOL    HW235526   3.877   4.571  16.318  2.6766  1.9954  1.2496
 7964SOL     OW35527   1.154   1.117   2.551  0.6989  0.1229 -0.2932
 7964SOL    HW135528   1.189   1.028   2.545  0.4554 -0.1167  1.7721
 7964SOL    HW235529   1.083   1.103   2.488  2.2578 -1.7152 -1.6481
 7965SOL     OW35530   0.675   3.580   8.433 -0.0482 -0.8024  0.6600
 7965SOL    HW135531   0.659   3.666   8.395  1.0099 -1.3337 -0.9840
 7965SOL    HW235532   0.695   3.527   8.356  1.4298 -0.9485  1.1577
 7966SOL     OW35533   0.459   2.328   3.862 -0.1161 -0.6649  0.1625
 7966SOL    HW135534   0.455   2.398   3.927  1.2980 -0.7512  0.3381
 7966SOL    HW235535   0.485   2.257   3.921 -0.5642  0.6608  1.9437
 7967SOL     OW35536   1.401   2.443  12.241 -0.0298  0.0839  0.2188
 7967SOL    HW135537   1.430   2.419  12.153  0.2000 -2.3721  0.9641
 7967SOL    HW235538   1.311   2.457  12.211 -0.4635 -3.0147  0.0642
 7968SOL     OW35539   0.579   2.267   2.348  0.4487  0.5889 -0.2905
 7968SOL    HW135540   0.633   2.346   2.343  0.5396  0.6381  1.3174
 7968SOL    HW235541   0.632   2.207   2.401  1.4721  0.0480 -1.9339
 7969SOL     OW35542   1.566   0.324   2.950  0.5366 -0.3945  0.2004
 7969SOL    HW135543   1.576   0.317   2.855 -1.6218  1.5845 -0.1853
 7969SOL    HW235544   1.523   0.409   2.965  1.4138  0.2828 -1.1631
 7970SOL     OW35545   1.838   4.401   8.219  0.2585  0.1408  0.7050
 7970SOL    HW135546   1.807   4.311   8.208  0.6717  0.3272 -2.0617
 7970SOL    HW235547   1.932   4.385   8.226 -0.2444 -1.9195  3.0228
 7971SOL     OW35548   2.523   0.812   8.127  0.1430 -0.1473 -0.0660
 7971SOL    HW135549   2.591   0.750   8.154  1.6637  0.6764 -2.0143
 7971SOL    HW235550   2.465   0.750   8.081  0.8064  0.0784 -1.2056
 7972SOL     OW35551   3.397   3.200   3.451  0.1190  0.8659  0.1261
 7972SOL    HW135552   3.397   3.282   3.501 -1.7702 -0.2928  2.0177
 7972SOL    HW235553   3.377   3.141   3.524  0.0275  2.0654  1.0721
 7973SOL     OW35554   0.899   3.600   8.647  0.0542 -0.0013  0.1464
 7973SOL    HW135555   0.854   3.602   8.562 -0.1581 -2.5388  0.2110
 7973SOL    HW235556   0.872   3.515   8.682  0.5131 -0.5269 -0.7633
 7974SOL     OW35557   1.366   0.444   6.187  0.4274  0.1423  0.4274
 7974SOL    HW135558   1.285   0.424   6.233  0.9731 -1.5142  0.6744
 7974SOL    HW235559   1.374   0.533   6.221  2.4114 -0.2621  1.0624
 7975SOL     OW35560   2.144   2.399   3.283  0.3082 -0.0266 -0.0412
 7975SOL    HW135561   2.095   2.475   3.316 -0.9369 -1.0831  0.5805
 7975SOL    HW235562   2.227   2.445   3.273  0.4858 -0.5911 -1.1523
 7976SOL     OW35563   0.062   4.736  13.062 -0.0227  0.2334  0.3865
 7976SOL    HW135564   0.044   4.648  13.029  0.0471  1.1404 -2.0705
 7976SOL    HW235565   4.713   0.035  13.080 -0.4370  0.9484 -3.0031
 7977SOL     OW35566   1.246   0.188   6.415 -0.2899  0.2819  0.0500
 7977SOL    HW135567   1.212   0.271   6.381 -2.0239 -0.4337  0.0015
 7977SOL    HW235568   1.169   0.165   6.468 -2.3937  1.3466 -2.5253
 7978SOL     OW35569   2.076   1.356   9.236 -0.2642  0.3543 -0.0218
 7978SOL    HW135570   2.092   1.290   9.304 -0.5385 -0.0648 -0.3680
 7978SOL    HW235571   2.037   1.418   9.299 -2.0157  0.3111 -1.0886
 7979SOL     OW35572   4.555   0.413   0.898 -0.2938  0.6245  0.0472
 7979SOL    HW135573   4.544   0.458   0.815  0.3325  0.9474  0.1337
 7979SOL    HW235574   4.619   0.347   0.869  0.7553  0.8474  1.8118
 7980SOL     OW35575   0.695   2.773   7.179  0.4347 -0.1350  0.1183
 7980SOL    HW135576   0.721   2.827   7.105  1.2025 -1.7854 -0.8200
 7980SOL    HW235577   0.705   2.690   7.132  1.0959 -0.3310  0.6045
 7981SOL     OW35578   0.238   2.463   9.552 -0.5041 -0.5898  0.9314
 7981SOL    HW135579   0.205   2.530   9.492  2.9131 -0.2991 -0.6394
 7981SOL    HW235580   0.170   2.469   9.619 -0.9530  1.0475  0.3319
 7982SOL     OW35581   3.195   1.449   4.679  0.9758  0.4983 -0.0459
 7982SOL    HW135582   3.266   1.416   4.625 -0.9813 -2.2805 -0.9191
 7982SOL    HW235583   3.243   1.485   4.754  1.0009 -1.9749  1.1062
 7983SOL     OW35584   4.181   1.131   3.001  0.4772  0.1070 -0.9424
 7983SOL    HW135585   4.159   1.161   3.089  1.6257  2.2646 -1.3889
 7983SOL    HW235586   4.116   1.183   2.954 -0.2776 -0.4619 -0.5145
 7984SOL     OW35587   2.720   1.108  16.909 -0.6090  0.4452 -0.2364
 7984SOL    HW135588   2.655   1.139  16.973  0.7945  1.1406  0.8504
 7984SOL    HW235589   2.760   1.189  16.879 -4.0028  2.3194  0.3254
 7985SOL     OW35590   3.958   0.347  12.493  0.8521 -0.0423 -0.6390
 7985SOL    HW135591   3.986   0.419  12.549  3.3278  0.5737 -2.6905
 7985SOL    HW235592   3.917   0.277  12.545 -0.0069  1.0473  0.1678
 7986SOL     OW35593   4.050   1.480   2.390 -0.0650 -0.0657  0.5199
 7986SOL    HW135594   4.115   1.422   2.430 -0.9958 -0.0012  2.1068
 7986SOL    HW235595   3.970   1.431   2.408 -0.6971  0.7523 -0.0967
 7987SOL     OW35596   4.268   3.211   2.688  0.2066 -0.2022 -0.0102
 7987SOL    HW135597   4.207   3.247   2.752 -0.6498  0.3487 -1.1169
 7987SOL    HW235598   4.201   3.162   2.640 -1.0167  4.0045 -2.6502
 7988SOL     OW35599   2.804   2.395  10.511  0.0374  0.8282 -0.0168
 7988SOL    HW135600   2.875   2.331  10.514 -0.1491  0.4845 -3.1089
 7988SOL    HW235601   2.827   2.465  10.450  0.8888 -0.2511 -0.9371
 7989SOL     OW35602   3.685   3.474   2.751 -0.1580 -0.5386 -0.4970
 7989SOL    HW135603   3.694   3.469   2.656 -1.4340 -0.7245 -0.6078
 7989SOL    HW235604   3.612   3.415   2.771  3.2857 -3.0557  4.2901
 7990SOL     OW35605   4.391   2.325   3.979  0.0059 -0.6504 -0.1895
 7990SOL    HW135606   4.296   2.324   3.967  0.2689  2.0762 -2.6066
 7990SOL    HW235607   4.410   2.385   3.907  1.4881 -1.9414 -0.8800
 7991SOL     OW35608   4.124   1.788   4.812  0.6770 -0.7603  0.1507
 7991SOL    HW135609   4.188   1.819   4.747  1.4807 -0.2209  1.1909
 7991SOL    HW235610   4.183   1.773   4.886  1.1371  1.0480  0.1591
 7992SOL     OW35611   3.853   1.973   0.388 -0.5534  0.4090 -0.5151
 7992SOL    HW135612   3.818   1.903   0.333  0.2177 -0.4105  0.0370
 7992SOL    HW235613   3.924   1.919   0.422 -0.8551  0.9865  1.0494
 7993SOL     OW35614   4.602   1.912  10.523 -0.2473  1.1304 -0.1030
 7993SOL    HW135615   4.669   1.958  10.572  0.1507  1.0589 -0.5780
 7993SOL    HW235616   4.542   1.889  10.594  0.9336  1.2224  0.9172
 7994SOL     OW35617   2.988   3.572   3.905  0.0003  0.4738 -0.0507
 7994SOL    HW135618   2.895   3.564   3.925 -0.1165  2.4715  0.2079
 7994SOL    HW235619   3.009   3.488   3.946  0.5192  0.2198 -0.8402
 7995SOL     OW35620   0.409   2.776   4.167 -0.7350 -0.3826  0.3968
 7995SOL    HW135621   0.461   2.856   4.172  1.1383 -1.4662 -1.6332
 7995SOL    HW235622   0.356   2.788   4.088  1.3030 -0.3224 -0.9641
 7996SOL     OW35623   0.272   3.488  17.241  0.0005  0.5697  0.2135
 7996SOL    HW135624   0.266   3.542  17.319  2.7095  0.1491  0.7205
 7996SOL    HW235625   0.320   3.555  17.190  2.0574  0.2480  1.7207
 7997SOL     OW35626   1.636   2.847   3.001 -0.0985  0.5285 -0.3521
 7997SOL    HW135627   1.687   2.882   3.075  1.1577 -1.4188 -0.2915
 7997SOL    HW235628   1.703   2.795   2.957 -1.9089 -2.2854  0.2269
 7998SOL     OW35629   0.510   3.975   0.725 -0.2176  0.0975  0.5366
 7998SOL    HW135630   0.454   3.938   0.657  0.8746 -0.2299 -0.1968
 7998SOL    HW235631   0.481   3.925   0.802 -1.9253  0.6835  0.2624
 7999SOL     OW35632   3.666   0.060  10.855 -0.1383 -0.0029 -0.1990
 7999SOL    HW135633   3.649   0.102  10.770 -0.3156 -2.0938 -1.2054
 7999SOL    HW235634   3.600   0.104  10.908 -1.0887 -0.5426 -0.9359
 8000SOL     OW35635   1.532   2.200  13.424  0.2791  0.2174 -0.5902
 8000SOL    HW135636   1.577   2.127  13.384 -0.1841  1.6420 -3.6885
 8000SOL    HW235637   1.552   2.210  13.518  1.0579 -1.7750 -0.5580
 8001SOL     OW35638   1.673   2.910   8.108  0.4608 -0.2393 -0.0060
 8001SOL    HW135639   1.690   2.921   8.014  2.2116 -1.3365  0.1711
 8001SOL    HW235640   1.736   2.841   8.130 -1.0009 -1.2919  0.8411
 8002SOL     OW35641   2.941   0.259   5.748  0.4690  0.1659 -0.1620
 8002SOL    HW135642   2.877   0.230   5.682  2.0429 -0.8233 -1.2367
 8002SOL    HW235643   2.957   0.347   5.716  1.7766 -0.0839 -0.2031
 8003SOL     OW35644   0.596   0.784   9.294  0.2877  0.4247  0.1987
 8003SOL    HW135645   0.649   0.710   9.265  0.0050  0.0074  0.7685
 8003SOL    HW235646   0.626   0.856   9.238  1.2624  0.9859  1.4398
 8004SOL     OW35647   1.465   2.164   0.490 -0.0534  0.3118  0.4456
 8004SOL    HW135648   1.523   2.163   0.414 -0.0894 -1.2904  0.4242
 8004SOL    HW235649   1.533   2.178   0.555 -0.7558  2.8219  0.6378
 8005SOL     OW35650   0.558   0.455  10.601 -0.3147 -0.2709 -0.0967
 8005SOL    HW135651   0.534   0.478  10.511  2.2377  0.7963 -0.4882
 8005SOL    HW235652   0.492   0.389  10.622 -0.3182  0.1405  1.1980
 8006SOL     OW35653   1.970   3.695   9.907 -0.2018  0.1026 -0.0391
 8006SOL    HW135654   2.027   3.622   9.932 -0.7536  0.0847  1.1560
 8006SOL    HW235655   1.884   3.656   9.919  0.2382 -0.7913  0.2078
 8007SOL     OW35656   3.810   2.053  14.763 -0.3481 -0.3429 -0.2515
 8007SOL    HW135657   3.776   2.043  14.852 -2.4185  2.8714 -0.7142
 8007SOL    HW235658   3.862   1.972  14.759 -3.3634 -2.2262 -1.2930
 8008SOL     OW35659   3.235   1.322   7.539 -0.6241 -0.3343 -0.6039
 8008SOL    HW135660   3.245   1.227   7.535 -1.1553 -0.3972 -0.4240
 8008SOL    HW235661   3.183   1.340   7.461 -1.3081 -1.0956 -0.3145
 8009SOL     OW35662   1.341   1.811   9.840 -0.2502 -0.6079  0.3824
 8009SOL    HW135663   1.414   1.779   9.893 -0.1813 -0.9103  0.1056
 8009SOL    HW235664   1.373   1.798   9.751 -0.5316 -0.2399  0.2281
 8010SOL     OW35665   2.426   1.805   6.540 -0.3105 -0.4461  0.3037
 8010SOL    HW135666   2.335   1.792   6.566  0.1318 -1.9761  1.1005
 8010SOL    HW235667   2.410   1.819   6.447  3.1190 -0.9979 -0.3726
 8011SOL     OW35668   0.644   4.204   8.691 -0.0343 -0.0596  0.2154
 8011SOL    HW135669   0.608   4.119   8.667 -0.8533  0.3056  0.1490
 8011SOL    HW235670   0.737   4.197   8.667  0.0892  1.1180  0.3392
 8012SOL     OW35671   4.622   3.539   0.908  0.0027 -0.0589  0.1200
 8012SOL    HW135672   4.596   3.565   0.820  0.5552  0.1242  0.0076
 8012SOL    HW235673   4.541   3.552   0.957  1.8382  0.4131  3.0372
 8013SOL     OW35674   2.308   1.116   1.268 -0.1688  0.2062  0.1418
 8013SOL    HW135675   2.292   1.058   1.194  0.4803 -0.7840  0.7746
 8013SOL    HW235676   2.339   1.200   1.233  0.3763 -1.3020 -2.9632
 8014SOL     OW35677   3.798   0.114   1.835 -0.2596  0.6512 -0.4393
 8014SOL    HW135678   3.890   0.088   1.847 -0.6457 -0.7839 -0.6173
 8014SOL    HW235679   3.791   0.102   1.740 -0.2769  1.9775 -0.6044
 8015SOL     OW35680   1.933   3.534   7.326  0.5425 -0.2394  0.1563
 8015SOL    HW135681   1.877   3.548   7.250  0.8076 -0.8991 -0.1642
 8015SOL    HW235682   1.986   3.614   7.332  0.4440 -0.1216 -0.5388
 8016SOL     OW35683   2.189   3.921  11.541 -0.4019 -0.2249  0.3220
 8016SOL    HW135684   2.155   4.002  11.503  0.4624  1.2071  2.5856
 8016SOL    HW235685   2.135   3.906  11.618 -0.4511 -1.1334  0.1103
 8017SOL     OW35686   3.878   2.099   2.929 -0.2873 -0.2192 -0.1230
 8017SOL    HW135687   3.828   2.169   2.888 -0.0928 -2.2675 -3.8450
 8017SOL    HW235688   3.861   2.015   2.885  0.1228  0.4417 -1.5195
 8018SOL     OW35689   2.936   4.289   2.482  0.4173  0.2896  0.1450
 8018SOL    HW135690   2.908   4.201   2.456  1.4842  0.5097 -1.8135
 8018SOL    HW235691   2.900   4.278   2.570  0.6141  1.2725  0.3478
 8019SOL     OW35692   0.010   4.502  12.956 -0.0498 -0.4801  1.2312
 8019SOL    HW135693   4.683   4.467  12.895  0.2028  0.3560  0.4787
 8019SOL    HW235694   0.015   4.418  13.001 -0.9596 -0.2522  1.7596
 8020SOL     OW35695   4.377   2.129   9.392  0.2078 -0.3265  0.1141
 8020SOL    HW135696   4.432   2.193   9.347 -1.7022  1.4351  0.2780
 8020SOL    HW235697   4.389   2.050   9.340  0.4154  0.2794 -0.7530
 8021SOL     OW35698   0.009   2.263   7.881  0.2897  0.6596 -0.1045
 8021SOL    HW135699   0.035   2.184   7.835 -0.3089  1.0216 -1.0713
 8021SOL    HW235700   4.671   2.226   7.928  0.1005  1.2877  0.0899
 8022SOL     OW35701   1.548   3.808  15.003 -0.2286 -0.5047 -0.3946
 8022SOL    HW135702   1.458   3.839  14.989  0.3132  0.5424 -1.6692
 8022SOL    HW235703   1.534   3.719  15.033  0.3372 -0.5869 -0.3821
 8023SOL     OW35704   2.293   1.634  11.316 -0.0773 -0.0219  0.2000
 8023SOL    HW135705   2.210   1.614  11.273 -0.4468  0.2088  0.8165
 8023SOL    HW235706   2.263   1.716  11.354 -1.3134  0.0968 -1.0470
 8024SOL     OW35707   0.826   1.896  10.012 -0.0450  0.2964 -0.0513
 8024SOL    HW135708   0.848   1.989  10.023 -2.6130  0.9167 -0.0621
 8024SOL    HW235709   0.913   1.858  10.007 -1.3009 -2.6304  0.2907
 8025SOL     OW35710   3.706   3.058   2.558  0.3863  0.0118  0.1142
 8025SOL    HW135711   3.631   3.043   2.615  0.9731  0.8623  1.1170
 8025SOL    HW235712   3.743   2.970   2.563  0.9347  0.2693  0.5843
 8026SOL     OW35713   4.124   4.576   4.033 -0.0089 -0.0231 -0.2909
 8026SOL    HW135714   4.035   4.549   4.009  0.0559 -0.4792 -0.0102
 8026SOL    HW235715   4.106   4.618   4.117 -0.4231  0.8585 -0.8207
 8027SOL     OW35716   4.334   3.804   0.224 -0.6839  0.0092 -0.5120
 8027SOL    HW135717   4.249   3.837   0.196 -1.2078 -0.5139  0.4656
 8027SOL    HW235718   4.365   3.875   0.281 -1.2081 -0.3064  0.1662
 8028SOL     OW35719   1.873   0.974   8.332 -0.4761 -0.0737 -0.1452
 8028SOL    HW135720   1.894   0.938   8.245 -0.9024 -1.9119  0.5094
 8028SOL    HW235721   1.954   0.968   8.382 -0.4964 -1.4560 -0.2639
 8029SOL     OW35722   3.118   2.180   5.388  0.5829 -0.1398  0.0561
 8029SOL    HW135723   3.027   2.163   5.363  0.3378  0.5883  0.4555
 8029SOL    HW235724   3.164   2.137   5.315  2.2171  0.5415  0.6850
 8030SOL     OW35725   0.995   4.249   1.251 -0.0377 -0.1815  0.7065
 8030SOL    HW135726   1.028   4.199   1.177 -0.0616 -0.8243  1.1330
 8030SOL    HW235727   1.070   4.287   1.296 -0.1637 -0.4280  1.1263
 8031SOL     OW35728   4.572   1.296   3.012  0.0759  0.3625  0.3620
 8031SOL    HW135729   4.500   1.337   3.060  0.4731  1.4254  0.0533
 8031SOL    HW235730   4.607   1.369   2.961  1.6720 -0.9284 -0.3964
 8032SOL     OW35731   3.151   2.079   6.459 -0.0454 -0.5059  0.3194
 8032SOL    HW135732   3.153   2.148   6.526  0.9330  0.9645 -1.2286
 8032SOL    HW235733   3.237   2.041   6.479  0.0756 -0.1870  0.4036
 8033SOL     OW35734   0.349   0.587  16.574 -0.1482 -0.3795  0.2349
 8033SOL    HW135735   0.409   0.543  16.635  2.3162 -0.1813 -2.0462
 8033SOL    HW235736   0.387   0.675  16.566 -3.5132  1.1961  1.8616
 8034SOL     OW35737   0.100   2.283   9.309 -0.6539  0.0773 -0.2401
 8034SOL    HW135738   0.159   2.255   9.378 -1.5476  0.3881  0.6413
 8034SOL    HW235739   0.054   2.356   9.352 -0.9583 -0.4011  0.2453
 8035SOL     OW35740   2.510   0.232  14.909 -0.2793  0.0793 -0.1851
 8035SOL    HW135741   2.465   0.252  14.827  0.1003  1.7376  0.0102
 8035SOL    HW235742   2.508   0.318  14.950  2.6447 -0.5131  1.2188
 8036SOL     OW35743   0.700   4.703   9.203  0.5559  0.1001 -0.2105
 8036SOL    HW135744   0.657   4.727   9.285  1.1833 -2.4281  0.8631
 8036SOL    HW235745   0.635   4.736   9.140 -0.6094  1.3688  1.6629
 8037SOL     OW35746   2.653   2.538   7.685  0.7907  0.1625 -0.0128
 8037SOL    HW135747   2.665   2.450   7.651 -0.9531 -1.4727  3.5339
 8037SOL    HW235748   2.580   2.531   7.746  1.5632  1.7696  1.1305
 8038SOL     OW35749   1.273   2.828   6.637  0.3955 -0.4276 -0.3212
 8038SOL    HW135750   1.262   2.923   6.632 -0.2350 -0.5619 -1.6263
 8038SOL    HW235751   1.289   2.816   6.731 -2.0648  3.4607  0.5819
 8039SOL     OW35752   2.760   2.665  16.012 -0.5995  0.0260  0.1254
 8039SOL    HW135753   2.771   2.757  16.035 -0.2636  0.6599 -2.5619
 8039SOL    HW235754   2.667   2.664  15.989 -0.7256 -2.1522  0.7798
 8040SOL     OW35755   2.217   1.354   6.081  0.6023  0.1294  0.3529
 8040SOL    HW135756   2.262   1.405   6.149  0.2372  3.8387 -2.2318
 8040SOL    HW235757   2.247   1.411   6.011  0.0106 -0.8011 -0.6564
 8041SOL     OW35758   2.029   2.188   7.242  0.5935  0.4814 -0.6424
 8041SOL    HW135759   2.001   2.097   7.253 -0.9639  1.1700  1.1512
 8041SOL    HW235760   2.054   2.217   7.330  1.6249  1.0278 -1.1149
 8042SOL     OW35761   0.536   2.858  12.278  0.1587  0.2696 -0.2319
 8042SOL    HW135762   0.630   2.866  12.263  0.3589 -2.4382 -0.5281
 8042SOL    HW235763   0.510   2.789  12.217 -1.2197  0.4883  0.1086
 8043SOL     OW35764   4.601   0.859  16.524 -0.2313  0.1682 -0.0698
 8043SOL    HW135765   4.577   0.906  16.444 -0.3785 -1.6928 -1.1289
 8043SOL    HW235766   4.670   0.916  16.557  0.1225 -1.0360  1.3092
 8044SOL     OW35767   0.616   2.288   8.315  0.0024 -0.3446  0.8466
 8044SOL    HW135768   0.537   2.297   8.368 -0.9851  1.4226 -0.9261
 8044SOL    HW235769   0.586   2.222   8.252  0.0587 -0.6397  1.1249
 8045SOL     OW35770   1.040   1.097   9.176 -0.0817  0.1911 -0.2172
 8045SOL    HW135771   1.115   1.155   9.174  1.3466 -1.6135  1.1453
 8045SOL    HW235772   1.066   1.041   9.249 -2.1855  0.3505  0.6622
 8046SOL     OW35773   1.493   2.429  15.828  0.2052 -0.4936  0.0412
 8046SOL    HW135774   1.441   2.450  15.906  0.9512  1.7872 -0.0498
 8046SOL    HW235775   1.452   2.348  15.798  0.7915 -0.8084  0.0862
 8047SOL     OW35776   1.959   3.082   8.997 -0.5129 -0.1738  0.0413
 8047SOL    HW135777   1.873   3.046   8.976 -0.6919 -0.3939  1.1526
 8047SOL    HW235778   1.936   3.174   8.982  1.4992  0.2489 -0.4978
 8048SOL     OW35779   2.267   2.638   9.175 -0.2616  0.4965  0.6355
 8048SOL    HW135780   2.172   2.622   9.170  0.1193 -1.3632 -0.3117
 8048SOL    HW235781   2.258   2.729   9.203  2.3168  1.1296 -0.6268
 8049SOL     OW35782   4.366   4.235   8.032  0.0493  0.2500 -0.0539
 8049SOL    HW135783   4.329   4.315   8.069  0.1315  0.3775 -0.2446
 8049SOL    HW235784   4.453   4.261   8.003 -0.0218  0.3067 -0.2180
 8050SOL     OW35785   4.235   0.709  15.776  0.1599 -0.1854 -0.8881
 8050SOL    HW135786   4.176   0.635  15.788  0.4005  0.2448  3.1547
 8050SOL    HW235787   4.230   0.712  15.681 -2.7751 -1.9973 -0.7710
 8051SOL     OW35788   1.285   4.722   0.005 -0.0257 -0.0366 -0.9219
 8051SOL    HW135789   1.237   0.034  17.686 -0.8590  2.2516  1.3622
 8051SOL    HW235790   1.379   4.730  17.732 -0.2802  3.0147 -0.8704
 8052SOL     OW35791   2.019   2.611   3.392 -0.1568  0.4507  0.3378
 8052SOL    HW135792   2.025   2.635   3.484  3.7013 -1.5935  0.6071
 8052SOL    HW235793   1.924   2.603   3.382  0.0924 -0.4887 -1.3160
 8053SOL     OW35794   0.351   2.170  13.230 -0.5922 -0.5521  0.0300
 8053SOL    HW135795   0.363   2.080  13.199 -2.1997 -0.7763  0.0463
 8053SOL    HW235796   0.256   2.157  13.225 -0.9331  0.9834  2.8720
 8054SOL     OW35797   2.539   3.543  11.298  0.2015 -0.2967  0.1760
 8054SOL    HW135798   2.549   3.607  11.368 -1.3976  1.0221 -0.7874
 8054SOL    HW235799   2.445   3.526  11.298  0.0737  0.3795 -0.9488
 8055SOL     OW35800   1.284   2.992   2.638 -0.1123  0.0845  0.0933
 8055SOL    HW135801   1.319   2.968   2.724 -1.8285 -0.5020  0.6162
 8055SOL    HW235802   1.326   2.925   2.583 -0.8727 -0.4236  0.1400
 8056SOL     OW35803   3.282   0.490   4.130  0.0983  0.0418 -0.2186
 8056SOL    HW135804   3.254   0.539   4.052  0.4753 -0.2375 -0.5295
 8056SOL    HW235805   3.206   0.459   4.180 -0.2583  0.7062 -0.3461
 8057SOL     OW35806   2.868   4.428  15.758 -0.3817 -0.9179 -0.2983
 8057SOL    HW135807   2.904   4.392  15.840  0.7117  0.5866 -0.1203
 8057SOL    HW235808   2.788   4.471  15.790 -0.4966 -1.7369  0.5293
 8058SOL     OW35809   3.026   4.008   2.632  0.2843  0.6026 -0.3927
 8058SOL    HW135810   3.086   4.040   2.700  1.4623  0.0957 -1.1999
 8058SOL    HW235811   2.941   4.016   2.676 -0.0910 -1.2012 -0.7992
 8059SOL     OW35812   2.341   4.143   5.149  0.5285 -0.0412 -0.1857
 8059SOL    HW135813   2.379   4.078   5.209 -0.8745 -0.7009 -0.0106
 8059SOL    HW235814   2.362   4.105   5.064 -1.2931 -0.4342 -0.4541
 8060SOL     OW35815   4.300   2.529  13.773 -0.2954 -0.3964 -0.1055
 8060SOL    HW135816   4.341   2.523  13.859  0.6599 -1.9777 -0.6698
 8060SOL    HW235817   4.306   2.622  13.752  0.5321 -0.1635  1.2094
 8061SOL     OW35818   1.615   3.562   7.411 -0.4111 -0.6845 -0.0561
 8061SOL    HW135819   1.618   3.486   7.468 -1.1036 -0.6333  0.0537
 8061SOL    HW235820   1.660   3.627   7.465 -2.4524  1.8233 -1.3416
 8062SOL     OW35821   1.159   3.518   8.550  0.0113 -0.1235 -0.1569
 8062SOL    HW135822   1.241   3.474   8.573 -0.8231 -1.9710 -0.6343
 8062SOL    HW235823   1.123   3.535   8.637  4.1581 -1.9456  1.9075
 8063SOL     OW35824   2.334   0.136   2.040  0.2680  0.2256  0.0498
 8063SOL    HW135825   2.364   0.182   2.118  2.2042  0.2171 -0.6817
 8063SOL    HW235826   2.268   0.075   2.073 -1.1437  0.8551 -1.5736
 8064SOL     OW35827   0.637   4.728  15.313 -0.0063  0.3303  1.0123
 8064SOL    HW135828   0.663   4.695  15.227 -0.8192  0.4823  0.7112
 8064SOL    HW235829   0.591   0.073  15.296  0.3852  0.8013  2.2634
 8065SOL     OW35830   2.822   2.165   9.250 -0.0028 -0.5205 -0.2379
 8065SOL    HW135831   2.827   2.153   9.155 -0.7464 -1.8485 -0.1098
 8065SOL    HW235832   2.751   2.103   9.271  1.9941 -2.2131  1.5396
 8066SOL     OW35833   2.568   2.043   1.776 -0.3816 -0.2723 -0.2359
 8066SOL    HW135834   2.485   2.008   1.809  0.5881 -0.6835  1.7805
 8066SOL    HW235835   2.525   2.128   1.762  0.0966  0.1054  0.6104
 8067SOL     OW35836   0.300   3.355  15.746  0.6243  0.7674  0.5778
 8067SOL    HW135837   0.227   3.305  15.783  1.5753 -0.7969  0.3800
 8067SOL    HW235838   0.339   3.375  15.831 -0.4593  1.7582  0.8371
 8068SOL     OW35839   3.774   3.084   7.471  0.4150 -0.0006  0.7810
 8068SOL    HW135840   3.695   3.138   7.468  0.0336 -0.5510  0.7479
 8068SOL    HW235841   3.745   3.030   7.544 -2.1306  0.8951  0.4339
 8069SOL     OW35842   3.378   3.756   1.675  0.1701  0.1185  0.5626
 8069SOL    HW135843   3.460   3.785   1.714  0.8473 -2.9401  1.3951
 8069SOL    HW235844   3.343   3.835   1.635 -0.9360 -1.1855 -1.0515
 8070SOL     OW35845   1.128   2.489   6.599 -0.2931 -0.5709  0.6989
 8070SOL    HW135846   1.220   2.517   6.594 -0.1707 -0.7714  1.8340
 8070SOL    HW235847   1.133   2.409   6.651 -0.3439 -0.7362  0.4470
 8071SOL     OW35848   3.254   1.543   1.950 -0.5113 -0.4510 -0.6871
 8071SOL    HW135849   3.165   1.567   1.975 -0.5208 -0.4311 -0.7395
 8071SOL    HW235850   3.247   1.448   1.951  1.6528 -0.5888  1.0577
 8072SOL     OW35851   3.090   2.798   2.609  0.0892  0.4111  0.2208
 8072SOL    HW135852   3.036   2.837   2.678 -1.0060 -1.0731  0.1982
 8072SOL    HW235853   3.107   2.709   2.639  1.3994  0.8470  0.7631
 8073SOL     OW35854   0.945   2.440   9.073 -0.3794 -0.1165  0.2231
 8073SOL    HW135855   0.916   2.350   9.086  0.8016 -0.4191  0.6594
 8073SOL    HW235856   0.866   2.490   9.096  0.2232  1.1826 -0.5308
 8074SOL     OW35857   3.547   4.043   4.119 -0.5642 -0.5158 -0.2643
 8074SOL    HW135858   3.510   3.995   4.046 -1.8158 -0.5288  0.3697
 8074SOL    HW235859   3.502   3.994   4.188 -1.3526  0.1545 -0.3009
 8075SOL     OW35860   0.004   1.879  12.865 -0.1019  0.1177  0.2299
 8075SOL    HW135861   4.664   1.834  12.830  0.5184 -0.9912  0.2761
 8075SOL    HW235862   0.015   1.951  12.803 -1.1614 -1.5685 -1.9233
 8076SOL     OW35863   0.555   2.513   5.020 -0.4174 -0.5214 -0.6980
 8076SOL    HW135864   0.469   2.535   5.056 -0.5149  0.2887 -1.4132
 8076SOL    HW235865   0.543   2.418   5.021 -0.6064 -0.4925 -0.3892
 8077SOL     OW35866   1.196   1.416   4.695 -0.4137  0.1958  0.0542
 8077SOL    HW135867   1.289   1.394   4.698 -0.8042 -1.1246  2.4276
 8077SOL    HW235868   1.192   1.487   4.631  1.1873  0.7441  0.5567
 8078SOL     OW35869   0.882   0.028   8.756  0.0224 -0.1922 -0.3567
 8078SOL    HW135870   0.951   4.705   8.727 -0.5075 -1.6197  1.3818
 8078SOL    HW235871   0.889   0.019   8.851 -0.2989  1.2176 -0.1969
 8079SOL     OW35872   0.947   0.337  12.490 -0.6395  0.2228  0.1266
 8079SOL    HW135873   0.994   0.347  12.407 -1.6514 -0.4730 -0.5296
 8079SOL    HW235874   0.973   0.422  12.528 -1.2881  2.0643 -3.5716
 8080SOL     OW35875   4.286   1.779   8.277 -0.2831 -0.2748 -0.2633
 8080SOL    HW135876   4.202   1.774   8.322 -0.3188  0.7705 -0.2156
 8080SOL    HW235877   4.319   1.689   8.274  0.6624  0.0626  0.0723
 8081SOL     OW35878   4.425   2.860  12.811 -0.4309  0.9258  0.2500
 8081SOL    HW135879   4.517   2.847  12.789 -0.5119  2.0736 -0.7865
 8081SOL    HW235880   4.426   2.943  12.859 -1.2055  2.0283 -1.6328
 8082SOL     OW35881   0.354   2.601   5.480 -0.4970  0.2420 -0.1995
 8082SOL    HW135882   0.352   2.683   5.529  0.5264  0.9231 -1.2998
 8082SOL    HW235883   0.278   2.565   5.525  1.0116 -0.4803  1.8151
 8083SOL     OW35884   2.862   2.098   5.264 -0.4314  0.2246  0.2073
 8083SOL    HW135885   2.905   2.083   5.179 -2.6607 -0.6668 -0.7512
 8083SOL    HW235886   2.791   2.156   5.239  0.1322  1.0091  0.4405
 8084SOL     OW35887   4.035   0.821  13.180  0.1856 -0.0529  0.2900
 8084SOL    HW135888   3.959   0.765  13.160 -0.8550  1.3547  0.2815
 8084SOL    HW235889   3.994   0.907  13.171  1.9173  0.8567  1.1375
 8085SOL     OW35890   0.675   4.334   8.931  0.4299  0.2558  0.0632
 8085SOL    HW135891   0.623   4.414   8.937  0.5335  0.4506 -1.7246
 8085SOL    HW235892   0.654   4.306   8.842  2.5882 -2.7684  0.5037
 8086SOL     OW35893   2.812   0.839   3.560 -0.4880 -0.1606 -0.5410
 8086SOL    HW135894   2.765   0.816   3.640 -0.3480 -0.8111 -0.6491
 8086SOL    HW235895   2.895   0.795   3.578 -0.1735  0.1096 -1.3302
 8087SOL     OW35896   0.038   1.387   9.963 -0.5098  0.3064 -0.1763
 8087SOL    HW135897   0.006   1.440  10.036  0.1610 -0.1335  0.4299
 8087SOL    HW235898   0.114   1.442   9.946  0.1480 -0.4352  0.3867
 8088SOL     OW35899   3.359   0.285   3.608 -0.1022  0.3967 -0.0345
 8088SOL    HW135900   3.432   0.345   3.624  0.5909 -0.1618 -1.0614
 8088SOL    HW235901   3.390   0.200   3.641 -0.8750  0.1994  0.1957
 8089SOL     OW35902   0.152   4.151   2.374  0.1018 -0.2437 -0.8732
 8089SOL    HW135903   0.089   4.220   2.395 -0.2889 -0.9713  0.3908
 8089SOL    HW235904   0.194   4.202   2.306  1.5161  1.2156  1.1051
 8090SOL     OW35905   3.072   2.972   8.240 -0.2158  0.0285 -0.2884
 8090SOL    HW135906   3.020   3.010   8.311 -1.4045 -1.1916 -0.5255
 8090SOL    HW235907   3.032   3.029   8.174 -1.7853 -1.0319 -0.2510
 8091SOL     OW35908   0.384   0.674   8.136 -0.2009 -0.4886  0.5891
 8091SOL    HW135909   0.365   0.603   8.198  2.9714 -0.1699  1.9096
 8091SOL    HW235910   0.359   0.753   8.184  0.2604  0.2776 -0.4354
 8092SOL     OW35911   0.908   3.828  16.618  0.6160  0.0377  0.3032
 8092SOL    HW135912   0.888   3.850  16.709 -0.8788  1.8668 -0.4507
 8092SOL    HW235913   0.858   3.896  16.574  0.3096 -0.4509 -0.1010
 8093SOL     OW35914   4.357   0.400   0.609 -0.1878  0.1688  0.9913
 8093SOL    HW135915   4.356   0.494   0.624 -0.2208  0.4334 -0.6232
 8093SOL    HW235916   4.286   0.386   0.546 -1.4312  0.9245  2.2473
 8094SOL     OW35917   3.932   1.767   8.186  0.2900  0.4736 -0.0071
 8094SOL    HW135918   3.868   1.727   8.127 -0.7856  1.8353  0.2405
 8094SOL    HW235919   4.005   1.721   8.144  0.2979  0.4215  0.0652
 8095SOL     OW35920   4.614   2.001  13.540 -0.7209  0.4912 -0.3946
 8095SOL    HW135921   4.580   1.998  13.450  0.6574  3.6004 -1.0225
 8095SOL    HW235922   4.534   2.009  13.591  1.0241 -0.6475  2.5086
 8096SOL     OW35923   4.394   0.655   3.553 -0.6414  1.1453  0.6908
 8096SOL    HW135924   4.328   0.724   3.546  0.2006  1.7532 -1.4616
 8096SOL    HW235925   4.402   0.644   3.458  2.3511  0.6969  1.0100
 8097SOL     OW35926   3.025   2.471  11.264  0.0995  0.2396 -0.1766
 8097SOL    HW135927   3.008   2.562  11.239  0.2600  1.0556  2.6803
 8097SOL    HW235928   3.114   2.461  11.230  0.1831  0.1573  0.0609
 8098SOL     OW35929   3.025   0.973   5.426  0.2307  0.2801  0.6639
 8098SOL    HW135930   2.952   0.962   5.365  0.4193 -1.5085  0.7505
 8098SOL    HW235931   3.069   0.893   5.395 -0.1009  0.6845 -0.8501
 8099SOL     OW35932   0.465   4.189  15.252  0.2003  0.0680  0.8432
 8099SOL    HW135933   0.480   4.249  15.325 -0.4793  0.3485  0.7485
 8099SOL    HW235934   0.396   4.131  15.281  0.1272 -0.3710 -0.2020
 8100SOL     OW35935   4.151   0.073   6.706 -0.3519 -0.3683  0.2450
 8100SOL    HW135936   4.135   0.166   6.693  0.7035 -0.0801  1.0165
 8100SOL    HW235937   4.104   0.056   6.788 -0.5601  0.3394  0.2676
 8101SOL     OW35938   4.681   3.875   3.610 -0.1013  0.2153  0.5285
 8101SOL    HW135939   4.618   3.894   3.680 -0.7206 -0.0496  0.0458
 8101SOL    HW235940   4.624   3.872   3.533  1.7036  0.7763 -0.8050
 8102SOL     OW35941   1.091   0.155   7.474  0.2288  0.6700 -0.9934
 8102SOL    HW135942   1.177   0.135   7.436 -0.0808  0.8715 -1.7827
 8102SOL    HW235943   1.122   0.187   7.560  0.6065 -0.0238 -0.8694
 8103SOL     OW35944   4.198   1.060   2.171  0.4238 -0.2181  0.7292
 8103SOL    HW135945   4.177   1.153   2.162  0.7017 -0.2508 -0.2667
 8103SOL    HW235946   4.168   1.028   2.086  0.7064 -2.2333  1.3876
 8104SOL     OW35947   4.076   4.508   8.460  0.5902 -0.0413  0.2203
 8104SOL    HW135948   4.018   4.482   8.389  0.5314  0.2053  0.1782
 8104SOL    HW235949   4.154   4.465   8.426  0.4407  0.3918 -0.6768
 8105SOL     OW35950   1.459   1.928   2.824  0.4701  0.2097 -0.1580
 8105SOL    HW135951   1.491   1.840   2.805  0.8456  0.5410 -1.0663
 8105SOL    HW235952   1.444   1.968   2.738  0.8440 -0.3648 -0.4876
 8106SOL     OW35953   0.602   1.812   5.284 -0.7108 -0.2409  0.1676
 8106SOL    HW135954   0.675   1.788   5.341 -2.5026 -2.3371  1.6126
 8106SOL    HW235955   0.638   1.811   5.195 -1.4410 -2.5870 -0.0898
 8107SOL     OW35956   2.350   2.049   9.839 -0.4548  0.2387 -0.2471
 8107SOL    HW135957   2.441   2.078   9.843 -0.0517 -0.9370 -0.9146
 8107SOL    HW235958   2.315   2.106   9.771 -0.6269 -0.0313 -0.3890
 8108SOL     OW35959   0.639   3.389   5.914 -0.2719 -0.3214  0.1942
 8108SOL    HW135960   0.618   3.305   5.954  1.4365 -1.3257 -1.0177
 8108SOL    HW235961   0.734   3.389   5.907 -0.3885 -2.3407 -1.4054
 8109SOL     OW35962   2.129   2.884   9.308 -0.3543 -0.1129  0.0980
 8109SOL    HW135963   2.047   2.925   9.336 -1.3056  0.1654 -3.1494
 8109SOL    HW235964   2.080   2.805   9.289 -0.3715 -0.3376  1.0921
 8110SOL     OW35965   4.523   2.322   9.244 -0.2210  0.2724 -0.5478
 8110SOL    HW135966   4.554   2.396   9.296  0.8680 -0.0528 -0.7400
 8110SOL    HW235967   4.493   2.355   9.159  1.8567  0.3827 -1.2217
 8111SOL     OW35968   2.238   1.239   3.192 -0.3667  0.0410  0.8238
 8111SOL    HW135969   2.260   1.324   3.231 -2.6822  0.3328  1.4916
 8111SOL    HW235970   2.301   1.230   3.121 -0.1752  0.5046  0.9299
 8112SOL     OW35971   0.861   1.505   6.963  0.3272 -0.9006  0.2641
 8112SOL    HW135972   0.769   1.489   6.946  0.3263 -1.7175  1.0500
 8112SOL    HW235973   0.880   1.412   6.954 -1.8887 -1.1816 -1.3172
 8113SOL     OW35974   0.045   3.336  10.517 -0.3708  0.0813 -0.7872
 8113SOL    HW135975   0.039   3.427  10.549  1.4299 -0.5080  1.2284
 8113SOL    HW235976   0.073   3.342  10.426  1.2769 -0.9381 -0.3377
 8114SOL     OW35977   1.143   3.030   9.164  0.2661 -0.2709 -0.3160
 8114SOL    HW135978   1.139   3.056   9.256 -2.1265  2.2757 -1.1379
 8114SOL    HW235979   1.141   2.934   9.170  0.4502 -0.4292 -2.6903
 8115SOL     OW35980   4.292   3.620  16.426  0.0648 -0.0805  0.3113
 8115SOL    HW135981   4.257   3.671  16.499  2.8785 -1.9942  2.9620
 8115SOL    HW235982   4.218   3.562  16.407  2.4399 -2.4345 -1.8322
 8116SOL     OW35983   3.691   2.282   4.844  0.2634 -0.1931 -0.2219
 8116SOL    HW135984   3.651   2.205   4.884  0.5093  0.2626  0.8925
 8116SOL    HW235985   3.712   2.244   4.759 -1.1891  0.0377 -0.6784
 8117SOL     OW35986   1.593   0.097   8.072 -0.1409  0.3879 -0.3163
 8117SOL    HW135987   1.638   0.150   8.137 -1.7879 -0.6856  1.6738
 8117SOL    HW235988   1.648   0.018   8.066  1.6597  1.6124  0.1264
 8118SOL     OW35989   3.138   1.490   5.439  0.0558 -0.2969 -0.4129
 8118SOL    HW135990   3.091   1.528   5.513  1.1957 -0.0157  0.1625
 8118SOL    HW235991   3.122   1.396   5.448  0.1893 -0.0267  2.6091
 8119SOL     OW35992   0.429   3.573   0.172  0.0643  0.4500  0.1739
 8119SOL    HW135993   0.405   3.519   0.097 -0.2360  0.2622  0.4045
 8119SOL    HW235994   0.412   3.665   0.153 -2.2837  0.2878  1.4631
 8120SOL     OW35995   2.574   1.853  14.568 -0.2418 -0.4480  0.1467
 8120SOL    HW135996   2.628   1.931  14.555  1.0153 -1.5293 -1.1522
 8120SOL    HW235997   2.495   1.894  14.603  1.2700  0.9948  1.8876
 8121SOL     OW35998   0.677   0.706   3.877 -0.3335 -0.1922  0.3865
 8121SOL    HW135999   0.747   0.767   3.858  1.1355 -1.4324  1.7966
 8121SOL    HW236000   0.721   0.632   3.919 -1.8331 -1.9270 -1.0795
 8122SOL     OW36001   0.035   0.776   7.233  0.4237 -0.4526  0.1821
 8122SOL    HW136002   4.729   0.694   7.257  3.2091 -1.4114  1.8915
 8122SOL    HW236003   0.091   0.753   7.159 -0.4012  0.8856 -0.8586
 8123SOL     OW36004   2.572   3.199  13.594  0.6102  0.0635 -0.1488
 8123SOL    HW136005   2.663   3.170  13.588 -0.7126 -3.6544 -2.2993
 8123SOL    HW236006   2.580   3.294  13.588  0.0688  0.2319  1.8898
 8124SOL     OW36007   0.026   2.900   6.839  0.0892 -0.7032  0.6145
 8124SOL    HW136008   4.679   2.908   6.884 -0.4907 -0.2190 -0.5454
 8124SOL    HW236009   0.084   2.937   6.906  0.4349  1.0883 -0.6569
 8125SOL     OW36010   2.403   4.182   1.931  0.2531  0.1169  0.1585
 8125SOL    HW136011   2.492   4.186   1.896  0.1582  0.5931 -0.0258
 8125SOL    HW236012   2.393   4.094   1.896  0.6426 -0.2318  0.9227
 8126SOL     OW36013   2.025   1.323   2.502 -0.5502 -0.0767 -0.2200
 8126SOL    HW136014   1.945   1.283   2.467 -2.6066  2.4829  1.5283
 8126SOL    HW236015   2.044   1.389   2.434  1.7302  1.1694  1.6289
 8127SOL     OW36016   1.357   0.171   9.467 -0.1644 -0.0971 -1.1636
 8127SOL    HW136017   1.404   0.253   9.483 -1.1433  0.3091 -0.3918
 8127SOL    HW236018   1.417   0.131   9.404 -1.2113 -1.6091 -1.1794
 8128SOL     OW36019   4.277   2.582  10.873 -0.3118  0.5446  0.7032
 8128SOL    HW136020   4.267   2.643  10.800  2.5434  0.8085  0.5304
 8128SOL    HW236021   4.187   2.551  10.888  0.4156 -1.0786  1.7660
 8129SOL     OW36022   0.214   0.786   2.574  0.6894  0.4636 -0.8589
 8129SOL    HW136023   0.122   0.759   2.579  0.4330  1.4627 -0.1057
 8129SOL    HW236024   0.250   0.710   2.528  0.6858  0.7278 -1.2924
 8130SOL     OW36025   4.453   4.723   2.977  0.2121  0.0961  0.9822
 8130SOL    HW136026   4.540   4.726   2.938 -0.4472 -3.7984 -0.8153
 8130SOL    HW236027   4.474   4.699   3.067 -2.5541 -1.4463  1.2413
 8131SOL     OW36028   2.428   4.345   6.986 -0.4379 -0.1900  0.9908
 8131SOL    HW136029   2.449   4.437   7.002  0.2097  0.7019 -4.8978
 8131SOL    HW236030   2.430   4.307   7.073  1.7030 -0.4705  0.8039
 8132SOL     OW36031   3.048   0.061  15.789  0.1667 -0.0392 -0.2014
 8132SOL    HW136032   3.013   0.143  15.755  0.4485 -1.4169 -3.7479
 8132SOL    HW236033   3.019   0.004  15.718  0.0159 -2.1140  1.5174
 8133SOL     OW36034   3.426   0.158  10.980 -0.1821  0.2492  0.2475
 8133SOL    HW136035   3.351   0.186  10.928 -0.5745  0.9116  1.1609
 8133SOL    HW236036   3.383   0.090  11.033  1.0624 -0.4941  0.2935
 8134SOL     OW36037   4.333   1.715  12.722  0.8907  0.4676  0.0350
 8134SOL    HW136038   4.427   1.730  12.727  0.5749  2.2735  0.6393
 8134SOL    HW236039   4.322   1.624  12.747  0.0692  0.1330 -1.5756
 8135SOL     OW36040   1.401   2.965   2.952 -0.1552  0.2634 -0.2881
 8135SOL    HW136041   1.485   2.920   2.967 -1.5895 -2.4531 -0.4805
 8135SOL    HW236042   1.366   2.965   3.041 -0.2241 -3.7018 -0.3161
 8136SOL     OW36043   0.438   2.456   9.126  0.1310  0.4405 -0.1958
 8136SOL    HW136044   0.420   2.550   9.115 -1.2166  0.0235 -1.6059
 8136SOL    HW236045   0.354   2.412   9.109  0.9547 -1.3632  0.5784
 8137SOL     OW36046   2.710   4.348   5.567 -0.4499  0.2644 -0.0069
 8137SOL    HW136047   2.650   4.411   5.609  1.5238  1.6414  0.7557
 8137SOL    HW236048   2.647   4.281   5.542 -1.2466  1.4216 -1.0728
 8138SOL     OW36049   3.767   1.420  10.471  0.5304 -0.1657 -0.2259
 8138SOL    HW136050   3.834   1.371  10.518  0.2548  0.0067  0.3402
 8138SOL    HW236051   3.742   1.470  10.548  2.9406  0.5382  0.0748
 8139SOL     OW36052   2.462   2.355   2.127 -0.0800 -0.3296 -0.7069
 8139SOL    HW136053   2.532   2.408   2.165  0.2357 -0.2815 -1.3547
 8139SOL    HW236054   2.501   2.328   2.044 -0.1120  2.2582 -1.5832
 8140SOL     OW36055   1.491   2.680   5.210  0.2451 -0.3073  0.6543
 8140SOL    HW136056   1.547   2.644   5.141 -0.1305 -2.0445  1.2632
 8140SOL    HW236057   1.501   2.775   5.204 -0.1637 -0.2786  0.4550
 8141SOL     OW36058   3.164   3.327  11.184 -0.6318 -0.0258  0.9661
 8141SOL    HW136059   3.100   3.317  11.256 -0.6369 -0.9442  0.8352
 8141SOL    HW236060   3.159   3.421  11.167  0.8113 -0.1275  0.0181
 8142SOL     OW36061   0.007   3.618   7.634 -0.0952  0.2138 -0.0679
 8142SOL    HW136062   0.025   3.630   7.727  2.1529 -0.9647 -0.3321
 8142SOL    HW236063   0.094   3.624   7.593  0.2595  1.1673  0.8526
 8143SOL     OW36064   3.758   1.201   4.360 -0.4251  0.3532  0.2918
 8143SOL    HW136065   3.831   1.237   4.410 -1.5089 -0.9623  2.8426
 8143SOL    HW236066   3.726   1.280   4.317 -0.3640 -0.7667 -1.8267
 8144SOL     OW36067   0.886   2.143  10.014 -0.5396 -0.5702 -0.1294
 8144SOL    HW136068   0.808   2.153   9.959 -0.1229 -1.4669 -0.8891
 8144SOL    HW236069   0.960   2.146   9.952 -1.7151  0.1928 -1.4895
 8145SOL     OW36070   0.918   2.199   8.122 -0.3035  0.8288 -0.1201
 8145SOL    HW136071   0.867   2.153   8.055  0.7124  0.4970 -0.6631
 8145SOL    HW236072   0.914   2.139   8.196 -1.1161  2.7251  1.3823
 8146SOL     OW36073   0.901   2.546   0.190 -0.2175 -0.2276  0.7633
 8146SOL    HW136074   0.833   2.563   0.255 -0.0241  1.3772  0.5536
 8146SOL    HW236075   0.892   2.626   0.138 -1.5558 -0.7604  0.1710
 8147SOL     OW36076   1.975   0.948   5.104 -0.3210  0.1203  0.1752
 8147SOL    HW136077   1.973   1.036   5.067 -2.6126  0.6636  1.5823
 8147SOL    HW236078   2.068   0.931   5.121  0.2291  2.9231 -0.1233
 8148SOL     OW36079   0.710   0.272  13.308  0.0241  0.2973  0.4133
 8148SOL    HW136080   0.616   0.286  13.319  0.2607 -0.2434  3.0792
 8148SOL    HW236081   0.718   0.261  13.213  1.9516  2.0311  0.3834
 8149SOL     OW36082   0.046   1.492   3.215 -0.0676  0.2358 -0.0268
 8149SOL    HW136083   0.130   1.467   3.255 -0.3660 -1.1532 -0.2714
 8149SOL    HW236084   0.088   1.502   3.130  0.7485 -2.1675  0.1049
 8150SOL     OW36085   0.449   3.069   1.897 -0.8312  0.0184 -0.1070
 8150SOL    HW136086   0.395   3.042   1.823 -0.4573  2.8493 -1.3982
 8150SOL    HW236087   0.535   3.064   1.855  0.2554 -0.0757  2.1224
 8151SOL     OW36088   2.167   4.630   6.877  0.4780 -0.5730 -0.2987
 8151SOL    HW136089   2.165   4.709   6.931  0.3996  1.4541 -3.2346
 8151SOL    HW236090   2.124   4.667   6.799 -2.3969  0.8333  1.9781
 8152SOL     OW36091   1.454   1.066  15.729  0.1904 -0.1349 -0.0683
 8152SOL    HW136092   1.455   1.091  15.636 -0.5571 -0.5846 -0.1947
 8152SOL    HW236093   1.501   1.140  15.766 -0.4385  0.0282  0.3891
 8153SOL     OW36094   3.041   2.783   4.138  0.4231  0.0518  0.1394
 8153SOL    HW136095   3.027   2.739   4.054  1.7840 -1.6657  0.8103
 8153SOL    HW236096   3.111   2.731   4.177  0.6365 -0.6795 -1.2266
 8154SOL     OW36097   4.575   1.446  12.968  0.0755 -0.2734  0.4958
 8154SOL    HW136098   4.570   1.355  12.938  2.8949  0.0767 -1.0161
 8154SOL    HW236099   4.543   1.437  13.058 -1.3144 -0.2905  0.0060
 8155SOL     OW36100   1.355   4.580   9.600  0.3465 -0.0339 -0.3771
 8155SOL    HW136101   1.281   4.519   9.606 -0.2656  0.7827  0.3338
 8155SOL    HW236102   1.338   4.604   9.509 -2.8951 -0.7995  0.0210
 8156SOL     OW36103   1.299   3.883   3.263  0.3422 -0.8263  0.2137
 8156SOL    HW136104   1.222   3.924   3.222  1.8404  2.3501  0.5202
 8156SOL    HW236105   1.344   3.951   3.314 -0.1472  0.5576 -1.1818
 8157SOL     OW36106   2.459   2.973   4.127 -0.1948  0.8504  0.4842
 8157SOL    HW136107   2.412   2.982   4.045 -2.3894 -1.8640  1.4304
 8157SOL    HW236108   2.432   2.888   4.162  0.9493 -0.8651 -2.7853
 8158SOL     OW36109   3.854   0.754   8.711 -0.2814  0.2757 -0.2176
 8158SOL    HW136110   3.940   0.778   8.745 -1.2684  0.9378  1.8016
 8158SOL    HW236111   3.835   0.688   8.778 -1.7370  2.7675  1.8384
 8159SOL     OW36112   1.414   2.305   8.903 -0.3395  0.0932 -0.2843
 8159SOL    HW136113   1.488   2.328   8.959  0.0409  0.0170 -0.7575
 8159SOL    HW236114   1.357   2.378   8.926 -0.9961 -0.6982  0.5668
 8160SOL     OW36115   4.268   3.633   6.582  0.4368 -0.4658  0.4501
 8160SOL    HW136116   4.354   3.670   6.561  1.0239 -2.2449 -0.3567
 8160SOL    HW236117   4.257   3.582   6.501  2.2790  2.0432 -1.4221
 8161SOL     OW36118   2.396   1.619  11.854 -0.6975 -0.4802  1.1628
 8161SOL    HW136119   2.307   1.585  11.844 -0.7533 -0.4867  1.6857
 8161SOL    HW236120   2.390   1.648  11.945 -3.1350 -2.8332  1.7628
 8162SOL     OW36121   3.488   0.332   4.165  0.6453 -0.2861  0.3478
 8162SOL    HW136122   3.401   0.372   4.162  1.9966  2.5944  0.1513
 8162SOL    HW236123   3.476   0.285   4.247  0.0818 -1.5918 -0.4717
 8163SOL     OW36124   2.626   2.495   1.899  0.2089  0.2030  0.5441
 8163SOL    HW136125   2.669   2.557   1.840  0.3785 -1.5818 -1.1994
 8163SOL    HW236126   2.654   2.524   1.986  0.5258  1.4921  0.0081
 8164SOL     OW36127   3.957   3.400   0.573 -0.6025 -0.3611  0.0693
 8164SOL    HW136128   3.998   3.484   0.553 -2.1986  0.5107  0.4447
 8164SOL    HW236129   3.927   3.376   0.485  1.2918 -1.5144 -0.2609
 8165SOL     OW36130   3.624   4.625   3.387  0.6609 -0.0623  0.2281
 8165SOL    HW136131   3.555   4.691   3.378 -0.0319 -0.6097  1.5096
 8165SOL    HW236132   3.571   4.546   3.388 -0.0003  0.3661 -1.1090
 8166SOL     OW36133   3.787   3.387   4.695 -0.3608 -0.1880  0.1120
 8166SOL    HW136134   3.855   3.321   4.708 -1.3018 -1.6709 -2.5380
 8166SOL    HW236135   3.829   3.469   4.721 -0.5212  0.0384 -0.3357
 8167SOL     OW36136   4.271   2.750  16.486 -0.1154 -0.3249  0.0803
 8167SOL    HW136137   4.292   2.832  16.532  3.7081 -1.2437 -0.0633
 8167SOL    HW236138   4.177   2.742  16.505 -0.4428  1.4241 -0.7766
 8168SOL     OW36139   2.678   1.148  14.699 -0.1398  0.4928  0.1693
 8168SOL    HW136140   2.601   1.115  14.747  1.4644 -1.4604  1.4386
 8168SOL    HW236141   2.650   1.238  14.684  0.4978  0.6950  0.1730
 8169SOL     OW36142   1.460   1.434   7.422 -0.3505 -0.2549 -0.0990
 8169SOL    HW136143   1.415   1.510   7.385 -0.3099 -0.9654 -1.6052
 8169SOL    HW236144   1.393   1.369   7.442 -1.8646  0.8334 -1.5606
 8170SOL     OW36145   1.120   1.283   7.299 -0.3287  0.1755  0.5867
 8170SOL    HW136146   1.084   1.195   7.286 -0.2602  0.2262  0.0673
 8170SOL    HW236147   1.173   1.265   7.377 -0.2379 -0.5886  0.3519
 8171SOL     OW36148   1.560   4.517   4.914  0.1435 -0.1705  0.0602
 8171SOL    HW136149   1.502   4.444   4.936 -0.7795 -0.1111 -2.0622
 8171SOL    HW236150   1.504   4.580   4.958  1.5368  0.3500  1.0801
 8172SOL     OW36151   2.433   1.885   4.888  0.8082  0.1100 -0.1241
 8172SOL    HW136152   2.466   1.959   4.938  2.1377 -0.0350 -0.7974
 8172SOL    HW236153   2.505   1.823   4.900  1.5465  0.5704 -2.0778
 8173SOL     OW36154   3.639   2.381   6.224 -0.2922  0.0556  0.1850
 8173SOL    HW136155   3.601   2.469   6.231  1.2813  0.7928 -0.6291
 8173SOL    HW236156   3.587   2.348   6.150  1.0865  0.0100 -0.7667
 8174SOL     OW36157   3.554   3.977  13.684 -0.5022  0.0404 -0.1572
 8174SOL    HW136158   3.529   3.885  13.692 -1.2372  0.2639  0.2035
 8174SOL    HW236159   3.468   4.013  13.709 -0.8639  0.4824 -2.0321
 8175SOL     OW36160   2.120   1.837   4.563  0.4623  0.4967  0.4350
 8175SOL    HW136161   2.032   1.843   4.524  0.5208  2.8042  0.6785
 8175SOL    HW236162   2.138   1.918   4.612  0.3058 -0.0907  1.4707
 8176SOL     OW36163   0.477   2.529   3.104  0.0669  0.2233  0.1973
 8176SOL    HW136164   0.441   2.516   3.017  0.5754 -4.7317  0.7332
 8176SOL    HW236165   0.446   2.449   3.146  1.7156 -1.0860 -1.1204
 8177SOL     OW36166   4.413   1.573   0.842 -0.1601  0.5450 -0.0728
 8177SOL    HW136167   4.469   1.651   0.847  2.2674 -0.9470 -4.2423
 8177SOL    HW236168   4.471   1.505   0.877 -0.9738 -0.5152 -0.7934
 8178SOL     OW36169   2.217   1.878   1.352  0.1864  0.1465  0.3806
 8178SOL    HW136170   2.287   1.898   1.414  1.4023  0.3276 -1.0415
 8178SOL    HW236171   2.260   1.804   1.310 -1.0518 -0.5550  0.3716
 8179SOL     OW36172   2.518   4.102   0.812 -0.5585  0.0014  0.9656
 8179SOL    HW136173   2.532   4.166   0.881  1.5385  0.0724  0.4562
 8179SOL    HW236174   2.432   4.065   0.834 -0.0117 -1.7753  0.1477
 8180SOL     OW36175   1.095   3.853   1.909  0.4883 -0.1802 -0.0870
 8180SOL    HW136176   1.053   3.883   1.989  0.9714  0.2833 -0.0078
 8180SOL    HW236177   1.176   3.813   1.941 -0.2329 -0.6102  1.1924
 8181SOL     OW36178   4.035   0.659  12.874 -0.0567 -0.2602  0.7938
 8181SOL    HW136179   3.995   0.632  12.792  0.6130 -1.1789  0.7679
 8181SOL    HW236180   3.999   0.746  12.893 -1.1285 -1.0614  2.4141
 8182SOL     OW36181   3.239   1.675   3.951 -0.1649 -0.2408  0.0557
 8182SOL    HW136182   3.277   1.598   3.993 -1.1205 -1.5348 -1.4666
 8182SOL    HW236183   3.152   1.652   3.918  0.7086  0.0265 -2.4310
 8183SOL     OW36184   1.921   1.705   5.566 -0.3321  0.6387 -0.0311
 8183SOL    HW136185   1.882   1.787   5.596 -1.7610 -0.0615  0.0098
 8183SOL    HW236186   1.844   1.661   5.531 -0.6941  1.1414  0.1230
 8184SOL     OW36187   1.878   0.804   2.404  0.5447  0.1830  0.2539
 8184SOL    HW136188   1.839   0.795   2.491 -1.2927  2.7680 -0.3054
 8184SOL    HW236189   1.810   0.855   2.360  1.5526  0.9904 -0.3716
 8185SOL     OW36190   1.768   3.597   3.217 -0.2891  0.0771  0.0145
 8185SOL    HW136191   1.765   3.620   3.124 -0.4589 -0.0157 -0.0021
 8185SOL    HW236192   1.675   3.600   3.240 -0.7605 -0.3458 -1.8200
 8186SOL     OW36193   1.394   1.472   3.643  0.5686 -0.9150  0.2571
 8186SOL    HW136194   1.430   1.441   3.727  0.9645 -1.6379 -0.1836
 8186SOL    HW236195   1.444   1.411   3.589  0.7167 -0.3727 -0.2101
 8187SOL     OW36196   2.464   2.555   4.860 -0.0043 -0.3488  0.0638
 8187SOL    HW136197   2.532   2.545   4.794  0.1194 -0.2879  0.1812
 8187SOL    HW236198   2.430   2.466   4.871 -1.5492  0.0650 -1.4775
 8188SOL     OW36199   2.936   1.981   8.969  0.7276 -0.1827 -0.0096
 8188SOL    HW136200   2.915   1.888   8.981 -2.3124  0.7159  1.5420
 8188SOL    HW236201   2.849   2.019   8.965  1.6857  1.9888 -0.1881
 8189SOL     OW36202   2.901   4.612   9.470  0.2327  0.4786  0.9037
 8189SOL    HW136203   2.844   4.663   9.528  0.5550  0.4786  1.2257
 8189SOL    HW236204   2.846   4.561   9.412 -0.0816  0.6500  1.0530
 8190SOL     OW36205   2.821   4.556  11.033 -0.5070  0.0902 -0.0652
 8190SOL    HW136206   2.849   4.590  11.118  2.0121 -0.2743 -0.7727
 8190SOL    HW236207   2.908   4.561  10.994 -0.0881 -0.8092  0.7476
 8191SOL     OW36208   4.701   2.361  14.066  0.2158  0.3067 -0.1873
 8191SOL    HW136209   4.717   2.295  14.133 -0.4751  1.3398  1.0030
 8191SOL    HW236210   4.613   2.332  14.040 -0.7165  0.9839  2.1827
 8192SOL     OW36211   1.907   2.920   7.643  0.6308 -0.1030  0.5183
 8192SOL    HW136212   1.819   2.937   7.677  0.0772  0.6946 -1.3298
 8192SOL    HW236213   1.940   3.009   7.655 -1.6241  0.5278  2.0739
 8193SOL     OW36214   1.365   2.410   7.710  0.2867  0.6981  0.0897
 8193SOL    HW136215   1.330   2.359   7.783 -2.9322  0.7759 -1.3631
 8193SOL    HW236216   1.392   2.488   7.758 -1.2770  0.4869  1.3235
 8194SOL     OW36217   1.649   3.897   0.705 -0.2492 -0.3711 -0.0748
 8194SOL    HW136218   1.657   3.987   0.737  0.5564 -0.2748 -0.5350
 8194SOL    HW236219   1.561   3.881   0.739  0.3338  1.0531  2.1025
 8195SOL     OW36220   0.239   1.733   5.376  0.1012  0.0164 -0.0270
 8195SOL    HW136221   0.250   1.650   5.330  0.4496 -0.8121  1.5353
 8195SOL    HW236222   0.154   1.755   5.337  0.2484 -1.7152 -1.3282
 8196SOL     OW36223   2.182   3.863  17.494  0.3584 -0.0500  0.0688
 8196SOL    HW136224   2.150   3.945  17.456  0.0567  0.1442  0.7480
 8196SOL    HW236225   2.271   3.887  17.466  0.1332 -0.9430 -1.4032
 8197SOL     OW36226   0.601   2.132   4.050  0.1590  0.3648  0.6066
 8197SOL    HW136227   0.591   2.044   4.087 -1.1269 -0.6588 -2.1200
 8197SOL    HW236228   0.660   2.116   3.976  0.3108  0.8034  0.6338
 8198SOL     OW36229   2.713   3.964   5.619 -0.0229  0.0701  0.2873
 8198SOL    HW136230   2.734   3.905   5.547  2.8183  1.7012 -0.2521
 8198SOL    HW236231   2.796   4.012   5.623  0.2878 -0.1611 -3.8959
 8199SOL     OW36232   4.377   2.675   6.393  0.3153 -0.1117  0.1224
 8199SOL    HW136233   4.399   2.725   6.314  3.0863 -1.6341 -0.0852
 8199SOL    HW236234   4.290   2.715   6.394  0.4008  0.0632  0.5638
 8200SOL     OW36235   2.723   2.937   7.279 -0.9535  0.0991 -0.5100
 8200SOL    HW136236   2.689   2.848   7.287  2.6180 -1.1487  1.1080
 8200SOL    HW236237   2.661   2.976   7.218  0.1806  0.7592 -1.2508
 8201SOL     OW36238   1.553   3.301   4.687 -0.2095 -0.2120  0.7729
 8201SOL    HW136239   1.544   3.391   4.655  3.1774  0.2210  1.0074
 8201SOL    HW236240   1.609   3.312   4.763  3.1901 -3.2196 -1.2711
 8202SOL     OW36241   1.896   4.359   2.115  0.4116  0.0531 -0.0084
 8202SOL    HW136242   1.861   4.427   2.173 -1.5963 -1.0274  0.0543
 8202SOL    HW236243   1.860   4.408   2.041 -0.1480  0.7419  0.7124
 8203SOL     OW36244   1.832   2.356   5.888 -0.5732 -0.6844  0.4988
 8203SOL    HW136245   1.753   2.353   5.942 -0.3900 -1.5849  0.7206
 8203SOL    HW236246   1.870   2.268   5.881 -0.0224 -0.3905 -0.1324
 8204SOL     OW36247   0.970   0.069   2.501  0.2078 -0.2250 -0.8808
 8204SOL    HW136248   0.975   0.002   2.433 -1.5713  0.2267 -1.4714
 8204SOL    HW236249   0.981   0.148   2.449 -0.3251  0.1328 -0.4435
 8205SOL     OW36250   2.094   3.646  15.830  0.0811 -0.8210 -0.2309
 8205SOL    HW136251   2.098   3.563  15.782  0.1653 -0.7132 -0.4091
 8205SOL    HW236252   1.998   3.651  15.840  0.1555  2.5451 -1.1591
 8206SOL     OW36253   0.146   2.523   8.412 -0.2478 -0.1085 -0.2268
 8206SOL    HW136254   0.188   2.609   8.413 -0.3299 -0.0734  0.3073
 8206SOL    HW236255   0.078   2.548   8.475  0.4859  1.9417 -0.2633
 8207SOL     OW36256   1.417   4.040   1.887 -0.1206 -0.0807  0.1347
 8207SOL    HW136257   1.497   4.023   1.838  0.8645  1.4609  1.2032
 8207SOL    HW236258   1.440   4.016   1.977 -1.8537  0.0882  0.6183
 8208SOL     OW36259   4.599   1.166  10.002 -0.8440  0.0811  0.0316
 8208SOL    HW136260   4.637   1.236   9.949  1.3554  0.0986  1.6192
 8208SOL    HW236261   4.509   1.197  10.009 -0.6400  0.4924  0.8684
 8209SOL     OW36262   4.692   2.777   5.029  0.1244  0.5329  0.1091
 8209SOL    HW136263   4.689   2.872   5.037 -0.6476  0.4792  0.4247
 8209SOL    HW236264   4.709   2.755   4.937  0.3325 -1.0662  0.5296
 8210SOL     OW36265   4.499   2.701  13.191 -0.1122  0.3170 -0.0360
 8210SOL    HW136266   4.569   2.647  13.228  0.7129  0.2485 -1.7023
 8210SOL    HW236267   4.549   2.714  13.110  1.4213 -1.4567  0.6310
 8211SOL     OW36268   1.127   0.259   7.897 -0.4994  0.1880  0.1355
 8211SOL    HW136269   1.194   0.248   7.964 -1.0036  0.7103  0.7298
 8211SOL    HW236270   1.160   0.203   7.827 -1.2285  0.4795 -0.4471
 8212SOL     OW36271   0.451   2.711   9.982  0.4191  0.5327 -0.0530
 8212SOL    HW136272   0.511   2.776   9.944 -0.0165 -0.8892 -3.1377
 8212SOL    HW236273   0.394   2.699   9.906  0.8067 -0.0139 -0.2551
 8213SOL     OW36274   3.982   0.095  14.562 -0.5950 -0.4123 -0.3385
 8213SOL    HW136275   3.933   0.039  14.501 -1.4796  1.0575 -0.9795
 8213SOL    HW236276   3.980   0.180  14.519 -0.9878 -0.2349  0.0241
 8214SOL     OW36277   1.296   2.894   6.184  0.2259  0.2086 -0.3033
 8214SOL    HW136278   1.322   2.935   6.267 -0.1553  0.3678 -0.2610
 8214SOL    HW236279   1.367   2.873   6.124  1.0033  3.8541 -0.6469
 8215SOL     OW36280   1.985   0.338  10.626 -0.2145  0.4253 -0.4085
 8215SOL    HW136281   1.969   0.300  10.712 -4.1500 -0.3084 -1.5023
 8215SOL    HW236282   2.080   0.351  10.619  0.5372 -4.2845  0.8120
 8216SOL     OW36283   1.830   3.159   6.096  0.0158 -0.2915  0.4815
 8216SOL    HW136284   1.768   3.230   6.113  1.3266  0.9240  0.1805
 8216SOL    HW236285   1.893   3.202   6.039 -1.5098 -0.6713 -1.4855
 8217SOL     OW36286   1.434   0.057  17.318 -0.1474  0.5143  0.0604
 8217SOL    HW136287   1.379   0.074  17.241  1.1857 -1.6302 -1.3933
 8217SOL    HW236288   1.428   0.139  17.366  0.0998 -0.5924  1.9761
 8218SOL     OW36289   4.449   4.091   2.363  0.0493 -0.0638  0.0994
 8218SOL    HW136290   4.382   4.106   2.297  1.3532  2.1983 -0.7182
 8218SOL    HW236291   4.532   4.071   2.318  1.2802 -0.9325  2.7663
 8219SOL     OW36292   3.882   2.139   7.691 -0.0960 -0.1720 -0.1599
 8219SOL    HW136293   3.876   2.215   7.633 -0.5535 -1.7880 -2.2362
 8219SOL    HW236294   3.844   2.067   7.641 -1.0621  0.0115  0.3244
 8220SOL     OW36295   2.047   1.125   8.807  0.0341 -0.3409  0.1874
 8220SOL    HW136296   2.023   1.199   8.862 -0.9285 -0.7647  0.3291
 8220SOL    HW236297   2.001   1.144   8.725 -0.5671 -0.7031  0.4474
 8221SOL     OW36298   0.973   3.785   4.095 -0.1488 -0.1461 -0.0193
 8221SOL    HW136299   0.983   3.703   4.046 -0.7617 -0.7396  0.8704
 8221SOL    HW236300   1.021   3.765   4.175  0.7528  2.9522  0.1857
 8222SOL     OW36301   2.105   3.669   2.931 -0.0107 -0.0346  0.3410
 8222SOL    HW136302   2.151   3.588   2.955 -1.4199 -1.5554 -2.0346
 8222SOL    HW236303   2.033   3.637   2.877  1.0775 -0.4111 -0.8991
 8223SOL     OW36304   3.702   4.075   6.818  0.1922  0.6209 -0.1455
 8223SOL    HW136305   3.779   4.019   6.824 -2.3182 -2.8102  0.2947
 8223SOL    HW236306   3.710   4.135   6.892 -0.7740 -0.7182  1.0421
 8224SOL     OW36307   3.309   0.210   5.909  0.4934 -0.0108 -0.0860
 8224SOL    HW136308   3.383   0.247   5.957  0.5402  1.0299 -0.9424
 8224SOL    HW236309   3.355   0.141   5.862 -0.0768 -0.8268  0.5720
 8225SOL     OW36310   0.001   0.517  11.417  0.0836  0.0762 -0.5040
 8225SOL    HW136311   4.711   0.599  11.375 -1.0105  0.1562  0.3428
 8225SOL    HW236312   0.092   0.503  11.392  0.2443 -1.2923  0.8345
 8226SOL     OW36313   0.963   1.714   7.716  0.5680 -0.0697 -0.0673
 8226SOL    HW136314   0.891   1.746   7.771 -0.6212 -2.0866 -0.4327
 8226SOL    HW236315   1.028   1.744   7.780 -0.6512  2.0732  0.1466
 8227SOL     OW36316   1.329   1.521   6.974 -0.1025 -0.7228  0.7704
 8227SOL    HW136317   1.269   1.446   6.971  1.0945 -1.5445 -2.2620
 8227SOL    HW236318   1.377   1.511   6.892  1.6116 -0.0203  1.7039
 8228SOL     OW36319   1.896   1.097   2.660 -0.2760 -0.3109 -0.6947
 8228SOL    HW136320   1.817   1.127   2.616  1.4701  1.3691 -2.6653
 8228SOL    HW236321   1.964   1.140   2.609 -1.4022  1.9357 -0.2976
 8229SOL     OW36322   4.668   3.021   6.446 -0.6533 -0.3392 -0.0577
 8229SOL    HW136323   0.008   3.017   6.504 -0.6037  1.7217  0.0422
 8229SOL    HW236324   4.595   3.032   6.507  1.0014  3.0489  1.3228
 8230SOL     OW36325   1.693   3.041   4.107  0.2195  0.5295  0.0200
 8230SOL    HW136326   1.748   2.974   4.067  0.1074  0.5772 -0.2183
 8230SOL    HW236327   1.660   2.999   4.186  0.9284  0.0281  0.0424
 8231SOL     OW36328   1.457   0.342  12.939 -0.0165  0.1754  0.6228
 8231SOL    HW136329   1.370   0.354  12.977 -0.4655 -1.1982  0.0539
 8231SOL    HW236330   1.477   0.435  12.940  0.6472  0.0635 -1.0224
 8232SOL     OW36331   0.224   0.784  10.694  0.2459  0.5901  0.0460
 8232SOL    HW136332   0.193   0.846  10.760 -0.2916 -0.4925  0.7992
 8232SOL    HW236333   0.319   0.777  10.704  0.2551  0.7101  0.0423
 8233SOL     OW36334   1.029   0.557  11.254 -0.2230 -0.1178  0.4096
 8233SOL    HW136335   1.062   0.608  11.180 -0.0212 -0.7555  0.0586
 8233SOL    HW236336   0.966   0.616  11.296  1.3428  1.0458  1.1099
 8234SOL     OW36337   3.522   0.621   5.899 -0.3622 -0.4179  0.5059
 8234SOL    HW136338   3.583   0.685   5.937  1.2429 -0.8167 -1.3845
 8234SOL    HW236339   3.585   0.566   5.852  0.5144  1.4033 -0.4095
 8235SOL     OW36340   0.615   4.597   4.172 -0.2146  0.5723  0.0892
 8235SOL    HW136341   0.645   4.509   4.196  0.1920  0.9566  1.0285
 8235SOL    HW236342   0.685   4.649   4.132  0.3662  1.5056  2.2891
 8236SOL     OW36343   3.719   2.888  17.050  0.3499  0.7626 -0.6533
 8236SOL    HW136344   3.758   2.960  17.001  0.5956  1.0476 -0.0493
 8236SOL    HW236345   3.653   2.933  17.103  0.0632  1.0703 -1.2748
 8237SOL     OW36346   4.392   2.342  15.365  0.4529 -0.2167 -0.1064
 8237SOL    HW136347   4.420   2.417  15.313  0.8819 -0.1383  0.2381
 8237SOL    HW236348   4.351   2.390  15.437  0.3390 -0.1854 -0.1918
 8238SOL     OW36349   3.148   0.497   7.243  0.2031 -0.3559  0.8831
 8238SOL    HW136350   3.063   0.462   7.218  0.2902 -0.3144  0.5242
 8238SOL    HW236351   3.131   0.479   7.336 -0.3330 -0.9188  0.6703
 8239SOL     OW36352   2.898   4.657  14.522 -0.3291 -0.2407 -0.1389
 8239SOL    HW136353   2.943   4.712  14.458  0.7566  0.2467  1.0485
 8239SOL    HW236354   2.967   4.598  14.554  0.4458  1.0238  0.5157
 8240SOL     OW36355   0.100   0.487   4.577 -0.1035  0.1980  0.2142
 8240SOL    HW136356   0.020   0.518   4.535 -0.3855 -0.0831  0.5499
 8240SOL    HW236357   0.069   0.496   4.667 -0.8182  0.4490 -0.0540
 8241SOL     OW36358   0.497   0.623   8.660  0.2540 -0.4879  0.1148
 8241SOL    HW136359   0.526   0.641   8.571  0.7332  0.1041  0.3978
 8241SOL    HW236360   0.466   0.709   8.686  0.9014 -0.2890  0.2196
 8242SOL     OW36361   2.642   2.252   5.207 -0.2519 -0.2220 -0.2434
 8242SOL    HW136362   2.620   2.279   5.296 -0.1942 -1.2029  0.0655
 8242SOL    HW236363   2.691   2.326   5.172  1.0700 -0.1354  1.8071
 8243SOL     OW36364   4.036   3.917   3.134  0.2475 -0.1756  0.2275
 8243SOL    HW136365   3.976   3.972   3.184  0.8141  2.0943 -1.5724
 8243SOL    HW236366   4.046   3.832   3.178  0.0360 -0.2084  0.2132
 8244SOL     OW36367   2.768   0.288  14.582 -0.0806  0.7380  0.2176
 8244SOL    HW136368   2.712   0.212  14.600 -2.6694  2.3579 -1.0485
 8244SOL    HW236369   2.824   0.290  14.660 -0.4345 -2.0002  0.5617
 8245SOL     OW36370   2.300   2.723   1.699 -0.0257  0.0182  0.9090
 8245SOL    HW136371   2.366   2.664   1.661  0.2692  1.2020 -0.4321
 8245SOL    HW236372   2.340   2.809   1.684  0.8625 -0.7728 -1.3913
 8246SOL     OW36373   2.270   4.033   0.839  0.4299 -0.3354 -0.4188
 8246SOL    HW136374   2.219   3.957   0.867  0.3520  0.7852  2.4556
 8246SOL    HW236375   2.210   4.063   0.770  1.0726  1.0164 -0.3901
 8247SOL     OW36376   2.526   3.013  15.722  0.1063  0.1868  0.2133
 8247SOL    HW136377   2.598   3.017  15.660 -1.4944 -1.0632 -1.7319
 8247SOL    HW236378   2.559   3.075  15.788 -2.7499  0.4541  1.4042
 8248SOL     OW36379   0.402   2.870   7.476  0.3436 -0.0713  0.5169
 8248SOL    HW136380   0.490   2.835   7.475  0.0933 -0.6913  0.3594
 8248SOL    HW236381   0.359   2.801   7.527  1.3463 -1.2875 -0.2998
 8249SOL     OW36382   0.983   0.658   4.182 -0.5469  0.3566 -0.0068
 8249SOL    HW136383   0.933   0.591   4.135 -0.6645 -0.5268  1.3751
 8249SOL    HW236384   0.947   0.742   4.156  0.1779  0.1196 -1.8107
 8250SOL     OW36385   0.026   2.859  13.910  0.3248 -0.3391 -0.2672
 8250SOL    HW136386   0.077   2.898  13.981 -0.6436  1.4324 -0.5576
 8250SOL    HW236387   4.734   2.773  13.941 -0.5209  1.0788  2.8706
 8251SOL     OW36388   2.695   3.205   9.527  0.0168 -0.1155 -0.6390
 8251SOL    HW136389   2.652   3.134   9.575  0.1201  0.4697  0.3225
 8251SOL    HW236390   2.616   3.259   9.518  0.4044  0.3411 -1.2936
 8252SOL     OW36391   1.593   2.020   7.003  0.5196 -0.1980 -0.2936
 8252SOL    HW136392   1.537   1.990   7.075  0.9458 -0.3586 -0.0316
 8252SOL    HW236393   1.587   1.945   6.944 -0.0727 -1.2218  1.0695
 8253SOL     OW36394   0.240   3.665   7.454  0.0529 -0.3313 -0.3158
 8253SOL    HW136395   0.334   3.655   7.467 -0.0275 -0.8823 -0.1640
 8253SOL    HW236396   0.222   3.590   7.398 -0.4854  0.2439 -0.9100
 8254SOL     OW36397   2.074   3.207   1.573  0.2873  0.1164 -0.3733
 8254SOL    HW136398   2.014   3.224   1.646 -0.9035  2.2302 -1.8533
 8254SOL    HW236399   2.009   3.184   1.507  0.9489 -1.5290 -0.4519
 8255SOL     OW36400   3.223   2.977   1.676 -0.2251  0.0157  0.2179
 8255SOL    HW136401   3.248   2.946   1.763  0.8731  0.2586 -0.0092
 8255SOL    HW236402   3.221   2.898   1.622  1.9371 -1.3158  2.1077
 8256SOL     OW36403   1.502   2.549   5.828  0.2245  0.4542 -0.4629
 8256SOL    HW136404   1.439   2.615   5.799  1.2179  1.9274  0.7334
 8256SOL    HW236405   1.575   2.608   5.845  0.7821 -0.6032  0.7894
 8257SOL     OW36406   4.348   4.676  12.024 -0.1424 -0.0933 -0.4323
 8257SOL    HW136407   4.356   4.697  12.117  3.5080 -0.7689 -0.5930
 8257SOL    HW236408   4.292   0.011  11.994 -0.6526  0.2151  1.2591
 8258SOL     OW36409   4.385   0.447   4.127  0.5958  0.2999 -0.5614
 8258SOL    HW136410   4.445   0.400   4.070 -0.0738 -1.9171  0.5486
 8258SOL    HW236411   4.443   0.522   4.131  0.8780  0.0133  0.8655
 8259SOL     OW36412   0.269   2.582   2.593 -0.1846 -0.2874  0.0092
 8259SOL    HW136413   0.344   2.624   2.551 -1.6717  2.6237  0.2424
 8259SOL    HW236414   0.213   2.659   2.602  2.1633  1.4318 -0.0654
 8260SOL     OW36415   2.018   3.848   9.685  0.2661 -0.1667  0.2446
 8260SOL    HW136416   2.020   3.789   9.760 -0.6883  0.6509  0.9258
 8260SOL    HW236417   2.085   3.913   9.705  1.1388 -1.0733  0.2171
 8261SOL     OW36418   2.297   4.459   0.293  0.2395  0.8517  0.3833
 8261SOL    HW136419   2.239   4.453   0.370 -0.9851 -0.2287 -0.6328
 8261SOL    HW236420   2.246   4.514   0.234 -0.6541  1.2328  1.5009
 8262SOL     OW36421   2.917   1.845   8.424  0.3017 -0.2357  0.0046
 8262SOL    HW136422   2.896   1.836   8.331  1.1670 -3.8735  0.1564
 8262SOL    HW236423   2.987   1.782   8.438  0.8128  0.4393  0.5187
 8263SOL     OW36424   1.369   2.273   4.731  0.0185  0.0192 -0.3840
 8263SOL    HW136425   1.300   2.232   4.784 -1.0994  2.4310  0.0356
 8263SOL    HW236426   1.337   2.249   4.644  1.7156 -1.1912 -0.6637
 8264SOL     OW36427   4.378   0.935   3.967  0.4890  0.3449  0.0039
 8264SOL    HW136428   4.318   0.861   3.976  0.8073  0.0809 -0.0292
 8264SOL    HW236429   4.456   0.884   3.944  0.8823 -0.7459  3.6645
 8265SOL     OW36430   3.460   1.747   3.787  0.6811 -0.0855  0.1959
 8265SOL    HW136431   3.420   1.700   3.714  0.1367  0.4668  0.1357
 8265SOL    HW236432   3.396   1.739   3.859  0.8831  1.4851  0.5605
 8266SOL     OW36433   3.917   0.646   4.365  0.2491  0.1833  0.0461
 8266SOL    HW136434   4.008   0.619   4.360  0.2804  0.3613 -0.3374
 8266SOL    HW236435   3.918   0.693   4.282 -3.4399  2.1329  1.0875
 8267SOL     OW36436   3.669   0.739   4.440 -0.1230  0.4531 -0.3998
 8267SOL    HW136437   3.749   0.688   4.426 -0.2948  0.1770 -0.3601
 8267SOL    HW236438   3.690   0.816   4.388 -2.7413  0.1767 -1.8562
 8268SOL     OW36439   4.406   4.712   1.926 -0.2750  0.1768 -0.3369
 8268SOL    HW136440   4.387   0.068   1.943  1.8721  0.9194 -2.0111
 8268SOL    HW236441   4.379   4.668   2.006  1.0965 -2.7409 -1.4932
 8269SOL     OW36442   4.282   0.471   3.734 -0.2701  0.1214 -0.2287
 8269SOL    HW136443   4.335   0.528   3.678  0.3365  0.3461  0.5644
 8269SOL    HW236444   4.250   0.395   3.685  0.0758 -0.1963  0.0389
 8270SOL     OW36445   0.037   3.699   1.087  0.2667  0.1211  0.1233
 8270SOL    HW136446   0.070   3.645   1.159  1.9498  1.7347  0.5563
 8270SOL    HW236447   0.050   3.651   1.005  2.4089 -0.9522  1.0882
 8271SOL     OW36448   1.378   2.111   9.636  0.3638  0.3292  0.0532
 8271SOL    HW136449   1.438   2.125   9.710  1.4749 -0.8822 -0.6038
 8271SOL    HW236450   1.444   2.125   9.568  2.0937  1.3759  1.9424
 8272SOL     OW36451   3.488   3.503  10.349 -0.0514 -0.1632 -0.3286
 8272SOL    HW136452   3.580   3.524  10.369  0.0993 -2.1575  1.1332
 8272SOL    HW236453   3.442   3.525  10.430  1.5197  0.8708  0.2930
 8273SOL     OW36454   3.741   3.399   5.720  0.0050 -0.0533 -0.0082
 8273SOL    HW136455   3.656   3.395   5.675 -0.1226  0.1193  0.2188
 8273SOL    HW236456   3.795   3.450   5.659 -1.9381  0.9099 -0.9086
 8274SOL     OW36457   0.002   3.702   7.177  0.3670  0.0267  0.2567
 8274SOL    HW136458   0.066   3.654   7.124 -0.7300 -1.1952  0.0291
 8274SOL    HW236459   4.685   3.628   7.204  0.4162 -0.7169 -1.6313
 8275SOL     OW36460   1.247   4.073   9.430 -0.0100 -0.1622  0.1872
 8275SOL    HW136461   1.248   4.105   9.520  0.8096 -1.1385  0.5292
 8275SOL    HW236462   1.317   4.008   9.426  0.1156  0.1023 -1.9901
 8276SOL     OW36463   3.437   0.068   3.726  0.6078 -0.1265 -0.2077
 8276SOL    HW136464   3.442   0.107   3.814  1.5552  0.4636 -0.5171
 8276SOL    HW236465   3.413   4.714   3.738  0.6919  0.0482  1.3791
 8277SOL     OW36466   3.660   3.133   1.580  0.0071  0.1527 -0.3091
 8277SOL    HW136467   3.583   3.096   1.538  0.5505 -3.0364  1.5365
 8277SOL    HW236468   3.616   3.191   1.642  1.5115 -0.4829  1.3176
 8278SOL     OW36469   3.421   2.017   6.082 -0.9252 -0.5146  0.0597
 8278SOL    HW136470   3.352   1.974   6.132 -1.6326  0.3788 -0.1367
 8278SOL    HW236471   3.388   2.014   5.992 -0.4872 -1.2060 -0.0801
 8279SOL     OW36472   2.869   2.085   0.890 -0.3767 -0.2210  0.3022
 8279SOL    HW136473   2.885   2.097   0.796  1.5228  0.0398  0.6496
 8279SOL    HW236474   2.955   2.058   0.923 -1.1185 -1.5833  1.1086
 8280SOL     OW36475   3.491   2.390   6.628  0.1360 -0.8843 -0.5379
 8280SOL    HW136476   3.441   2.395   6.709 -0.2970  0.2497 -0.8713
 8280SOL    HW236477   3.575   2.426   6.656 -1.6934  1.8871  1.4197
 8281SOL     OW36478   2.490   0.015   4.912  0.2016 -0.1997  0.4215
 8281SOL    HW136479   2.471   0.107   4.892  0.0790 -0.4881 -0.7907
 8281SOL    HW236480   2.529   0.026   4.999  0.3261 -1.2268  0.4905
 8282SOL     OW36481   2.047   2.396  11.950  0.2495  0.0193  0.2313
 8282SOL    HW136482   1.986   2.462  11.916  0.6503 -0.3927 -1.2508
 8282SOL    HW236483   2.010   2.379  12.037  0.4114 -0.5434  0.1907
 8283SOL     OW36484   4.709   2.148   6.663  0.1068  0.1365 -0.6648
 8283SOL    HW136485   0.012   2.217   6.609  0.7383  0.4463  0.2083
 8283SOL    HW236486   0.044   2.097   6.699 -0.8130 -1.4434 -1.0837
 8284SOL     OW36487   3.414   0.572  10.708  0.8754  0.5509 -0.3297
 8284SOL    HW136488   3.449   0.576  10.797 -2.2746 -1.9739  1.0207
 8284SOL    HW236489   3.491   0.615  10.670  1.3345  0.4802  0.5449
 8285SOL     OW36490   3.805   0.937   6.438 -0.1393 -0.2291  0.2210
 8285SOL    HW136491   3.765   1.022   6.452 -0.6988 -0.3487 -0.6438
 8285SOL    HW236492   3.846   0.925   6.523 -0.9592  0.4785  0.7083
 8286SOL     OW36493   2.301   2.937   0.141  0.2720 -0.2934 -0.4078
 8286SOL    HW136494   2.261   2.858   0.179 -0.4317  0.1236 -0.2810
 8286SOL    HW236495   2.223   2.987   0.115  1.4718  1.9445  0.3507
 8287SOL     OW36496   2.872   2.289   6.671 -0.2683  0.0350 -0.2559
 8287SOL    HW136497   2.907   2.335   6.746 -1.1355 -0.4954  0.4786
 8287SOL    HW236498   2.841   2.208   6.712  1.4052  0.6261  2.1545
 8288SOL     OW36499   1.408   4.252   4.890 -0.5390  0.9366 -0.1610
 8288SOL    HW136500   1.343   4.302   4.940 -0.0299  1.0593  0.3819
 8288SOL    HW236501   1.362   4.169   4.881 -0.2990  0.7160  0.6877
 8289SOL     OW36502   3.693   0.206   8.343 -0.1948  0.0666  0.1998
 8289SOL    HW136503   3.732   0.286   8.380  1.9243 -1.9050  2.2256
 8289SOL    HW236504   3.651   0.159   8.415 -2.1565  1.0140 -0.3342
 8290SOL     OW36505   2.762   2.270   7.495 -0.0944  0.2759  0.0639
 8290SOL    HW136506   2.792   2.340   7.436  0.3884 -0.0238 -0.0443
 8290SOL    HW236507   2.673   2.258   7.461  0.2306 -0.9112 -0.3721
 8291SOL     OW36508   2.482   0.227   9.646  0.3094  0.1913 -0.9831
 8291SOL    HW136509   2.393   0.223   9.681  0.5995 -0.5498 -0.3394
 8291SOL    HW236510   2.530   0.256   9.724 -2.0687  0.5123  0.3425
 8292SOL     OW36511   2.665   2.902   5.408 -0.3166  0.5048 -0.6295
 8292SOL    HW136512   2.742   2.881   5.355  1.0468  1.2070  1.1237
 8292SOL    HW236513   2.636   2.820   5.447  0.6167 -0.1002 -1.1991
 8293SOL     OW36514   2.516   3.694  16.233 -0.1427 -0.2842 -0.0519
 8293SOL    HW136515   2.549   3.653  16.313  2.0069  1.2868 -0.1165
 8293SOL    HW236516   2.423   3.702  16.252 -0.1745 -1.4376  0.2414
 8294SOL     OW36517   1.386   0.857   9.464 -0.1370  0.1285 -0.6288
 8294SOL    HW136518   1.473   0.898   9.468 -0.7083  1.4147 -1.5169
 8294SOL    HW236519   1.367   0.829   9.554  1.1692 -2.7977 -1.2634
 8295SOL     OW36520   4.312   2.747   4.458 -0.1904 -0.9404  0.1631
 8295SOL    HW136521   4.313   2.659   4.420  1.4675 -0.2332 -1.3992
 8295SOL    HW236522   4.381   2.788   4.408  0.8412 -0.0020  2.3461
 8296SOL     OW36523   2.344   0.259   8.569  0.0599  0.8811  0.0290
 8296SOL    HW136524   2.343   0.197   8.642 -0.1398  0.5134 -0.2857
 8296SOL    HW236525   2.396   0.205   8.509 -0.1439 -0.1792  0.8148
 8297SOL     OW36526   1.627   3.558  11.021 -0.3043  0.1843  0.4597
 8297SOL    HW136527   1.688   3.547  10.948 -0.9478 -0.8696  0.0822
 8297SOL    HW236528   1.656   3.501  11.093 -0.5635  0.6886  0.9645
 8298SOL     OW36529   0.254   1.146   5.205  0.9032 -0.2975 -0.4461
 8298SOL    HW136530   0.198   1.221   5.191  2.3123  1.1705  1.6750
 8298SOL    HW236531   0.337   1.182   5.173  0.3744  1.8080  0.5512
 8299SOL     OW36532   2.245   0.972   8.007  0.4012 -0.5000  0.3623
 8299SOL    HW136533   2.281   0.979   8.096 -2.3368  1.3736  1.3501
 8299SOL    HW236534   2.327   0.981   7.959  1.7092 -2.0453  2.3127
 8300SOL     OW36535   0.834   0.478  14.453 -0.1105 -0.1398 -0.4368
 8300SOL    HW136536   0.770   0.451  14.387  1.8032 -0.6983 -2.0655
 8300SOL    HW236537   0.847   0.570  14.432 -2.0534  0.5099  1.0926
 8301SOL     OW36538   0.849   4.169   5.445 -0.6796  0.1014  0.6603
 8301SOL    HW136539   0.933   4.166   5.399 -1.5183 -0.9094 -0.8138
 8301SOL    HW236540   0.869   4.105   5.514  1.7978 -1.4676 -1.4752
 8302SOL     OW36541   3.777   1.114   8.792  0.0062  0.4130  0.2614
 8302SOL    HW136542   3.775   1.019   8.804 -3.3371  0.5259  0.7547
 8302SOL    HW236543   3.811   1.127   8.704 -0.3040  0.0601  0.0866
 8303SOL     OW36544   1.687   0.132  11.963 -0.3924  0.8613 -0.1428
 8303SOL    HW136545   1.752   0.156  11.897  1.2244 -2.3177  0.2739
 8303SOL    HW236546   1.625   0.204  11.956  0.4078  1.5818  0.1160
 8304SOL     OW36547   4.070   0.956  16.651 -0.8247 -0.1833 -0.8878
 8304SOL    HW136548   4.029   0.965  16.737  0.9637 -0.4836 -0.0061
 8304SOL    HW236549   4.036   0.871  16.624  0.0394 -0.5396 -0.8342
 8305SOL     OW36550   2.686   1.254   2.947 -0.0783  0.1223 -0.4854
 8305SOL    HW136551   2.658   1.210   2.867 -0.0768 -1.2677  0.2750
 8305SOL    HW236552   2.612   1.308   2.975  0.1605  0.2851 -0.1623
 8306SOL     OW36553   3.666   3.697   4.298 -0.0855  0.0347  0.2075
 8306SOL    HW136554   3.583   3.693   4.346 -1.2790  0.6809 -1.7779
 8306SOL    HW236555   3.700   3.610   4.315 -0.2770 -0.2817 -1.0178
 8307SOL     OW36556   2.988   2.653   8.017  0.6162 -0.3524 -0.5549
 8307SOL    HW136557   2.934   2.575   8.030  1.7254 -1.1707 -0.8775
 8307SOL    HW236558   2.991   2.639   7.923 -0.2562  0.4907 -0.6969
 8308SOL     OW36559   0.310   0.950   3.188 -0.0801 -0.3362  0.5157
 8308SOL    HW136560   0.325   0.977   3.098  1.3137 -0.9688  0.5630
 8308SOL    HW236561   0.378   1.005   3.228  0.4074  0.6655 -1.6974
 8309SOL     OW36562   2.555   3.562   9.323  0.1451  0.5497  0.3018
 8309SOL    HW136563   2.601   3.513   9.255  2.0064  0.7612  1.3982
 8309SOL    HW236564   2.491   3.504   9.364  1.1849 -0.5261  0.4193
 8310SOL     OW36565   1.188   3.106  10.369  0.9495  0.1943 -0.2119
 8310SOL    HW136566   1.156   3.188  10.331 -1.2032 -0.8969 -0.7638
 8310SOL    HW236567   1.220   3.070  10.286 -0.2273  1.3232 -1.1753
 8311SOL     OW36568   0.816   2.604  15.655 -0.3300  0.6924  0.5465
 8311SOL    HW136569   0.859   2.612  15.569 -0.4858 -5.4764 -0.0819
 8311SOL    HW236570   0.795   2.512  15.668 -0.7982  0.2908 -3.0258
 8312SOL     OW36571   1.093   1.464   2.348  0.2383  0.1299 -0.9356
 8312SOL    HW136572   1.169   1.412   2.374 -0.4024  0.4697  1.5781
 8312SOL    HW236573   1.101   1.464   2.252 -2.8131  2.2156 -1.2037
 8313SOL     OW36574   2.839   3.675  12.525 -0.3647  0.0328 -0.1269
 8313SOL    HW136575   2.876   3.761  12.545 -0.5809  0.1694 -0.3137
 8313SOL    HW236576   2.923   3.643  12.493  0.1656 -0.4789  1.7896
 8314SOL     OW36577   0.744   2.867  14.019  0.1659 -0.1049 -0.4309
 8314SOL    HW136578   0.768   2.910  14.101  0.8499 -1.9562  0.3138
 8314SOL    HW236579   0.663   2.820  14.039  0.5147 -0.3426  0.3785
 8315SOL     OW36580   2.952   1.057   2.343  0.0016  0.1773  0.1878
 8315SOL    HW136581   3.006   0.983   2.316  0.3801  0.8018 -0.7752
 8315SOL    HW236582   2.963   1.131   2.283 -1.3225 -0.4216 -0.8080
 8316SOL     OW36583   4.065   4.708   5.235 -0.0122 -0.2131 -0.0467
 8316SOL    HW136584   4.001   0.039   5.257 -1.9198 -1.9516 -0.1558
 8316SOL    HW236585   4.022   4.643   5.180  1.1111  0.3436 -1.5630
 8317SOL     OW36586   3.625   0.314  11.065  0.1521 -0.0470  0.3783
 8317SOL    HW136587   3.602   0.271  11.148 -2.2933 -0.6737 -0.6234
 8317SOL    HW236588   3.569   0.257  11.011  1.4559 -0.0845 -0.9269
 8318SOL     OW36589   1.386   4.669   4.429 -0.5027  0.5172  0.1825
 8318SOL    HW136590   1.467   4.721   4.434 -0.3100  0.0877  1.6260
 8318SOL    HW236591   1.422   4.581   4.422 -0.4888  0.5498 -0.1231
 8319SOL     OW36592   4.040   4.693  11.557  0.0638 -0.5722  0.0903
 8319SOL    HW136593   4.074   0.039  11.590 -0.1985 -0.4539  0.0618
 8319SOL    HW236594   3.952   4.679  11.592 -0.7892  3.2594 -0.5671
 8320SOL     OW36595   3.842   2.653   4.965  0.1915  0.1772  0.4753
 8320SOL    HW136596   3.848   2.564   4.998 -0.2535  0.2731  0.8210
 8320SOL    HW236597   3.892   2.649   4.884  0.7848 -0.7860  0.8984
 8321SOL     OW36598   1.963   1.351   5.613  0.1475 -0.2398 -0.4913
 8321SOL    HW136599   1.870   1.368   5.629 -0.0736 -1.7796 -0.1808
 8321SOL    HW236600   1.992   1.309   5.694  1.6063  0.9914 -0.3821
 8322SOL     OW36601   1.159   1.759   6.342 -0.3703  0.4666  0.0652
 8322SOL    HW136602   1.173   1.669   6.371 -1.7532  0.1599 -0.2482
 8322SOL    HW236603   1.241   1.774   6.295 -0.0352  2.8846  1.4212
 8323SOL     OW36604   3.524   4.190   5.742 -0.0917  0.0146  0.1547
 8323SOL    HW136605   3.512   4.212   5.835 -0.4534  0.1280  0.0820
 8323SOL    HW236606   3.436   4.152   5.737  0.0524 -0.6675  2.6581
 8324SOL     OW36607   2.986   3.738   4.903 -0.1310 -0.2440  0.4232
 8324SOL    HW136608   2.998   3.667   4.967 -1.3593  0.1813  1.1199
 8324SOL    HW236609   3.081   3.754   4.898 -0.0423  0.1497  3.3739
 8325SOL     OW36610   2.825   1.489   8.873 -0.3589 -0.1678 -0.1928
 8325SOL    HW136611   2.750   1.481   8.813 -1.3911  0.7214  0.9799
 8325SOL    HW236612   2.844   1.395   8.870  2.1630  0.3434 -0.2319
 8326SOL     OW36613   2.458   1.310   5.784 -0.2562  0.2924 -0.0318
 8326SOL    HW136614   2.521   1.363   5.736 -1.0238 -0.6331 -2.0550
 8326SOL    HW236615   2.430   1.379   5.844 -0.9205 -0.6006  0.6880
 8327SOL     OW36616   0.638   0.603   3.619  0.8452  0.1860  0.4466
 8327SOL    HW136617   0.683   0.684   3.594  0.4962  0.4076  0.5325
 8327SOL    HW236618   0.632   0.553   3.538  0.7478  2.4295 -0.9255
 8328SOL     OW36619   1.293   4.549  10.294 -0.4422  0.0989  0.0513
 8328SOL    HW136620   1.218   4.594  10.254  1.2131  3.8427  1.0981
 8328SOL    HW236621   1.250   4.533  10.378 -1.2649 -1.1824 -0.6233
 8329SOL     OW36622   2.770   1.976   6.855 -0.4174 -0.8295  0.3237
 8329SOL    HW136623   2.829   1.908   6.823 -0.8913 -1.4252  0.7339
 8329SOL    HW236624   2.696   1.969   6.794 -0.1961 -2.1459  0.2020
 8330SOL     OW36625   4.675   3.065   0.095 -0.0783  0.1256 -0.0157
 8330SOL    HW136626   0.028   3.089   0.075  0.2577 -0.4778  0.7469
 8330SOL    HW236627   4.645   3.068   0.005  3.5040 -1.1112 -1.2633
 8331SOL     OW36628   1.299   3.241   1.109  0.0185  0.0170 -0.1555
 8331SOL    HW136629   1.313   3.163   1.162 -3.9166 -1.1945 -0.9064
 8331SOL    HW236630   1.239   3.290   1.165  2.4919  1.7509  1.0006
 8332SOL     OW36631   1.305   1.620   8.203  0.6327  0.2021  0.4921
 8332SOL    HW136632   1.328   1.556   8.136 -0.2724 -1.1520  1.4812
 8332SOL    HW236633   1.209   1.619   8.202  0.6606 -0.2052 -1.2022
 8333SOL     OW36634   0.083   2.771   0.853 -0.4987  0.2549 -0.1297
 8333SOL    HW136635   0.006   2.750   0.906  0.1209 -0.2023  0.5739
 8333SOL    HW236636   0.129   2.688   0.861 -1.6680 -0.3965 -0.1318
 8334SOL     OW36637   1.924   0.453   3.365 -0.0649  0.1738  0.2868
 8334SOL    HW136638   1.969   0.538   3.368 -0.8256  0.6257 -1.2235
 8334SOL    HW236639   1.851   0.479   3.310  0.0828  0.7899  0.3802
 8335SOL     OW36640   0.783   0.891   6.954  0.4643 -0.1095  0.5681
 8335SOL    HW136641   0.748   0.816   6.905 -1.2600  0.5414  0.7960
 8335SOL    HW236642   0.776   0.862   7.045 -1.4257 -1.9301 -0.1645
 8336SOL     OW36643   1.298   3.504   8.863 -0.2988  0.4936  0.2653
 8336SOL    HW136644   1.309   3.559   8.941  0.6129 -0.0159  0.4984
 8336SOL    HW236645   1.204   3.488   8.870 -0.4368  0.6750 -1.1848
 8337SOL     OW36646   0.254   0.390   8.181 -0.4035 -0.3499 -0.4928
 8337SOL    HW136647   0.188   0.350   8.238 -0.6054 -0.6041 -0.9057
 8337SOL    HW236648   0.213   0.378   8.096 -3.2926  1.5718  0.6451
 8338SOL     OW36649   0.348   2.766   3.221 -0.0647  0.3004  0.0414
 8338SOL    HW136650   0.289   2.799   3.153  0.1013  1.5025  0.4747
 8338SOL    HW236651   0.387   2.692   3.175 -2.6485 -1.9105  1.4014
 8339SOL     OW36652   1.416   2.803   8.813 -0.0853 -0.0925  0.4135
 8339SOL    HW136653   1.332   2.797   8.859  0.0651 -1.6752  0.4741
 8339SOL    HW236654   1.395   2.846   8.730  2.1725 -3.3011 -1.8043
 8340SOL     OW36655   4.674   3.120   7.189 -0.2788  0.3437 -0.1213
 8340SOL    HW136656   4.580   3.120   7.170 -0.8153  2.6730  2.5469
 8340SOL    HW236657   4.676   3.209   7.223  2.3281  0.0257  0.5656
 8341SOL     OW36658   4.725   2.597  11.349 -0.0534  0.1035 -0.1109
 8341SOL    HW136659   0.033   2.678  11.326 -0.8203  0.5220 -0.1184
 8341SOL    HW236660   4.682   2.580  11.265  0.3791 -1.0318 -0.1025
 8342SOL     OW36661   2.405   4.524  10.976  0.1002  0.2207  0.1033
 8342SOL    HW136662   2.482   4.480  10.940  0.2625 -0.5643  1.3930
 8342SOL    HW236663   2.341   4.497  10.910  0.6633 -0.3520 -0.2032
 8343SOL     OW36664   3.240   3.362   9.472  0.2852  0.0318  0.0992
 8343SOL    HW136665   3.232   3.277   9.429  0.2079 -0.6401  1.4414
 8343SOL    HW236666   3.176   3.414   9.424  0.7954  1.4502  0.9542
 8344SOL     OW36667   3.678   3.034   5.806  0.0521  0.7635 -0.2916
 8344SOL    HW136668   3.644   3.089   5.877 -2.6879 -2.1073  0.6270
 8344SOL    HW236669   3.768   3.066   5.813  0.3267 -0.1744  0.3894
 8345SOL     OW36670   2.019   2.900   4.567 -0.3205 -0.0871 -0.4743
 8345SOL    HW136671   2.003   2.897   4.662 -0.2038  0.7066 -0.4296
 8345SOL    HW236672   2.060   2.986   4.554 -1.6990  1.0333  2.4600
 8346SOL     OW36673   2.727   2.384   8.626 -0.7350  0.1798 -0.6017
 8346SOL    HW136674   2.822   2.370   8.631 -0.8333 -1.0158 -2.3047
 8346SOL    HW236675   2.722   2.469   8.671 -2.1687 -2.1369  3.6635
 8347SOL     OW36676   2.077   1.432   8.747  0.4837 -0.1939  0.1360
 8347SOL    HW136677   2.093   1.440   8.653  0.9856  0.1155  0.2501
 8347SOL    HW236678   2.166   1.425   8.780  1.3755  1.2699 -2.0320
 8348SOL     OW36679   0.062   0.414   2.559 -0.2468  0.4338  0.4664
 8348SOL    HW136680   0.092   0.458   2.638 -0.8696 -0.1212  1.0070
 8348SOL    HW236681   4.709   0.444   2.566 -1.0649 -1.7924 -0.3570
 8349SOL     OW36682   1.119   4.655  11.035  0.1617 -0.0299  0.3126
 8349SOL    HW136683   1.212   4.634  11.026  0.1100  0.1228 -0.5901
 8349SOL    HW236684   1.123   4.708  11.115 -1.8056  0.4169  0.1088
 8350SOL     OW36685   2.990   0.394   4.587  0.1554 -0.1025 -0.3470
 8350SOL    HW136686   3.015   0.423   4.499  1.2569  1.7866  0.5949
 8350SOL    HW236687   2.991   0.475   4.638  1.7383 -0.1773 -0.2653
 8351SOL     OW36688   2.352   0.556   5.391  0.2507  0.0435 -0.1585
 8351SOL    HW136689   2.355   0.488   5.324 -2.3230  0.2686 -0.4729
 8351SOL    HW236690   2.257   0.565   5.397  0.5226  1.0930  2.6640
 8352SOL     OW36691   0.089   2.327   9.818 -0.1218 -0.0583  0.2378
 8352SOL    HW136692   0.072   2.274   9.896  1.8507 -0.8125  0.1562
 8352SOL    HW236693   0.184   2.342   9.819 -0.4923  2.3044  0.5417
 8353SOL     OW36694   3.280   2.094   4.227  0.0136  0.8803  0.1786
 8353SOL    HW136695   3.236   2.041   4.293  2.5820 -1.8143 -0.2526
 8353SOL    HW236696   3.280   2.029   4.157  3.1530  0.9420  0.1153
 8354SOL     OW36697   4.635   3.358  14.623 -0.2927 -0.2822  0.0678
 8354SOL    HW136698   4.585   3.280  14.599 -2.5344  1.7984 -1.9307
 8354SOL    HW236699   4.566   3.404  14.670 -0.4037 -0.2837 -0.0974
 8355SOL     OW36700   0.114   4.180   4.316 -0.2319  0.0558 -0.1900
 8355SOL    HW136701   0.130   4.112   4.250  0.1139  0.8185 -0.8863
 8355SOL    HW236702   0.074   4.246   4.259 -0.8204 -1.2319 -1.2686
 8356SOL     OW36703   2.027   3.481  16.606  0.5228 -0.2509 -0.0792
 8356SOL    HW136704   2.041   3.394  16.645 -1.9719 -0.4623  0.3339
 8356SOL    HW236705   1.986   3.531  16.677  0.4335 -0.5214  0.0614
 8357SOL     OW36706   0.361   3.301   7.739  0.0009 -0.3666  0.3652
 8357SOL    HW136707   0.319   3.232   7.688  0.7182  1.0674 -2.1594
 8357SOL    HW236708   0.427   3.331   7.676 -0.7960  0.6557  0.0084
 8358SOL     OW36709   0.148   0.954  13.926  0.2095 -0.7155 -0.0563
 8358SOL    HW136710   0.134   0.995  13.840 -2.2463  2.0612  1.6879
 8358SOL    HW236711   0.063   0.939  13.967  0.0919  1.5721  0.4862
 8359SOL     OW36712   1.560   1.429   6.569 -0.0826 -0.3326  0.2518
 8359SOL    HW136713   1.579   1.520   6.547  1.4614 -0.3301  1.5843
 8359SOL    HW236714   1.524   1.406   6.483  0.5947  0.1230 -0.1476
 8360SOL     OW36715   2.807   3.819  10.965  0.0129  0.3658 -0.4732
 8360SOL    HW136716   2.738   3.773  11.013 -0.6343  0.2384 -1.5266
 8360SOL    HW236717   2.881   3.802  11.022  0.8008  0.1481 -1.5648
 8361SOL     OW36718   1.449   3.440   3.833 -0.0588  1.1430 -0.4706
 8361SOL    HW136719   1.415   3.530   3.836  0.3770  1.2254  1.7461
 8361SOL    HW236720   1.537   3.453   3.867 -0.4928 -1.1249  1.4899
 8362SOL     OW36721   3.460   2.715  17.669  0.9455  0.0723  0.1858
 8362SOL    HW136722   3.512   2.662  17.730 -1.9702 -2.5186  0.4019
 8362SOL    HW236723   3.412   2.647  17.622 -1.0170  1.8620 -0.4016
 8363SOL     OW36724   3.966   2.641   2.678  0.4874  0.0352 -0.1543
 8363SOL    HW136725   3.898   2.700   2.646 -0.4827 -1.4447 -0.8452
 8363SOL    HW236726   4.036   2.662   2.616 -1.8456 -1.5605 -3.3484
 8364SOL     OW36727   4.402   0.932  10.349 -0.3652 -0.1098 -0.0945
 8364SOL    HW136728   4.494   0.922  10.375 -0.6863 -2.8204 -0.0406
 8364SOL    HW236729   4.401   0.913  10.255 -0.4861 -1.7194  0.2445
 8365SOL     OW36730   4.131   1.920  12.138 -0.3551  0.3607 -0.8207
 8365SOL    HW136731   4.078   1.968  12.202  0.2875  0.1607 -0.1393
 8365SOL    HW236732   4.215   1.959  12.164 -0.9260  1.6689 -0.9158
 8366SOL     OW36733   0.085   0.762   0.415  0.2891 -0.1528 -0.4688
 8366SOL    HW136734   0.135   0.766   0.497  0.5218  1.3655 -0.6852
 8366SOL    HW236735   0.011   0.817   0.440  2.5299  1.9829  1.5179
 8367SOL     OW36736   2.558   2.115   7.276 -0.3216  0.2178  0.3077
 8367SOL    HW136737   2.531   2.121   7.184  1.1579 -0.0941 -0.1439
 8367SOL    HW236738   2.504   2.185   7.314  0.4509  0.7982  0.3263
 8368SOL     OW36739   1.861   2.915   9.364  0.1090  0.2648 -0.5102
 8368SOL    HW136740   1.779   2.960   9.346 -0.0912  0.9916  2.2420
 8368SOL    HW236741   1.824   2.837   9.405 -0.5235  1.3310  0.9162
 8369SOL     OW36742   2.497   1.421   5.447 -0.4742  0.1554 -0.1650
 8369SOL    HW136743   2.450   1.504   5.459 -1.5461 -0.3194 -1.0272
 8369SOL    HW236744   2.571   1.431   5.506 -1.4032  1.2306  0.8146
 8370SOL     OW36745   2.030   3.367   4.612 -0.5179  0.3527 -0.2019
 8370SOL    HW136746   2.053   3.424   4.685 -4.0412  0.6004  0.7499
 8370SOL    HW236747   1.943   3.399   4.587 -0.6973 -0.3112 -0.4161
 8371SOL     OW36748   1.109   2.397   8.528 -0.4345  0.3485  0.6605
 8371SOL    HW136749   1.095   2.475   8.581  1.6821  1.7479 -0.8322
 8371SOL    HW236750   1.037   2.340   8.557  0.0160 -0.3457  0.4371
 8372SOL     OW36751   0.135   3.166  16.317 -0.2353  0.1112 -0.1986
 8372SOL    HW136752   0.230   3.163  16.304 -0.1483  0.6395  0.3436
 8372SOL    HW236753   0.127   3.227  16.390  1.0226  0.3046 -0.2270
 8373SOL     OW36754   0.032   2.967   3.413 -0.0968  0.0572 -0.0928
 8373SOL    HW136755   4.682   2.931   3.429  0.4264 -1.8152 -1.4845
 8373SOL    HW236756   0.084   2.893   3.382  0.4409  0.3143  0.1904
 8374SOL     OW36757   3.510   0.732  16.782 -0.2506 -0.2171  0.0310
 8374SOL    HW136758   3.552   0.673  16.844 -0.1576  0.4661  0.6190
 8374SOL    HW236759   3.466   0.804  16.829  0.5551  1.2022 -1.3795
 8375SOL     OW36760   2.126   3.404  15.686  0.2675 -0.2944 -0.0842
 8375SOL    HW136761   2.083   3.381  15.603 -0.0610  1.3167 -0.3640
 8375SOL    HW236762   2.187   3.330  15.689  1.2860  0.5090 -0.8290
 8376SOL     OW36763   0.840   1.705   5.483 -0.3215 -0.2748 -0.3083
 8376SOL    HW136764   0.905   1.745   5.542 -1.6420 -1.7716  2.1642
 8376SOL    HW236765   0.794   1.656   5.551 -0.9845  0.8973  0.1042
 8377SOL     OW36766   4.713   3.023   0.964  0.2829  0.0277  0.2597
 8377SOL    HW136767   4.672   3.107   0.940  2.1839  0.1220 -2.6189
 8377SOL    HW236768   0.011   2.986   0.883 -0.3386 -1.9971  0.9237
 8378SOL     OW36769   3.111   4.706   7.876 -0.3053 -0.2670  0.0890
 8378SOL    HW136770   3.139   4.620   7.845 -0.0873 -0.3334  0.4700
 8378SOL    HW236771   3.019   4.694   7.855 -0.7011  0.7866  1.2724
 8379SOL     OW36772   3.158   2.535  12.433 -0.3632 -0.2856  0.0538
 8379SOL    HW136773   3.168   2.605  12.497 -0.6439 -0.2232  0.0309
 8379SOL    HW236774   3.189   2.459  12.481  1.3441 -0.8789 -1.9580
 8380SOL     OW36775   1.902   1.974   2.922  0.0849  0.2220 -0.2207
 8380SOL    HW136776   1.976   1.980   2.983  2.4791  0.2841 -3.1444
 8380SOL    HW236777   1.903   1.885   2.887 -2.4283 -0.3422  1.1267
 8381SOL     OW36778   0.324   2.182   9.460  0.2888  0.1473  0.5498
 8381SOL    HW136779   0.380   2.215   9.389  1.1195 -0.7267  0.7926
 8381SOL    HW236780   0.335   2.256   9.519  1.7143 -0.5256  1.1329
 8382SOL     OW36781   2.994   4.118   9.194  0.1874  0.0598 -0.5509
 8382SOL    HW136782   2.989   4.035   9.241  1.0100  1.0651  1.2976
 8382SOL    HW236783   2.971   4.091   9.105 -2.4222 -0.7855  0.3769
 8383SOL     OW36784   1.069   2.411   7.190  0.4774  0.0957  0.1939
 8383SOL    HW136785   0.995   2.466   7.216  1.3842  2.7166 -2.7768
 8383SOL    HW236786   1.139   2.464   7.228  0.1953  1.0252 -0.5982
 8384SOL     OW36787   2.599   2.896  16.568 -0.4239 -0.1855  0.1037
 8384SOL    HW136788   2.626   2.984  16.541  0.5021 -0.5204 -0.0600
 8384SOL    HW236789   2.506   2.899  16.590 -0.8145 -0.3273 -1.4943
 8385SOL     OW36790   2.229   3.636  12.023  0.3018  0.6447  0.4831
 8385SOL    HW136791   2.306   3.668  12.069  1.9506 -0.1577 -1.7327
 8385SOL    HW236792   2.164   3.640  12.093 -0.8617 -0.7006 -0.5149
 8386SOL     OW36793   1.019   3.007   3.331 -0.3692 -0.2169 -0.5699
 8386SOL    HW136794   0.989   3.092   3.363  0.7247 -0.3079  0.6794
 8386SOL    HW236795   1.010   2.954   3.410 -0.1025 -1.2058 -1.2020
 8387SOL     OW36796   3.628   4.027  11.642  0.5848  0.0212  0.4138
 8387SOL    HW136797   3.681   4.028  11.721  1.1358  0.0872  0.0411
 8387SOL    HW236798   3.544   3.987  11.662 -0.4977  1.5224 -1.0308
 8388SOL     OW36799   4.344   1.079   6.573  0.2802 -0.1342 -0.0732
 8388SOL    HW136800   4.275   1.062   6.509 -0.5386  0.1513  0.7413
 8388SOL    HW236801   4.401   1.004   6.554 -0.8368 -0.4664 -2.1462
 8389SOL     OW36802   0.727   3.321   6.655 -0.2555 -0.0214  0.6608
 8389SOL    HW136803   0.785   3.392   6.685 -0.2038 -1.2745  3.5710
 8389SOL    HW236804   0.787   3.255   6.621 -2.3338 -1.0350 -0.9319
 8390SOL     OW36805   1.449   0.581   2.989 -0.4165  0.1668 -0.2012
 8390SOL    HW136806   1.461   0.676   2.988  0.1080  0.0998 -0.2603
 8390SOL    HW236807   1.507   0.565   3.064  1.7023  0.8527 -1.6988
 8391SOL     OW36808   0.721   4.358   2.499  0.5398 -0.2460  0.4206
 8391SOL    HW136809   0.689   4.442   2.464 -2.7049 -1.4146  0.6361
 8391SOL    HW236810   0.763   4.384   2.580 -0.4572 -2.0650  1.5160
 8392SOL     OW36811   3.311   1.427  14.965  0.0806  0.5681 -0.2646
 8392SOL    HW136812   3.359   1.506  14.943  0.0067  0.3701 -1.1339
 8392SOL    HW236813   3.229   1.469  14.992 -1.0256 -0.8852 -1.3147
 8393SOL     OW36814   2.428   4.037   8.751  0.0031 -0.6173  0.5890
 8393SOL    HW136815   2.466   4.087   8.823 -1.1882  0.1166  0.7035
 8393SOL    HW236816   2.512   4.019   8.708 -0.8229  0.0281 -1.3138
 8394SOL     OW36817   3.897   1.195   9.039 -0.2336  0.4541  0.3600
 8394SOL    HW136818   3.882   1.149   8.956 -2.2812  0.8825  0.5093
 8394SOL    HW236819   3.849   1.144   9.104  2.2466 -0.0326  1.8135
 8395SOL     OW36820   0.396   2.511   6.849 -0.1681  0.1417  0.4932
 8395SOL    HW136821   0.481   2.526   6.807 -0.1612  0.6249  0.6727
 8395SOL    HW236822   0.336   2.532   6.777 -1.2048 -0.3686  1.2190
 8396SOL     OW36823   2.076   3.440   9.922 -0.0887  0.1298 -0.4226
 8396SOL    HW136824   2.126   3.454  10.002  0.2146 -1.4291 -0.3513
 8396SOL    HW236825   2.003   3.381   9.938  0.1875  0.0843  0.6320
 8397SOL     OW36826   2.042   4.402   5.682 -0.0666 -0.5084  0.2926
 8397SOL    HW136827   1.994   4.415   5.764 -2.7528  2.5689 -1.7518
 8397SOL    HW236828   1.981   4.419   5.609  0.4912  2.8886  0.6458
 8398SOL     OW36829   0.349   3.896  14.480  0.4742 -0.4274  0.3355
 8398SOL    HW136830   0.294   3.861  14.550 -0.3402  0.2652  0.0378
 8398SOL    HW236831   0.409   3.823  14.461  0.4962  0.2815 -2.3035
 8399SOL     OW36832   2.454   2.344  11.821  0.2198 -0.0920 -0.0348
 8399SOL    HW136833   2.540   2.324  11.785  0.3760  0.4677  0.0191
 8399SOL    HW236834   2.417   2.399  11.752  2.4842  0.2104 -0.9976
 8400SOL     OW36835   4.486   2.501   6.041 -0.1623 -0.3129 -0.4779
 8400SOL    HW136836   4.449   2.426   6.086  2.2047 -0.6554  0.8856
 8400SOL    HW236837   4.429   2.573   6.066  0.8285 -0.1808  1.3741
 8401SOL     OW36838   2.346   0.931   1.454  0.5307  0.5527  0.2268
 8401SOL    HW136839   2.317   0.985   1.380  0.7497  1.1111  0.5428
 8401SOL    HW236840   2.417   0.884   1.409 -0.5957 -0.9930  0.0666
 8402SOL     OW36841   4.238   1.588   4.323 -0.3369  0.4421 -0.5458
 8402SOL    HW136842   4.155   1.612   4.282 -0.6661  0.2530  0.0044
 8402SOL    HW236843   4.245   1.494   4.302  2.3769  0.9917 -2.2113
 8403SOL     OW36844   0.173   3.286  11.987  0.0255  0.0753 -0.8801
 8403SOL    HW136845   0.159   3.368  11.941 -1.4859  0.6106  0.5045
 8403SOL    HW236846   0.083   3.272  12.017  0.1261  0.5312 -0.3597
 8404SOL     OW36847   4.635   0.728   9.134 -0.5935  0.5956 -0.2601
 8404SOL    HW136848   4.655   0.793   9.201  1.0994  1.9134 -2.0541
 8404SOL    HW236849   4.540   0.738   9.123 -0.4947  2.1489  0.3566
 8405SOL     OW36850   0.234   0.453   4.218 -0.2955  0.5551  0.0502
 8405SOL    HW136851   0.293   0.404   4.161 -1.4951 -1.3365  0.4204
 8405SOL    HW236852   0.177   0.385   4.254 -0.0670  1.0709  1.3948
 8406SOL     OW36853   0.074   2.078   3.390  0.1700 -0.0380 -0.6085
 8406SOL    HW136854   0.085   2.004   3.449  3.4373  0.6668 -0.3427
 8406SOL    HW236855   0.140   2.135   3.429  0.1195 -0.9641  0.8029
 8407SOL     OW36856   4.095   1.210   9.329 -0.2568  0.2907 -0.3204
 8407SOL    HW136857   4.067   1.136   9.383 -2.0400  1.5312  0.4429
 8407SOL    HW236858   4.030   1.271   9.364  0.6130  1.5391 -0.8988
 8408SOL     OW36859   0.971   2.293   6.016 -0.0237  0.5446  0.4957
 8408SOL    HW136860   0.995   2.234   5.944 -0.8751 -0.5756  1.1353
 8408SOL    HW236861   0.961   2.376   5.968 -1.7500  0.6410  1.0339
 8409SOL     OW36862   0.167   1.204   4.676 -0.2488 -0.1837  1.2201
 8409SOL    HW136863   0.248   1.230   4.633 -1.0608 -1.8225 -1.3029
 8409SOL    HW236864   0.103   1.175   4.611  1.1388  2.5963 -1.4079
 8410SOL     OW36865   2.741   4.504  11.875 -0.0850  0.6575 -0.1859
 8410SOL    HW136866   2.731   4.467  11.963 -1.7443  0.6774 -0.3610
 8410SOL    HW236867   2.714   4.595  11.888  0.6835  0.5987  1.8211
 8411SOL     OW36868   0.103   1.736   5.901  0.2930  0.6658  0.8014
 8411SOL    HW136869   0.175   1.680   5.929 -0.6437 -0.8860  0.1192
 8411SOL    HW236870   0.031   1.678   5.925 -0.6352  0.4611 -2.4657
 8412SOL     OW36871   1.737   3.448   6.133 -0.1565 -0.0252  0.6192
 8412SOL    HW136872   1.771   3.471   6.220  0.0349 -0.9761  0.8007
 8412SOL    HW236873   1.650   3.480   6.152 -1.2410 -2.7851  0.3218
 8413SOL     OW36874   4.105   4.347   7.344  0.4803 -0.1036  0.3247
 8413SOL    HW136875   4.100   4.314   7.434  0.3354 -3.2810 -0.8494
 8413SOL    HW236876   4.064   4.271   7.301  0.6620  0.8127 -1.4716
 8414SOL     OW36877   2.944   3.760   2.123 -0.1548 -0.4407 -0.4778
 8414SOL    HW136878   3.014   3.733   2.184 -0.7867  1.0550  0.9096
 8414SOL    HW236879   2.870   3.733   2.177 -0.0482  0.2217 -0.0044
 8415SOL     OW36880   2.041   3.892  10.091 -0.0303 -0.1887 -0.3231
 8415SOL    HW136881   2.023   3.810  10.045  0.6928 -0.2854 -0.4325
 8415SOL    HW236882   1.953   3.930  10.100  0.7704  1.4510  0.6412
 8416SOL     OW36883   1.324   2.254  11.240 -0.0478 -0.3527 -0.2382
 8416SOL    HW136884   1.347   2.257  11.333 -0.2237  1.9302 -0.2816
 8416SOL    HW236885   1.382   2.181  11.221  0.0083  0.0307 -1.5130
 8417SOL     OW36886   2.372   3.751   7.834 -0.7026 -0.2844 -0.7743
 8417SOL    HW136887   2.316   3.730   7.908  1.6687 -0.0246  1.0926
 8417SOL    HW236888   2.376   3.846   7.824 -0.7709 -0.3161 -1.1130
 8418SOL     OW36889   1.163   0.180   5.672  0.1051 -0.6262  0.2447
 8418SOL    HW136890   1.109   0.257   5.652 -0.0297 -0.9111 -0.5115
 8418SOL    HW236891   1.150   0.167   5.766  1.4613 -2.9112  0.1241
 8419SOL     OW36892   0.441   3.271  12.461  0.2793  0.6212  0.2998
 8419SOL    HW136893   0.372   3.277  12.395  0.4231 -2.1052 -0.1114
 8419SOL    HW236894   0.411   3.339  12.520 -0.2782  0.4785  0.1848
 8420SOL     OW36895   3.107   0.178   0.256 -0.0889  0.0129 -0.3074
 8420SOL    HW136896   3.034   0.123   0.227 -1.2665  2.0514 -1.2064
 8420SOL    HW236897   3.074   0.251   0.309 -1.4716 -0.2548 -0.7900
 8421SOL     OW36898   0.329   2.717   7.694 -0.7796 -0.1657  0.7593
 8421SOL    HW136899   0.386   2.642   7.710  1.2921  1.2280 -0.0068
 8421SOL    HW236900   0.245   2.683   7.724 -1.2174  0.8356  0.6845
 8422SOL     OW36901   1.999   4.581   1.405  0.7154 -0.4156 -0.3681
 8422SOL    HW136902   1.935   4.593   1.334  1.2060 -2.4102 -1.1419
 8422SOL    HW236903   1.979   4.489   1.424 -3.1234  0.3812 -0.5006
 8423SOL     OW36904   3.729   4.435   9.273  0.2843  0.1639  0.4206
 8423SOL    HW136905   3.781   4.437   9.353  1.1791 -1.7638 -0.1297
 8423SOL    HW236906   3.791   4.402   9.207  0.1090  0.6787 -0.0044
 8424SOL     OW36907   2.280   3.858  16.248 -0.2667  0.1384  0.2687
 8424SOL    HW136908   2.197   3.868  16.202 -0.1294  0.8246  0.1793
 8424SOL    HW236909   2.271   3.934  16.305  2.3058 -2.3246  3.9922
 8425SOL     OW36910   1.076   4.191  12.918  0.1374 -0.4531  0.5293
 8425SOL    HW136911   1.151   4.227  12.871  0.6118  0.5593  2.0233
 8425SOL    HW236912   1.086   4.105  12.879 -1.8834 -0.1125 -0.7375
 8426SOL     OW36913   0.047   4.124   6.729 -0.1870  0.3027  0.2427
 8426SOL    HW136914   4.737   4.163   6.803 -0.3689  2.1811 -0.8490
 8426SOL    HW236915   0.019   4.175   6.653 -0.9268 -1.1087 -0.4078
 8427SOL     OW36916   2.650   4.542  16.948 -0.4434 -0.1527 -0.2463
 8427SOL    HW136917   2.675   4.475  17.011 -1.1389 -1.0820 -0.9647
 8427SOL    HW236918   2.650   4.492  16.867  0.7251 -1.1063  0.3470
 8428SOL     OW36919   2.653   2.256   8.391  0.1285 -0.0055  0.1659
 8428SOL    HW136920   2.659   2.308   8.471  1.0401 -0.1798  0.2122
 8428SOL    HW236921   2.731   2.201   8.400 -0.0004 -0.0027  1.2456
 8429SOL     OW36922   1.990   2.988   5.339  0.7793 -0.0047 -0.2792
 8429SOL    HW136923   1.914   3.041   5.312  0.8677 -1.4502 -3.3007
 8429SOL    HW236924   2.062   3.048   5.318  0.5141  0.3740 -0.1213
 8430SOL     OW36925   1.556   3.326  17.405 -0.3103  0.1040 -0.3249
 8430SOL    HW136926   1.636   3.314  17.456 -0.2213 -0.0709 -0.5075
 8430SOL    HW236927   1.492   3.332  17.476  1.0070  1.7300  0.7442
 8431SOL     OW36928   3.964   2.919   1.958 -0.6284  0.0541 -0.1770
 8431SOL    HW136929   4.016   2.898   1.880  0.7113 -1.9585  1.2800
 8431SOL    HW236930   3.958   2.835   2.002 -0.4427  1.3917  2.4179
 8432SOL     OW36931   3.679   3.690  13.428  0.2256 -0.0797  0.2893
 8432SOL    HW136932   3.716   3.610  13.390 -0.3547 -0.1542 -0.1163
 8432SOL    HW236933   3.667   3.741  13.347 -0.2346 -1.2945 -0.4131
 8433SOL     OW36934   0.864   0.695   5.346  0.4255  0.1389  0.6444
 8433SOL    HW136935   0.951   0.733   5.355  0.3568  0.1882  1.1325
 8433SOL    HW236936   0.802   0.765   5.326 -2.3658 -2.5357  0.0595
 8434SOL     OW36937   3.650   0.774   9.280  0.5139 -0.2355 -0.6588
 8434SOL    HW136938   3.567   0.811   9.250  0.4383 -0.2554 -0.4749
 8434SOL    HW236939   3.620   0.721   9.354 -0.0204  0.8662 -0.0790
 8435SOL     OW36940   4.630   3.550   5.152 -0.0156 -0.2143 -0.4044
 8435SOL    HW136941   4.550   3.602   5.142 -0.3853 -0.9894 -1.4199
 8435SOL    HW236942   4.675   3.612   5.209 -0.4443 -0.8772  0.6613
 8436SOL     OW36943   0.879   2.386   3.134  0.5857 -0.0655  0.0367
 8436SOL    HW136944   0.829   2.376   3.053 -1.2201  1.0770  0.9949
 8436SOL    HW236945   0.802   2.385   3.191  1.6252 -0.4981  1.4370
 8437SOL     OW36946   2.339   0.754   9.354  0.0399 -0.0346  0.5611
 8437SOL    HW136947   2.382   0.700   9.288 -0.6028  0.0407  0.0793
 8437SOL    HW236948   2.256   0.771   9.309 -0.7961 -1.6400  1.4837
 8438SOL     OW36949   3.421   0.632   7.290 -0.2039 -0.5208 -0.1098
 8438SOL    HW136950   3.393   0.548   7.327  1.5178 -1.4945 -0.9964
 8438SOL    HW236951   3.516   0.619   7.292 -0.2306 -0.7183 -0.0737
 8439SOL     OW36952   1.561   1.338   3.470 -0.2398 -0.4041  0.7387
 8439SOL    HW136953   1.640   1.284   3.463 -0.5722 -0.5560 -1.5547
 8439SOL    HW236954   1.567   1.394   3.393  0.9642 -3.8250 -1.6630
 8440SOL     OW36955   1.926   0.174   9.232 -0.2685 -0.5126  0.1561
 8440SOL    HW136956   1.853   0.229   9.203  0.1587 -0.6400 -1.1893
 8440SOL    HW236957   1.997   0.238   9.232 -1.4638  0.8067 -0.8468
 8441SOL     OW36958   3.137   1.240   3.530  0.0733 -0.2061 -0.0393
 8441SOL    HW136959   3.199   1.297   3.484 -1.9289  0.9246 -1.3273
 8441SOL    HW236960   3.182   1.225   3.613  0.1292  0.0735 -0.0187
 8442SOL     OW36961   2.647   2.986   2.393  0.0389 -0.6682  0.3430
 8442SOL    HW136962   2.610   2.902   2.369 -0.6952 -1.0022  2.6528
 8442SOL    HW236963   2.739   2.962   2.383  0.2335 -0.3351  1.3255
 8443SOL     OW36964   3.533   0.855   4.663 -0.0246  0.2838  0.1207
 8443SOL    HW136965   3.575   0.802   4.595  0.5417 -0.6705  1.2330
 8443SOL    HW236966   3.535   0.946   4.632 -1.0871  0.3291  0.1842
 8444SOL     OW36967   0.184   3.355   5.676  0.3746  0.2168 -0.4232
 8444SOL    HW136968   0.278   3.338   5.677  0.0425 -1.3027  5.1102
 8444SOL    HW236969   0.175   3.395   5.590 -1.0579 -1.6156 -1.1365
 8445SOL     OW36970   0.726   2.850   5.927  0.0900 -0.0473 -0.3790
 8445SOL    HW136971   0.693   2.765   5.957 -1.6238  1.0859  0.9526
 8445SOL    HW236972   0.651   2.887   5.882  0.4028  0.3464 -0.5722
 8446SOL     OW36973   0.512   4.140   4.309 -0.1657  0.4459 -0.0428
 8446SOL    HW136974   0.465   4.125   4.227 -1.2454  1.6225  0.3599
 8446SOL    HW236975   0.471   4.071   4.359 -1.4623  0.7960 -0.6280
 8447SOL     OW36976   4.227   2.313   4.976 -0.4690 -0.1536  0.1463
 8447SOL    HW136977   4.222   2.394   4.927 -1.1913 -0.1848  0.1730
 8447SOL    HW236978   4.210   2.349   5.063 -2.6427  2.7185 -1.5015
 8448SOL     OW36979   1.355   4.333   3.223 -0.1340 -0.3687 -0.9964
 8448SOL    HW136980   1.358   4.352   3.129  0.8536 -0.5177 -0.9958
 8448SOL    HW236981   1.283   4.392   3.246  1.3689  0.3087  1.9735
 8449SOL     OW36982   0.581   2.289   1.820 -0.8181 -0.3304 -0.3906
 8449SOL    HW136983   0.618   2.321   1.738 -0.4645 -0.5817 -0.3276
 8449SOL    HW236984   0.541   2.370   1.851  1.0984  0.2967  0.4572
 8450SOL     OW36985   2.366   0.003  15.878  0.4009 -0.1908  0.2708
 8450SOL    HW136986   2.414   4.735  15.796  1.0780  0.5995  0.6163
 8450SOL    HW236987   2.423   0.058  15.932 -0.4500 -0.2938  1.2920
 8451SOL     OW36988   1.158   0.160  17.571 -0.1015  0.1189 -0.4348
 8451SOL    HW136989   1.192   0.158  17.482  0.6304  1.0175 -0.1826
 8451SOL    HW236990   1.118   0.247  17.577  0.8579  0.7575 -3.2283
 8452SOL     OW36991   4.435   1.971   0.003  0.2914 -0.0031 -0.2958
 8452SOL    HW136992   4.525   2.002   0.014 -0.0817  1.1910 -0.6110
 8452SOL    HW236993   4.392   2.015   0.077 -0.1880 -0.3061 -0.3953
 8453SOL     OW36994   3.052   2.507   0.911  0.2853  0.6546 -0.6419
 8453SOL    HW136995   2.979   2.523   0.971  0.2281 -0.9786 -0.2556
 8453SOL    HW236996   3.126   2.552   0.951 -0.2722  0.5520  0.5042
 8454SOL     OW36997   2.132   4.443   2.265  0.1741 -0.4193  0.0079
 8454SOL    HW136998   2.093   4.450   2.353 -0.4881 -0.8106 -0.2610
 8454SOL    HW236999   2.068   4.402   2.208  1.6722 -1.6697 -0.7759
 8455SOL     OW37000   3.133   0.668   4.647 -0.1073  0.1788  0.5592
 8455SOL    HW137001   3.141   0.632   4.736 -0.8428 -0.7763  0.2294
 8455SOL    HW237002   3.171   0.756   4.660  1.8110 -0.8848  2.1618
 8456SOL     OW37003   3.829   0.306  14.054 -0.4225  0.3954 -0.2892
 8456SOL    HW137004   3.749   0.280  14.009 -1.8860  1.5322  1.7073
 8456SOL    HW237005   3.789   0.354  14.126 -0.0823  0.3529 -0.0728
 8457SOL     OW37006   2.215   1.593   6.563 -0.1389 -0.0318 -0.3337
 8457SOL    HW137007   2.148   1.526   6.575 -1.8543  1.8844  0.6654
 8457SOL    HW237008   2.162   1.671   6.579  0.8643  0.9503 -1.7567
 8458SOL     OW37009   0.076   0.097   3.135  0.0336  0.8188 -0.3350
 8458SOL    HW137010   0.071   0.191   3.119 -0.5947  0.6353 -1.1701
 8458SOL    HW237011   0.170   0.085   3.118 -0.4832  0.2239 -2.6193
 8459SOL     OW37012   2.247   3.781   2.366  0.7500  0.1037  0.3645
 8459SOL    HW137013   2.167   3.822   2.333  1.5278  1.4449  0.1418
 8459SOL    HW237014   2.237   3.699   2.316 -1.3733  1.2457 -1.0970
 8460SOL     OW37015   2.210   3.002  10.709 -0.0807 -0.2033  0.0984
 8460SOL    HW137016   2.251   2.953  10.638 -2.0744  0.0527 -1.2421
 8460SOL    HW237017   2.207   2.927  10.769 -3.2197 -1.6577 -1.8361
 8461SOL     OW37018   1.486   0.775   8.672 -0.0921 -0.7763 -0.1193
 8461SOL    HW137019   1.540   0.744   8.745 -1.8120 -0.4928  1.2728
 8461SOL    HW237020   1.529   0.859   8.656  0.2555 -0.9482 -0.1052
 8462SOL     OW37021   2.144   0.671   6.560  0.2337 -0.4279 -0.1439
 8462SOL    HW137022   2.055   0.661   6.595  1.0895 -1.8630  1.6430
 8462SOL    HW237023   2.115   0.726   6.487  1.2303  0.1398 -0.1103
 8463SOL     OW37024   3.278   0.994  14.964  0.0696  0.0086  0.2773
 8463SOL    HW137025   3.372   0.979  14.976 -0.0813 -2.6330 -1.9369
 8463SOL    HW237026   3.233   0.921  14.923  1.1846 -0.7822  0.4567
 8464SOL     OW37027   2.304   3.100   5.164 -0.3670  0.6480 -0.5759
 8464SOL    HW137028   2.243   3.168   5.135 -2.3312 -1.3883 -1.1734
 8464SOL    HW237029   2.287   3.102   5.259 -1.0355 -1.4274 -0.6691
 8465SOL     OW37030   3.984   0.444   3.636 -0.2374  0.0266  0.1502
 8465SOL    HW137031   3.925   0.369   3.625 -0.3121  0.0318  0.4962
 8465SOL    HW237032   4.060   0.389   3.618  0.4995  0.6010  1.5246
 8466SOL     OW37033   4.597   3.131   8.385 -0.1736 -0.3740  0.1398
 8466SOL    HW137034   4.522   3.096   8.434  0.7303 -0.3625  1.5428
 8466SOL    HW237035   4.568   3.222   8.385  0.7102 -0.0946 -1.4723
 8467SOL     OW37036   0.226   3.368   4.160 -0.0790  0.1715  0.2874
 8467SOL    HW137037   0.217   3.404   4.072 -0.0377 -0.7435 -0.0941
 8467SOL    HW237038   0.216   3.447   4.213  1.7865  0.3585  0.3762
 8468SOL     OW37039   0.071   2.722  13.624  0.3697 -0.1376  0.5086
 8468SOL    HW137040   0.120   2.640  13.625  0.1700 -0.2874 -1.9551
 8468SOL    HW237041   0.135   2.778  13.666  0.0717  0.6647 -0.1122
 8469SOL     OW37042   3.499   4.125  16.463  0.1600  0.1935 -0.7923
 8469SOL    HW137043   3.405   4.121  16.480  0.2585 -1.5868 -0.5905
 8469SOL    HW237044   3.534   4.053  16.516 -0.7066  0.5764  0.2938
 8470SOL     OW37045   1.296   4.169  11.610  0.3033  0.2656  0.3730
 8470SOL    HW137046   1.223   4.112  11.584  0.6420 -0.2581  0.5665
 8470SOL    HW237047   1.361   4.153  11.541 -0.7572 -0.9736 -0.3368
 8471SOL     OW37048   3.142   1.738   5.648  0.4202  0.2066  0.4024
 8471SOL    HW137049   3.196   1.793   5.592 -0.5966  1.2432  0.4206
 8471SOL    HW237050   3.200   1.732   5.724  1.8136  1.8931 -0.5367
 8472SOL     OW37051   4.131   1.177   6.340 -0.4000  0.1227  0.5200
 8472SOL    HW137052   4.181   1.096   6.346  1.5023  1.0956 -2.0247
 8472SOL    HW237053   4.061   1.145   6.284 -0.8694 -2.7290  2.7732
 8473SOL     OW37054   4.015   2.715  16.532  0.1991  0.2157  0.3217
 8473SOL    HW137055   3.943   2.653  16.525 -1.7706  2.4911  0.3954
 8473SOL    HW237056   3.979   2.758  16.609 -1.5691  0.0506 -0.4090
 8474SOL     OW37057   1.873   0.809   8.086 -0.4288 -0.1475 -0.6821
 8474SOL    HW137058   1.796   0.782   8.136 -0.8188  0.8461 -0.7398
 8474SOL    HW237059   1.888   0.739   8.023 -1.0069  1.3187 -2.4484
 8475SOL     OW37060   2.307   4.118   8.106 -0.1583  0.3210  0.0527
 8475SOL    HW137061   2.262   4.059   8.167  0.1662 -1.2944 -1.2660
 8475SOL    HW237062   2.381   4.063   8.079 -1.6699 -0.8439 -1.7152
 8476SOL     OW37063   0.837   3.338   5.443 -0.0402  0.1733  0.3839
 8476SOL    HW137064   0.758   3.298   5.479 -0.8163  0.4584 -1.0269
 8476SOL    HW237065   0.848   3.298   5.357 -2.1064  0.4315  0.0072
 8477SOL     OW37066   4.219   2.372   4.627  0.1283 -0.0586  0.0540
 8477SOL    HW137067   4.310   2.389   4.655  0.4425 -0.0152 -1.0066
 8477SOL    HW237068   4.237   2.329   4.544  0.6374 -1.9930  1.1569
 8478SOL     OW37069   0.023   2.385  17.131  0.2837  0.1355 -0.1064
 8478SOL    HW137070   4.687   2.383  17.193  1.4357 -2.2301  1.1556
 8478SOL    HW237071   0.090   2.440  17.172 -1.3738  0.0017  2.8205
 8479SOL     OW37072   0.152   1.878   6.231  0.6110  0.3366  0.3455
 8479SOL    HW137073   0.160   1.806   6.294 -1.1876 -0.7825 -0.6893
 8479SOL    HW237074   0.068   1.854   6.191  1.1261 -1.0018  0.0423
 8480SOL     OW37075   0.661   3.216  13.828  0.0933 -0.1505 -0.3149
 8480SOL    HW137076   0.690   3.275  13.758  1.2449 -0.0479  0.2600
 8480SOL    HW237077   0.604   3.164  13.771  0.7317 -0.9639 -0.2130
 8481SOL     OW37078   0.607   3.047   2.601 -0.0440 -0.2448  0.0130
 8481SOL    HW137079   0.515   3.064   2.583  0.2353  2.0293  0.6903
 8481SOL    HW237080   0.595   2.959   2.635 -0.6845 -0.0183  0.3542
 8482SOL     OW37081   2.406   3.356   7.270 -0.1003  0.1203 -0.6161
 8482SOL    HW137082   2.411   3.449   7.292 -1.0129  0.1738 -0.6199
 8482SOL    HW237083   2.368   3.328   7.353  3.9041 -0.5404  0.9720
 8483SOL     OW37084   1.373   1.825   9.029  0.3259  0.4885  0.0497
 8483SOL    HW137085   1.406   1.888   8.965  0.2547 -1.6604 -2.0917
 8483SOL    HW237086   1.418   1.742   9.014 -2.0195 -0.8053  0.1370
 8484SOL     OW37087   0.447   2.121  13.964  0.0436  0.0754 -0.0783
 8484SOL    HW137088   0.356   2.147  13.947 -0.8519 -1.8101  1.8838
 8484SOL    HW237089   0.475   2.117  13.872  0.3590 -1.3662  0.0881
 8485SOL     OW37090   1.567   1.540   7.108 -0.2643  0.5913 -0.5251
 8485SOL    HW137091   1.556   1.463   7.163  0.0220  0.6039 -0.4513
 8485SOL    HW237092   1.483   1.533   7.062  0.0427 -0.9844 -0.8587
 8486SOL     OW37093   0.162   1.882   4.378  0.2780 -0.0805  0.1862
 8486SOL    HW137094   0.207   1.817   4.323  0.6280 -0.2470  0.6744
 8486SOL    HW237095   0.070   1.861   4.357 -0.0735  2.8792 -1.1128
 8487SOL     OW37096   1.653   3.017  13.440  0.4620 -0.9503 -0.2217
 8487SOL    HW137097   1.730   3.066  13.467  0.8741 -1.1299 -1.0575
 8487SOL    HW237098   1.681   2.966  13.363  0.4400 -1.7422  0.2973
 8488SOL     OW37099   0.855   4.464   9.206 -0.1147 -0.2774 -0.5582
 8488SOL    HW137100   0.801   4.385   9.203 -0.5857  0.0768 -1.5830
 8488SOL    HW237101   0.787   4.531   9.214 -0.9278 -1.4144  1.8108
 8489SOL     OW37102   4.416   0.053   0.338  0.2015  0.1449 -0.0676
 8489SOL    HW137103   4.430   0.054   0.243 -1.6185 -1.5875 -0.3652
 8489SOL    HW237104   4.396   4.697   0.351 -2.3894  0.4820 -1.6272
 8490SOL     OW37105   3.415   4.085   4.639 -0.5452 -0.2753 -1.1667
 8490SOL    HW137106   3.325   4.115   4.649  0.3068  2.5306 -1.7108
 8490SOL    HW237107   3.472   4.157   4.611  0.2905 -0.6460 -0.4061
 8491SOL     OW37108   4.391   3.740  17.282 -0.2255 -0.0877 -0.4886
 8491SOL    HW137109   4.420   3.774  17.198 -0.0589 -0.6733 -0.6680
 8491SOL    HW237110   4.407   3.646  17.272  0.5317  0.0876 -0.9552
 8492SOL     OW37111   3.174   3.373   0.419 -0.2767 -0.1061  0.1433
 8492SOL    HW137112   3.191   3.381   0.513  0.5798  0.8852 -0.0974
 8492SOL    HW237113   3.133   3.460   0.414 -1.2359 -0.4159  2.5189
 8493SOL     OW37114   3.873   3.753   6.429  0.0174  0.2190 -0.0747
 8493SOL    HW137115   3.957   3.791   6.402 -0.3315 -0.2201 -1.8202
 8493SOL    HW237116   3.901   3.666   6.459  0.4169  0.6001  0.6430
 8494SOL     OW37117   0.930   1.328   5.625  0.2454 -0.1418 -0.6009
 8494SOL    HW137118   0.920   1.234   5.635  1.1225 -0.1663  0.0636
 8494SOL    HW237119   0.872   1.343   5.551  0.8632 -3.2251 -1.7258
 8495SOL     OW37120   3.585   3.543  12.797 -0.3160  0.0183  0.8631
 8495SOL    HW137121   3.569   3.510  12.709 -2.4201  0.6139  1.0106
 8495SOL    HW237122   3.559   3.634  12.783  1.7765  0.5811  0.6531
 8496SOL     OW37123   3.895   1.224   1.868 -0.3747  0.1946  0.4292
 8496SOL    HW137124   3.859   1.313   1.873 -3.6705 -0.9825 -2.5656
 8496SOL    HW237125   3.863   1.191   1.952 -0.4594 -1.3462 -0.2228
 8497SOL     OW37126   1.513   2.238   3.548 -0.3918  0.8215 -1.0853
 8497SOL    HW137127   1.440   2.175   3.550  0.8131 -0.4803  1.7802
 8497SOL    HW237128   1.585   2.178   3.568 -1.3949  0.5632  1.7279
 8498SOL     OW37129   4.003   0.033  12.077  0.3920 -0.7684  0.5459
 8498SOL    HW137130   3.979   0.109  12.131  0.1623  0.9285 -1.9278
 8498SOL    HW237131   4.057   0.082  12.015 -1.2529 -1.7068 -1.6097
 8499SOL     OW37132   3.988   4.590   7.664  0.4285 -0.3715 -0.4180
 8499SOL    HW137133   3.926   4.592   7.737  1.5821  1.2253  0.5133
 8499SOL    HW237134   3.995   4.681   7.638  2.2239 -0.3141  0.2766
 8500SOL     OW37135   0.040   1.615   4.134 -0.0714  0.6976 -0.6059
 8500SOL    HW137136   0.042   1.522   4.111  1.1488  0.1139  1.9124
 8500SOL    HW237137   4.686   1.621   4.161  0.2661  0.8277  0.4907
 8501SOL     OW37138   1.105   3.096   7.200  0.7658 -0.5439 -0.5133
 8501SOL    HW137139   1.073   3.143   7.277 -2.1333 -1.5816 -1.0912
 8501SOL    HW237140   1.132   3.015   7.241  0.0350 -1.1117 -1.1485
 8502SOL     OW37141   1.509   2.715   8.187  0.9500 -0.0476 -0.3734
 8502SOL    HW137142   1.579   2.672   8.235 -0.2342 -0.9522  0.5473
 8502SOL    HW237143   1.548   2.793   8.148 -1.0303  0.0774 -2.1258
 8503SOL     OW37144   0.107   0.400   5.396  0.6633  0.1699  0.2470
 8503SOL    HW137145   0.087   0.353   5.315 -1.0982  1.2923  0.0258
 8503SOL    HW237146   0.202   0.385   5.401  0.1902 -2.5290  1.1042
 8504SOL     OW37147   0.715   1.885  13.569  0.3247 -0.0034 -0.0486
 8504SOL    HW137148   0.765   1.828  13.510  0.4607 -1.0073  1.0292
 8504SOL    HW237149   0.718   1.967  13.521  0.0767  0.0311 -0.0040
 8505SOL     OW37150   1.656   3.296   7.533  0.1268  0.8373  0.1198
 8505SOL    HW137151   1.659   3.266   7.624 -2.1617 -1.8634 -0.6884
 8505SOL    HW237152   1.563   3.295   7.511 -0.3464 -4.7901  2.3593
 8506SOL     OW37153   4.472   0.289   3.443  0.3316 -0.4698 -0.2970
 8506SOL    HW137154   4.531   0.219   3.414  1.4294  0.4847 -0.3439
 8506SOL    HW237155   4.515   0.317   3.524  0.4879 -0.5235 -0.3604
 8507SOL     OW37156   1.822   2.478  14.822 -0.3534  0.0340  0.0747
 8507SOL    HW137157   1.897   2.528  14.855 -0.3236  0.1617 -0.1871
 8507SOL    HW237158   1.803   2.531  14.745 -2.3882 -1.6939 -0.5983
 8508SOL     OW37159   0.216   4.257   4.806  0.0352  0.4135  0.2153
 8508SOL    HW137160   0.220   4.307   4.724 -1.1635  0.8585  0.4356
 8508SOL    HW237161   0.147   4.309   4.848 -0.1668 -1.0145  1.6419
 8509SOL     OW37162   4.195   3.069  12.596  1.0306  0.1036 -0.2669
 8509SOL    HW137163   4.177   3.108  12.682 -1.9607 -0.1349 -0.7693
 8509SOL    HW237164   4.152   2.985  12.613  0.4003  0.9084  2.1955
 8510SOL     OW37165   4.672   3.112   8.747  0.0451  0.4328  0.7941
 8510SOL    HW137166   0.006   3.126   8.685 -0.6201  0.2090 -0.0282
 8510SOL    HW237167   4.689   3.173   8.818 -1.3439  0.3360  1.2152
 8511SOL     OW37168   1.179   2.040   9.465 -0.1637 -0.4714  0.0680
 8511SOL    HW137169   1.162   2.123   9.420 -2.1546 -2.1741 -2.3026
 8511SOL    HW237170   1.251   2.069   9.520 -0.0872 -0.4163 -0.0606
 8512SOL     OW37171   0.181   1.287  13.874 -0.3510 -0.6526 -0.0621
 8512SOL    HW137172   0.120   1.345  13.829  1.1309 -1.4039 -3.0622
 8512SOL    HW237173   0.187   1.215  13.812  0.4560  0.6796 -1.5446
 8513SOL     OW37174   0.461   1.402   7.164  0.1080  0.2717  0.4845
 8513SOL    HW137175   0.397   1.335   7.141 -0.0046  0.6828 -0.3946
 8513SOL    HW237176   0.414   1.466   7.218  0.0538  1.3199 -0.8171
 8514SOL     OW37177   2.774   4.500   1.087 -0.0911  0.8020 -0.4111
 8514SOL    HW137178   2.679   4.497   1.098  0.1731 -0.9581  1.4948
 8514SOL    HW237179   2.774   4.473   0.995 -3.0280 -0.5689 -0.0059
 8515SOL     OW37180   4.336   0.571   5.323 -0.3524 -0.4444  0.2514
 8515SOL    HW137181   4.293   0.496   5.364  0.8938 -2.0928 -1.4458
 8515SOL    HW237182   4.427   0.546   5.340 -0.6537 -0.5505  1.7093
 8516SOL     OW37183   2.140   2.171   1.054 -0.1734  0.1115 -0.6446
 8516SOL    HW137184   2.131   2.139   1.144 -1.8802 -0.1320 -0.9077
 8516SOL    HW237185   2.151   2.266   1.067  0.3912 -0.0359 -0.0584
 8517SOL     OW37186   2.390   1.005   2.339 -0.3278 -0.0687  0.4366
 8517SOL    HW137187   2.442   1.020   2.418 -1.2035 -1.8830  1.3545
 8517SOL    HW237188   2.323   0.949   2.378 -1.5721  0.3951 -1.0170
 8518SOL     OW37189   0.444   4.644  10.128  0.1163 -0.3235  0.2062
 8518SOL    HW137190   0.465   4.638  10.035 -0.6001 -2.1936  0.1760
 8518SOL    HW237191   0.532   4.639  10.165  0.0859  2.9556  0.7483
 8519SOL     OW37192   2.667   3.863   1.946 -0.4862 -0.1231  0.3959
 8519SOL    HW137193   2.593   3.848   2.004 -1.1479  0.2432 -0.3575
 8519SOL    HW237194   2.645   3.949   1.909 -0.6884 -1.7997 -3.3268
 8520SOL     OW37195   0.534   3.201  16.448  0.6856  0.3281  0.0418
 8520SOL    HW137196   0.502   3.215  16.359  0.9551 -0.8849 -0.2465
 8520SOL    HW237197   0.455   3.163  16.485 -1.2001  5.2628  1.0487
 8521SOL     OW37198   3.812   3.751   7.241  0.8102  0.0441  0.5561
 8521SOL    HW137199   3.775   3.663   7.251  0.1045 -0.1931 -4.0038
 8521SOL    HW237200   3.732   3.796   7.212  0.6102 -0.9289 -0.4058
 8522SOL     OW37201   3.003   3.287   5.631 -0.1679  0.9168  0.2088
 8522SOL    HW137202   2.925   3.234   5.613  1.8488 -1.7195 -0.6411
 8522SOL    HW237203   2.976   3.369   5.674  1.3392  1.1413  0.7377
 8523SOL     OW37204   3.332   4.279   7.122  0.0358  0.4740  0.2305
 8523SOL    HW137205   3.410   4.319   7.161  2.0257 -1.3080 -1.8699
 8523SOL    HW237206   3.322   4.357   7.068 -1.5490  1.1286  1.5010
 8524SOL     OW37207   3.221   2.630  13.025  0.0109 -0.4341  0.0823
 8524SOL    HW137208   3.126   2.638  13.030  0.0961  0.0367  1.0294
 8524SOL    HW237209   3.235   2.705  12.967 -1.5806  0.5476  0.9462
 8525SOL     OW37210   1.637   1.113   2.532 -0.7560 -0.0312 -0.5711
 8525SOL    HW137211   1.593   1.076   2.455  1.4941 -2.0074 -0.9313
 8525SOL    HW237212   1.573   1.096   2.601  1.2481  0.2776  1.3539
 8526SOL     OW37213   4.702   1.001   7.402  0.3479  0.3580 -0.3325
 8526SOL    HW137214   4.663   0.915   7.417  0.3815  0.6792  1.6365
 8526SOL    HW237215   0.044   0.984   7.351 -1.8048 -0.4347 -3.4363
 8527SOL     OW37216   3.117   3.496   3.651  0.2593 -0.4170  0.4667
 8527SOL    HW137217   3.077   3.529   3.731  0.6895 -1.6824  1.2079
 8527SOL    HW237218   3.120   3.403   3.673 -1.0053 -0.6464 -0.3035
 8528SOL     OW37219   2.256   2.966  16.025 -0.1930 -0.2464 -0.1882
 8528SOL    HW137220   2.293   3.037  16.077 -1.0755  0.6319 -0.7680
 8528SOL    HW237221   2.244   2.895  16.087  0.6742 -0.3289 -0.1110
 8529SOL     OW37222   4.677   4.426   1.090 -0.0559 -0.7284  0.0489
 8529SOL    HW137223   0.034   4.425   1.079  0.1148 -1.3022  1.5744
 8529SOL    HW237224   4.653   4.340   1.056  0.5323 -0.3460 -1.3348
 8530SOL     OW37225   3.560   1.573   3.487 -0.0714 -0.1036 -0.0900
 8530SOL    HW137226   3.563   1.478   3.471  0.4727  0.1130 -1.3317
 8530SOL    HW237227   3.518   1.603   3.406  2.0002  0.2804 -1.0371
 8531SOL     OW37228   1.647   0.202   3.761 -0.1314  0.0171  0.2546
 8531SOL    HW137229   1.643   0.274   3.699 -0.2007  0.8727  1.2503
 8531SOL    HW237230   1.709   0.148   3.712 -0.9522 -0.5300 -0.1837
 8532SOL     OW37231   1.829   2.888  14.949  0.6456  0.4367  0.2986
 8532SOL    HW137232   1.838   2.955  15.017 -1.2352  0.3290  0.6532
 8532SOL    HW237233   1.736   2.869  14.951  1.1022 -1.7462  0.9044
 8533SOL     OW37234   0.284   0.312  15.911  0.0083  0.3899 -0.0523
 8533SOL    HW137235   0.193   0.321  15.882 -0.6985 -1.2631  1.7031
 8533SOL    HW237236   0.322   0.263  15.838  0.5031  0.4853  0.1423
 8534SOL     OW37237   0.717   3.239   0.148 -0.2438 -0.3383 -0.4841
 8534SOL    HW137238   0.663   3.194   0.083 -3.3529 -0.2229  1.9673
 8534SOL    HW237239   0.751   3.314   0.100 -2.2010  0.9452  0.1025
 8535SOL     OW37240   3.475   2.656  11.221  0.1017 -0.3798 -0.6332
 8535SOL    HW137241   3.466   2.743  11.184 -1.0381 -0.2123  0.0282
 8535SOL    HW237242   3.521   2.684  11.300 -1.0619 -0.1033 -0.0538
 8536SOL     OW37243   4.579   1.060   1.714 -0.1277 -0.4966  0.8700
 8536SOL    HW137244   4.495   1.020   1.734  0.1453 -2.3055 -1.6586
 8536SOL    HW237245   4.634   0.982   1.705 -1.5805 -1.5925  1.6299
 8537SOL     OW37246   0.448   0.866  16.513  0.1038 -0.3863 -0.8109
 8537SOL    HW137247   0.538   0.834  16.519 -0.0677 -0.6036  0.7835
 8537SOL    HW237248   0.466   0.916  16.434 -1.4176 -2.5926 -2.5524
 8538SOL     OW37249   2.524   2.160  15.721  0.1262  0.3172  0.2824
 8538SOL    HW137250   2.576   2.221  15.669 -1.4817  0.6374 -0.9422
 8538SOL    HW237251   2.588   2.093  15.746  0.4984  0.3931 -0.4610
 8539SOL     OW37252   1.078   3.571   9.355  0.2055 -0.4991  0.0386
 8539SOL    HW137253   1.014   3.630   9.395 -0.0594  0.6780 -2.1496
 8539SOL    HW237254   1.151   3.632   9.349 -1.4412  1.4013 -1.0524
 8540SOL     OW37255   0.379   2.079   5.595  0.4024  0.1110  0.1071
 8540SOL    HW137256   0.421   2.110   5.514 -2.5686 -0.0020 -1.4526
 8540SOL    HW237257   0.412   2.145   5.656 -0.7554  2.2761 -1.6427
 8541SOL     OW37258   4.726   3.507   8.283 -0.0743 -0.2361 -0.5499
 8541SOL    HW137259   4.656   3.468   8.334  0.1602  0.1813  0.0887
 8541SOL    HW237260   4.733   3.437   8.217  1.3465  0.0328 -0.7019
 8542SOL     OW37261   4.390   2.974   2.869 -0.3953 -0.0574 -0.3461
 8542SOL    HW137262   4.367   2.894   2.821 -0.1563 -1.2508  1.5112
 8542SOL    HW237263   4.299   2.990   2.894 -0.9141 -2.3000 -0.8001
 8543SOL     OW37264   4.160   0.439  15.526  0.0130  0.0578  0.3071
 8543SOL    HW137265   4.099   0.493  15.476  0.6916 -1.8687 -2.6005
 8543SOL    HW237266   4.131   0.469  15.613  0.0284  1.8629 -0.3076
 8544SOL     OW37267   0.881   2.327   9.565 -0.1069  0.0570  0.6811
 8544SOL    HW137268   0.794   2.347   9.530  0.5485  2.3181  0.3192
 8544SOL    HW237269   0.894   2.233   9.555  3.1637  0.2931  2.5193
 8545SOL     OW37270   0.997   0.313   2.163 -0.1950 -0.5665 -0.2895
 8545SOL    HW137271   1.063   0.251   2.194  0.0105  1.4774  3.4237
 8545SOL    HW237272   1.037   0.321   2.077  0.5019 -0.0008  0.0887
 8546SOL     OW37273   2.227   2.206   9.633 -0.5830  0.6412 -0.3020
 8546SOL    HW137274   2.285   2.260   9.579 -0.2084  0.2836 -0.2536
 8546SOL    HW237275   2.142   2.249   9.635 -0.2011  1.4151 -0.6109
 8547SOL     OW37276   4.518   3.426   6.984  0.2022  0.1023 -0.0869
 8547SOL    HW137277   4.439   3.405   7.033 -0.7381 -2.6104 -2.7250
 8547SOL    HW237278   4.484   3.422   6.894 -1.7157  1.1950  0.5968
 8548SOL     OW37279   3.920   4.002   7.808  0.1210 -0.4411 -0.0624
 8548SOL    HW137280   3.893   4.051   7.730 -2.1620  0.6089  1.3992
 8548SOL    HW237281   4.008   3.968   7.789  0.4279  0.9343 -1.1059
 8549SOL     OW37282   4.364   4.187   1.640  0.7752 -0.0014  0.2384
 8549SOL    HW137283   4.399   4.224   1.558 -0.5582  0.9458  0.1023
 8549SOL    HW237284   4.330   4.266   1.682 -0.2295 -0.5758  0.4886
 8550SOL     OW37285   1.604   4.116  11.470 -1.0019 -0.4656 -0.1308
 8550SOL    HW137286   1.584   4.023  11.481  0.4618 -0.7979 -0.1760
 8550SOL    HW237287   1.694   4.124  11.502 -1.7702 -0.7491  2.1114
 8551SOL     OW37288   1.623   2.801   1.819  0.2362  0.0577 -0.4432
 8551SOL    HW137289   1.648   2.709   1.806 -0.6076 -0.1842 -0.3281
 8551SOL    HW237290   1.696   2.848   1.778  0.9265 -0.1362  0.5686
 8552SOL     OW37291   1.103   2.965   1.076 -0.6597 -0.2144  0.0180
 8552SOL    HW137292   1.015   2.932   1.063 -0.3324 -0.3013 -1.9621
 8552SOL    HW237293   1.107   2.966   1.171  1.3016 -1.6388 -0.0309
 8553SOL     OW37294   3.887   1.945   4.153 -0.2367 -0.0691  0.2309
 8553SOL    HW137295   3.952   1.878   4.130 -0.0241  0.2588 -0.1300
 8553SOL    HW237296   3.822   1.924   4.086  1.4415 -2.5624 -0.6015
 8554SOL     OW37297   1.141   2.168  11.591 -0.3725  0.0870 -0.4020
 8554SOL    HW137298   1.139   2.121  11.508 -0.3068 -1.4395  0.4603
 8554SOL    HW237299   1.101   2.106  11.651 -2.4437  1.9230  0.0901
 8555SOL     OW37300   1.325   1.072   7.747 -0.4822 -0.3284  0.1882
 8555SOL    HW137301   1.380   1.042   7.674 -0.1935  0.4117  0.1015
 8555SOL    HW237302   1.263   1.000   7.756 -2.0404  0.9040 -0.6950
 8556SOL     OW37303   4.465   2.872   4.284 -0.0830  0.2044 -0.6164
 8556SOL    HW137304   4.434   2.885   4.194  1.0497  0.8829 -0.9087
 8556SOL    HW237305   4.544   2.820   4.272 -0.0591 -0.0550  0.6650
 8557SOL     OW37306   0.876   1.515   2.480  0.4733 -0.0497  0.1461
 8557SOL    HW137307   0.954   1.527   2.534  0.5843  1.1681 -0.2862
 8557SOL    HW237308   0.923   1.476   2.407 -0.7185 -0.8935 -0.1687
 8558SOL     OW37309   0.960   4.070   3.621  0.2074  0.3261  0.4928
 8558SOL    HW137310   1.023   4.023   3.676 -0.1444  3.0094  3.1914
 8558SOL    HW237311   0.929   4.141   3.677 -0.2044 -2.0548  3.2621
 8559SOL     OW37312   3.695   4.447  12.964 -0.0437  0.6419 -0.0896
 8559SOL    HW137313   3.673   4.355  12.975 -0.1414  0.6671 -0.0713
 8559SOL    HW237314   3.630   4.470  12.897 -0.7061 -1.5643 -0.2128
 8560SOL     OW37315   2.652   0.031  14.542 -0.4759 -0.2860 -0.2082
 8560SOL    HW137316   2.613   4.681  14.547  0.2254 -0.4745  1.9799
 8560SOL    HW237317   2.744   0.011  14.523 -0.6983 -0.2457 -1.3400
 8561SOL     OW37318   4.256   4.563   6.555 -0.3849  0.8054 -0.2490
 8561SOL    HW137319   4.204   4.484   6.569  0.3979  0.6859  2.0339
 8561SOL    HW237320   4.292   4.579   6.643  0.9952 -3.6872  0.0199
 8562SOL     OW37321   1.921   2.587   8.964 -0.3156  0.2022  0.6317
 8562SOL    HW137322   1.968   2.670   8.953 -1.9749  1.0921  0.2039
 8562SOL    HW237323   1.973   2.541   9.030  0.5372  1.3021  0.7414
 8563SOL     OW37324   3.636   4.473   3.986 -0.3553 -0.2128 -0.3169
 8563SOL    HW137325   3.646   4.500   3.895  1.9753  1.6976  0.4994
 8563SOL    HW237326   3.590   4.389   3.983 -2.1944  0.7294  1.0427
 8564SOL     OW37327   2.510   2.883   2.847  0.4119  0.5174  0.5775
 8564SOL    HW137328   2.572   2.922   2.907  1.5080 -0.1433 -0.1218
 8564SOL    HW237329   2.482   2.962   2.800 -0.1751  0.0469  0.1269
 8565SOL     OW37330   2.148   4.015   6.680  0.2926 -0.4490 -0.0778
 8565SOL    HW137331   2.197   4.006   6.598  0.9257 -0.4973  0.3100
 8565SOL    HW237332   2.222   4.038   6.736  1.5671 -1.0871 -1.4898
 8566SOL     OW37333   0.710   2.335   4.184 -0.0211 -0.6254 -0.1147
 8566SOL    HW137334   0.661   2.279   4.124  1.8869 -2.1406 -0.2784
 8566SOL    HW237335   0.654   2.412   4.176  0.1571 -0.5959 -1.1164
 8567SOL     OW37336   2.428   2.492  11.170 -0.0262  0.5512 -0.6888
 8567SOL    HW137337   2.429   2.540  11.253 -2.0239 -1.0866  0.2767
 8567SOL    HW237338   2.387   2.553  11.109  0.0840 -0.1036 -1.4141
 8568SOL     OW37339   2.698   0.866   6.748 -0.1073 -0.3582 -0.2229
 8568SOL    HW137340   2.753   0.861   6.670  3.4176  1.2173  2.1350
 8568SOL    HW237341   2.752   0.813   6.807 -0.4973 -0.4300  0.0727
 8569SOL     OW37342   3.474   3.308  15.200  0.1861 -0.1396 -0.5993
 8569SOL    HW137343   3.518   3.384  15.163  1.4454 -1.1094 -1.0716
 8569SOL    HW237344   3.418   3.291  15.124  0.1106 -3.0050  0.1054
 8570SOL     OW37345   4.736   2.183   6.071  0.4247 -0.1767  0.3847
 8570SOL    HW137346   4.655   2.152   6.112  1.2089 -2.8836 -0.0828
 8570SOL    HW237347   4.702   2.193   5.983  1.7143  0.0903 -0.0892
 8571SOL     OW37348   2.968   0.846   7.419 -0.0835  0.1897  0.7079
 8571SOL    HW137349   3.038   0.860   7.484  2.3058 -0.5954 -1.6869
 8571SOL    HW237350   2.907   0.793   7.469  0.3787 -0.7683  0.2540
 8572SOL     OW37351   4.477   4.388  17.635 -0.1240  0.7222 -0.4108
 8572SOL    HW137352   4.529   4.333  17.576  1.1950  0.3953  1.0402
 8572SOL    HW237353   4.473   4.466  17.580 -1.9481  1.4148  0.7257
 8573SOL     OW37354   2.215   3.015   2.249  0.1926 -0.1860 -0.5413
 8573SOL    HW137355   2.224   2.938   2.193  1.5421  0.6708 -1.5068
 8573SOL    HW237356   2.183   2.968   2.326 -0.0005  2.1916  0.8198
 8574SOL     OW37357   2.966   2.546   1.538 -0.4309  0.1163  0.3875
 8574SOL    HW137358   2.990   2.453   1.534 -0.4664  0.1010  0.5243
 8574SOL    HW237359   2.985   2.560   1.631 -0.4801 -2.5225  0.8169
 8575SOL     OW37360   0.100   0.757   8.153  0.0230 -0.0308 -0.2559
 8575SOL    HW137361   0.132   0.795   8.071 -1.2825  2.2549  0.2941
 8575SOL    HW237362   0.173   0.794   8.204 -0.5354  0.7018  0.0133
 8576SOL     OW37363   1.678   1.906   6.295  0.2596  0.1656  0.1100
 8576SOL    HW137364   1.754   1.905   6.355  1.4465 -0.5901 -1.4126
 8576SOL    HW237365   1.635   1.991   6.304 -0.6054 -0.1343 -1.2452
 8577SOL     OW37366   3.809   3.896  13.552 -0.0771 -0.8707 -0.4841
 8577SOL    HW137367   3.785   3.820  13.499  0.3068 -1.4517  0.1753
 8577SOL    HW237368   3.749   3.892  13.626  1.2159 -1.9207  0.4943
 8578SOL     OW37369   4.303   3.535   9.891  0.0924 -0.1099  0.4278
 8578SOL    HW137370   4.368   3.573   9.950 -0.4459  0.7007  0.4881
 8578SOL    HW237371   4.351   3.544   9.809 -1.0091 -0.6390 -0.2794
 8579SOL     OW37372   0.660   4.522   8.414  0.2710  0.8250  0.0871
 8579SOL    HW137373   0.714   4.470   8.474 -0.6901  0.3432  0.5290
 8579SOL    HW237374   0.670   4.606   8.457  1.7115 -0.1486  1.6369
 8580SOL     OW37375   3.178   4.327   6.472 -0.3116  0.0112  0.8082
 8580SOL    HW137376   3.184   4.245   6.423 -1.4317  1.7070 -2.1500
 8580SOL    HW237377   3.212   4.388   6.406 -1.9872  0.4050  0.2972
 8581SOL     OW37378   4.067   1.505   5.223  0.1567  0.0864 -0.4028
 8581SOL    HW137379   4.032   1.559   5.294 -1.5277 -0.8428 -0.5274
 8581SOL    HW237380   4.033   1.421   5.255  1.2293 -0.6699 -1.2388
 8582SOL     OW37381   4.611   0.183  13.873 -0.1674  0.1271  0.2484
 8582SOL    HW137382   4.661   0.178  13.954 -0.3588  2.1015  0.4924
 8582SOL    HW237383   4.572   0.096  13.873 -0.4043  0.2443  1.7870
 8583SOL     OW37384   3.124   4.610  10.256 -0.3475 -0.2588  0.0772
 8583SOL    HW137385   3.116   4.520  10.225 -0.8238 -0.1354 -0.1530
 8583SOL    HW237386   3.063   4.648  10.193 -0.3365  1.6556  1.2055
 8584SOL     OW37387   0.320   3.656   5.288 -0.2032 -0.3374  0.8728
 8584SOL    HW137388   0.412   3.677   5.307 -0.6822  0.6746  1.9904
 8584SOL    HW237389   0.286   3.745   5.281  1.3834  0.0697 -1.7041
 8585SOL     OW37390   1.898   0.283   7.579  0.2043 -0.7284 -0.1830
 8585SOL    HW137391   1.919   0.366   7.622  0.6958 -0.8338 -0.2107
 8585SOL    HW237392   1.978   0.230   7.588  1.0528  0.8161  1.3290
 8586SOL     OW37393   3.261   2.000   4.998 -0.0703  0.0008 -0.4340
 8586SOL    HW137394   3.244   1.915   4.959  1.3587 -0.3046 -0.3729
 8586SOL    HW237395   3.258   2.054   4.919  2.0368 -1.6098 -1.5894
 8587SOL     OW37396   3.778   2.703   8.326  0.0168  0.7485 -0.0236
 8587SOL    HW137397   3.719   2.756   8.380 -1.3696  0.0602 -0.8472
 8587SOL    HW237398   3.779   2.620   8.374 -2.1451  0.5700 -0.2870
 8588SOL     OW37399   3.928   1.792   3.402 -0.2339 -0.3757  0.2505
 8588SOL    HW137400   3.865   1.810   3.333  0.5383  2.1524  0.1718
 8588SOL    HW237401   4.007   1.827   3.360  0.8558 -0.8261  1.9385
 8589SOL     OW37402   3.413   3.104   5.507 -0.3087  0.8205  0.3529
 8589SOL    HW137403   3.368   3.098   5.423  1.0603 -0.7944 -0.2617
 8589SOL    HW237404   3.460   3.021   5.512  0.2055  1.1455  0.9156
 8590SOL     OW37405   3.689   1.260   8.010  0.4574  0.5062  0.8105
 8590SOL    HW137406   3.655   1.313   8.081  1.4145  0.4274  1.3309
 8590SOL    HW237407   3.612   1.252   7.954  1.4023  0.4509 -0.4837
 8591SOL     OW37408   3.171   1.396  15.420  0.5090  0.1470 -0.0156
 8591SOL    HW137409   3.171   1.430  15.509 -1.5094  2.7404 -0.9990
 8591SOL    HW237410   3.083   1.360  15.408  0.6864 -0.9241  1.9370
 8592SOL     OW37411   1.046   0.852   0.651  0.5897  0.2525 -0.3483
 8592SOL    HW137412   0.965   0.879   0.608  0.5658  0.3221 -0.2603
 8592SOL    HW237413   1.111   0.888   0.591  1.2639 -0.0476  0.2010
 8593SOL     OW37414   0.636   1.768  15.364  0.1532 -0.0386  0.7057
 8593SOL    HW137415   0.712   1.711  15.350 -1.4110 -1.8188 -0.6182
 8593SOL    HW237416   0.557   1.716  15.344 -1.2985  2.9169 -1.2380
 8594SOL     OW37417   1.605   4.433   6.476 -0.2182  0.1113 -0.3639
 8594SOL    HW137418   1.697   4.456   6.466 -0.2194  0.2691 -0.0217
 8594SOL    HW237419   1.587   4.485   6.554 -1.1832 -0.0626 -0.4689
 8595SOL     OW37420   2.701   2.906   6.453 -0.0883 -0.3407 -0.2928
 8595SOL    HW137421   2.614   2.866   6.450 -1.1138  1.9313 -0.9385
 8595SOL    HW237422   2.706   2.960   6.374  1.2912 -0.6948 -0.4448
 8596SOL     OW37423   1.214   3.457   4.721 -0.0723 -0.1607 -0.1613
 8596SOL    HW137424   1.161   3.432   4.796 -1.5311 -0.7515 -1.3734
 8596SOL    HW237425   1.275   3.527   4.743 -1.4378  1.4476 -1.4648
 8597SOL     OW37426   4.467   0.860   6.492 -0.2072 -0.2118 -1.0150
 8597SOL    HW137427   4.449   0.766   6.483  2.6446 -0.6767 -1.8786
 8597SOL    HW237428   4.560   0.867   6.509 -0.1644 -1.3474 -0.8105
 8598SOL     OW37429   3.199   0.518  11.028 -1.3200  0.6520  0.4635
 8598SOL    HW137430   3.132   0.549  10.967  0.4078  1.0244 -1.2438
 8598SOL    HW237431   3.242   0.600  11.052 -0.7252  0.6084 -0.4821
 8599SOL     OW37432   4.103   2.766   5.464  0.4519  0.0908  0.4260
 8599SOL    HW137433   4.166   2.828   5.428  2.7932 -3.0837 -0.9831
 8599SOL    HW237434   4.090   2.799   5.552 -0.4162 -2.1076  1.1266
 8600SOL     OW37435   2.409   3.805   3.629 -0.1238  0.0483  0.0114
 8600SOL    HW137436   2.375   3.847   3.550 -0.9251 -0.4047  0.1069
 8600SOL    HW237437   2.474   3.867   3.660  0.8033 -1.1315  0.3988
 8601SOL     OW37438   2.127   1.611  15.313 -0.5001 -0.3009 -0.5471
 8601SOL    HW137439   2.055   1.629  15.252 -2.0216 -1.2372  0.9887
 8601SOL    HW237440   2.142   1.517  15.305 -1.4541 -0.3818 -1.3930
 8602SOL     OW37441   1.555   2.624   0.785 -0.1685  0.2791 -0.3534
 8602SOL    HW137442   1.585   2.577   0.863  2.3578  1.0619 -0.8526
 8602SOL    HW237443   1.462   2.630   0.808 -0.0980  0.8705 -0.2260
 8603SOL     OW37444   1.268   0.547   7.593  0.0713  0.1180  0.0678
 8603SOL    HW137445   1.316   0.553   7.511  3.4422  0.2525  2.0500
 8603SOL    HW237446   1.177   0.543   7.565 -0.1298  1.2200  0.5632
 8604SOL     OW37447   3.569   3.425  14.335  0.0481 -0.2180 -0.5851
 8604SOL    HW137448   3.622   3.504  14.336  1.3814 -1.1198  0.2772
 8604SOL    HW237449   3.482   3.464  14.342  0.4071  0.5789 -0.6324
 8605SOL     OW37450   3.109   1.028   9.093  0.7258 -0.0430  0.2996
 8605SOL    HW137451   3.162   1.105   9.072 -0.5547  0.6853 -0.2680
 8605SOL    HW237452   3.083   1.006   9.003 -0.4819  2.6521  0.0042
 8606SOL     OW37453   0.768   1.764   7.887  0.5847 -0.2507  0.6787
 8606SOL    HW137454   0.780   1.707   7.962  2.8513  1.5957  1.6865
 8606SOL    HW237455   0.673   1.752   7.881  0.5017  0.1067  1.3715
 8607SOL     OW37456   4.476   3.659   2.995  0.7430 -0.7648 -0.5820
 8607SOL    HW137457   4.515   3.604   2.927 -0.1168 -0.7245 -1.1099
 8607SOL    HW237458   4.541   3.723   3.023 -1.9222  1.2213  1.0911
 8608SOL     OW37459   4.344   0.303   8.352 -0.1603 -0.1931  0.5955
 8608SOL    HW137460   4.326   0.212   8.328 -0.9997  0.0223  0.4009
 8608SOL    HW237461   4.436   0.287   8.372 -0.0162 -0.7779 -0.5681
 8609SOL     OW37462   0.634   2.355  10.586 -0.6460  0.6767 -0.5081
 8609SOL    HW137463   0.672   2.382  10.502 -1.1458 -1.5745 -1.4679
 8609SOL    HW237464   0.709   2.320  10.634 -2.0128 -4.1878 -1.9120
 8610SOL     OW37465   1.979   2.613   1.294  0.6032 -0.0049  0.1108
 8610SOL    HW137466   1.927   2.661   1.229  3.4628  1.2925 -1.1889
 8610SOL    HW237467   1.941   2.642   1.377 -1.9015 -0.1365 -0.9652
 8611SOL     OW37468   2.460   3.597   4.563 -0.3891  0.2466  0.2729
 8611SOL    HW137469   2.437   3.506   4.545  2.5630 -0.5228  0.3269
 8611SOL    HW237470   2.458   3.639   4.477 -0.5635  1.5065  0.9020
 8612SOL     OW37471   4.538   3.239   2.650  0.6916 -0.3624  0.5117
 8612SOL    HW137472   4.449   3.232   2.683  0.4175 -2.4042 -0.6584
 8612SOL    HW237473   4.521   3.283   2.567  1.1027 -1.2517 -0.0502
 8613SOL     OW37474   0.328   3.886   7.298  0.2964 -0.0890 -0.2020
 8613SOL    HW137475   0.344   3.974   7.331 -0.4279  0.7416 -2.0901
 8613SOL    HW237476   0.324   3.836   7.379  1.2998 -0.9992 -0.7217
 8614SOL     OW37477   2.202   4.395   7.338  0.4122 -0.4273  0.1521
 8614SOL    HW137478   2.145   4.319   7.325 -0.5581  0.2049  0.7755
 8614SOL    HW237479   2.178   4.442   7.258  0.0653 -2.3221 -0.8836
 8615SOL     OW37480   2.900   0.576   2.927  0.1002  0.1936  0.4650
 8615SOL    HW137481   2.913   0.570   3.021 -0.9077 -1.9276  0.4636
 8615SOL    HW237482   2.992   0.593   2.906 -0.0172  1.2639  0.8102
 8616SOL     OW37483   4.223   3.417  11.953  0.2977 -0.1157  0.1906
 8616SOL    HW137484   4.225   3.435  12.047  0.0760 -0.0864  0.1906
 8616SOL    HW237485   4.210   3.504  11.914 -0.0467  0.0956  0.7831
 8617SOL     OW37486   3.932   3.585  13.916  0.3583  0.3295  0.3916
 8617SOL    HW137487   4.023   3.614  13.904  1.1413 -1.9411  0.8294
 8617SOL    HW237488   3.933   3.557  14.007 -1.2604 -4.6223 -1.0993
 8618SOL     OW37489   0.861   3.608   8.175 -0.5065 -0.1217 -0.1776
 8618SOL    HW137490   0.850   3.528   8.227  1.2522 -0.5386 -0.4292
 8618SOL    HW237491   0.935   3.642   8.224  0.4617  0.1298 -1.8099
 8619SOL     OW37492   4.616   0.293   1.401 -0.0547 -0.3569  0.0579
 8619SOL    HW137493   4.694   0.241   1.381  0.9273  0.1217  2.6133
 8619SOL    HW237494   4.603   0.282   1.495 -1.3817  0.1302 -0.0739
 8620SOL     OW37495   2.493   2.359   3.626 -0.0614 -0.2980  0.2849
 8620SOL    HW137496   2.481   2.289   3.691  0.7938  1.0971  1.9488
 8620SOL    HW237497   2.418   2.344   3.569  0.8730  0.8018 -1.2296
 8621SOL     OW37498   1.246   4.365   2.409  0.0957 -0.0537  0.3296
 8621SOL    HW137499   1.186   4.375   2.334 -1.2667  1.4104  1.5923
 8621SOL    HW237500   1.196   4.312   2.471  0.0864 -1.5567 -0.9554
 8622SOL     OW37501   2.914   1.924   3.065 -0.2472  0.3490 -0.1158
 8622SOL    HW137502   2.931   2.012   3.031  0.4058 -0.4909 -2.0085
 8622SOL    HW237503   2.997   1.905   3.109 -0.2695  1.2153  0.2915
 8623SOL     OW37504   1.832   4.059   5.886 -0.3050  0.0258 -0.8644
 8623SOL    HW137505   1.790   4.130   5.935 -0.8309 -0.2301 -0.9433
 8623SOL    HW237506   1.761   3.995   5.891 -0.5754  0.4898  1.0741
 8624SOL     OW37507   2.635   4.203   7.593  0.0918  0.3095  0.2266
 8624SOL    HW137508   2.654   4.284   7.547 -0.8296  0.8926  0.8808
 8624SOL    HW237509   2.672   4.142   7.530 -1.7950 -0.0304 -0.5591
 8625SOL     OW37510   1.481   0.048   9.248  0.1667 -0.0176 -0.3263
 8625SOL    HW137511   1.464   0.061   9.154 -1.5945 -1.8389 -0.2542
 8625SOL    HW237512   1.570   0.011   9.245  0.5908  0.8066  2.0319
 8626SOL     OW37513   1.876   2.885   6.091  0.6587  0.0561  0.0008
 8626SOL    HW137514   1.863   2.980   6.093 -2.2132 -0.3031 -0.6897
 8626SOL    HW237515   1.968   2.889   6.067  1.0809  1.4749  1.8746
 8627SOL     OW37516   2.859   0.147   8.888  0.1873 -0.3867 -0.3711
 8627SOL    HW137517   2.819   0.060   8.881  0.7957 -0.6394 -0.7997
 8627SOL    HW237518   2.875   0.157   8.982 -1.6017 -0.8057 -0.0337
 8628SOL     OW37519   0.042   0.833  16.117  0.4034  0.4427 -0.1746
 8628SOL    HW137520   4.688   0.833  16.148  0.0548 -0.2923 -1.2132
 8628SOL    HW237521   0.091   0.857  16.196 -0.1948 -0.0382  0.3456
 8629SOL     OW37522   1.856   2.972   1.016  0.2075 -0.2491  0.2546
 8629SOL    HW137523   1.840   3.056   0.973  1.0489  0.6030  1.6152
 8629SOL    HW237524   1.823   2.913   0.948 -1.2572  2.8524 -1.7078
 8630SOL     OW37525   2.423   2.069   1.473 -0.0028  0.2878  0.6014
 8630SOL    HW137526   2.436   2.039   1.384 -0.1968 -0.6861  0.9055
 8630SOL    HW237527   2.416   2.163   1.455 -2.0230 -0.3167 -1.7199
 8631SOL     OW37528   2.885   2.017   3.714  0.4333 -0.1665 -0.3562
 8631SOL    HW137529   2.861   1.926   3.731  0.8312 -0.3829 -0.9390
 8631SOL    HW237530   2.883   2.054   3.802 -1.4659  0.7789 -0.7972
 8632SOL     OW37531   2.283   4.614   8.402 -0.0839  0.1062  0.7162
 8632SOL    HW137532   2.195   4.632   8.437  0.5872  0.3981  2.2743
 8632SOL    HW237533   2.281   4.649   8.313 -2.2069  0.6286  0.9817
 8633SOL     OW37534   2.627   0.811  13.603  0.2652  0.0681  0.1209
 8633SOL    HW137535   2.596   0.899  13.582  1.1710  0.6187  1.0129
 8633SOL    HW237536   2.550   0.763  13.573 -0.4948  1.7777 -0.6451
 8634SOL     OW37537   2.911   2.266  14.255  0.5240 -0.0251 -0.1226
 8634SOL    HW137538   2.964   2.281  14.177  1.1364 -0.6760  0.1706
 8634SOL    HW237539   2.931   2.177  14.284 -0.8162 -0.1225  0.5266
 8635SOL     OW37540   1.474   0.892   8.158 -0.1400  0.0492 -0.9014
 8635SOL    HW137541   1.550   0.840   8.183  1.2970  2.6051  0.0754
 8635SOL    HW237542   1.493   0.930   8.072 -0.0242 -1.5255 -1.5594
 8636SOL     OW37543   2.411   3.897   8.470 -0.3087 -0.0920  0.2466
 8636SOL    HW137544   2.475   3.916   8.401  1.9324 -3.1689  1.4849
 8636SOL    HW237545   2.462   3.916   8.549 -0.2716 -3.7949  1.0906
 8637SOL     OW37546   2.828   1.702   9.040  0.0096  0.1695 -0.0546
 8637SOL    HW137547   2.822   1.643   8.964 -1.6407  1.3339 -0.8434
 8637SOL    HW237548   2.736   1.715   9.063  0.2067  1.0556  0.2411
 8638SOL     OW37549   0.343   3.908  12.817 -0.4690  0.3354 -1.0293
 8638SOL    HW137550   0.353   3.936  12.907  2.1060 -0.6395 -0.9856
 8638SOL    HW237551   0.420   3.960  12.792  0.3390 -0.0618  0.6082
 8639SOL     OW37552   0.592   1.204   2.763 -0.2280 -0.4231 -0.1448
 8639SOL    HW137553   0.616   1.269   2.698  0.5649 -0.6815 -0.1108
 8639SOL    HW237554   0.526   1.156   2.713 -0.3412 -2.2130  1.7220
 8640SOL     OW37555   2.506   0.925   7.478 -0.3081  0.0915 -0.1496
 8640SOL    HW137556   2.538   0.845   7.520  0.1622  0.4975  0.2620
 8640SOL    HW237557   2.491   0.979   7.556  1.8121  0.5005 -0.0063
 8641SOL     OW37558   3.793   4.593  12.005  0.0715 -0.1669  0.0156
 8641SOL    HW137559   3.851   4.663  12.035 -0.3261 -0.5617  1.7205
 8641SOL    HW237560   3.734   4.570  12.077  0.7312 -0.3701  0.4891
 8642SOL     OW37561   2.239   2.640   8.751 -0.4648 -0.4743 -0.4561
 8642SOL    HW137562   2.188   2.707   8.796 -1.8468 -1.6077 -0.3356
 8642SOL    HW237563   2.293   2.672   8.678  0.5691  1.4887  1.1791
 8643SOL     OW37564   4.607   1.876   6.206  0.2047 -0.4269  0.1347
 8643SOL    HW137565   4.583   1.854   6.297 -2.4567  0.0400 -0.4359
 8643SOL    HW237566   4.577   1.967   6.203  1.0453 -0.1887 -1.0526
 8644SOL     OW37567   1.043   3.982   9.295 -0.7971  0.0627 -0.4195
 8644SOL    HW137568   0.992   4.063   9.299  2.3693  2.0609 -0.7380
 8644SOL    HW237569   1.108   4.013   9.357 -0.5724  0.4093 -0.8314
 8645SOL     OW37570   4.584   0.606   5.998  0.2671 -0.5433  0.2044
 8645SOL    HW137571   4.639   0.540   5.956  2.7557  1.9663 -0.4796
 8645SOL    HW237572   4.583   0.669   5.926 -3.2933  0.6757  1.3256
 8646SOL     OW37573   2.896   4.142   7.998  0.0962  0.0011  0.2111
 8646SOL    HW137574   2.877   4.236   8.008 -0.8307 -0.3045  1.3858
 8646SOL    HW237575   2.840   4.122   7.923 -0.7327 -0.8353  1.0480
 8647SOL     OW37576   1.759   0.697   2.634 -0.1965  0.5611  0.0173
 8647SOL    HW137577   1.760   0.763   2.703  1.9118 -0.7757  1.2868
 8647SOL    HW237578   1.672   0.660   2.646  0.9144 -2.2339 -0.3658
 8648SOL     OW37579   3.177   0.428  13.149  0.0407  0.1312  0.1435
 8648SOL    HW137580   3.169   0.334  13.169  2.2247  0.2750  1.6493
 8648SOL    HW237581   3.271   0.442  13.144 -0.1032  0.9125 -0.3218
 8649SOL     OW37582   4.109   0.184   4.161  0.2033 -0.1024 -0.6117
 8649SOL    HW137583   4.127   0.227   4.245 -1.8389 -2.2369  0.9309
 8649SOL    HW237584   4.073   0.100   4.191  0.2612 -0.4823 -1.6149
 8650SOL     OW37585   0.638   2.572   8.795  0.3843 -0.3910 -0.5187
 8650SOL    HW137586   0.630   2.583   8.890  2.5265 -1.4271 -0.2212
 8650SOL    HW237587   0.543   2.566   8.784  0.4905  1.5265 -2.3195
 8651SOL     OW37588   3.854   4.285   1.939 -0.0013  0.3824  0.8596
 8651SOL    HW137589   3.900   4.271   1.856  3.0937  2.7456  2.1756
 8651SOL    HW237590   3.769   4.270   1.899  0.0052 -0.3580  1.1381
 8652SOL     OW37591   1.224   1.491   6.414 -0.7743 -0.1214 -1.2367
 8652SOL    HW137592   1.299   1.432   6.412 -1.1062 -0.5299 -1.5216
 8652SOL    HW237593   1.152   1.431   6.397 -0.3400 -0.2653 -2.5421
 8653SOL     OW37594   3.811   2.015   0.030 -0.4201  0.1934 -0.0060
 8653SOL    HW137595   3.739   1.971  17.733  1.1016 -1.1904 -1.1121
 8653SOL    HW237596   3.790   1.984   0.118  0.1923 -0.8815 -0.2383
 8654SOL     OW37597   2.329   0.472  11.836 -0.2606  0.1229 -0.5115
 8654SOL    HW137598   2.410   0.462  11.886  0.1712 -1.7737 -1.5808
 8654SOL    HW237599   2.336   0.566  11.821  1.7162  0.7024  4.0016
 8655SOL     OW37600   2.855   0.805  14.446 -0.0191 -0.0806  0.0013
 8655SOL    HW137601   2.826   0.892  14.416 -0.0972 -0.1172 -0.0282
 8655SOL    HW237602   2.915   0.796  14.373 -0.0618 -1.4898  0.1559
 8656SOL     OW37603   0.558   4.267   1.860 -0.4680  0.3612  0.0977
 8656SOL    HW137604   0.586   4.178   1.878 -0.1100  0.4564  0.0273
 8656SOL    HW237605   0.543   4.306   1.946  1.0471 -0.3501  0.6851
 8657SOL     OW37606   4.365   1.864  14.805  0.7287 -0.7902  0.3146
 8657SOL    HW137607   4.407   1.949  14.821  0.5735 -1.1363  2.6016
 8657SOL    HW237608   4.396   1.840  14.718  2.4402  0.6546  0.5269
 8658SOL     OW37609   2.042   3.284   7.207  0.0036 -0.4317 -0.1002
 8658SOL    HW137610   1.979   3.322   7.146  2.1769  3.6851  0.1946
 8658SOL    HW237611   2.026   3.341   7.283  1.1325 -3.0736  2.0966
 8659SOL     OW37612   4.236   4.734   1.715 -0.3284  0.4322  0.2357
 8659SOL    HW137613   4.162   4.729   1.775 -0.3492  0.4667  0.2130
 8659SOL    HW237614   4.300   4.686   1.767 -0.7684  0.1833  0.5546
 8660SOL     OW37615   1.254   2.334   5.964  0.9567 -0.4835  0.3245
 8660SOL    HW137616   1.208   2.371   5.889  0.5914  1.1765  1.3612
 8660SOL    HW237617   1.189   2.335   6.035 -0.3024  0.8591 -0.8595
 8661SOL     OW37618   4.344   4.013   3.873 -0.1356  0.1397 -0.3059
 8661SOL    HW137619   4.422   4.067   3.883  0.1923 -0.5549  0.8217
 8661SOL    HW237620   4.396   3.937   3.849  0.2907  0.1115  0.6984
 8662SOL     OW37621   4.639   2.279  15.081  0.6774  0.7535 -0.3444
 8662SOL    HW137622   4.641   2.363  15.037  1.4520  0.5446 -0.7096
 8662SOL    HW237623   4.684   2.301  15.163 -1.7782  2.5914  0.5039
 8663SOL     OW37624   3.747   0.920   5.021  0.3413  0.2961 -0.0770
 8663SOL    HW137625   3.771   0.979   4.950 -0.4080  0.1263 -0.4725
 8663SOL    HW237626   3.834   0.893   5.048  0.5059  0.4354 -0.4723
 8664SOL     OW37627   0.126   1.482   4.520 -0.4304 -0.3173 -0.2490
 8664SOL    HW137628   0.173   1.462   4.440 -0.3067 -0.7158 -0.0774
 8664SOL    HW237629   0.201   1.490   4.579  1.1777  2.8503 -2.7065
 8665SOL     OW37630   1.927   4.030  17.653  0.3593  0.4308  0.7471
 8665SOL    HW137631   2.020   4.047  17.639 -0.2451  0.5107 -3.2503
 8665SOL    HW237632   1.914   3.947  17.607  1.9447  2.5965 -3.6926
 8666SOL     OW37633   4.349   4.663  12.508  0.0379 -0.0697  0.0208
 8666SOL    HW137634   4.405   4.707  12.572 -0.5798  0.3655  0.2580
 8666SOL    HW237635   4.384   4.574  12.505  1.8184  0.6361 -0.2018
 8667SOL     OW37636   2.316   1.870   7.131  0.1133 -0.3675  0.4616
 8667SOL    HW137637   2.252   1.890   7.063 -2.8057 -1.7541  2.8196
 8667SOL    HW237638   2.326   1.774   7.130  0.3090 -0.3255 -0.9277
 8668SOL     OW37639   1.436   3.753  14.217 -0.1180 -0.0180 -0.4579
 8668SOL    HW137640   1.438   3.817  14.146 -0.0576  1.0445  0.4919
 8668SOL    HW237641   1.474   3.806  14.287 -1.9219  0.2560  0.3153
 8669SOL     OW37642   2.932   3.081   8.916  0.6157  0.1691  0.3917
 8669SOL    HW137643   2.998   3.068   8.984  0.4166  2.4493  1.0395
 8669SOL    HW237644   2.994   3.105   8.847 -0.0527 -0.6362 -0.4927
 8670SOL     OW37645   3.667   1.793  14.881 -0.1767  0.2265 -0.5900
 8670SOL    HW137646   3.601   1.727  14.900  0.9374 -0.7312 -0.0166
 8670SOL    HW237647   3.683   1.843  14.961  0.5763  0.3997 -0.8470
 8671SOL     OW37648   4.169   2.600   1.823 -0.3169 -0.5642  0.3845
 8671SOL    HW137649   4.187   2.506   1.819  0.9550 -0.3318  0.5019
 8671SOL    HW237650   4.190   2.623   1.913 -0.2351  0.5199  0.0969
 8672SOL     OW37651   1.978   1.155   9.748 -0.1278  0.2547  0.0575
 8672SOL    HW137652   2.002   1.064   9.769 -0.2520  0.5172  1.3785
 8672SOL    HW237653   2.011   1.193   9.830 -0.9306 -1.3590  1.1414
 8673SOL     OW37654   3.677   1.700   4.275 -0.0803  0.1895 -0.2624
 8673SOL    HW137655   3.644   1.760   4.342 -0.5439 -1.4298  0.9585
 8673SOL    HW237656   3.656   1.748   4.195  1.7728  1.9686  0.3549
 8674SOL     OW37657   0.950   4.464   6.200  0.2269 -0.0928  0.4272
 8674SOL    HW137658   0.937   4.378   6.160 -0.4939  0.1434  0.1494
 8674SOL    HW237659   1.022   4.445   6.261 -0.9623  1.2569  2.2801
 8675SOL     OW37660   1.732   0.167   7.401  0.0982 -0.1632 -0.0208
 8675SOL    HW137661   1.649   0.206   7.428 -0.6679 -1.0802 -1.0854
 8675SOL    HW237662   1.798   0.215   7.452  0.1790  1.0913 -1.2995
 8676SOL     OW37663   0.339   4.369   7.389  0.3222 -0.3707 -0.1539
 8676SOL    HW137664   0.268   4.387   7.328  0.0515 -0.3777  0.1572
 8676SOL    HW237665   0.293   4.386   7.471  0.2902 -3.1985  0.4231
 8677SOL     OW37666   3.055   2.115   5.636  0.3839  0.4748 -0.0738
 8677SOL    HW137667   2.994   2.050   5.600 -0.7451  0.3446  2.0904
 8677SOL    HW237668   3.098   2.146   5.556  1.7504  2.8049  1.5734
 8678SOL     OW37669   1.069   1.471  13.997  0.5749  0.0191 -0.0753
 8678SOL    HW137670   1.041   1.409  14.064 -2.5721 -0.4328 -1.8436
 8678SOL    HW237671   0.987   1.519  13.985  1.3090  1.4257  0.6314
 8679SOL     OW37672   0.140   1.132   9.507  0.0675  0.1556  0.0499
 8679SOL    HW137673   0.085   1.192   9.557  0.5658 -1.2085  2.2309
 8679SOL    HW237674   0.091   1.143   9.426 -2.2357  3.2907  1.9013
 8680SOL     OW37675   1.979   0.840  14.497 -0.1503  0.3662  0.0408
 8680SOL    HW137676   2.021   0.844  14.411 -1.6703 -1.4525 -0.7923
 8680SOL    HW237677   1.945   0.750  14.497 -1.2632  0.7725 -1.7795
 8681SOL     OW37678   4.113   1.098   8.736 -0.0888  0.4410  0.3258
 8681SOL    HW137679   4.045   1.144   8.687 -0.9354  0.7271  1.7610
 8681SOL    HW237680   4.182   1.163   8.754  1.7151 -1.5330  0.5387
 8682SOL     OW37681   3.001   1.068   3.387  0.3382  0.3309 -0.1957
 8682SOL    HW137682   3.031   1.078   3.297  1.5261  1.3793  0.3221
 8682SOL    HW237683   3.052   1.122   3.447 -1.0384 -0.4172  1.6529
 8683SOL     OW37684   1.176   0.152  13.257 -0.7209  0.0212 -0.0528
 8683SOL    HW137685   1.181   0.237  13.301 -1.1430  1.2626 -2.4083
 8683SOL    HW237686   1.091   0.121  13.289 -0.6107  0.0395  0.2528
 8684SOL     OW37687   1.692   4.529   8.712  0.2907  0.2370 -0.0915
 8684SOL    HW137688   1.732   4.467   8.772 -0.2478  1.6409  1.7269
 8684SOL    HW237689   1.719   4.492   8.628  5.6356 -0.0559  1.7869
 8685SOL     OW37690   4.096   3.925   1.107  0.4955 -0.5039 -0.1843
 8685SOL    HW137691   4.047   3.923   1.025  0.5931 -1.4721 -0.2207
 8685SOL    HW237692   4.054   4.003   1.142  0.3094 -0.0798 -1.3282
 8686SOL     OW37693   3.367   3.606   5.102  0.3325 -0.1027 -0.8393
 8686SOL    HW137694   3.447   3.561   5.131 -0.5608 -0.4990  1.0028
 8686SOL    HW237695   3.326   3.622   5.186  2.8403  1.6963  0.0226
 8687SOL     OW37696   4.730   3.933   1.687 -0.0922 -0.4415 -0.1421
 8687SOL    HW137697   4.636   3.933   1.702  0.1674 -1.4494  1.5319
 8687SOL    HW237698   0.010   4.022   1.655  1.9708  0.0786  2.4117
 8688SOL     OW37699   4.560   0.918   4.545  0.5258  0.0898 -0.5416
 8688SOL    HW137700   4.642   0.916   4.596  1.8991  0.5173 -2.7447
 8688SOL    HW237701   4.584   0.970   4.469 -1.9494  0.1267 -1.2862
 8689SOL     OW37702   3.001   2.059   5.057 -0.3757 -0.0483  0.5088
 8689SOL    HW137703   3.097   2.053   5.064  0.0101 -0.0684 -4.5828
 8689SOL    HW237704   2.971   1.983   5.006  1.4474 -0.9293  0.7423
 8690SOL     OW37705   3.627   4.173   2.327  0.8292 -0.1196  0.7291
 8690SOL    HW137706   3.625   4.091   2.377 -2.4284 -0.4986 -0.0211
 8690SOL    HW237707   3.678   4.149   2.250  1.2201  2.0776  0.3275
 8691SOL     OW37708   1.963   3.281  16.938 -0.0397 -0.1006 -0.1146
 8691SOL    HW137709   1.970   3.368  16.977  0.3715  1.0727 -2.7869
 8691SOL    HW237710   1.935   3.216  17.002  0.5801  1.9193  2.1966
 8692SOL     OW37711   3.124   4.255   8.091 -0.2928 -0.4419  0.4257
 8692SOL    HW137712   3.082   4.181   8.047  1.2931 -0.4545 -1.0225
 8692SOL    HW237713   3.091   4.322   8.031 -2.6259 -0.1425  2.0099
 8693SOL     OW37714   3.629   4.348   1.366  0.3797 -0.5200  0.0519
 8693SOL    HW137715   3.661   4.414   1.427 -0.2556 -0.5067  0.3666
 8693SOL    HW237716   3.665   4.269   1.408  2.4575 -0.7021 -2.0086
 8694SOL     OW37717   1.356   0.811  11.560 -0.1030  0.0511  0.5564
 8694SOL    HW137718   1.374   0.796  11.653  0.2996 -0.1433  0.4471
 8694SOL    HW237719   1.334   0.722  11.533 -0.1464 -0.0929  1.0516
 8695SOL     OW37720   4.297   2.973  14.496 -0.0817 -0.2030 -0.3690
 8695SOL    HW137721   4.227   2.916  14.467 -0.5727 -0.2209  0.8766
 8695SOL    HW237722   4.270   3.055  14.454  0.0673  0.7093  1.3219
 8696SOL     OW37723   4.475   2.645   5.108 -0.1817  0.3610 -0.2200
 8696SOL    HW137724   4.498   2.693   5.187 -0.1850  1.2199 -0.7376
 8696SOL    HW237725   4.549   2.674   5.054 -1.2490 -0.4045 -2.1142
 8697SOL     OW37726   4.101   4.360   7.025 -0.0945  0.1975 -0.4351
 8697SOL    HW137727   4.165   4.325   6.964 -0.6552  0.1048 -0.9651
 8697SOL    HW237728   4.037   4.290   7.036  3.1384 -2.4518  1.1701
 8698SOL     OW37729   2.278   4.619   4.024 -0.2648 -0.0743 -0.5791
 8698SOL    HW137730   2.275   4.540   4.079 -1.6334 -0.1041 -0.6955
 8698SOL    HW237731   2.329   4.678   4.079 -0.1011  0.1233 -0.9493
 8699SOL     OW37732   1.975   3.966   8.113  0.5794 -0.1158 -0.5121
 8699SOL    HW137733   1.899   4.001   8.160  1.2267 -1.7898  1.8126
 8699SOL    HW237734   2.049   4.001   8.162  0.1097 -0.5654  0.5336
 8700SOL     OW37735   3.099   3.973   1.959 -0.0932 -0.3793  0.4954
 8700SOL    HW137736   3.146   3.952   2.039  2.3920  0.5486 -0.7306
 8700SOL    HW237737   3.062   3.888   1.936 -1.2926  0.0172  0.9635
 8701SOL     OW37738   3.810   3.838   2.025 -0.1551  0.1052 -0.3337
 8701SOL    HW137739   3.873   3.789   1.972  0.9732  2.5726 -1.2301
 8701SOL    HW237740   3.770   3.764   2.073 -1.4013  0.6702 -0.5046
 8702SOL     OW37741   2.306   3.952   3.218 -0.0161  0.0269  0.2938
 8702SOL    HW137742   2.346   3.913   3.140 -0.0221 -0.4401  0.5209
 8702SOL    HW237743   2.231   3.894   3.231  1.1957 -1.9059 -1.2671
 8703SOL     OW37744   3.957   3.493   6.492  0.1001 -0.4191  0.1894
 8703SOL    HW137745   3.921   3.420   6.443  2.3377  0.3838 -2.6184
 8703SOL    HW237746   4.048   3.491   6.464 -0.3239  1.0511 -1.2911
 8704SOL     OW37747   3.835   1.319   7.163  0.2012 -0.3396  0.0073
 8704SOL    HW137748   3.760   1.261   7.154  0.6453 -0.8707 -0.2503
 8704SOL    HW237749   3.907   1.267   7.127 -0.6499  0.7227 -3.2520
 8705SOL     OW37750   3.075   2.527   6.666  0.6125  0.1471 -0.0958
 8705SOL    HW137751   3.036   2.481   6.591  1.7541 -0.3409 -0.3958
 8705SOL    HW237752   3.047   2.618   6.654 -0.6415 -0.2901 -0.5360
 8706SOL     OW37753   1.796   3.904   2.770 -0.5042  0.2595  0.2030
 8706SOL    HW137754   1.818   3.837   2.706 -1.2181 -0.5365  0.7788
 8706SOL    HW237755   1.801   3.984   2.718  0.0516 -0.0023 -0.1360
 8707SOL     OW37756   0.535   2.792   9.015  0.2749 -0.5090 -0.0946
 8707SOL    HW137757   0.612   2.826   8.969  0.8808 -3.4644 -1.2334
 8707SOL    HW237758   0.471   2.838   8.962  1.0230 -0.0267 -0.5855
 8708SOL     OW37759   1.127   3.129  15.330  0.2898 -0.7270 -0.2571
 8708SOL    HW137760   1.209   3.128  15.282  0.8340  0.0707  0.6789
 8708SOL    HW237761   1.135   3.042  15.369 -0.0376 -0.2194  0.9624
 8709SOL     OW37762   0.038   2.922   1.617  0.6131  0.8801 -0.0330
 8709SOL    HW137763   4.701   2.867   1.590  0.9318  0.5754 -0.2969
 8709SOL    HW237764   0.088   2.915   1.535  0.8361 -2.5965  0.4061
 8710SOL     OW37765   0.966   0.537   9.140 -0.2292  0.5739 -0.1788
 8710SOL    HW137766   0.963   0.604   9.208  1.6116  0.9900 -0.5003
 8710SOL    HW237767   1.059   0.545   9.115  0.7967 -1.1530  3.1062
 8711SOL     OW37768   3.051   4.025   5.397  0.1134 -0.0292 -0.3910
 8711SOL    HW137769   3.010   4.095   5.448 -1.9486  0.2716 -2.4672
 8711SOL    HW237770   3.033   3.950   5.453  2.7276 -0.2827  0.0983
 8712SOL     OW37771   2.507   2.676   8.586 -0.5278  0.1218 -0.0201
 8712SOL    HW137772   2.528   2.715   8.671  1.6812 -2.7460  0.7562
 8712SOL    HW237773   2.580   2.705   8.532  1.4618 -2.6335  1.1993
 8713SOL     OW37774   3.840   1.996   5.067  0.2519 -0.0675 -0.2298
 8713SOL    HW137775   3.836   1.906   5.099 -0.7328 -0.1987 -0.7179
 8713SOL    HW237776   3.924   2.000   5.022 -0.0001 -0.6991 -0.7468
 8714SOL     OW37777   1.473   4.570  12.911  0.0931  0.4011  0.0329
 8714SOL    HW137778   1.408   4.503  12.889  0.6042 -0.2441  0.4739
 8714SOL    HW237779   1.430   4.649  12.879 -0.3188  1.0002  2.0388
 8715SOL     OW37780   2.729   4.288   3.996 -0.1275 -0.2179  0.0163
 8715SOL    HW137781   2.720   4.374   3.955  2.6647  0.7622  1.4219
 8715SOL    HW237782   2.644   4.253   3.969 -0.2319 -0.8586  1.2000
 8716SOL     OW37783   3.913   2.106  11.032  0.0360  0.0024 -0.6819
 8716SOL    HW137784   3.993   2.113  11.084  1.4680  0.6539 -2.9625
 8716SOL    HW237785   3.849   2.162  11.077  0.3725  1.0200 -1.4668
 8717SOL     OW37786   0.190   2.362   9.067  0.6872 -0.0969 -0.3773
 8717SOL    HW137787   0.124   2.431   9.060  1.3439  0.4713 -1.0025
 8717SOL    HW237788   0.164   2.325   9.151  0.2138 -0.0752 -0.5135
 8718SOL     OW37789   1.652   2.572   5.035  0.0332  0.3026  0.3201
 8718SOL    HW137790   1.645   2.482   5.003  1.2040  0.4526 -0.3595
 8718SOL    HW237791   1.670   2.617   4.952 -1.3201  0.3192  0.0381
 8719SOL     OW37792   3.022   2.686   6.198 -0.2049  1.1239  0.4741
 8719SOL    HW137793   3.094   2.739   6.163  0.4012  0.4225  0.6500
 8719SOL    HW237794   3.035   2.597   6.165  0.3451  1.4452 -0.1890
 8720SOL     OW37795   0.515   2.515   4.166 -0.2637  0.1394 -0.2790
 8720SOL    HW137796   0.446   2.451   4.152 -0.2773  0.4166 -1.4613
 8720SOL    HW237797   0.475   2.596   4.133  2.2029  1.0445 -0.9854
 8721SOL     OW37798   2.568   0.190   6.436 -0.0351 -0.1240 -0.6065
 8721SOL    HW137799   2.594   0.243   6.360  0.0303 -0.1083 -0.5731
 8721SOL    HW237800   2.628   0.116   6.423 -0.9036 -0.4027 -3.0527
 8722SOL     OW37801   3.627   1.989   6.621  0.3885 -0.3001 -0.6825
 8722SOL    HW137802   3.624   2.068   6.566  1.0373 -0.2104 -0.5929
 8722SOL    HW237803   3.547   1.997   6.673  0.5516 -2.0757 -0.1710
 8723SOL     OW37804   2.738   0.313   3.720  0.4580 -0.0562 -0.3361
 8723SOL    HW137805   2.814   0.256   3.733 -0.8085 -1.4292  1.0866
 8723SOL    HW237806   2.727   0.331   3.627  0.5422  1.5879 -0.0383
 8724SOL     OW37807   1.355   3.420   9.673 -0.3103 -0.1650  0.0153
 8724SOL    HW137808   1.434   3.444   9.625  0.6794 -2.4941  0.4966
 8724SOL    HW237809   1.351   3.493   9.734  1.6563 -0.9829  1.1018
 8725SOL     OW37810   3.489   2.368  17.278 -0.1967 -0.2109  0.2892
 8725SOL    HW137811   3.515   2.457  17.252  1.4795 -0.0304  2.6085
 8725SOL    HW237812   3.555   2.316  17.231  1.0803  0.3078  1.5109
 8726SOL     OW37813   0.044   1.210   6.401  0.1011 -0.1378 -0.4527
 8726SOL    HW137814   0.098   1.132   6.414  0.7903  0.5314  0.7293
 8726SOL    HW237815   4.720   1.183   6.333  0.3306 -0.7641 -0.4091
 8727SOL     OW37816   0.214   1.999   5.921  0.3022  0.9064 -0.9624
 8727SOL    HW137817   0.133   2.015   5.969  1.2503  1.6032  0.4007
 8727SOL    HW237818   0.195   1.915   5.878 -0.9686 -0.4005  2.1382
 8728SOL     OW37819   3.058   3.517  15.824 -0.1100 -0.3943 -0.7360
 8728SOL    HW137820   2.999   3.589  15.847  1.1967  1.0517 -1.9203
 8728SOL    HW237821   3.079   3.543  15.735  1.2514 -0.0437 -0.3180
 8729SOL     OW37822   3.914   4.216   4.622 -0.0198 -0.5060 -0.0257
 8729SOL    HW137823   3.939   4.308   4.611 -0.2391 -0.2963  1.2442
 8729SOL    HW237824   4.000   4.176   4.630  0.6494  0.8122 -0.4939
 8730SOL     OW37825   4.047   3.958   5.678  0.2836  0.4915 -0.4820
 8730SOL    HW137826   4.009   4.045   5.669 -0.7489 -0.2329 -3.2826
 8730SOL    HW237827   4.085   3.965   5.766  0.0132  1.9143 -0.4838
 8731SOL     OW37828   3.758   1.433   6.059  0.3254  0.0484 -0.0098
 8731SOL    HW137829   3.762   1.498   5.989 -3.2741 -0.5960 -0.8196
 8731SOL    HW237830   3.846   1.397   6.058  0.5547  0.5994  0.1267
 8732SOL     OW37831   2.277   4.406  10.710  0.4959 -0.0408 -0.0411
 8732SOL    HW137832   2.190   4.427  10.678  0.3438 -1.3182 -0.4840
 8732SOL    HW237833   2.263   4.313  10.732  0.2982  0.3399  1.4491
 8733SOL     OW37834   0.410   2.490   5.821  0.6950 -0.0853  0.0605
 8733SOL    HW137835   0.505   2.490   5.808  0.6858 -2.0857 -0.0805
 8733SOL    HW237836   0.398   2.395   5.823  1.2640 -0.1429  0.7552
 8734SOL     OW37837   3.720   3.430   4.299  0.3952  0.3960  0.4787
 8734SOL    HW137838   3.788   3.367   4.323 -0.7152 -0.7001  0.7310
 8734SOL    HW237839   3.660   3.416   4.373 -1.7291  0.8442 -1.1617
 8735SOL     OW37840   3.708   2.163   2.320  0.0259  0.7960  0.2297
 8735SOL    HW137841   3.787   2.170   2.267 -1.3464  1.5920 -1.6853
 8735SOL    HW237842   3.643   2.158   2.250  2.3125 -1.9663 -1.6513
 8736SOL     OW37843   4.141   4.211   8.310  0.0980 -0.1737 -0.2182
 8736SOL    HW137844   4.233   4.183   8.313 -0.1452 -0.6155  2.5420
 8736SOL    HW237845   4.105   4.140   8.362  1.4739  0.6702  1.9015
 8737SOL     OW37846   3.799   2.631  12.033 -0.0650  0.2970 -0.7693
 8737SOL    HW137847   3.797   2.539  12.059  3.5269  0.7109  0.9139
 8737SOL    HW237848   3.889   2.647  12.008  0.8317  2.1088  3.6325
 8738SOL     OW37849   1.830   3.593   1.759  0.3022 -0.4406  0.1896
 8738SOL    HW137850   1.774   3.633   1.692 -0.0155 -1.5144 -0.1821
 8738SOL    HW237851   1.911   3.643   1.744  1.4445 -2.8632 -1.8631
 8739SOL     OW37852   3.242   2.954   7.979  0.2646 -0.0819 -0.6819
 8739SOL    HW137853   3.281   3.022   7.923  0.5581 -0.6294 -1.1459
 8739SOL    HW237854   3.213   3.004   8.054  1.3444  0.4288 -0.5989
 8740SOL     OW37855   3.244   3.353  16.598  0.3749 -0.2881  0.1255
 8740SOL    HW137856   3.290   3.364  16.515  1.7561  0.5552  1.0017
 8740SOL    HW237857   3.241   3.258  16.605 -1.1409 -0.1878  0.8059
 8741SOL     OW37858   1.396   0.524   8.991 -0.8897 -0.3863  0.1995
 8741SOL    HW137859   1.394   0.507   9.085  0.4265  0.6872  0.4231
 8741SOL    HW237860   1.343   0.452   8.956  0.4850 -0.6866 -1.2572
 8742SOL     OW37861   4.119   2.807  14.637 -0.8233  0.5275  0.1877
 8742SOL    HW137862   4.192   2.870  14.639 -0.5528  0.3191 -2.5235
 8742SOL    HW237863   4.112   2.777  14.728 -0.7702 -2.0610 -0.6552
 8743SOL     OW37864   3.610   3.220  15.418 -1.0323  0.0172  0.0794
 8743SOL    HW137865   3.555   3.150  15.453  1.0772 -1.9915 -0.5887
 8743SOL    HW237866   3.543   3.248  15.357 -0.1515  1.8017 -0.0543
 8744SOL     OW37867   4.535   3.882  11.521  0.4317  0.1593 -0.2120
 8744SOL    HW137868   4.624   3.854  11.497  0.0147 -0.3013 -1.2019
 8744SOL    HW237869   4.543   3.975  11.543 -1.5699  0.6193 -1.5095
 8745SOL     OW37870   1.986   2.635   9.266 -0.3300  0.5147  0.4823
 8745SOL    HW137871   1.898   2.618   9.301  0.2697 -1.0351  1.2055
 8745SOL    HW237872   2.032   2.577   9.325  0.4876 -0.2417 -0.9071
 8746SOL     OW37873   3.254   2.932  15.144  0.2783 -0.1032  0.7160
 8746SOL    HW137874   3.278   2.918  15.235 -1.6071  1.2582  1.4223
 8746SOL    HW237875   3.278   2.851  15.098  2.7127  1.3657 -0.5960
 8747SOL     OW37876   4.568   3.692   1.852  0.0037 -0.1770  0.1271
 8747SOL    HW137877   4.663   3.703   1.852 -0.2358  1.8933  1.9490
 8747SOL    HW237878   4.542   3.711   1.762 -1.2787  0.7600  0.7058
 8748SOL     OW37879   3.210   3.533   6.648 -0.2980  0.1813 -0.4153
 8748SOL    HW137880   3.211   3.594   6.722  2.1417 -0.5728  0.1743
 8748SOL    HW237881   3.294   3.558   6.609 -0.3625 -0.0892 -0.7328
 8749SOL     OW37882   4.677   4.234   6.957  0.2555 -0.0231  0.6635
 8749SOL    HW137883   4.653   4.205   7.045 -0.3390 -2.0006 -0.1404
 8749SOL    HW237884   4.620   4.311   6.947 -1.9587 -1.8996 -1.2089
 8750SOL     OW37885   2.510   3.778   3.938  1.1009 -0.2082 -0.2761
 8750SOL    HW137886   2.421   3.751   3.915 -0.0521  2.4398  1.0357
 8750SOL    HW237887   2.531   3.842   3.870 -2.3852  0.2167 -0.9488
 8751SOL     OW37888   4.721   2.629   6.147  0.3647  0.3169 -0.1624
 8751SOL    HW137889   4.646   2.591   6.101 -0.3193  1.5869 -0.0910
 8751SOL    HW237890   0.035   2.554   6.177 -2.4057 -1.8898 -0.9796
 8752SOL     OW37891   1.198   2.370   1.601  0.6363  0.1294  0.5735
 8752SOL    HW137892   1.272   2.418   1.637  1.6960 -0.5676 -0.6570
 8752SOL    HW237893   1.210   2.281   1.633 -1.8592 -0.0164  1.1282
 8753SOL     OW37894   1.462   2.329  16.842  0.6565 -0.0420  0.3737
 8753SOL    HW137895   1.427   2.417  16.832  2.0499  0.4912  0.1755
 8753SOL    HW237896   1.405   2.282  16.903  0.2117 -1.8457 -1.4434
 8754SOL     OW37897   2.195   0.578  14.069 -0.0280 -0.0399 -0.3814
 8754SOL    HW137898   2.229   0.519  14.136 -0.2024 -0.5927 -0.7780
 8754SOL    HW237899   2.099   0.575  14.066 -0.1251  0.6052  2.3718
 8755SOL     OW37900   2.164   1.714   5.260  0.0320  0.2180 -0.2625
 8755SOL    HW137901   2.153   1.653   5.334  0.7868  0.7151  0.2613
 8755SOL    HW237902   2.258   1.730   5.254 -0.3796  2.4447 -0.7696
 8756SOL     OW37903   1.127   0.365   1.914 -0.1053  0.2490 -0.3757
 8756SOL    HW137904   1.221   0.382   1.911  0.1645 -1.3126 -0.6539
 8756SOL    HW237905   1.122   0.289   1.856  0.2937  0.6817 -0.9719
 8757SOL     OW37906   3.331   3.512  14.686  0.3392  0.3982 -0.0572
 8757SOL    HW137907   3.328   3.503  14.591  0.2708 -2.5004  0.2204
 8757SOL    HW237908   3.249   3.464  14.700  0.6690 -0.7841 -2.2226
 8758SOL     OW37909   0.532   1.805   4.742  0.1430  0.3997  0.0318
 8758SOL    HW137910   0.536   1.799   4.837 -1.6525 -0.7710  0.0337
 8758SOL    HW237911   0.550   1.896   4.717  2.8467  0.1154  0.9694
 8759SOL     OW37912   3.233   4.343   5.703  0.0155  0.0328 -0.0822
 8759SOL    HW137913   3.188   4.336   5.787  2.3078  0.7805  1.2003
 8759SOL    HW237914   3.231   4.438   5.692 -4.5535 -0.1438 -0.9152
 8760SOL     OW37915   3.090   0.695  15.125  0.5461 -0.3920  0.3060
 8760SOL    HW137916   3.105   0.738  15.041 -0.3033 -0.5465  0.0776
 8760SOL    HW237917   3.087   0.604  15.095 -0.1696  0.4719 -2.2251
 8761SOL     OW37918   4.419   2.524   9.069 -0.0891  0.0381 -0.0195
 8761SOL    HW137919   4.355   2.595   9.076  1.2858  0.8192  4.5185
 8761SOL    HW237920   4.400   2.496   8.980  0.7266  2.2386 -0.8857
 8762SOL     OW37921   2.163   1.120   2.890 -0.1179  0.0649  0.0247
 8762SOL    HW137922   2.208   1.174   2.824  0.1682  0.3274  0.4343
 8762SOL    HW237923   2.240   1.097   2.940 -1.0755 -0.6845  1.1320
 8763SOL     OW37924   0.286   1.631   4.247  0.3763 -0.5883 -0.1223
 8763SOL    HW137925   0.202   1.637   4.201  0.9206 -2.2924 -1.3490
 8763SOL    HW237926   0.353   1.669   4.190 -0.1787  1.1528  0.4000
 8764SOL     OW37927   3.733   1.785   0.239 -0.3614 -0.2397  0.3144
 8764SOL    HW137928   3.642   1.816   0.241  0.6603  2.5845  3.4660
 8764SOL    HW237929   3.738   1.733   0.159  0.0478  1.0416 -0.4917
 8765SOL     OW37930   1.416   1.258   1.792 -0.2059  1.1587  0.7689
 8765SOL    HW137931   1.469   1.331   1.762  0.6176 -0.1558 -0.9862
 8765SOL    HW237932   1.367   1.222   1.718 -0.3077  2.4645  0.1957
 8766SOL     OW37933   3.411   0.242   2.666  0.2912 -0.9055  0.3382
 8766SOL    HW137934   3.396   0.193   2.747  0.7522 -1.0502  0.3339
 8766SOL    HW237935   3.406   0.170   2.602  0.7100 -0.7126  0.0900
 8767SOL     OW37936   1.808   4.306   2.955 -0.4532 -0.4168  0.3663
 8767SOL    HW137937   1.796   4.311   3.050 -0.4828 -0.0565  0.3447
 8767SOL    HW237938   1.839   4.394   2.934 -0.5195 -1.0001 -2.2144
 8768SOL     OW37939   2.590   3.615   4.972 -1.2651 -0.2018 -0.5287
 8768SOL    HW137940   2.626   3.530   4.998 -2.0851 -0.1266  0.8062
 8768SOL    HW237941   2.528   3.588   4.904 -1.5095 -0.5880 -0.1468
 8769SOL     OW37942   1.921   3.848  11.647  0.2482 -0.2420  0.4787
 8769SOL    HW137943   1.974   3.800  11.710  2.4395  0.2644 -0.9559
 8769SOL    HW237944   1.874   3.773  11.612 -1.1778  0.7996  0.1624
 8770SOL     OW37945   1.259   1.137   2.885  0.0730  0.0678 -0.0736
 8770SOL    HW137946   1.253   1.048   2.850  2.1028 -1.1301  2.6452
 8770SOL    HW237947   1.165   1.151   2.891 -0.0358 -0.3364 -0.7621
 8771SOL     OW37948   3.812   4.391   8.557  0.2113 -0.0009  0.3307
 8771SOL    HW137949   3.902   4.361   8.574 -0.6704 -1.4681  2.4871
 8771SOL    HW237950   3.827   4.416   8.466  0.8902  1.9779  0.9785
 8772SOL     OW37951   0.032   4.311   1.893 -0.2608 -0.1546 -0.4127
 8772SOL    HW137952   0.113   4.360   1.906 -0.5981  0.6693 -1.4663
 8772SOL    HW237953   0.028   4.290   1.800  1.2096  1.4249 -0.8456
 8773SOL     OW37954   1.070   0.914  13.218  0.2075 -0.4308  0.2592
 8773SOL    HW137955   1.044   0.909  13.310  0.4220 -4.5682  0.1099
 8773SOL    HW237956   1.121   0.832  13.216  0.5041 -0.2155 -1.2502
 8774SOL     OW37957   2.162   1.899   8.610 -0.1389  0.0170  0.6580
 8774SOL    HW137958   2.101   1.947   8.553  0.5645 -1.2153 -1.1329
 8774SOL    HW237959   2.192   1.978   8.655  1.0144 -0.9171  1.5149
 8775SOL     OW37960   0.054   3.147   9.368 -0.8737  0.0799 -0.2240
 8775SOL    HW137961   0.104   3.077   9.411 -0.3068 -0.5343 -1.9113
 8775SOL    HW237962   0.016   3.196   9.442  0.5377  0.1821  0.4401
 8776SOL     OW37963   0.526   4.490  13.255 -0.3883 -0.5047 -0.4465
 8776SOL    HW137964   0.508   4.477  13.161 -2.3187  0.5326 -0.2117
 8776SOL    HW237965   0.438   4.509  13.285 -0.0788  2.5146 -1.4196
 8777SOL     OW37966   2.229   2.714   7.841 -0.0319 -0.6676  0.7751
 8777SOL    HW137967   2.134   2.710   7.852 -0.0605  2.2179  1.6425
 8777SOL    HW237968   2.237   2.749   7.752  0.3863 -3.0840 -0.1334
 8778SOL     OW37969   1.003   2.001   0.063  0.3278  0.0763 -0.2478
 8778SOL    HW137970   1.019   2.075   0.123  1.8887  1.4504 -2.3707
 8778SOL    HW237971   0.907   1.996   0.062  0.3159  0.8291 -1.9042
 8779SOL     OW37972   1.115   1.746   2.364 -0.0551  0.4108 -0.1190
 8779SOL    HW137973   1.049   1.740   2.295  0.3750 -0.6818 -0.4395
 8779SOL    HW237974   1.129   1.652   2.379 -2.2720  0.2373  0.7135
 8780SOL     OW37975   3.508   4.292   6.023  0.5104 -0.3538 -0.1879
 8780SOL    HW137976   3.587   4.346   6.031  1.3363 -1.2056 -2.3708
 8780SOL    HW237977   3.478   4.276   6.112  0.6974  0.9103  0.0938
 8781SOL     OW37978   4.064   2.703   3.628 -0.1164 -0.4635 -0.5131
 8781SOL    HW137979   4.109   2.650   3.694 -1.8349  0.1564  1.1615
 8781SOL    HW237980   4.068   2.644   3.552 -0.6766 -0.6659 -0.3867
 8782SOL     OW37981   3.430   1.963   4.718 -0.5653 -0.1983 -0.0671
 8782SOL    HW137982   3.365   1.915   4.667 -0.4105  2.2499 -2.5878
 8782SOL    HW237983   3.478   1.896   4.767  0.6919 -0.2972 -1.4419
 8783SOL     OW37984   1.686   1.472  10.395 -0.1983 -0.5758  0.1469
 8783SOL    HW137985   1.637   1.493  10.474  0.5228  0.3993  0.3367
 8783SOL    HW237986   1.778   1.481  10.419 -0.3724  0.7374  0.3187
 8784SOL     OW37987   2.520   3.389  11.638  0.4344  0.2205 -0.4785
 8784SOL    HW137988   2.584   3.323  11.665  0.4619  0.4542  0.0372
 8784SOL    HW237989   2.454   3.376  11.706 -0.8372 -1.9752 -2.1370
 8785SOL     OW37990   2.084   1.687   1.110 -0.2876  0.3858  0.7696
 8785SOL    HW137991   2.049   1.598   1.111  0.0026  0.2527 -1.8894
 8785SOL    HW237992   2.176   1.661   1.099 -0.0618  1.0154  1.1806
 8786SOL     OW37993   3.979   4.523  10.719 -0.2366  0.0960  0.1976
 8786SOL    HW137994   3.898   4.522  10.769 -0.1316  3.3236  0.4306
 8786SOL    HW237995   3.994   4.616  10.737  2.9529 -0.7800  2.0242
 8787SOL     OW37996   0.054   3.532  11.917  0.3196  0.4417 -0.0783
 8787SOL    HW137997   0.019   3.608  11.964  1.1433  1.0268 -0.4122
 8787SOL    HW237998   4.710   3.489  11.889  0.8062 -0.4275 -0.1413
 8788SOL     OW37999   1.083   2.380   9.331 -0.5251 -0.1057 -1.2308
 8788SOL    HW138000   1.007   2.425   9.294 -0.8896 -0.3367 -0.7664
 8788SOL    HW238001   1.056   2.379   9.423 -0.9276  0.1407 -1.3460
 8789SOL     OW38002   4.210   1.808   2.924  0.2673 -0.9877 -0.3644
 8789SOL    HW138003   4.149   1.765   2.864  0.4389 -0.1407 -1.1334
 8789SOL    HW238004   4.291   1.758   2.933  0.2044 -1.0000  0.1262
 8790SOL     OW38005   4.165   4.677   5.910  0.1143 -0.4426  1.0650
 8790SOL    HW138006   4.076   4.666   5.943 -1.2284  1.3607 -1.9899
 8790SOL    HW238007   4.198   0.020   5.952 -0.2199  0.7275 -0.9283
 8791SOL     OW38008   1.661   4.551   8.057  0.3199 -0.6038  0.2888
 8791SOL    HW138009   1.726   4.507   8.111  0.3430 -1.4425 -0.4187
 8791SOL    HW238010   1.592   4.484   8.051  0.9795 -1.2999  0.4873
 8792SOL     OW38011   4.138   4.436  11.503 -0.3453  0.8794 -0.0996
 8792SOL    HW138012   4.129   4.396  11.417  1.5445 -1.7765  0.9274
 8792SOL    HW238013   4.081   4.513  11.497 -0.9413  0.4916  0.6418
 8793SOL     OW38014   0.587   1.454   9.642  0.7143 -0.3404 -0.1028
 8793SOL    HW138015   0.667   1.415   9.606  0.8382 -0.5871  0.4384
 8793SOL    HW238016   0.535   1.374   9.637  1.9414 -1.0946 -0.6856
 8794SOL     OW38017   2.480   0.137   1.647  0.5111  0.2942  0.4248
 8794SOL    HW138018   2.550   0.183   1.600  1.2690  0.0992  1.3951
 8794SOL    HW238019   2.437   0.211   1.691  0.0964  0.1683  0.2352
 8795SOL     OW38020   1.239   2.204   7.194  0.1254 -0.0023  0.1518
 8795SOL    HW138021   1.211   2.290   7.224  2.1650  0.6070  0.3309
 8795SOL    HW238022   1.301   2.231   7.126 -1.1382  1.5401 -0.3765
 8796SOL     OW38023   2.360   3.355   3.398  0.0592  0.0764  0.5521
 8796SOL    HW138024   2.314   3.274   3.376  1.2856 -0.2987 -0.6396
 8796SOL    HW238025   2.362   3.338   3.492 -0.4132  0.9410  0.7117
 8797SOL     OW38026   2.453   0.774  15.662  0.3209  0.1201  0.2706
 8797SOL    HW138027   2.533   0.724  15.674  0.2488  0.1837  1.0808
 8797SOL    HW238028   2.486   0.861  15.684 -1.0507  0.4272  1.1270
 8798SOL     OW38029   0.963   1.267  15.830  0.0697  0.3055  0.0177
 8798SOL    HW138030   0.941   1.174  15.823  0.9397 -0.0351  1.6291
 8798SOL    HW238031   1.058   1.269  15.839  0.0858  0.9721 -0.2868
 8799SOL     OW38032   3.975   3.343  12.052 -0.2408  0.1327 -0.4545
 8799SOL    HW138033   4.050   3.336  11.992 -0.6919  0.8157 -1.1005
 8799SOL    HW238034   3.997   3.270  12.110  2.4065  2.4900  1.5534
 8800SOL     OW38035   2.675   2.943   0.406 -0.3608  0.3530  0.4292
 8800SOL    HW138036   2.616   2.997   0.459  0.0136 -0.9309  2.1578
 8800SOL    HW238037   2.704   2.889   0.479 -0.6668 -1.4769 -0.7972
 8801SOL     OW38038   3.630   4.011   0.475  0.3781  0.2259  0.4846
 8801SOL    HW138039   3.544   4.025   0.434  0.5138  1.7300  0.7203
 8801SOL    HW238040   3.668   3.948   0.414  1.1306  1.6112 -0.4536
 8802SOL     OW38041   0.666   2.206   7.037 -0.5038 -0.2354 -0.2054
 8802SOL    HW138042   0.640   2.281   7.091  0.7082  0.4539 -0.5809
 8802SOL    HW238043   0.754   2.224   7.005 -0.4441 -1.1292 -0.5267
 8803SOL     OW38044   3.782   1.792  10.576  0.0761 -0.0822  0.0431
 8803SOL    HW138045   3.756   1.884  10.568  2.1019  0.4672 -0.1663
 8803SOL    HW238046   3.771   1.782  10.481  0.1448 -0.8693  0.1165
 8804SOL     OW38047   2.513   2.924   7.716 -0.5207 -0.0907 -0.4641
 8804SOL    HW138048   2.585   2.968   7.671  0.6717 -0.3683  1.1809
 8804SOL    HW238049   2.435   2.945   7.664  0.6941 -1.3829 -2.8500
 8805SOL     OW38050   2.255   2.427   7.125  0.5487 -0.2673 -0.4742
 8805SOL    HW138051   2.216   2.361   7.069 -1.2489 -1.3365  2.0326
 8805SOL    HW238052   2.319   2.476   7.073  0.7896  0.6066  0.6220
 8806SOL     OW38053   4.236   1.314   2.523 -0.0060  0.1601 -0.5612
 8806SOL    HW138054   4.313   1.264   2.496 -0.3047 -0.7962  0.3673
 8806SOL    HW238055   4.284   1.361   2.591 -1.5147 -1.5858  1.7171
 8807SOL     OW38056   0.908   0.659   8.748  0.0525 -0.3262 -0.0056
 8807SOL    HW138057   0.851   0.725   8.710  1.2384  0.2427 -0.7955
 8807SOL    HW238058   0.952   0.631   8.668  0.6254 -1.6312  0.7668
 8808SOL     OW38059   2.134   3.897   1.642 -0.4111 -0.6021 -0.2998
 8808SOL    HW138060   2.123   3.805   1.617 -0.2129 -0.5479 -0.6003
 8808SOL    HW238061   2.128   3.937   1.555 -0.0932  2.7376  1.2072
 8809SOL     OW38062   3.318   0.452   7.016 -0.5391  0.7637  0.4609
 8809SOL    HW138063   3.390   0.515   7.020  0.9049 -0.8229 -0.6234
 8809SOL    HW238064   3.279   0.477   7.100  0.7854 -0.9745  1.5822
 8810SOL     OW38065   3.915   2.494   6.977 -0.2995  0.5330  0.6915
 8810SOL    HW138066   4.009   2.511   6.988  0.3061 -0.9674 -1.9955
 8810SOL    HW238067   3.882   2.467   7.062  2.9078 -0.6669  1.5537
 8811SOL     OW38068   3.468   4.071  13.368  0.1751 -0.6590  0.0225
 8811SOL    HW138069   3.560   4.093  13.349  1.5410 -3.8624  2.9833
 8811SOL    HW238070   3.461   4.074  13.463  2.2185  0.3881  0.1385
 8812SOL     OW38071   3.199   4.729   5.172  0.1830  0.5867  0.6624
 8812SOL    HW138072   3.142   0.008   5.247  1.3734  0.8795  1.4936
 8812SOL    HW238073   3.140   4.714   5.098  1.9806  2.5657 -1.1754
 8813SOL     OW38074   1.101   2.115   9.826  0.6227 -0.0833 -0.7855
 8813SOL    HW138075   1.059   2.142   9.744 -1.0530 -2.1072 -0.5696
 8813SOL    HW238076   1.182   2.071   9.799  0.8952 -0.6391  0.9310
 8814SOL     OW38077   2.601   4.379   1.744  0.9695 -0.4099  0.3417
 8814SOL    HW138078   2.541   4.365   1.671  0.9126  0.5228  0.2122
 8814SOL    HW238079   2.652   4.453   1.712 -0.9844  1.0842  0.7077
 8815SOL     OW38080   1.222   0.823   5.597 -0.6506  0.3527  0.1548
 8815SOL    HW138081   1.168   0.798   5.672  4.7783  0.4269  4.0359
 8815SOL    HW238082   1.158   0.823   5.526  0.4803  0.6923 -0.8502
 8816SOL     OW38083   1.205   0.553   4.600  0.5665 -0.1936 -0.1778
 8816SOL    HW138084   1.176   0.637   4.635 -2.7490 -0.9585 -1.1443
 8816SOL    HW238085   1.124   0.507   4.578  0.5443 -1.1724  1.9123
 8817SOL     OW38086   0.810   3.094   7.210 -0.2589 -0.0407 -1.0895
 8817SOL    HW138087   0.768   3.074   7.126  0.5872 -0.4609 -1.4163
 8817SOL    HW238088   0.887   3.139   7.173 -0.7624  0.9122 -0.9714
 8818SOL     OW38089   1.129   3.041   9.461  0.2127 -0.5015 -0.6207
 8818SOL    HW138090   1.038   3.020   9.480 -0.0651  0.3122 -1.0570
 8818SOL    HW238091   1.131   3.120   9.516 -0.4019 -1.8312  1.2969
 8819SOL     OW38092   3.360   1.865   2.468 -0.3060 -0.2771 -0.1872
 8819SOL    HW138093   3.389   1.774   2.477 -0.8407 -0.4069  0.2142
 8819SOL    HW238094   3.327   1.888   2.555 -0.1953 -1.2742  0.1235
 8820SOL     OW38095   3.737   4.364  16.207 -0.1033 -0.0665  0.2158
 8820SOL    HW138096   3.740   4.366  16.303  1.6589  0.1680  0.1646
 8820SOL    HW238097   3.732   4.269  16.196 -1.2605 -0.0909  0.9626
 8821SOL     OW38098   3.759   1.788   2.927 -0.1656 -0.1039 -0.1931
 8821SOL    HW138099   3.814   1.715   2.900 -2.2801 -1.9677  0.5993
 8821SOL    HW238100   3.764   1.795   3.023 -2.8103 -0.6615 -0.0170
 8822SOL     OW38101   2.505   3.791   9.143 -0.6461  0.1284  0.6438
 8822SOL    HW138102   2.531   3.703   9.169 -0.7444  0.4650  1.8775
 8822SOL    HW238103   2.467   3.809   9.229 -0.4440  2.0308  0.3290
 8823SOL     OW38104   0.111   3.022   5.611  0.1244 -0.7034  0.3234
 8823SOL    HW138105   0.037   3.067   5.571  1.2742  0.6296 -0.3168
 8823SOL    HW238106   0.068   2.969   5.678 -2.3572 -2.9708 -3.0817
 8824SOL     OW38107   2.508   1.477   7.950  0.2070 -0.1595  0.7832
 8824SOL    HW138108   2.467   1.563   7.949  0.8502  0.1400 -0.7320
 8824SOL    HW238109   2.598   1.498   7.977  1.2060 -0.5134 -2.2894
 8825SOL     OW38110   0.796   1.934  12.807 -0.2324  0.0566 -0.3563
 8825SOL    HW138111   0.768   1.866  12.746 -1.3043 -1.2431  1.5826
 8825SOL    HW238112   0.821   2.002  12.744 -2.4327  0.4906 -0.7570
 8826SOL     OW38113   2.020   0.271  17.727  0.1989 -0.1497 -0.8365
 8826SOL    HW138114   1.932   0.269  17.691 -1.0712 -1.2110  2.3335
 8826SOL    HW238115   1.992   0.318   0.058 -2.4862 -0.0140 -1.9079
 8827SOL     OW38116   3.949   0.677   4.934  0.7043 -0.7108  0.8678
 8827SOL    HW138117   3.940   0.716   4.848  1.4086 -0.0057  1.1175
 8827SOL    HW238118   3.961   0.758   4.983 -1.4257 -0.8456  1.6299
 8828SOL     OW38119   3.797   0.637   2.966  0.7438  0.3973  0.0951
 8828SOL    HW138120   3.809   0.724   2.928  0.8675  0.7036  0.8306
 8828SOL    HW238121   3.876   0.639   3.020  1.4461  0.0036 -0.9260
 8829SOL     OW38122   4.235   2.145  15.249 -0.5024 -0.5295 -0.5701
 8829SOL    HW138123   4.292   2.210  15.290 -1.3886 -0.4671  0.5949
 8829SOL    HW238124   4.268   2.064  15.287  0.4036  0.1927  0.1927
 8830SOL     OW38125   2.183   1.381   0.867 -0.4887 -0.3247 -0.5015
 8830SOL    HW138126   2.256   1.376   0.805 -0.2816 -0.0144 -0.2832
 8830SOL    HW238127   2.101   1.380   0.818 -0.8393 -2.0329  0.1222
 8831SOL     OW38128   4.128   2.077   9.502 -0.0235  0.0350  0.6766
 8831SOL    HW138129   4.205   2.105   9.452 -0.0309 -0.7217  0.2462
 8831SOL    HW238130   4.131   1.982   9.487  1.2798  0.4043 -1.3812
 8832SOL     OW38131   3.758   2.747   6.273 -0.0448  0.3140  0.3186
 8832SOL    HW138132   3.680   2.752   6.329  0.2215  0.3818  0.6879
 8832SOL    HW238133   3.747   2.827   6.222  1.5069  1.0559  1.1562
 8833SOL     OW38134   1.500   0.122   3.108  0.1050  0.6810 -0.0943
 8833SOL    HW138135   1.525   0.191   3.046  1.4840 -1.0439 -1.4311
 8833SOL    HW238136   1.415   0.086   3.085  0.2867 -1.3602  2.4323
 8834SOL     OW38137   3.412   1.970  14.914  0.6392  0.0691 -0.7548
 8834SOL    HW138138   3.335   1.932  14.871 -0.8282 -0.6945  2.6035
 8834SOL    HW238139   3.449   1.887  14.942 -0.3183 -0.3980 -0.8585
 8835SOL     OW38140   0.473   2.416   9.736  0.4368  0.2943 -0.3537
 8835SOL    HW138141   0.534   2.414   9.662  1.7261  1.0150  0.6763
 8835SOL    HW238142   0.387   2.431   9.697  0.2053  1.6057  0.6689
 8836SOL     OW38143   1.680   2.190   2.005 -0.3817  0.9024  0.3153
 8836SOL    HW138144   1.587   2.199   2.027 -0.5488 -1.2912  0.4881
 8836SOL    HW238145   1.725   2.189   2.089  0.4099 -1.1613 -0.1323
 8837SOL     OW38146   0.019   2.766   5.704  0.0635 -0.1023 -0.2309
 8837SOL    HW138147   0.025   2.699   5.635  0.5329 -0.7722  0.4615
 8837SOL    HW238148   0.073   2.723   5.771  0.2425  0.3038 -0.1136
 8838SOL     OW38149   3.075   0.338   5.972 -0.1509 -0.0180 -0.1365
 8838SOL    HW138150   3.014   0.292   5.913 -1.3012  1.9453 -0.4830
 8838SOL    HW238151   3.147   0.278   5.953 -1.2860 -0.7887 -2.0505
 8839SOL     OW38152   3.694   2.318   9.435  0.7955 -0.1690 -0.0604
 8839SOL    HW138153   3.738   2.341   9.517 -3.1907 -0.4195  2.1527
 8839SOL    HW238154   3.755   2.258   9.393  1.3807  0.6164 -0.3438
 8840SOL     OW38155   0.370   1.590   4.695 -0.4779  0.0847  0.4248
 8840SOL    HW138156   0.382   1.674   4.740 -1.3782  0.9461 -0.9422
 8840SOL    HW238157   0.415   1.601   4.611  0.1964 -2.5769  0.4518
 8841SOL     OW38158   3.158   0.317   3.108  0.5774  0.4642 -0.0201
 8841SOL    HW138159   3.189   0.402   3.077  0.8374  0.8925  1.4318
 8841SOL    HW238160   3.237   0.263   3.104 -0.3490 -0.8581 -0.8858
 8842SOL     OW38161   0.722   1.724   6.568 -0.5167 -0.5260  0.2855
 8842SOL    HW138162   0.781   1.742   6.641  0.5561 -0.9427 -0.4786
 8842SOL    HW238163   0.782   1.698   6.498  1.2300  0.9552  1.2081
 8843SOL     OW38164   2.455   3.267   5.395 -0.0869  0.4056 -0.3851
 8843SOL    HW138165   2.401   3.188   5.388 -0.5856  0.3917  3.5139
 8843SOL    HW238166   2.539   3.228   5.420  0.1895  1.1992 -0.0888
 8844SOL     OW38167   0.227   2.317   3.413 -0.3659 -0.0437  0.2224
 8844SOL    HW138168   0.146   2.362   3.437 -1.0226  0.0788 -2.2826
 8844SOL    HW238169   0.288   2.347   3.480 -0.9465  2.4493 -0.3780
 8845SOL     OW38170   1.840   3.120   1.475 -0.3305  0.5109 -0.1034
 8845SOL    HW138171   1.805   3.078   1.397  1.6059 -0.3136 -0.5196
 8845SOL    HW238172   1.817   3.052   1.538 -1.6218  1.3872  0.3789
 8846SOL     OW38173   3.395   4.514   5.908 -0.0819 -0.0800 -0.1381
 8846SOL    HW138174   3.442   4.517   5.825  1.1589  1.0791  0.5955
 8846SOL    HW238175   3.418   4.426   5.938 -0.6931  0.2020  1.1507
 8847SOL     OW38176   3.558   1.769   8.022  0.0647  0.3105 -0.1813
 8847SOL    HW138177   3.499   1.723   7.963  1.2348 -1.7807  0.2703
 8847SOL    HW238178   3.637   1.715   8.010  1.1469  2.0783 -1.0649
 8848SOL     OW38179   3.716   1.472   9.037  0.8566  0.0307 -0.3062
 8848SOL    HW138180   3.646   1.424   9.081  0.1834  0.9885 -0.3476
 8848SOL    HW238181   3.720   1.421   8.956  2.8874  0.8449 -0.7208
 8849SOL     OW38182   2.532   4.328  12.059 -0.2804 -0.0360 -0.3486
 8849SOL    HW138183   2.616   4.361  12.091  0.5348 -2.9723  0.4770
 8849SOL    HW238184   2.516   4.254  12.118 -3.7557 -1.7790 -3.4994
 8850SOL     OW38185   0.992   2.556   0.863  0.8862  0.2686  0.6467
 8850SOL    HW138186   0.948   2.532   0.945 -0.8265 -1.2240 -0.7193
 8850SOL    HW238187   0.924   2.594   0.808 -1.8105 -4.5728  0.6094
 8851SOL     OW38188   3.430   1.822   3.069  0.2459  0.2009 -0.2292
 8851SOL    HW138189   3.464   1.907   3.040  1.3837 -1.1008 -2.7424
 8851SOL    HW238190   3.410   1.778   2.987 -0.5355 -0.3234  0.2562
 8852SOL     OW38191   3.079   1.123  11.973 -0.0152  0.8825  0.3384
 8852SOL    HW138192   3.033   1.097  11.893 -0.5564 -0.8664  1.2091
 8852SOL    HW238193   3.088   1.218  11.961  0.6991  0.7384 -0.2644
 8853SOL     OW38194   4.086   2.755  13.031  0.2056 -0.8316  0.0541
 8853SOL    HW138195   4.003   2.713  13.012  0.7378 -1.6857 -0.3710
 8853SOL    HW238196   4.142   2.698  12.978  1.3221  0.4591 -0.1564
 8854SOL     OW38197   4.421   3.142  10.813  0.5455 -0.4497  0.4008
 8854SOL    HW138198   4.377   3.104  10.889  2.4671 -2.8641  0.3348
 8854SOL    HW238199   4.515   3.142  10.833  0.9087  1.3195 -1.3413
 8855SOL     OW38200   0.964   4.372   8.757 -0.1981  0.9011  0.6860
 8855SOL    HW138201   0.989   4.446   8.701 -1.3443 -1.2531 -2.6500
 8855SOL    HW238202   0.949   4.306   8.690 -1.4342  0.2566  1.6091
 8856SOL     OW38203   1.874   3.515   2.216  0.7558 -0.3180  0.1553
 8856SOL    HW138204   1.793   3.490   2.172  0.8160 -0.0379 -0.1143
 8856SOL    HW238205   1.915   3.573   2.152 -1.1458 -0.6816 -1.3975
 8857SOL     OW38206   0.185   0.651   3.753  0.0501 -0.0811  0.5649
 8857SOL    HW138207   0.209   0.656   3.845  1.0649 -1.4630  0.3868
 8857SOL    HW238208   0.094   0.681   3.751  0.0680 -0.0559  0.2001
 8858SOL     OW38209   3.813   0.388   1.840  0.6736 -0.2639 -0.4794
 8858SOL    HW138210   3.813   0.293   1.829 -2.1400 -0.5496  2.2113
 8858SOL    HW238211   3.830   0.402   1.933  0.0595  0.3707 -0.4587
 8859SOL     OW38212   0.980   1.191   6.830  0.0744  0.7168 -0.1176
 8859SOL    HW138213   0.902   1.206   6.883 -1.1484 -0.5339 -1.5539
 8859SOL    HW238214   0.977   1.100   6.801  1.9261  0.6227  0.0419
 8860SOL     OW38215   3.452   4.508  15.435  0.5980  0.7074  0.1530
 8860SOL    HW138216   3.453   4.573  15.506  0.4968  0.1842  0.6368
 8860SOL    HW238217   3.377   4.453  15.459  0.7948  0.2825 -0.2143
 8861SOL     OW38218   3.496   2.633   9.068 -0.0451 -0.2121  0.0976
 8861SOL    HW138219   3.414   2.585   9.056 -1.5445  2.7526 -1.5889
 8861SOL    HW238220   3.551   2.565   9.106  0.2092  0.7716  1.4904
 8862SOL     OW38221   1.760   1.924   6.740  0.4658  0.5959  0.5823
 8862SOL    HW138222   1.762   1.831   6.762  0.0911  0.6707  0.9423
 8862SOL    HW238223   1.795   1.961   6.821 -0.3882  0.5034  0.9965
 8863SOL     OW38224   2.679   0.819   3.811  0.0165  0.0374  0.1669
 8863SOL    HW138225   2.635   0.754   3.866  1.1104  0.3025  1.3547
 8863SOL    HW238226   2.690   0.886   3.879 -2.9898 -0.7655  1.4466
 8864SOL     OW38227   3.187   4.686   1.530 -0.3205  0.4599  0.4709
 8864SOL    HW138228   3.261   4.675   1.590 -1.0600  0.8487  1.4498
 8864SOL    HW238229   3.176   4.593   1.511 -3.7521  1.4405 -2.2373
 8865SOL     OW38230   2.455   2.350   4.398  0.1160  0.7963  0.5784
 8865SOL    HW138231   2.390   2.285   4.423 -1.2258  1.0146 -2.3663
 8865SOL    HW238232   2.399   2.422   4.368  0.9858  0.3170 -2.1558
 8866SOL     OW38233   4.097   1.743   7.163 -0.2262  0.1139 -0.6058
 8866SOL    HW138234   4.108   1.664   7.110 -0.9469 -0.6763  0.4351
 8866SOL    HW238235   4.167   1.725   7.225 -0.0960 -0.7142 -0.9979
 8867SOL     OW38236   2.093   3.307   2.766 -0.0652  0.4098  0.1438
 8867SOL    HW138237   2.125   3.362   2.837 -0.9694 -1.2362  1.8285
 8867SOL    HW238238   2.032   3.371   2.729  2.1275  2.9398  0.9698
 8868SOL     OW38239   2.884   4.371  10.748 -0.2298  0.1984  0.1210
 8868SOL    HW138240   2.956   4.331  10.796 -0.3562  1.0773  1.0338
 8868SOL    HW238241   2.933   4.427  10.688 -2.3589  0.3542 -1.5062
 8869SOL     OW38242   4.427   4.717   5.003  0.2816 -0.4242 -0.5545
 8869SOL    HW138243   4.373   4.640   5.020  1.0931 -1.2543 -1.7644
 8869SOL    HW238244   4.414   0.025   5.087 -0.3713 -1.5980 -0.0222
 8870SOL     OW38245   2.889   0.961   4.315 -0.7677  0.1985  0.4154
 8870SOL    HW138246   2.799   0.931   4.305 -0.7592  0.2374  0.2228
 8870SOL    HW238247   2.870   1.047   4.278  0.7531  0.2291 -0.3299
 8871SOL     OW38248   1.325   3.318   6.306 -0.5164  0.0973  0.2791
 8871SOL    HW138249   1.278   3.271   6.237 -1.9926 -0.4791  1.6835
 8871SOL    HW238250   1.338   3.250   6.372 -0.2538 -1.8329 -1.7359
 8872SOL     OW38251   3.206   2.763   6.007  0.2018  0.0613 -0.5365
 8872SOL    HW138252   3.267   2.830   5.974  1.7853 -0.0465  2.1536
 8872SOL    HW238253   3.271   2.705   6.046 -2.2150 -0.8999  1.9996
 8873SOL     OW38254   3.633   3.815   8.138 -0.1739 -0.5160  0.4507
 8873SOL    HW138255   3.633   3.782   8.228  2.8058 -0.7059  0.3616
 8873SOL    HW238256   3.703   3.877   8.156 -0.2655 -0.1166 -0.5305
 8874SOL     OW38257   0.901   2.771   8.394 -0.4286  0.2439  0.0490
 8874SOL    HW138258   0.950   2.828   8.453 -1.6855  0.5964  0.7683
 8874SOL    HW238259   0.824   2.750   8.446  0.1424  1.5052  1.4046
 8875SOL     OW38260   2.371   0.601   8.023  0.2123 -0.1125  0.1946
 8875SOL    HW138261   2.438   0.534   8.040  0.0361 -0.0116  1.2237
 8875SOL    HW238262   2.302   0.550   7.980 -0.5283 -0.1285  1.4153
 8876SOL     OW38263   0.209   2.144  13.859  0.6925  0.0210  0.1004
 8876SOL    HW138264   0.169   2.065  13.823  2.3699 -0.9754  0.4392
 8876SOL    HW238265   0.151   2.210  13.820 -2.0175 -0.5153  3.2263
 8877SOL     OW38266   1.021   3.589   2.827  0.7072  0.3421  0.0746
 8877SOL    HW138267   1.089   3.523   2.824 -0.3288 -0.5881 -2.6723
 8877SOL    HW238268   0.980   3.563   2.910  0.3327 -0.5577 -0.3938
 8878SOL     OW38269   3.591   2.064   4.955  0.2635  0.5378 -0.4633
 8878SOL    HW138270   3.551   1.980   4.934 -1.8237  0.7449  2.7260
 8878SOL    HW238271   3.679   2.046   4.989 -1.5314 -2.6598  2.5267
 8879SOL     OW38272   3.276   2.371  15.644 -0.0437  0.5040 -0.0246
 8879SOL    HW138273   3.365   2.372  15.609  0.5252  1.6660  1.4687
 8879SOL    HW238274   3.261   2.455  15.688  0.0232  0.7555 -0.4790
 8880SOL     OW38275   0.317   2.868   2.478  0.7573  0.2367  0.6268
 8880SOL    HW138276   0.245   2.917   2.439 -0.3311 -1.7505  0.1118
 8880SOL    HW238277   0.325   2.914   2.562  1.6117  2.9217 -0.9578
 8881SOL     OW38278   4.133   3.010   7.584  0.4821  0.0665 -0.3101
 8881SOL    HW138279   4.096   3.060   7.656 -0.6807  0.5886 -1.2631
 8881SOL    HW238280   4.084   3.030   7.504  2.3151 -0.6746 -1.6228
 8882SOL     OW38281   2.963   3.088  14.862 -0.4222  0.2478  0.0867
 8882SOL    HW138282   3.030   3.056  14.801 -2.1449 -0.2682 -1.5505
 8882SOL    HW238283   2.985   3.047  14.945  1.7856  0.3994 -0.4163
 8883SOL     OW38284   2.905   4.628   5.845  0.5019  0.6276 -0.3743
 8883SOL    HW138285   2.899   4.676   5.762  0.7274  1.8239  0.2981
 8883SOL    HW238286   2.813   4.642   5.867  1.2726 -0.3390  3.3337
 8884SOL     OW38287   0.251   4.035   1.785  0.4076 -0.4633  0.1358
 8884SOL    HW138288   0.255   4.058   1.877  2.9146  1.7858 -0.5356
 8884SOL    HW238289   0.160   4.007   1.772 -0.5944  2.8011  0.2356
 8885SOL     OW38290   1.359   0.536   7.340  0.5935  0.0291  0.6208
 8885SOL    HW138291   1.314   0.570   7.263 -1.2492 -1.8028  0.8966
 8885SOL    HW238292   1.433   0.493   7.296  1.0453 -0.0934  1.4907
 8886SOL     OW38293   0.938   3.592   6.091  0.1603  0.0304 -1.0651
 8886SOL    HW138294   1.032   3.610   6.081  0.5614 -0.9725  0.9339
 8886SOL    HW238295   0.910   3.672   6.048  1.2792 -0.1917 -2.1950
 8887SOL     OW38296   0.863   0.526   6.893  0.0072 -0.1109  0.3083
 8887SOL    HW138297   0.909   0.514   6.975 -1.8261 -1.0256  1.2126
 8887SOL    HW238298   0.905   0.455   6.844  1.0718  1.1295 -0.5765
 8888SOL     OW38299   0.462   2.093  10.078 -0.5511  0.3214  0.2862
 8888SOL    HW138300   0.423   2.047  10.003  0.6617 -1.0327  0.4876
 8888SOL    HW238301   0.453   2.017  10.135  0.3094  2.6091  3.4374
 8889SOL     OW38302   2.745   1.662  14.620  0.3256 -0.5766 -0.5208
 8889SOL    HW138303   2.680   1.721  14.583  1.7256  1.9967  1.2040
 8889SOL    HW238304   2.714   1.650  14.709  0.9463  0.9325 -0.1087
 8890SOL     OW38305   4.251   2.844   7.161  0.0189 -0.2910  0.2080
 8890SOL    HW138306   4.249   2.838   7.065 -0.3526 -1.1855  0.2721
 8890SOL    HW238307   4.215   2.758   7.182  0.7173 -0.3219  1.2436
 8891SOL     OW38308   1.422   2.999   9.070 -0.0085  0.6818 -0.2610
 8891SOL    HW138309   1.331   3.014   9.097  0.0084  1.2519 -0.5161
 8891SOL    HW238310   1.415   2.953   8.987  1.4760 -1.0447  0.5834
 8892SOL     OW38311   3.787   2.096   3.807  0.4172  0.2426 -0.3872
 8892SOL    HW138312   3.718   2.091   3.874  0.8546 -1.0573 -0.0430
 8892SOL    HW238313   3.742   2.133   3.731 -2.0038  0.0261  0.9121
 8893SOL     OW38314   2.675   1.239  10.129 -0.0415  0.0697 -0.0871
 8893SOL    HW138315   2.600   1.290  10.161 -1.5686 -2.5233  0.4535
 8893SOL    HW238316   2.640   1.221  10.041 -1.6892 -0.7274  0.7382
 8894SOL     OW38317   0.759   0.615   8.985  0.0006  0.3280 -0.2788
 8894SOL    HW138318   0.834   0.583   9.036 -1.5500  1.1949  2.5482
 8894SOL    HW238319   0.794   0.610   8.896 -3.5633  2.4875 -1.7998
 8895SOL     OW38320   2.066   1.907   9.968  0.0865 -0.2633  0.7236
 8895SOL    HW138321   2.082   2.000   9.958  0.9487 -0.5844 -0.9020
 8895SOL    HW238322   2.023   1.897   9.883  0.9789 -1.0134  0.3559
 8896SOL     OW38323   1.887   4.168   7.926 -0.0918 -0.0800 -0.0415
 8896SOL    HW138324   1.797   4.142   7.943  0.2018 -1.4193 -0.4847
 8896SOL    HW238325   1.934   4.107   7.983  1.5729  0.9443 -0.3003
 8897SOL     OW38326   3.489   0.467   9.032 -0.0805  0.4777  0.0575
 8897SOL    HW138327   3.420   0.510   9.083 -1.8052  2.1909 -3.7608
 8897SOL    HW238328   3.535   0.427   9.106  1.2007  2.3955  0.3132
 8898SOL     OW38329   2.416   2.324   7.336 -0.3240 -0.0313 -0.4132
 8898SOL    HW138330   2.364   2.351   7.261  0.4098  2.0409 -0.1707
 8898SOL    HW238331   2.451   2.408   7.367  2.1334 -1.0355 -0.5078
 8899SOL     OW38332   4.709   2.867   8.483  0.2063  0.5042  0.3254
 8899SOL    HW138333   4.707   2.963   8.485 -1.1736  0.4595  1.1862
 8899SOL    HW238334   4.663   2.851   8.400 -0.7033  0.5437  0.8212
 8900SOL     OW38335   2.393   2.074   8.399 -0.0116  0.2150 -0.9967
 8900SOL    HW138336   2.469   2.127   8.422  0.4061 -0.7496 -0.1099
 8900SOL    HW238337   2.425   1.993   8.440 -2.0268 -0.0189  0.1109
 8901SOL     OW38338   0.206   3.144   3.103 -0.6399  0.2789 -0.1995
 8901SOL    HW138339   0.275   3.204   3.077 -0.3359  0.1525  0.3203
 8901SOL    HW238340   0.243   3.111   3.185  0.3343 -0.4452 -0.9365
 8902SOL     OW38341   2.942   0.913   9.989  0.0483 -0.1035 -0.0137
 8902SOL    HW138342   3.017   0.972   9.991  1.0406 -1.3289 -0.9760
 8902SOL    HW238343   2.957   0.860  10.067 -0.4665  1.9263  1.4585
 8903SOL     OW38344   0.655   1.884   4.267  0.1107  0.0668  0.3729
 8903SOL    HW138345   0.678   1.836   4.346  1.0146 -0.4824 -0.2324
 8903SOL    HW238346   0.688   1.971   4.290 -1.2761  1.0072 -1.1283
 8904SOL     OW38347   0.338   2.926  16.107 -0.0887 -0.3750  0.1995
 8904SOL    HW138348   0.420   2.902  16.064  0.0759 -1.5761  1.1864
 8904SOL    HW238349   0.346   2.889  16.195 -0.6368  0.6465  0.6890
 8905SOL     OW38350   3.848   0.151   9.864 -0.4474 -0.5273 -0.1872
 8905SOL    HW138351   3.935   0.184   9.887 -0.6892  0.0316 -0.0648
 8905SOL    HW238352   3.846   0.166   9.770  1.1212  0.7093 -0.0165
 8906SOL     OW38353   3.021   1.585   8.742 -0.2773  0.0615  0.5668
 8906SOL    HW138354   2.962   1.552   8.810 -0.7400  1.1037  0.6750
 8906SOL    HW238355   2.978   1.557   8.661 -0.4482  1.0126  0.3194
 8907SOL     OW38356   1.205   3.343   9.275  0.8192  0.3588 -0.4983
 8907SOL    HW138357   1.169   3.411   9.332 -2.0537 -0.3053 -1.5281
 8907SOL    HW238358   1.217   3.396   9.196  0.0461  1.4262  0.0987
 8908SOL     OW38359   2.610   0.387   5.590 -0.9232  0.1089 -0.1243
 8908SOL    HW138360   2.515   0.388   5.579 -1.1226 -2.1880  1.5750
 8908SOL    HW238361   2.615   0.478   5.619 -1.8707  0.5753 -1.3675
 8909SOL     OW38362   3.363   4.247   4.897 -0.1966  0.2132 -0.1954
 8909SOL    HW138363   3.448   4.230   4.856 -0.9567 -1.0100 -1.2716
 8909SOL    HW238364   3.382   4.236   4.990  2.8653 -0.1889 -0.8626
 8910SOL     OW38365   3.793   0.413   8.473 -0.7769 -0.2477  0.2020
 8910SOL    HW138366   3.837   0.405   8.557 -0.1142  1.6624  0.0347
 8910SOL    HW238367   3.737   0.490   8.480  3.0890  2.6320 -0.6257
 8911SOL     OW38368   2.433   4.631   1.938 -0.3630 -0.2424 -0.1482
 8911SOL    HW138369   2.421   4.725   1.952 -1.1038 -0.2879 -0.4506
 8911SOL    HW238370   2.396   4.598   2.020  2.6553  1.5337  1.8935
 8912SOL     OW38371   3.678   2.546   3.048 -0.3734 -0.7841 -0.2377
 8912SOL    HW138372   3.612   2.594   3.097 -0.3950 -0.2743 -0.7694
 8912SOL    HW238373   3.754   2.605   3.049 -0.9748  0.0079 -1.9888
 8913SOL     OW38374   0.512   0.520   8.931  0.6151 -0.2377 -0.0103
 8913SOL    HW138375   0.520   0.516   8.836  0.1271 -1.2898  0.0015
 8913SOL    HW238376   0.597   0.559   8.952  1.1167 -1.3866  0.0623
 8914SOL     OW38377   4.452   4.412   6.333  0.3473  0.7562 -0.5524
 8914SOL    HW138378   4.419   4.411   6.423  0.3217 -1.0595 -0.5988
 8914SOL    HW238379   4.533   4.461   6.349  0.0557  0.5528  1.5375
 8915SOL     OW38380   4.542   2.305   8.674 -0.1010 -0.5174  0.0933
 8915SOL    HW138381   4.475   2.239   8.653 -0.4355 -0.2244  0.2459
 8915SOL    HW238382   4.623   2.265   8.641  0.7666 -0.5551  2.3034
 8916SOL     OW38383   1.993   4.147   6.394  0.1183  0.0370  0.5229
 8916SOL    HW138384   1.900   4.161   6.374  0.5168  1.6401 -0.1637
 8916SOL    HW238385   2.031   4.235   6.397  0.6265 -0.1701  0.0701
 8917SOL     OW38386   2.176   4.450   3.502 -0.2459 -0.6520  0.3167
 8917SOL    HW138387   2.159   4.371   3.450  0.9704 -0.9162  0.3364
 8917SOL    HW238388   2.271   4.459   3.510 -0.0933 -1.1604 -0.8037
 8918SOL     OW38389   0.034   4.070   5.177  0.3704  0.5408  0.0555
 8918SOL    HW138390   0.061   4.161   5.165 -1.3322  1.0602  0.1734
 8918SOL    HW238391   4.699   4.093   5.236 -1.4219 -1.3059 -1.4212
 8919SOL     OW38392   1.767   3.376   4.299  0.1815 -0.1507  0.3027
 8919SOL    HW138393   1.764   3.421   4.215 -3.0191 -0.6753  0.1712
 8919SOL    HW238394   1.841   3.319   4.280  0.9432  0.8872  0.1149
 8920SOL     OW38395   1.840   3.159   3.799 -0.1739  0.0233 -0.1830
 8920SOL    HW138396   1.914   3.220   3.804 -0.3412  0.2941 -0.9684
 8920SOL    HW238397   1.796   3.196   3.875 -0.0459  0.4310 -0.3066
 8921SOL     OW38398   1.067   4.250   7.236 -0.2220  0.2536  0.2528
 8921SOL    HW138399   0.988   4.221   7.282 -0.2061 -0.0958  0.0626
 8921SOL    HW238400   1.085   4.336   7.273 -0.4153 -0.3395  1.7306
 8922SOL     OW38401   0.388   2.632  12.107 -0.3656  0.5470 -0.4964
 8922SOL    HW138402   0.361   2.571  12.038  2.9019 -1.4483 -0.0216
 8922SOL    HW238403   0.306   2.641  12.155 -0.0759  1.0345 -0.0883
 8923SOL     OW38404   0.735   3.334   2.447  0.6425  0.1391  0.3098
 8923SOL    HW138405   0.772   3.324   2.535 -0.5254  0.4862  0.8350
 8923SOL    HW238406   0.816   3.327   2.397 -0.6731  1.4941 -1.9677
 8924SOL     OW38407   3.230   0.136   6.311 -0.1423  0.2247  0.2275
 8924SOL    HW138408   3.317   0.135   6.350  0.6993  1.3914 -1.5988
 8924SOL    HW238409   3.236   0.216   6.259  0.1283  0.0733  0.0272
 8925SOL     OW38410   0.870   3.936   6.998  0.5301  0.4470 -0.3317
 8925SOL    HW138411   0.838   3.972   6.916  2.5978 -0.5998 -1.6197
 8925SOL    HW238412   0.793   3.955   7.052  0.3278 -1.3544  0.0371
 8926SOL     OW38413   4.146   1.528  10.814  0.2149  0.2859 -0.1644
 8926SOL    HW138414   4.072   1.586  10.801  0.8433  1.1212 -0.0149
 8926SOL    HW238415   4.205   1.557  10.744  0.9187  2.8662  1.4884
 8927SOL     OW38416   3.404   1.946   2.192 -0.1222 -0.2217  0.0039
 8927SOL    HW138417   3.401   1.853   2.172 -0.4797 -0.3067  0.4478
 8927SOL    HW238418   3.364   1.943   2.278  1.9200 -2.2793  0.8803
 8928SOL     OW38419   0.003   1.916   2.213 -0.5816  0.7179 -0.0292
 8928SOL    HW138420   0.053   1.841   2.180 -0.5910  0.5255  0.3885
 8928SOL    HW238421   0.076   1.977   2.224 -0.7469  1.0114 -0.6030
 8929SOL     OW38422   0.481   2.264   6.669  0.1003 -0.1714 -0.2147
 8929SOL    HW138423   0.573   2.283   6.685  0.6531 -2.6101 -0.4591
 8929SOL    HW238424   0.446   2.291   6.754 -2.7429 -2.8072 -0.5486
 8930SOL     OW38425   2.702   0.775   5.146 -0.8974  0.0492  0.4991
 8930SOL    HW138426   2.708   0.819   5.230 -1.7100  0.4706  0.3317
 8930SOL    HW238427   2.650   0.835   5.093 -0.4494  1.2268  1.4115
 8931SOL     OW38428   2.656   3.218   4.568  0.5715 -0.1340 -0.9506
 8931SOL    HW138429   2.578   3.181   4.527 -0.3132  1.8060 -1.0290
 8931SOL    HW238430   2.720   3.160   4.526 -0.0497 -2.5327  1.4312
 8932SOL     OW38431   4.263   2.262   2.207  0.2808  0.4010 -0.0064
 8932SOL    HW138432   4.288   2.189   2.263  0.3597  0.1136 -0.4208
 8932SOL    HW238433   4.310   2.250   2.125  0.0832 -0.0651 -0.0507
 8933SOL     OW38434   0.500   3.412   3.302  0.0980 -0.7219 -0.1496
 8933SOL    HW138435   0.427   3.474   3.299 -0.1528 -0.9809  0.4382
 8933SOL    HW238436   0.454   3.333   3.331 -1.5853  0.5206  0.5375
 8934SOL     OW38437   4.360   4.025   6.251  0.3080  0.2407 -0.2003
 8934SOL    HW138438   4.425   4.051   6.317  1.1836 -1.4808 -0.4054
 8934SOL    HW238439   4.303   4.101   6.235 -0.9075 -0.5685  0.3494
 8935SOL     OW38440   3.154   3.221  17.499 -0.1082 -0.3288 -0.3739
 8935SOL    HW138441   3.067   3.244  17.533  1.1886  1.6314  1.6280
 8935SOL    HW238442   3.166   3.272  17.418 -0.5440 -1.2378 -1.0166
 8936SOL     OW38443   4.210   3.744  16.660 -0.5510  0.0767 -0.0065
 8936SOL    HW138444   4.150   3.816  16.677  1.0510  1.7810 -1.6030
 8936SOL    HW238445   4.242   3.730  16.749  2.7631 -0.3740 -1.2475
 8937SOL     OW38446   1.148   2.469   5.759 -0.1544 -0.6604  0.2209
 8937SOL    HW138447   1.120   2.432   5.675  4.0305 -0.0609 -1.4334
 8937SOL    HW238448   1.204   2.535   5.719  0.2916 -1.1966 -0.0349
 8938SOL     OW38449   3.377   0.877   9.306 -0.3625 -1.1862  0.0145
 8938SOL    HW138450   3.298   0.830   9.278 -1.9795  0.6612  1.4808
 8938SOL    HW238451   3.379   0.870   9.401  0.5357  2.8312  0.2956
 8939SOL     OW38452   4.217   0.266   7.340  0.1556 -0.4743 -0.0731
 8939SOL    HW138453   4.161   0.282   7.416  1.2002  3.9750 -0.2432
 8939SOL    HW238454   4.162   0.315   7.278  0.8566  1.4319  0.8273
 8940SOL     OW38455   0.995   2.188   3.303 -0.2846  0.3398  0.2238
 8940SOL    HW138456   0.935   2.128   3.258  2.7722 -0.9547 -2.1329
 8940SOL    HW238457   0.998   2.264   3.244 -1.2123  0.2388  0.0422
 8941SOL     OW38458   1.460   0.608  13.049  0.3395  0.2782 -0.1128
 8941SOL    HW138459   1.476   0.691  13.093 -0.7751 -1.0265  2.7279
 8941SOL    HW238460   1.373   0.582  13.077  1.0970  0.8579  2.7631
 8942SOL     OW38461   1.737   3.973   4.518  0.3571  0.4699  0.6815
 8942SOL    HW138462   1.642   3.960   4.525  0.2440  1.3227  0.8174
 8942SOL    HW238463   1.738   3.996   4.425 -3.2843 -0.7107  0.3482
 8943SOL     OW38464   1.771   0.889   3.570 -0.2812 -0.4184  0.4203
 8943SOL    HW138465   1.696   0.949   3.571 -0.8661 -1.1220 -0.7367
 8943SOL    HW238466   1.827   0.912   3.643  0.2673  1.3576 -0.5621
 8944SOL     OW38467   4.243   4.249   3.260  0.2971  0.4727 -0.4544
 8944SOL    HW138468   4.192   4.228   3.182 -0.7240 -1.3633  0.7256
 8944SOL    HW238469   4.188   4.220   3.332  0.4716  3.0982  0.7273
 8945SOL     OW38470   2.688   4.489   7.530  0.3699  0.4342 -0.3693
 8945SOL    HW138471   2.659   4.547   7.600 -2.3438  0.5757 -1.6249
 8945SOL    HW238472   2.647   4.528   7.452 -1.3896  3.0126  1.8644
 8946SOL     OW38473   0.677   0.154   2.440  0.8797  0.1652 -0.0874
 8946SOL    HW138474   0.765   0.125   2.463  1.6808  1.4730 -1.6309
 8946SOL    HW238475   0.684   0.247   2.419  0.4088  0.2950  0.3141
 8947SOL     OW38476   2.429   3.985   4.108 -0.0860 -0.3048 -0.1068
 8947SOL    HW138477   2.396   4.064   4.065  0.1798 -0.9306 -1.4864
 8947SOL    HW238478   2.430   3.920   4.037  2.5872  0.1081 -0.4514
 8948SOL     OW38479   2.841   3.096   4.415  0.1699 -0.1611 -0.5044
 8948SOL    HW138480   2.854   3.012   4.458 -0.8795  0.3443  0.7925
 8948SOL    HW238481   2.930   3.132   4.417 -0.6680  2.1128 -3.5658
 8949SOL     OW38482   3.265   3.241   0.005  0.4406 -0.4989  0.8593
 8949SOL    HW138483   3.242   3.333   0.018  0.5296 -0.0870 -2.0202
 8949SOL    HW238484   3.240   3.210  17.665  0.1977 -2.6047  1.6826
 8950SOL     OW38485   4.631   3.693  10.461  0.6159  0.6984 -0.8469
 8950SOL    HW138486   4.634   3.779  10.503 -0.7439 -1.5734  3.7893
 8950SOL    HW238487   4.710   3.665  10.507 -0.8946 -0.7081  0.8557
 8951SOL     OW38488   3.346   1.209   4.194 -0.0787  0.0999  0.0847
 8951SOL    HW138489   3.373   1.137   4.251  0.2999  0.2147  0.0488
 8951SOL    HW238490   3.282   1.175   4.131 -0.9548  1.7562  0.0707
 8952SOL     OW38491   1.676   1.756   7.244 -0.3204 -0.4047  0.3392
 8952SOL    HW138492   1.673   1.748   7.340  3.4583 -1.3360  0.3569
 8952SOL    HW238493   1.624   1.681   7.215  0.4312 -0.4004 -0.9746
 8953SOL     OW38494   3.069   3.189   1.744 -0.3842  0.0629  0.2317
 8953SOL    HW138495   3.044   3.172   1.834 -0.1812 -0.9042  0.1071
 8953SOL    HW238496   3.115   3.108   1.719  0.1588  1.1895 -2.4777
 8954SOL     OW38497   1.219   3.298  12.285  0.1160 -0.1211  0.6037
 8954SOL    HW138498   1.205   3.216  12.237  0.2977  0.4059 -0.3454
 8954SOL    HW238499   1.315   3.298  12.278  0.2238 -0.1658  2.2711
 8955SOL     OW38500   0.620   2.443   7.517 -0.0338  0.2183  0.2359
 8955SOL    HW138501   0.629   2.389   7.595  0.0668 -1.8652 -1.2287
 8955SOL    HW238502   0.530   2.423   7.489  0.2152  0.5909 -0.8235
 8956SOL     OW38503   3.969   1.586  16.112  0.1940 -0.6950 -0.4761
 8956SOL    HW138504   3.987   1.525  16.183 -0.0135  1.6945  1.6601
 8956SOL    HW238505   3.876   1.577  16.094  0.5245  0.7488 -2.9511
 8957SOL     OW38506   1.008   3.420   3.374  0.3132  0.9883 -0.2631
 8957SOL    HW138507   0.914   3.419   3.356 -0.0359 -0.3099  1.6388
 8957SOL    HW238508   1.031   3.512   3.382 -1.1903  1.3061  0.2777
 8958SOL     OW38509   1.039   1.200   4.066  0.0769  0.0555 -0.2519
 8958SOL    HW138510   1.047   1.246   4.150  0.4079  1.9688 -1.3327
 8958SOL    HW238511   1.124   1.157   4.075 -1.0074 -2.1891 -0.6945
 8959SOL     OW38512   0.647   4.728   8.584 -0.1900 -0.3136 -0.2207
 8959SOL    HW138513   0.597   4.675   8.647 -0.9310  0.4652 -0.1427
 8959SOL    HW238514   0.716   0.021   8.644 -0.0991  1.1242 -1.0559
 8960SOL     OW38515   3.801   1.524   5.804 -0.7126  0.1716  0.3347
 8960SOL    HW138516   3.724   1.576   5.780 -0.8824  0.5082  1.6107
 8960SOL    HW238517   3.777   1.443   5.759 -0.3841  0.0668  0.3445
 8961SOL     OW38518   4.229   0.861  13.397 -0.3613 -0.2914  0.2507
 8961SOL    HW138519   4.167   0.829  13.331  1.0820 -1.6583 -0.4293
 8961SOL    HW238520   4.198   0.951  13.409  0.6622 -0.1206  1.5578
 8962SOL     OW38521   2.382   0.641   6.046  0.4322  0.1855 -0.2385
 8962SOL    HW138522   2.393   0.719   5.991 -0.2029  1.5395  1.5402
 8962SOL    HW238523   2.407   0.674   6.133 -0.6661  0.3040  0.0305
 8963SOL     OW38524   0.304   4.731   4.763 -0.0624  0.2528  0.2750
 8963SOL    HW138525   0.375   0.058   4.756  1.4816 -1.6273 -1.2075
 8963SOL    HW238526   0.315   4.675   4.687 -0.9127  1.0846 -0.4537
 8964SOL     OW38527   1.705   2.663   3.934 -0.0927  1.0049  0.1988
 8964SOL    HW138528   1.721   2.614   3.853 -3.7470  0.9638 -0.5403
 8964SOL    HW238529   1.616   2.690   3.910 -1.0078 -0.5854  1.8114
 8965SOL     OW38530   1.496   2.368   2.242  0.1349 -0.6373  0.0827
 8965SOL    HW138531   1.422   2.423   2.266  0.2206 -1.5388  2.4510
 8965SOL    HW238532   1.558   2.441   2.233 -0.9401  0.5063  2.0902
 8966SOL     OW38533   2.604   0.472   4.374 -0.0750 -0.2525 -0.2102
 8966SOL    HW138534   2.535   0.513   4.426  1.1085  1.7415 -0.2067
 8966SOL    HW238535   2.673   0.538   4.377 -0.8548  0.5486  0.1207
 8967SOL     OW38536   2.293   3.428   5.796  0.1728 -0.3211 -0.1755
 8967SOL    HW138537   2.376   3.447   5.751  2.1782 -1.7468  2.9466
 8967SOL    HW238538   2.327   3.428   5.885 -1.4288 -0.8633  0.4343
 8968SOL     OW38539   4.524   0.442   2.477  0.5356  0.2691 -0.6119
 8968SOL    HW138540   4.491   0.488   2.554  1.9871  0.4007 -0.0694
 8968SOL    HW238541   4.453   0.379   2.465  0.6189  0.2639 -1.0891
 8969SOL     OW38542   1.172   1.590   8.756 -0.0011 -0.7371  0.4617
 8969SOL    HW138543   1.259   1.550   8.754  0.9376  1.2224  1.8410
 8969SOL    HW238544   1.162   1.602   8.851 -3.4770  1.1258 -0.1451
 8970SOL     OW38545   1.575   0.332  16.677 -0.2666  0.4053 -0.1306
 8970SOL    HW138546   1.564   0.242  16.707 -1.2740  0.8897  0.9703
 8970SOL    HW238547   1.512   0.336  16.605  0.3478 -1.2859 -0.7651
 8971SOL     OW38548   2.314   1.651   4.995  1.1606  0.1395  0.8150
 8971SOL    HW138549   2.302   1.742   4.966 -0.2345 -0.2164  0.2547
 8971SOL    HW238550   2.352   1.665   5.081  2.8283  0.4188  0.0308
 8972SOL     OW38551   1.103   1.971   2.568  0.2709  0.2328  0.2488
 8972SOL    HW138552   1.122   1.894   2.514 -0.8337  1.2447 -1.5899
 8972SOL    HW238553   1.092   1.929   2.653 -0.5170  0.8898  0.4691
 8973SOL     OW38554   4.461   3.229   6.763 -0.7148  0.4270  0.0017
 8973SOL    HW138555   4.427   3.182   6.687  4.4925 -2.8682 -0.2771
 8973SOL    HW238556   4.513   3.159   6.802 -0.3838 -1.8301 -4.6136
 8974SOL     OW38557   1.239   2.879  16.395 -0.2751 -0.4029 -0.2429
 8974SOL    HW138558   1.333   2.857  16.394 -0.1569  0.1447 -1.1055
 8974SOL    HW238559   1.232   2.894  16.489  0.8592  1.4746 -0.4600
 8975SOL     OW38560   2.254   3.635   8.902 -0.5650 -0.0909 -0.5607
 8975SOL    HW138561   2.249   3.557   8.846 -0.4390 -0.3206 -0.2539
 8975SOL    HW238562   2.227   3.698   8.835 -0.1208 -0.4487 -1.0771
 8976SOL     OW38563   1.298   3.018   3.218 -0.6613 -0.7780 -0.2757
 8976SOL    HW138564   1.349   3.062   3.286 -2.0812  1.7545 -0.8439
 8976SOL    HW238565   1.207   3.048   3.227 -0.4340 -0.2236  0.1546
 8977SOL     OW38566   3.028   2.943   1.323  0.0460 -0.1214  0.1761
 8977SOL    HW138567   3.090   3.006   1.358 -0.8868  0.4300  0.8279
 8977SOL    HW238568   2.949   2.970   1.370 -0.9123 -0.8184 -1.0211
 8978SOL     OW38569   1.863   1.124   4.024  0.2028 -0.4868 -0.0726
 8978SOL    HW138570   1.861   1.219   4.017  0.2297 -0.6151 -2.1102
 8978SOL    HW238571   1.774   1.107   4.055  0.5292 -2.1171 -0.0348
 8979SOL     OW38572   3.379   1.586   9.256  0.1921 -0.6728  0.0734
 8979SOL    HW138573   3.466   1.604   9.221  0.8331 -1.9211  1.0200
 8979SOL    HW238574   3.370   1.666   9.309  1.9313 -0.6378  0.3330
 8980SOL     OW38575   3.603   1.628  11.404  0.3937  0.2366  0.2317
 8980SOL    HW138576   3.614   1.713  11.447  0.0237  1.3044 -1.7577
 8980SOL    HW238577   3.508   1.615  11.398  0.5154 -0.2284 -0.7222
 8981SOL     OW38578   3.805   0.180   4.957  0.2062  0.3754  0.1539
 8981SOL    HW138579   3.744   0.196   5.030  0.5015  2.3870 -0.0549
 8981SOL    HW238580   3.801   0.268   4.920 -1.2357  0.5464  0.7138
 8982SOL     OW38581   2.186   0.218   3.855  0.1219 -0.0268  0.0753
 8982SOL    HW138582   2.221   0.182   3.936  0.7297 -2.1121 -1.1092
 8982SOL    HW238583   2.216   0.309   3.851  1.0086 -0.3076  0.3669
 8983SOL     OW38584   0.304   1.307  14.339  0.3487 -0.3658  0.1039
 8983SOL    HW138585   0.224   1.273  14.379  0.6659  0.4461  1.4451
 8983SOL    HW238586   0.281   1.400  14.330 -0.0420 -0.4688  0.0604
 8984SOL     OW38587   0.145   2.051   2.974 -0.0803  0.5795 -0.1711
 8984SOL    HW138588   0.162   2.128   3.028  0.0146  1.2307 -1.1291
 8984SOL    HW238589   0.166   1.979   3.034  1.8034  0.4377 -0.9878
 8985SOL     OW38590   2.718   3.869   8.974  0.4643  0.5500  0.1048
 8985SOL    HW138591   2.636   3.836   9.010  1.4317 -1.0146  0.8793
 8985SOL    HW238592   2.771   3.789   8.972  0.4235  0.4287  3.4805
 8986SOL     OW38593   3.123   1.597   7.329  0.3360 -0.2473 -0.0741
 8986SOL    HW138594   3.073   1.599   7.410  3.4289  0.9625  1.8198
 8986SOL    HW238595   3.053   1.591   7.265  0.2791 -2.3781  0.1930
 8987SOL     OW38596   2.371   0.810   2.023 -0.9298  0.2562 -0.6646
 8987SOL    HW138597   2.442   0.873   2.031 -1.4182  0.8353 -0.8521
 8987SOL    HW238598   2.326   0.850   1.948 -1.9938  1.2374  0.5010
 8988SOL     OW38599   1.143   3.459   7.021  0.3080 -1.0164  0.0740
 8988SOL    HW138600   1.105   3.465   7.108  0.9288  0.1212  0.2626
 8988SOL    HW238601   1.150   3.364   7.011  1.1895 -0.8600 -0.7654
 8989SOL     OW38602   2.985   1.255   5.487  0.0917 -0.0517 -0.3440
 8989SOL    HW138603   3.024   1.180   5.532  0.1032 -0.8311 -1.6533
 8989SOL    HW238604   2.894   1.228   5.475 -1.0735  3.2805  0.9443
 8990SOL     OW38605   2.822   4.145   6.136 -1.0682 -0.0031 -0.6886
 8990SOL    HW138606   2.772   4.177   6.060 -3.1713 -2.7409 -0.4480
 8990SOL    HW238607   2.785   4.057   6.140 -0.4630 -0.2948 -1.5392
 8991SOL     OW38608   1.395   1.196  17.061 -0.7315 -0.4253 -1.0851
 8991SOL    HW138609   1.419   1.249  17.137  0.5855 -0.4570 -1.4781
 8991SOL    HW238610   1.475   1.153  17.031  0.1690  0.3071  0.2216
 8992SOL     OW38611   3.780   3.708   6.157  0.6314 -0.2215  0.7831
 8992SOL    HW138612   3.854   3.768   6.155  1.5333 -1.3672 -0.4862
 8992SOL    HW238613   3.773   3.698   6.252 -0.8350  2.2890  0.9233
 8993SOL     OW38614   2.801   1.445   2.308 -0.1678  0.2108 -0.0361
 8993SOL    HW138615   2.872   1.435   2.245  0.4088 -0.4688  0.7178
 8993SOL    HW238616   2.722   1.417   2.261  0.8421 -2.2725 -0.2738
 8994SOL     OW38617   3.569   1.149   4.054 -0.5284  0.0764  0.0357
 8994SOL    HW138618   3.523   1.232   4.050 -0.3508  0.2002  0.6937
 8994SOL    HW238619   3.541   1.111   4.137  1.6973  1.5142  1.4538
 8995SOL     OW38620   2.558   3.347   6.354 -0.2065 -0.1884 -0.7465
 8995SOL    HW138621   2.468   3.377   6.371 -0.6152 -2.5681  1.2594
 8995SOL    HW238622   2.584   3.327   6.444 -0.7292  0.1573 -0.5182
 8996SOL     OW38623   1.567   4.021   5.116  0.7097  0.2067  0.6572
 8996SOL    HW138624   1.644   4.034   5.172  0.7615 -0.1420  0.6670
 8996SOL    HW238625   1.495   4.036   5.178  1.5579  1.4357  1.3606
 8997SOL     OW38626   0.871   0.938   3.834  0.4019 -0.4499 -0.2255
 8997SOL    HW138627   0.942   0.938   3.770  0.8492 -1.4997  0.2775
 8997SOL    HW238628   0.813   1.006   3.798  0.5654  0.2063  0.7465
 8998SOL     OW38629   0.510   0.264   4.005 -0.6344 -0.2977 -0.5514
 8998SOL    HW138630   0.501   0.329   3.936 -0.4867 -1.0623 -1.2913
 8998SOL    HW238631   0.529   0.329   4.072 -1.8268  1.1245 -1.6030
 8999SOL     OW38632   4.174   1.835   5.561  0.2851  0.0427  0.0739
 8999SOL    HW138633   4.093   1.877   5.530  0.5086  1.4324  1.3789
 8999SOL    HW238634   4.142   1.768   5.621 -0.4209 -0.9357 -1.3956
 9000SOL     OW38635   2.007   1.352  13.667 -0.2039 -0.8379 -0.4158
 9000SOL    HW138636   1.952   1.383  13.739 -0.5769 -0.4296 -0.8827
 9000SOL    HW238637   2.092   1.384  13.697 -1.6918  0.9852  1.7786
 9001SOL     OW38638   1.812   0.100  16.223 -0.1932 -0.3461 -0.1954
 9001SOL    HW138639   1.829   0.129  16.133  2.7714 -0.0443  0.4710
 9001SOL    HW238640   1.839   0.169  16.285  1.3837  0.0778 -1.3742
 9002SOL     OW38641   1.791   3.646  14.927 -0.1282 -0.3338 -0.8336
 9002SOL    HW138642   1.756   3.735  14.937  2.8985  0.9990 -1.9286
 9002SOL    HW238643   1.885   3.663  14.933  0.0592 -1.4440 -0.6611
 9003SOL     OW38644   4.310   3.460   3.078  0.0449 -0.2340  0.1010
 9003SOL    HW138645   4.358   3.542   3.061 -0.8642  0.5599  1.4230
 9003SOL    HW238646   4.371   3.391   3.052  0.2039  0.1177 -0.4647
 9004SOL     OW38647   1.858   0.271  15.997 -0.2832  0.0324 -0.4025
 9004SOL    HW138648   1.819   0.243  15.914  0.4719 -1.3289 -0.3116
 9004SOL    HW238649   1.938   0.307  15.958  0.5954 -0.5678  0.8439
 9005SOL     OW38650   2.388   4.492  10.132  0.4222  0.0808 -0.7023
 9005SOL    HW138651   2.418   4.583  10.129  1.2953 -0.1955 -0.3138
 9005SOL    HW238652   2.462   4.455  10.083  1.2616 -1.2995  1.5863
 9006SOL     OW38653   2.282   1.395   0.358  0.1594 -0.9422 -0.3690
 9006SOL    HW138654   2.375   1.377   0.343  0.5306  0.9422 -0.3234
 9006SOL    HW238655   2.248   1.390   0.269 -0.5004  0.4482 -0.1977
 9007SOL     OW38656   2.977   0.402  10.806  0.2926  0.3196  0.5468
 9007SOL    HW138657   2.965   0.438  10.893  3.5204  1.4901  0.5065
 9007SOL    HW238658   2.932   0.317  10.807  1.3408 -0.2029  1.8945
 9008SOL     OW38659   3.718   2.946  16.576  0.1679  0.0234 -0.3112
 9008SOL    HW138660   3.723   2.896  16.495 -0.7713 -1.4372  0.5293
 9008SOL    HW238661   3.635   2.993  16.575  0.4893  0.5766 -0.5690
 9009SOL     OW38662   3.746   4.334   6.916  0.4736  0.5373 -0.2822
 9009SOL    HW138663   3.811   4.400   6.891  0.3366  1.1022  0.8871
 9009SOL    HW238664   3.791   4.295   6.990  0.8358  0.6784 -0.4297
 9010SOL     OW38665   1.292   4.318   5.383 -0.1993  0.2008  0.0959
 9010SOL    HW138666   1.334   4.335   5.468  2.1318  0.9869 -1.2114
 9010SOL    HW238667   1.287   4.409   5.355  0.2124  0.1778 -0.0487
 9011SOL     OW38668   3.628   3.622   7.940 -0.3785 -0.1124  0.3495
 9011SOL    HW138669   3.657   3.688   8.003  1.3839  0.6589 -1.2505
 9011SOL    HW238670   3.663   3.657   7.858  2.3184  0.9909  2.0041
 9012SOL     OW38671   2.453   1.680   3.810 -0.4594  0.1105 -0.0535
 9012SOL    HW138672   2.357   1.684   3.809 -0.3240  2.3770 -1.0503
 9012SOL    HW238673   2.467   1.752   3.749  1.3212 -0.5253 -0.3855
 9013SOL     OW38674   0.599   2.003   8.150  0.6678  0.7405  0.8582
 9013SOL    HW138675   0.557   1.922   8.122  0.7694  1.1371 -0.4417
 9013SOL    HW238676   0.665   2.017   8.082  0.5008  0.4966  0.6469
 9014SOL     OW38677   0.696   1.831   6.240 -0.4875 -0.0278  0.9120
 9014SOL    HW138678   0.612   1.846   6.196  0.0023  0.2633  0.0574
 9014SOL    HW238679   0.718   1.750   6.195  2.3064  0.4400  1.4671
 9015SOL     OW38680   0.301   3.887   5.807  0.4525  0.2505 -0.0839
 9015SOL    HW138681   0.303   3.938   5.888 -1.9184  2.2576 -1.2730
 9015SOL    HW238682   0.393   3.872   5.783  0.0095 -1.0262 -0.9860
 9016SOL     OW38683   1.083   3.920  13.964 -0.3744 -0.2433  0.0300
 9016SOL    HW138684   1.097   3.880  13.878 -2.1685 -3.9931  1.4824
 9016SOL    HW238685   1.114   3.854  14.027 -0.9940 -1.6991 -1.2049
 9017SOL     OW38686   3.470   1.671   5.599 -0.2830  0.4105  0.0081
 9017SOL    HW138687   3.425   1.754   5.579  3.1137  2.3822  0.5476
 9017SOL    HW238688   3.427   1.648   5.682 -0.4988 -0.1149 -0.2517
 9018SOL     OW38689   2.298   1.910  16.456  0.8238  0.1666 -0.0526
 9018SOL    HW138690   2.385   1.937  16.484  0.1154  0.7970  1.5428
 9018SOL    HW238691   2.242   1.965  16.511  0.4474 -0.0483 -0.2202
 9019SOL     OW38692   1.282   1.286   8.368  0.3165 -0.0116  0.0328
 9019SOL    HW138693   1.288   1.381   8.375 -0.2838  0.0279  0.0052
 9019SOL    HW238694   1.257   1.276   8.276  0.5300 -1.7262  0.1494
 9020SOL     OW38695   0.330   4.690   4.362 -0.0299  0.1200  0.1454
 9020SOL    HW138696   0.325   4.653   4.449 -1.4191  0.5522  0.2467
 9020SOL    HW238697   0.327   4.612   4.307  2.8066 -0.9376  1.4638
 9021SOL     OW38698   3.913   4.518   6.808 -0.3388  0.1956  0.1773
 9021SOL    HW138699   3.850   4.584   6.779  0.3027 -1.2832 -4.5466
 9021SOL    HW238700   3.970   4.573   6.862 -0.0761  0.0026  0.0965
 9022SOL     OW38701   3.346   0.588   1.476  0.0881  0.4892 -0.2836
 9022SOL    HW138702   3.349   0.683   1.490 -0.8679  0.6926 -1.5027
 9022SOL    HW238703   3.293   0.558   1.550  1.5776 -1.9331 -0.2134
 9023SOL     OW38704   2.699   2.879   5.828 -0.6100 -0.0424  0.3930
 9023SOL    HW138705   2.772   2.889   5.889  0.1517  0.1840 -0.5605
 9023SOL    HW238706   2.730   2.797   5.790  2.1275  1.8915 -1.5152
 9024SOL     OW38707   3.065   2.405   6.108  0.1281  0.6713 -0.1275
 9024SOL    HW138708   3.064   2.319   6.149  0.6122 -0.7480 -3.0645
 9024SOL    HW238709   3.040   2.374   6.021 -2.6183  0.5761  0.7022
 9025SOL     OW38710   3.975   4.491   4.503 -0.0279  0.3726  0.4442
 9025SOL    HW138711   3.895   4.532   4.537 -0.5459  0.4037 -0.8153
 9025SOL    HW238712   3.927   4.452   4.430 -0.8000 -0.1269  1.2241
 9026SOL     OW38713   4.275   3.667   2.818 -0.3662  0.2010  0.2398
 9026SOL    HW138714   4.207   3.631   2.875 -0.5871 -0.3208 -0.3610
 9026SOL    HW238715   4.336   3.697   2.885 -1.7848 -0.0226  1.6231
 9027SOL     OW38716   2.794   1.609   0.558 -0.0426  0.1664  0.8586
 9027SOL    HW138717   2.719   1.612   0.498  0.5052  1.7128  0.2587
 9027SOL    HW238718   2.753   1.595   0.643 -0.8518  0.8217  0.5743
 9028SOL     OW38719   3.090   2.731  13.835  0.1708 -0.0091 -0.1381
 9028SOL    HW138720   3.041   2.789  13.777  1.8765  0.7165 -0.8535
 9028SOL    HW238721   3.171   2.734  13.785  0.0406 -0.9052 -0.3961
 9029SOL     OW38722   1.468   1.415   5.201 -0.1148  0.4638  0.0741
 9029SOL    HW138723   1.522   1.415   5.280  0.3632  2.5067 -0.2699
 9029SOL    HW238724   1.491   1.335   5.153  1.2429  0.1983  1.1676
 9030SOL     OW38725   1.708   0.597   9.848  0.3889  0.2770 -1.0253
 9030SOL    HW138726   1.715   0.539   9.773 -0.0814 -0.6731 -0.3375
 9030SOL    HW238727   1.615   0.611   9.866  1.1609  0.6794  2.7516
 9031SOL     OW38728   2.514   2.447  14.216  0.5294  0.6541  0.4885
 9031SOL    HW138729   2.536   2.373  14.159 -1.8445  0.5843 -0.3158
 9031SOL    HW238730   2.512   2.519  14.152  1.6842  0.6425  0.4340
 9032SOL     OW38731   2.783   1.343   6.997 -0.1403 -0.4387 -0.1290
 9032SOL    HW138732   2.695   1.372   7.020 -0.2857  0.2848 -1.5764
 9032SOL    HW238733   2.783   1.251   7.023  0.4801 -0.6190 -0.7627
 9033SOL     OW38734   2.106   3.072  14.677  0.1059  0.1844 -0.1833
 9033SOL    HW138735   2.044   3.002  14.657  0.3071 -0.0912  0.1433
 9033SOL    HW238736   2.112   3.112  14.590 -0.7014  1.8517  0.5391
 9034SOL     OW38737   3.804   2.492   7.333 -0.6447  0.0512 -0.1648
 9034SOL    HW138738   3.839   2.451   7.412 -3.7305 -1.7809  0.2699
 9034SOL    HW238739   3.827   2.583   7.352  2.5943 -0.5233 -1.2817
 9035SOL     OW38740   3.077   1.374  11.937  0.0163  0.5847 -0.7178
 9035SOL    HW138741   3.010   1.420  11.886 -1.0668 -1.7012 -1.3657
 9035SOL    HW238742   3.083   1.434  12.011 -0.3498  0.0024 -0.2123
 9036SOL     OW38743   4.131   3.888   6.411  0.2757  0.1615  0.4805
 9036SOL    HW138744   4.177   3.804   6.422  0.0310 -0.1540 -0.9026
 9036SOL    HW238745   4.190   3.941   6.358 -0.3732 -0.6638 -1.0635
 9037SOL     OW38746   1.143   1.495   7.681 -0.3161  0.2291  0.1328
 9037SOL    HW138747   1.213   1.529   7.738  0.8928 -1.1597 -0.5127
 9037SOL    HW238748   1.087   1.570   7.661  0.5364  0.1608 -2.4463
 9038SOL     OW38749   0.370   2.477  15.835  0.5256 -0.0121 -0.2377
 9038SOL    HW138750   0.445   2.534  15.822 -1.3938  3.1549  2.5098
 9038SOL    HW238751   0.297   2.538  15.849  1.6957  0.9650  1.6844
 9039SOL     OW38752   4.521   3.618   6.066 -0.9895  0.0337  0.1436
 9039SOL    HW138753   4.589   3.678   6.034 -2.8393  2.5011  0.7825
 9039SOL    HW238754   4.462   3.686   6.101 -0.7265  0.2233  0.2171
 9040SOL     OW38755   3.391   3.903   7.792  0.2134 -0.0402 -0.0321
 9040SOL    HW138756   3.323   3.962   7.761  0.5745  0.3143 -0.1459
 9040SOL    HW238757   3.455   3.959   7.836 -1.1379  0.7348  0.9447
 9041SOL     OW38758   1.182   1.786   9.403 -0.9257 -0.0175 -0.0790
 9041SOL    HW138759   1.190   1.758   9.494 -2.5182 -1.0007 -0.2459
 9041SOL    HW238760   1.173   1.881   9.407  1.0262  0.2796 -2.1230
 9042SOL     OW38761   4.148   3.037   2.985  0.5766  0.1381 -0.6205
 9042SOL    HW138762   4.181   2.979   3.054 -0.4020  0.9841  0.5603
 9042SOL    HW238763   4.058   3.026   3.014  1.1875 -1.6721  0.5678
 9043SOL     OW38764   2.845   2.156   2.428  0.0589 -0.2836  0.7122
 9043SOL    HW138765   2.860   2.212   2.352 -1.6693 -0.9964 -0.1529
 9043SOL    HW238766   2.751   2.174   2.438  0.4089  1.1144  1.5427
 9044SOL     OW38767   3.908   0.265   5.279 -0.2953 -0.1948  0.2489
 9044SOL    HW138768   3.874   0.354   5.270  1.0193  0.4662  1.8269
 9044SOL    HW238769   3.825   0.221   5.259 -1.3185  1.8091  0.0104
 9045SOL     OW38770   3.431   0.687   8.641 -0.5889  0.0386 -0.3568
 9045SOL    HW138771   3.455   0.727   8.725 -1.5041  1.1317 -0.6203
 9045SOL    HW238772   3.477   0.603   8.645 -0.0793  0.3115 -0.5790
 9046SOL     OW38773   4.598   2.187   5.827  0.5883 -0.4137  0.3125
 9046SOL    HW138774   4.612   2.111   5.771  1.6130  1.3043 -1.7578
 9046SOL    HW238775   4.504   2.186   5.849  0.1649  0.7527 -1.4306
 9047SOL     OW38776   2.994   0.669   8.562  0.1616 -0.2433 -0.0040
 9047SOL    HW138777   3.004   0.736   8.495 -0.7386  2.2695  2.3669
 9047SOL    HW238778   2.909   0.632   8.542 -0.6115  2.0252 -0.8618
 9048SOL     OW38779   1.061   2.076   8.404 -0.2427  0.0117  0.0076
 9048SOL    HW138780   1.005   2.008   8.368 -2.1321  1.3648  0.4047
 9048SOL    HW238781   1.012   2.125   8.471 -1.2120 -0.3432 -0.4590
 9049SOL     OW38782   4.409   4.353  15.556  0.5534 -0.1935  0.1828
 9049SOL    HW138783   4.378   4.334  15.467  2.0844 -2.9771  0.2105
 9049SOL    HW238784   4.335   4.334  15.614  1.0552  0.2404  0.9542
 9050SOL     OW38785   3.438   1.008  10.790 -0.1990  0.2370  0.1256
 9050SOL    HW138786   3.482   1.086  10.755 -1.4016  0.3993 -1.0379
 9050SOL    HW238787   3.472   1.000  10.879  1.9748  0.6462 -0.6700
 9051SOL     OW38788   0.266   0.916   7.985  1.1554 -0.3935 -0.1819
 9051SOL    HW138789   0.266   0.926   7.890 -3.5638  0.5250 -0.0631
 9051SOL    HW238790   0.344   0.964   8.013 -0.5653  1.6877  1.0189
 9052SOL     OW38791   1.784   4.605  16.109  0.1967  0.3598 -0.3991
 9052SOL    HW138792   1.806   4.668  16.177  0.6817  1.4047 -1.5414
 9052SOL    HW238793   1.729   4.662  16.055  0.1805  0.1470 -0.6124
 9053SOL     OW38794   4.658   0.610   3.577  0.3461  0.1813  0.4910
 9053SOL    HW138795   4.683   0.521   3.600  1.7272  0.0151 -1.5825
 9053SOL    HW238796   4.563   0.604   3.568  0.2942 -0.9154  1.9646
 9054SOL     OW38797   0.009   3.512   9.373 -0.0731 -0.1116 -0.0371
 9054SOL    HW138798   0.063   3.563   9.433 -0.1752  0.2441 -0.2429
 9054SOL    HW238799   4.708   3.592   9.337  2.4056  0.1287 -2.1577
 9055SOL     OW38800   4.703   2.245  14.580  0.0325  0.2778 -0.1721
 9055SOL    HW138801   4.683   2.152  14.592 -0.6482  0.3569 -0.7534
 9055SOL    HW238802   4.727   2.247  14.488  0.2836 -3.4045 -0.1856
 9056SOL     OW38803   2.273   2.097  15.636 -0.0407 -0.3658 -0.3677
 9056SOL    HW138804   2.270   2.121  15.544  2.0278  0.2779 -0.2582
 9056SOL    HW238805   2.361   2.125  15.660  0.4775 -1.7238 -0.7190
 9057SOL     OW38806   1.262   2.280   5.318  0.2045 -0.2132 -0.1130
 9057SOL    HW138807   1.321   2.230   5.262 -0.2444  0.6048 -1.3183
 9057SOL    HW238808   1.269   2.217   5.390  0.0206  0.6139  0.6236
 9058SOL     OW38809   0.835   2.199   2.153 -0.3175  0.0563 -0.3533
 9058SOL    HW138810   0.841   2.126   2.215  0.5443 -1.4100 -2.1399
 9058SOL    HW238811   0.836   2.272   2.215  2.0991 -1.2511  1.1534
 9059SOL     OW38812   3.026   3.778   4.323 -0.3220 -0.4075  0.5095
 9059SOL    HW138813   3.080   3.702   4.347 -0.4897 -0.8653 -0.5459
 9059SOL    HW238814   3.087   3.851   4.313 -1.1460  0.2536  0.3127
 9060SOL     OW38815   4.600   2.458   1.221  0.3750  0.0248 -0.0929
 9060SOL    HW138816   4.558   2.494   1.299  0.0252 -3.3661  1.2932
 9060SOL    HW238817   4.599   2.365   1.245  0.9575  0.5040  1.7197
 9061SOL     OW38818   1.091   2.062   6.536 -0.4137 -0.5044 -0.5948
 9061SOL    HW138819   1.085   2.051   6.631  3.9500  0.8817 -0.1706
 9061SOL    HW238820   1.009   2.027   6.499 -1.2417  0.7707  0.0300
 9062SOL     OW38821   2.283   1.867   4.349  0.2882 -0.4210  0.2362
 9062SOL    HW138822   2.239   1.795   4.303  1.3504 -0.2883 -0.9855
 9062SOL    HW238823   2.236   1.850   4.430 -2.0800  1.3114 -0.7564
 9063SOL     OW38824   4.426   0.869  14.973 -0.1743 -0.4330  0.4307
 9063SOL    HW138825   4.507   0.896  14.929 -0.7548 -0.9598 -0.9719
 9063SOL    HW238826   4.386   0.952  14.999 -0.2639 -0.0831 -0.8045
 9064SOL     OW38827   3.418   3.462   4.875  0.0191 -0.0098  0.5882
 9064SOL    HW138828   3.402   3.539   4.930 -1.0569 -0.3669  0.7893
 9064SOL    HW238829   3.470   3.505   4.808  1.4037 -1.0746  0.9856
 9065SOL     OW38830   0.311   0.220  14.810 -0.0554 -0.3739  0.0690
 9065SOL    HW138831   0.314   0.144  14.752 -0.6857  0.8183 -1.5518
 9065SOL    HW238832   0.399   0.256  14.799 -0.7588  0.2918 -3.4394
 9066SOL     OW38833   0.420   3.633  14.441  0.0487  0.1810  0.2088
 9066SOL    HW138834   0.490   3.600  14.385 -1.0022  0.4191 -1.2629
 9066SOL    HW238835   0.342   3.586  14.412  0.5956 -0.6048  0.0219
 9067SOL     OW38836   1.491   3.248   2.882 -0.7970 -0.1170 -0.7388
 9067SOL    HW138837   1.484   3.271   2.975 -0.8503  0.4703 -0.8892
 9067SOL    HW238838   1.421   3.183   2.877  1.1751 -2.1058 -2.4356
 9068SOL     OW38839   2.487   2.303   1.762 -0.0707  0.5102 -0.1808
 9068SOL    HW138840   2.533   2.354   1.696 -0.9092  0.8196 -0.5312
 9068SOL    HW238841   2.501   2.354   1.843  0.4033 -0.9052  0.6194
 9069SOL     OW38842   4.656   2.266   4.018 -0.8357 -0.4451  0.3867
 9069SOL    HW138843   4.663   2.361   4.007  0.7582 -0.4271  1.6314
 9069SOL    HW238844   4.563   2.246   4.009 -1.3993  1.8644  1.1463
 9070SOL     OW38845   1.315   3.436  15.742 -0.1161  0.2649  0.5631
 9070SOL    HW138846   1.262   3.444  15.821 -1.5198 -0.1255 -0.3432
 9070SOL    HW238847   1.404   3.417  15.774  1.0095  2.0111 -1.4867
 9071SOL     OW38848   2.675   1.967  13.596 -0.1954  0.1401 -0.4382
 9071SOL    HW138849   2.740   1.913  13.642  1.1025  1.1874 -1.0446
 9071SOL    HW238850   2.640   1.911  13.527 -1.9920 -1.6830  1.9384
 9072SOL     OW38851   2.665   2.544   3.016 -0.0307  0.3241  0.8086
 9072SOL    HW138852   2.657   2.468   2.958 -2.0511  1.4913 -0.4256
 9072SOL    HW238853   2.582   2.593   3.016  0.2303  0.7797 -1.5787
 9073SOL     OW38854   1.931   0.409   3.645 -0.0661 -0.1444  0.2675
 9073SOL    HW138855   1.999   0.342   3.635  0.9769  1.0586 -0.6976
 9073SOL    HW238856   1.915   0.427   3.552 -0.2309 -1.3493  0.0578
 9074SOL     OW38857   3.483   4.650  12.361  0.1288  0.7974 -0.1915
 9074SOL    HW138858   3.539   4.601  12.301  1.0807  2.5507 -0.7352
 9074SOL    HW238859   3.500   0.001  12.326  2.7034  1.0579  1.7337
 9075SOL     OW38860   4.728   4.099  12.354 -0.5274  0.1435 -0.1035
 9075SOL    HW138861   0.055   4.159  12.391 -0.1625 -0.0328 -0.4537
 9075SOL    HW238862   0.043   4.019  12.350  0.7212  1.0204 -1.2367
 9076SOL     OW38863   1.214   4.473   3.926  0.1508 -0.0821  0.1303
 9076SOL    HW138864   1.215   4.567   3.904 -1.6488 -0.1332 -0.1853
 9076SOL    HW238865   1.160   4.475   4.005 -0.4818 -0.1496 -0.2936
 9077SOL     OW38866   2.279   3.484   5.401 -0.3282  0.4626 -0.4472
 9077SOL    HW138867   2.241   3.492   5.314 -1.5971  0.7498  0.1480
 9077SOL    HW238868   2.345   3.415   5.389  1.0667  1.6743  0.1721
 9078SOL     OW38869   2.045   1.002   1.996 -0.8024  0.1222 -0.1211
 9078SOL    HW138870   2.056   0.917   2.039  2.2307  0.7655  0.3270
 9078SOL    HW238871   1.974   1.038   2.049 -0.2417 -2.4255  2.3598
 9079SOL     OW38872   0.676   1.088   4.844 -0.0197 -0.2213 -0.2845
 9079SOL    HW138873   0.642   1.000   4.825  0.3497 -0.7578  1.5312
 9079SOL    HW238874   0.648   1.125   4.760  1.3040 -0.7379 -0.9496
 9080SOL     OW38875   1.466   4.408  13.261  0.4318  0.5454  0.3899
 9080SOL    HW138876   1.407   4.351  13.212  1.0883  1.7585 -1.7907
 9080SOL    HW238877   1.434   4.388  13.349 -2.5936 -1.2442 -1.1240
 9081SOL     OW38878   0.317   1.897   7.723  0.3348  0.3305 -0.2306
 9081SOL    HW138879   0.317   1.954   7.800  1.2090 -1.3136  0.9720
 9081SOL    HW238880   0.368   1.955   7.667  0.9341  0.3478  0.3397
 9082SOL     OW38881   0.880   2.953   8.021 -0.5062 -0.0840 -0.0234
 9082SOL    HW138882   0.903   2.881   8.079  2.0878  0.0540 -0.8822
 9082SOL    HW238883   0.819   2.910   7.962 -1.2556  3.2217 -1.6780
 9083SOL     OW38884   0.088   1.779   2.525 -0.0604 -0.1253  0.0793
 9083SOL    HW138885   0.071   1.801   2.616 -3.0726  0.4197 -0.6031
 9083SOL    HW238886   0.003   1.806   2.489 -0.0035  0.8537  0.6715
 9084SOL     OW38887   3.421   2.924  16.486  0.0129  0.2067 -0.4064
 9084SOL    HW138888   3.401   2.980  16.412 -3.0511 -0.1752  0.1042
 9084SOL    HW238889   3.444   2.852  16.427 -2.5969  0.2060 -1.4492
 9085SOL     OW38890   3.331   2.967   6.386 -0.2797 -0.1193 -0.4501
 9085SOL    HW138891   3.340   2.945   6.479  1.5508 -1.7691 -1.0306
 9085SOL    HW238892   3.237   2.960   6.374 -0.3388 -1.1981  0.6663
 9086SOL     OW38893   1.666   1.127  17.105  0.1892 -0.5954  0.0102
 9086SOL    HW138894   1.694   1.168  17.187 -1.2013  1.0691 -0.3507
 9086SOL    HW238895   1.726   1.053  17.096  0.5227  0.0551 -3.3748
 9087SOL     OW38896   4.365   3.110   0.747 -0.1909  0.2261 -0.5992
 9087SOL    HW138897   4.296   3.171   0.775 -0.1852  0.5029 -1.1840
 9087SOL    HW238898   4.360   3.057   0.826 -0.9235  1.1110 -0.0466
 9088SOL     OW38899   0.693   4.341   4.227 -0.4469  0.0346 -0.2910
 9088SOL    HW138900   0.621   4.287   4.259 -0.3700  0.1545  0.0801
 9088SOL    HW238901   0.758   4.276   4.199  0.2004  0.2177  0.7963
 9089SOL     OW38902   1.971   3.622  16.830  0.1013 -0.1788  0.0676
 9089SOL    HW138903   1.885   3.653  16.805  0.4847 -1.6098 -3.1501
 9089SOL    HW238904   1.952   3.574  16.911 -0.4480 -1.8660 -1.0529
 9090SOL     OW38905   4.390   4.295   2.546 -0.1960  0.1739  0.4390
 9090SOL    HW138906   4.440   4.239   2.487 -0.2001 -0.9462  1.4823
 9090SOL    HW238907   4.403   4.383   2.511 -0.3001 -0.5028 -1.3002
 9091SOL     OW38908   0.124   4.617   3.999 -0.7328 -0.3815  0.4264
 9091SOL    HW138909   0.176   4.697   4.001 -2.8709  0.9361  3.9957
 9091SOL    HW238910   0.041   4.645   3.959 -1.7674 -0.5744  2.4408
 9092SOL     OW38911   2.519   3.655   8.812  0.2240  0.1667  0.7764
 9092SOL    HW138912   2.438   3.695   8.844  0.4708 -0.3801  2.1084
 9092SOL    HW238913   2.488   3.602   8.738  0.7840  1.2148 -0.1969
 9093SOL     OW38914   0.190   2.098   6.841  0.4174  0.6021  0.4336
 9093SOL    HW138915   0.186   2.030   6.908  0.4970  0.2958  0.1316
 9093SOL    HW238916   0.272   2.140   6.866  0.5357 -0.3039  1.5751
 9094SOL     OW38917   3.980   2.581   1.501 -0.1245 -0.4009 -0.3623
 9094SOL    HW138918   3.896   2.554   1.536  0.4774  0.8405  2.0659
 9094SOL    HW238919   3.986   2.664   1.548  0.1611 -0.6211 -0.0093
 9095SOL     OW38920   0.493   0.577  14.403  0.2008 -0.1189  0.0452
 9095SOL    HW138921   0.505   0.652  14.345  1.3453  1.1435  1.9335
 9095SOL    HW238922   0.555   0.516  14.363 -1.3425 -1.7917  0.1919
 9096SOL     OW38923   0.953   2.038  10.887 -0.4573  0.0259 -0.4230
 9096SOL    HW138924   0.934   1.950  10.919 -2.1068  0.7311  0.5951
 9096SOL    HW238925   1.022   2.064  10.947  0.0281 -2.1321 -0.0639
 9097SOL     OW38926   2.959   2.335   2.692  0.2295  0.4690 -0.2821
 9097SOL    HW138927   3.027   2.272   2.668 -1.3433 -0.9098 -1.0851
 9097SOL    HW238928   3.008   2.414   2.666  0.4493  0.1250 -0.9205
 9098SOL     OW38929   4.257   4.171   2.010  0.0012 -0.7458  0.3515
 9098SOL    HW138930   4.347   4.198   1.992  0.8044 -0.8259  4.1856
 9098SOL    HW238931   4.220   4.258   2.021 -3.1095 -2.1814  1.3126
 9099SOL     OW38932   4.003   3.486   4.185 -0.0975 -0.1283 -0.0367
 9099SOL    HW138933   4.009   3.579   4.206 -2.0634 -0.5169  2.2460
 9099SOL    HW238934   3.935   3.457   4.245  1.8100 -2.0373  1.1973
 9100SOL     OW38935   0.205   2.464  13.619 -0.2748 -0.5709 -0.1782
 9100SOL    HW138936   0.134   2.419  13.665  0.2232 -1.2273 -0.0440
 9100SOL    HW238937   0.271   2.396  13.604  0.0840 -0.5596  1.3207
 9101SOL     OW38938   1.412   1.900  14.428  0.2790 -0.1420  0.5248
 9101SOL    HW138939   1.389   1.810  14.403 -1.5485  0.4026  0.2338
 9101SOL    HW238940   1.371   1.902  14.515 -0.4795 -0.5761  0.1759
 9102SOL     OW38941   1.640   1.995   2.257  0.7473 -0.1378 -0.3067
 9102SOL    HW138942   1.692   2.046   2.319  0.4424 -0.1746 -0.0232
 9102SOL    HW238943   1.574   2.049   2.212  0.2849 -0.9154 -0.5573
 9103SOL     OW38944   2.515   1.184   0.116 -0.3731 -0.4992 -0.4093
 9103SOL    HW138945   2.483   1.133   0.041  0.8417 -1.9538  0.0541
 9103SOL    HW238946   2.484   1.271   0.093 -2.6904 -0.7093  1.8315
 9104SOL     OW38947   3.908   1.418   4.450  0.0277 -0.3937  0.0854
 9104SOL    HW138948   3.928   1.494   4.395 -1.8296  0.6046  0.8152
 9104SOL    HW238949   3.854   1.462   4.516  0.5926 -1.9493  1.5731
 9105SOL     OW38950   2.901   3.048   4.863  0.3598 -0.5830  0.1523
 9105SOL    HW138951   2.872   2.983   4.927 -0.7804  1.1088  1.3587
 9105SOL    HW238952   2.994   3.028   4.855  0.9747  2.0801  0.4376
 9106SOL     OW38953   0.252   0.853  11.752 -0.1317  0.1358 -0.2160
 9106SOL    HW138954   0.310   0.928  11.767 -1.5863  1.0122  0.9521
 9106SOL    HW238955   0.303   0.810  11.682 -0.4551  2.1042 -1.6597
 9107SOL     OW38956   3.238   1.665   5.252 -0.2233  0.1436 -0.1671
 9107SOL    HW138957   3.179   1.666   5.177 -1.1303 -3.0367  0.5070
 9107SOL    HW238958   3.183   1.614   5.311 -2.7897 -0.8458 -3.3869
 9108SOL     OW38959   1.089   3.688  16.492  0.5542  0.1126  0.0914
 9108SOL    HW138960   1.138   3.769  16.505  1.3285 -0.2237 -0.7616
 9108SOL    HW238961   1.009   3.717  16.536  0.0473 -1.6510  0.3622
 9109SOL     OW38962   4.599   2.159   1.805  0.2827 -0.6474 -0.4540
 9109SOL    HW138963   4.667   2.179   1.869  0.5977 -0.8855 -0.7132
 9109SOL    HW238964   4.624   2.068   1.789 -1.4858 -1.1345 -0.4362
 9110SOL     OW38965   2.247   2.257   2.553 -0.0240  0.3892 -0.1422
 9110SOL    HW138966   2.210   2.188   2.608 -1.0559  0.6792 -0.4697
 9110SOL    HW238967   2.298   2.294   2.625  0.5458 -0.9527  0.1440
 9111SOL     OW38968   0.546   1.226   8.766  0.2215  0.1780  0.2700
 9111SOL    HW138969   0.467   1.256   8.721 -0.6632 -1.5913  0.6405
 9111SOL    HW238970   0.511   1.152   8.815 -0.6083 -1.2446 -2.4958
 9112SOL     OW38971   4.517   2.396  17.293 -0.3187 -0.6939  0.7992
 9112SOL    HW138972   4.468   2.448  17.357  0.1808 -0.4622  0.9962
 9112SOL    HW238973   4.445   2.340  17.265  0.4032 -2.4997  2.5786
 9113SOL     OW38974   4.212   1.831   4.494 -0.3065 -0.1412 -0.4013
 9113SOL    HW138975   4.196   1.914   4.448  2.3878  0.9342  0.5804
 9113SOL    HW238976   4.227   1.771   4.421  0.7453 -0.0991 -0.2226
 9114SOL     OW38977   3.660   3.245   5.362  0.1608  0.1330  0.0838
 9114SOL    HW138978   3.733   3.184   5.375 -0.6259 -0.5730  1.2324
 9114SOL    HW238979   3.591   3.182   5.384  1.6443 -2.1527 -1.8893
 9115SOL     OW38980   2.366   3.655  17.701  0.3388  0.2293 -0.0087
 9115SOL    HW138981   2.433   3.720  17.722  0.8702  0.6190 -2.8589
 9115SOL    HW238982   2.325   3.658   0.039 -0.9488  0.9329 -0.6545
 9116SOL     OW38983   2.281   3.592   9.466 -0.6351 -0.2391 -0.2617
 9116SOL    HW138984   2.246   3.523   9.522 -0.5509  1.5025  1.9560
 9116SOL    HW238985   2.258   3.553   9.382 -0.5476  0.5651 -0.6595
 9117SOL     OW38986   0.333   0.132  12.720  0.1825  0.3891 -0.2697
 9117SOL    HW138987   0.380   0.203  12.763 -0.6342 -1.2688  3.3398
 9117SOL    HW238988   0.407   0.086  12.682 -0.8382 -0.5968 -1.0792
 9118SOL     OW38989   4.664   1.401  11.448  0.5276 -0.7660  0.0494
 9118SOL    HW138990   4.572   1.393  11.474  0.3854 -0.0378 -0.2361
 9118SOL    HW238991   4.671   1.495  11.430  0.5742 -0.4470  1.7858
 9119SOL     OW38992   3.955   1.264   6.002 -0.5891  0.4799  0.3481
 9119SOL    HW138993   4.039   1.257   6.047 -0.9568 -2.0867  0.6468
 9119SOL    HW238994   3.960   1.171   5.979  1.4482  0.8496 -0.7732
 9120SOL     OW38995   3.640   2.962   5.052  0.2502  0.0452  0.4230
 9120SOL    HW138996   3.644   2.925   4.964 -0.3216 -3.1308  1.7305
 9120SOL    HW238997   3.612   2.891   5.109  0.5187 -1.0535 -0.8159
 9121SOL     OW38998   3.706   1.592  16.048 -0.0681  0.1511  0.8815
 9121SOL    HW138999   3.682   1.585  15.956 -0.8121  0.6331  1.0414
 9121SOL    HW239000   3.651   1.659  16.089 -1.5477 -1.8500  2.1609
 9122SOL     OW39001   3.261   1.574  17.123 -0.3000 -0.0837 -0.8642
 9122SOL    HW139002   3.224   1.654  17.086 -0.9658 -0.4916 -1.0742
 9122SOL    HW239003   3.243   1.517  17.049 -0.8312 -1.1498  0.0757
 9123SOL     OW39004   0.229   1.735   2.218  0.1949 -0.1533 -0.0106
 9123SOL    HW139005   0.262   1.778   2.297  0.0787 -4.0422  2.1424
 9123SOL    HW239006   0.251   1.798   2.150  1.6717  1.7387  2.2201
 9124SOL     OW39007   1.186   1.305   6.991 -0.6297 -0.6239  0.0466
 9124SOL    HW139008   1.150   1.244   7.056  1.1498 -1.2050  0.4837
 9124SOL    HW239009   1.125   1.292   6.917 -0.6097 -2.4193  0.3490
 9125SOL     OW39010   2.762   3.771   4.298 -0.3871 -0.4600 -0.2902
 9125SOL    HW139011   2.742   3.722   4.377 -0.3453 -2.8516 -1.7675
 9125SOL    HW239012   2.857   3.762   4.293 -0.5427 -1.5922 -1.1925
 9126SOL     OW39013   4.720   3.756  12.066  0.4732 -0.2810  0.1898
 9126SOL    HW139014   4.684   3.687  12.122  0.4758  0.7901  1.5151
 9126SOL    HW239015   0.059   3.787  12.116 -0.7646 -0.7780  2.4074
 9127SOL     OW39016   3.719   0.478   3.403  0.3200  0.5210  0.1677
 9127SOL    HW139017   3.731   0.408   3.338 -1.1608  2.3595 -2.1044
 9127SOL    HW239018   3.716   0.428   3.484  0.5474  1.7992  0.9686
 9128SOL     OW39019   0.705   0.060   9.697  0.1276 -0.3790 -0.0561
 9128SOL    HW139020   0.645   0.041   9.770 -0.8045  2.0319 -0.2179
 9128SOL    HW239021   0.758   0.131   9.734  2.2214 -1.2938 -1.2785
 9129SOL     OW39022   1.223   3.509  16.009  0.1880 -0.1963 -0.0107
 9129SOL    HW139023   1.227   3.415  16.031 -1.4493 -0.2029  0.2906
 9129SOL    HW239024   1.206   3.549  16.094  0.5536 -1.9734  0.9098
 9130SOL     OW39025   3.646   0.536  17.473  0.1958 -0.2220 -0.0202
 9130SOL    HW139026   3.712   0.468  17.461 -1.3483 -1.3215 -2.0916
 9130SOL    HW239027   3.660   0.551  17.567 -4.1922 -0.1135  0.5854
 9131SOL     OW39028   4.487   1.827   4.095 -0.6317  0.1657 -0.1419
 9131SOL    HW139029   4.435   1.763   4.048 -0.2666 -0.1775 -0.0851
 9131SOL    HW239030   4.461   1.911   4.058 -0.1381  0.6544  0.6023
 9132SOL     OW39031   3.488   3.043   2.976 -0.2131  0.2797  0.2355
 9132SOL    HW139032   3.573   3.070   3.012 -0.1535 -1.3612  1.3348
 9132SOL    HW239033   3.435   3.068   3.051 -0.7659 -3.6571  1.1716
 9133SOL     OW39034   4.087   4.367   6.606  0.0721 -0.1724 -1.0259
 9133SOL    HW139035   4.067   4.273   6.603  1.3218 -0.4795  0.6288
 9133SOL    HW239036   4.023   4.401   6.668  0.1975 -0.1843 -0.8896
 9134SOL     OW39037   2.630   3.721   5.209  0.0709  0.4360 -0.0100
 9134SOL    HW139038   2.539   3.733   5.235  0.3059  1.4921  0.3067
 9134SOL    HW239039   2.617   3.680   5.123  1.2429 -2.2749  1.1134
 9135SOL     OW39040   4.393   1.711   3.260 -0.6141 -0.1042  0.0317
 9135SOL    HW139041   4.476   1.742   3.223  0.0605  0.4952  2.0416
 9135SOL    HW239042   4.364   1.655   3.188  0.3168  1.1215 -1.2904
 9136SOL     OW39043   2.850   3.907  14.280 -0.3561  0.3448 -1.2504
 9136SOL    HW139044   2.833   3.818  14.247  2.6128 -1.0199  0.9594
 9136SOL    HW239045   2.943   3.906  14.300 -0.2780  0.8084 -1.5797
 9137SOL     OW39046   1.915   1.994   2.116  0.1566 -0.1349 -0.1257
 9137SOL    HW139047   1.885   2.072   2.163 -3.0762 -1.8881  0.6803
 9137SOL    HW239048   1.988   1.965   2.171  0.3801 -0.0276 -0.3636
 9138SOL     OW39049   0.034   3.316   6.647  0.3426  0.3102  0.7927
 9138SOL    HW139050   0.032   3.272   6.732 -0.9528 -0.2513  0.4653
 9138SOL    HW239051   4.711   3.390   6.654 -1.0908 -1.0024  2.0478
 9139SOL     OW39052   2.080   0.068   3.534  1.1531 -0.0510  0.5263
 9139SOL    HW139053   2.012   0.103   3.476  0.5918  0.8784  1.7431
 9139SOL    HW239054   2.029   0.021   3.600  1.1306 -0.1237  0.4573
 9140SOL     OW39055   0.207   1.436  16.927  0.3647 -0.2084  0.4894
 9140SOL    HW139056   0.131   1.377  16.927 -0.2945  0.6468  0.3668
 9140SOL    HW239057   0.169   1.514  16.888 -0.7097 -0.6374  0.6659
 9141SOL     OW39058   1.752   4.596  12.293  0.5730 -0.4141 -0.4532
 9141SOL    HW139059   1.737   4.548  12.374 -1.4493 -0.3408 -0.7866
 9141SOL    HW239060   1.667   4.628  12.262 -0.0841 -1.4338  0.3092
 9142SOL     OW39061   3.415   3.920   4.354 -0.4333  0.1218 -0.0131
 9142SOL    HW139062   3.336   3.973   4.346 -0.4948 -0.1616 -1.2657
 9142SOL    HW239063   3.465   3.973   4.416 -0.5227 -0.5009  0.5948
 9143SOL     OW39064   4.703   3.979   0.321 -0.3401  0.1440 -0.0202
 9143SOL    HW139065   0.044   4.030   0.344 -0.0414 -1.0917  1.7561
 9143SOL    HW239066   0.002   3.922   0.253  0.4397  0.8472 -0.1929
 9144SOL     OW39067   1.537   4.607   5.496  0.2068  0.1694  0.2825
 9144SOL    HW139068   1.622   4.645   5.471  0.1690  1.0454  1.4532
 9144SOL    HW239069   1.471   4.675   5.486 -1.0729 -0.9852  0.9482
 9145SOL     OW39070   4.522   3.895  11.956 -0.2987 -0.0625 -0.0993
 9145SOL    HW139071   4.443   3.889  12.010  0.4826  0.3879  1.0901
 9145SOL    HW239072   4.592   3.861  12.011 -1.7280 -3.4415 -0.3937
 9146SOL     OW39073   1.295   1.476  15.929 -0.6278 -0.3222  0.2597
 9146SOL    HW139074   1.257   1.501  16.013 -0.5173 -0.1720  0.2658
 9146SOL    HW239075   1.387   1.469  15.956  0.1320  1.3948 -1.8354
 9147SOL     OW39076   1.906   0.172  13.459  0.0759  0.0178 -0.0283
 9147SOL    HW139077   1.902   0.268  13.460 -0.9457 -0.0514  1.7615
 9147SOL    HW239078   1.900   0.150  13.552  0.6574 -2.3864 -0.5765
 9148SOL     OW39079   4.689   4.549  12.380  0.2664 -0.4422  0.4942
 9148SOL    HW139080   4.661   4.505  12.460 -1.0363  1.0560  0.8666
 9148SOL    HW239081   4.646   4.634  12.384  1.1988 -0.1004  3.3174
 9149SOL     OW39082   1.961   2.586   5.834 -0.0451  0.0995  0.2835
 9149SOL    HW139083   1.926   2.497   5.823 -2.8499  1.0720  1.1590
 9149SOL    HW239084   2.003   2.570   5.918  0.2019 -2.6297 -0.3785
 9150SOL     OW39085   2.945   3.568   8.700  0.2775  0.1794  0.4353
 9150SOL    HW139086   2.988   3.608   8.624 -1.9476  0.7130 -0.5200
 9150SOL    HW239087   2.922   3.480   8.668 -1.0049  1.5124 -2.2819
 9151SOL     OW39088   0.384   2.449   7.814 -0.5999  0.4847 -0.2477
 9151SOL    HW139089   0.326   2.395   7.760  0.0660  1.1214 -1.5747
 9151SOL    HW239090   0.325   2.465   7.888  1.5191 -3.0830  2.1796
 9152SOL     OW39091   2.975   0.882   1.943  0.3453 -0.4295 -0.2352
 9152SOL    HW139092   2.910   0.815   1.964 -0.3664  0.4893  0.4575
 9152SOL    HW239093   3.052   0.839   1.980  0.8679  1.9497  1.4541
 9153SOL     OW39094   1.850   3.095   6.828 -0.2506  0.4995 -0.2158
 9153SOL    HW139095   1.860   3.187   6.850 -0.8984  0.8689 -1.4596
 9153SOL    HW239096   1.875   3.061   6.914 -1.9032 -2.7336 -0.9864
 9154SOL     OW39097   3.220   1.874   6.654 -0.1844  0.3880  0.3741
 9154SOL    HW139098   3.221   1.801   6.716 -0.2997  0.7575  0.8040
 9154SOL    HW239099   3.250   1.944   6.712 -2.2961  1.2134  0.4684
 9155SOL     OW39100   4.294   2.196   7.253 -0.7257  0.0614  0.3529
 9155SOL    HW139101   4.252   2.177   7.169  1.8548 -1.9780 -0.4916
 9155SOL    HW239102   4.344   2.116   7.270 -1.8577 -0.2430  2.2878
 9156SOL     OW39103   1.881   3.300   6.520  0.1075 -0.4932  0.0806
 9156SOL    HW139104   1.820   3.374   6.519  0.4549 -0.1820  1.6264
 9156SOL    HW239105   1.840   3.231   6.572 -0.3832  0.3668  0.8208
 9157SOL     OW39106   1.519   0.586   2.673  0.3463  0.0907 -0.0427
 9157SOL    HW139107   1.497   0.636   2.752  1.9343  3.8649 -1.9653
 9157SOL    HW239108   1.521   0.492   2.689 -0.6170 -0.1372 -1.3232
 9158SOL     OW39109   1.436   1.591   2.040  0.2660 -0.2355 -0.1635
 9158SOL    HW139110   1.431   1.686   2.032  0.0180 -0.3175 -1.0136
 9158SOL    HW239111   1.453   1.555   1.953  0.3316 -0.7059  0.0449
 9159SOL     OW39112   0.119   3.617   6.517 -0.2563 -0.1739 -0.1439
 9159SOL    HW139113   0.069   3.603   6.437 -0.5258  0.9971 -0.1843
 9159SOL    HW239114   0.059   3.607   6.592 -0.7706 -0.2687 -0.5695
 9160SOL     OW39115   1.753   3.232   8.269 -0.0033  0.2080  0.3884
 9160SOL    HW139116   1.755   3.199   8.358  2.5718  1.7859  0.9228
 9160SOL    HW239117   1.837   3.199   8.237 -0.8189 -1.3629 -0.1159
 9161SOL     OW39118   2.475   3.165  14.523  0.2387  0.0994  0.1473
 9161SOL    HW139119   2.429   3.091  14.563  3.2239 -0.1368  3.0925
 9161SOL    HW239120   2.422   3.234  14.563 -2.0536 -1.1894 -0.6738
 9162SOL     OW39121   2.952   3.379   9.217 -0.3000 -0.2959 -0.1420
 9162SOL    HW139122   2.868   3.370   9.172 -0.1084  1.9693 -0.9551
 9162SOL    HW239123   2.947   3.303   9.275 -1.0833 -1.7264 -2.0939
 9163SOL     OW39124   4.526   0.144   5.402 -1.1583 -0.7686  0.4521
 9163SOL    HW139125   4.521   0.227   5.449  1.2732 -1.0004  1.0960
 9163SOL    HW239126   4.471   0.155   5.324  1.7856 -0.0523 -1.5231
 9164SOL     OW39127   1.792   2.507  12.405  0.3115  0.0274  0.1948
 9164SOL    HW139128   1.805   2.473  12.494  1.9032 -0.6172 -0.2895
 9164SOL    HW239129   1.718   2.568  12.402 -1.6040 -2.2346  1.4982
 9165SOL     OW39130   4.698   1.665  11.422 -0.1969  0.2414  0.5076
 9165SOL    HW139131   4.651   1.742  11.391  1.6498  1.1296 -0.1114
 9165SOL    HW239132   0.048   1.704  11.431  0.6232 -1.3872 -0.3400
 9166SOL     OW39133   3.878   3.540   5.507  0.1850  0.2133  0.1090
 9166SOL    HW139134   3.840   3.472   5.452 -2.5721  1.9772 -0.2177
 9166SOL    HW239135   3.841   3.618   5.465  0.2631  1.4119  2.2399
 9167SOL     OW39136   4.073   3.939   4.915  0.3510 -0.1583 -0.0418
 9167SOL    HW139137   4.144   3.927   4.852 -0.8807 -1.0733 -1.2691
 9167SOL    HW239138   4.107   3.873   4.976  0.8196 -1.3686 -1.6281
 9168SOL     OW39139   1.956   2.395   9.815 -0.3460  0.2545  0.3207
 9168SOL    HW139140   1.946   2.404   9.720 -0.3680  0.3624  0.3337
 9168SOL    HW239141   2.045   2.427   9.825 -0.1094 -0.1105 -0.5822
 9169SOL     OW39142   0.391   4.430  16.505 -0.4158 -0.2708  0.0070
 9169SOL    HW139143   0.445   4.498  16.545 -0.9588  0.4040 -0.3963
 9169SOL    HW239144   0.386   4.466  16.416 -3.1188  0.3707  0.4360
 9170SOL     OW39145   2.207   0.462   1.526 -0.2821  0.4857  0.4014
 9170SOL    HW139146   2.211   0.513   1.444  1.2515  1.4471  1.0713
 9170SOL    HW239147   2.266   0.517   1.577  0.3947 -0.4935  0.6670
 9171SOL     OW39148   4.037   3.820   2.393  0.4693 -0.3488  0.3604
 9171SOL    HW139149   4.049   3.887   2.326 -1.1276 -1.4164 -0.9813
 9171SOL    HW239150   4.008   3.878   2.463  0.1237 -0.2426  0.1248
 9172SOL     OW39151   2.893   2.039   1.412  0.4159 -0.2969  0.3816
 9172SOL    HW139152   2.925   2.057   1.501 -1.0545  2.8627  0.2636
 9172SOL    HW239153   2.805   2.010   1.436  0.9633 -1.4135  1.0360
 9173SOL     OW39154   4.326   2.041   5.680 -0.0515  0.0954  0.0312
 9173SOL    HW139155   4.260   1.993   5.630  1.2859  0.3509 -2.0106
 9173SOL    HW239156   4.390   1.971   5.690 -1.9724 -2.0007 -2.1520
 9174SOL     OW39157   2.357   0.300   2.552  0.2487  0.7690  0.2953
 9174SOL    HW139158   2.316   0.385   2.568  0.6850  1.1803 -0.7999
 9174SOL    HW239159   2.331   0.256   2.633  0.6346 -0.6498 -0.3535
 9175SOL     OW39160   1.499   1.218   7.025 -0.0669  0.2602  0.0074
 9175SOL    HW139161   1.533   1.239   6.938 -1.1766  1.2268 -0.1920
 9175SOL    HW239162   1.406   1.235   7.011 -0.2940 -0.3829  0.7557
 9176SOL     OW39163   1.900   3.593   8.148 -0.3612  0.0916 -0.1957
 9176SOL    HW139164   1.936   3.513   8.187 -0.7982 -1.1771 -2.3982
 9176SOL    HW239165   1.874   3.551   8.066  2.2630 -0.4669 -0.7595
 9177SOL     OW39166   0.053   3.081   2.667  0.2594 -0.2495 -0.4797
 9177SOL    HW139167   4.716   3.141   2.678 -1.5021 -2.8581  1.8676
 9177SOL    HW239168   0.054   3.068   2.572 -2.5033  0.8345 -0.6523
 9178SOL     OW39169   0.753   2.812   3.286 -0.1638  0.0974 -0.0662
 9178SOL    HW139170   0.821   2.746   3.277 -0.3867  0.1181 -1.8951
 9178SOL    HW239171   0.743   2.848   3.198  1.0418 -0.2416 -0.3368
 9179SOL     OW39172   4.432   2.539  16.398 -0.5849  0.0011  0.2328
 9179SOL    HW139173   4.506   2.558  16.456 -0.1454 -3.1389  0.6668
 9179SOL    HW239174   4.365   2.595  16.436 -0.5948 -0.0155  0.2396
 9180SOL     OW39175   3.593   3.471   5.236 -0.2020 -0.1257 -0.5786
 9180SOL    HW139176   3.615   3.386   5.275  1.0132  1.5642  2.3637
 9180SOL    HW239177   3.625   3.451   5.148 -0.7901 -0.5448 -0.6966
 9181SOL     OW39178   3.274   2.995  17.363 -0.1934 -0.4811  0.1772
 9181SOL    HW139179   3.233   3.064  17.415  0.1490  0.3225 -0.6134
 9181SOL    HW239180   3.220   3.002  17.285  0.8809  0.8033 -0.4502
 9182SOL     OW39181   4.625   3.760   8.712 -0.6288 -0.0234  0.0647
 9182SOL    HW139182   4.529   3.756   8.706 -0.6856  1.4427  0.2034
 9182SOL    HW239183   4.651   3.745   8.621 -1.1593 -1.9770  0.2251
 9183SOL     OW39184   4.494   3.812   5.126 -0.4957 -0.5362  0.1767
 9183SOL    HW139185   4.432   3.806   5.053  1.2745 -1.5916 -1.2302
 9183SOL    HW239186   4.452   3.887   5.169 -1.3431 -1.2595  0.6141
 9184SOL     OW39187   4.438   0.638   3.278 -0.4899  0.0811  0.3756
 9184SOL    HW139188   4.533   0.652   3.279 -0.3514 -0.6774 -2.0909
 9184SOL    HW239189   4.392   0.721   3.265  1.2783  0.9201 -0.5952
 9185SOL     OW39190   4.316   2.853   0.608  0.3621  0.2991 -0.1928
 9185SOL    HW139191   4.239   2.805   0.637 -0.5885  0.6872 -2.1191
 9185SOL    HW239192   4.341   2.917   0.674  1.7340  0.8499 -1.2236
 9186SOL     OW39193   3.201   1.821  17.041 -0.0797 -0.2532  0.3631
 9186SOL    HW139194   3.195   1.841  17.134  3.0634 -2.4290  1.0077
 9186SOL    HW239195   3.109   1.813  17.016  0.5192  1.1140 -2.2853
 9187SOL     OW39196   0.017   0.745   7.692 -0.0591  0.4730 -0.5490
 9187SOL    HW139197   0.001   0.655   7.721  1.0094  0.6301  0.5355
 9187SOL    HW239198   4.705   0.749   7.610  1.0526 -0.3066 -1.2615
 9188SOL     OW39199   0.779   2.951   8.924  0.0557  0.5392 -0.0242
 9188SOL    HW139200   0.872   2.936   8.938 -0.0880  0.9391  1.4249
 9188SOL    HW239201   0.785   2.998   8.841  0.8931  1.7507  0.7188
 9189SOL     OW39202   2.817   0.782   9.779 -0.0502 -0.5671 -0.3476
 9189SOL    HW139203   2.723   0.802   9.775  0.1971  0.5464 -0.6455
 9189SOL    HW239204   2.835   0.805   9.870  1.6352 -0.3318 -0.7534
 9190SOL     OW39205   3.243   1.972  14.030  0.1830 -0.5714 -0.3797
 9190SOL    HW139206   3.317   1.919  14.060  0.0810 -2.3799 -3.2906
 9190SOL    HW239207   3.238   2.040  14.097  0.3427  0.6179 -1.5684
 9191SOL     OW39208   2.815   4.641  13.048 -0.0756 -0.2222  0.6222
 9191SOL    HW139209   2.758   4.702  13.094 -1.0322  1.8983 -3.3707
 9191SOL    HW239210   2.774   4.648  12.961 -0.0984  0.9362  0.7364
 9192SOL     OW39211   3.249   3.339   4.668 -1.0836  0.7422 -0.7715
 9192SOL    HW139212   3.305   3.386   4.730 -1.2889 -0.3640  0.2602
 9192SOL    HW239213   3.161   3.360   4.701 -1.1200  0.6233 -0.7919
 9193SOL     OW39214   0.635   2.580   5.434 -0.5663 -0.1398  1.1378
 9193SOL    HW139215   0.541   2.561   5.438 -0.9253  1.0796 -2.1013
 9193SOL    HW239216   0.653   2.601   5.526  0.2749 -0.7700  1.1125
 9194SOL     OW39217   3.033   4.144  16.868 -0.0481 -0.3611 -0.0002
 9194SOL    HW139218   3.088   4.072  16.899  0.3463  0.0473  0.2355
 9194SOL    HW239219   3.097   4.214  16.874  0.7890 -1.0162 -1.4189
 9195SOL     OW39220   2.434   3.098  13.139 -0.3321 -0.0041 -0.5871
 9195SOL    HW139221   2.511   3.097  13.082 -0.5436  4.3014 -0.9774
 9195SOL    HW239222   2.460   3.171  13.195  0.1923 -0.3160 -0.4302
 9196SOL     OW39223   3.978   4.105  16.296 -0.2461 -0.2700  0.1734
 9196SOL    HW139224   3.883   4.112  16.290 -0.4134 -1.2595  1.5654
 9196SOL    HW239225   3.998   4.087  16.204 -2.0596  0.6056 -0.3786
 9197SOL     OW39226   0.620   1.299  12.838 -0.2402 -0.3439 -0.1186
 9197SOL    HW139227   0.600   1.295  12.744  0.5278 -1.5361 -0.2246
 9197SOL    HW239228   0.633   1.205  12.852 -1.1132 -0.7397 -2.0644
 9198SOL     OW39229   2.777   4.553   7.022 -0.3041 -0.4763 -0.2075
 9198SOL    HW139230   2.685   4.563   7.044  0.5442 -1.2901  3.8487
 9198SOL    HW239231   2.767   4.547   6.927  0.8373 -3.0287 -0.1487
 9199SOL     OW39232   2.267   1.125   5.660  0.0735  0.5647  0.0425
 9199SOL    HW139233   2.321   1.191   5.703  2.6532 -2.3185  1.1655
 9199SOL    HW239234   2.190   1.136   5.716 -0.7796  1.8556 -1.3805
 9200SOL     OW39235   0.964   1.575  15.987 -0.0445  0.1860  0.0013
 9200SOL    HW139236   0.871   1.566  16.008  0.3123 -2.3362  0.5552
 9200SOL    HW239237   0.965   1.552  15.894  1.2648 -1.2299  0.3591
 9201SOL     OW39238   2.749   4.333   4.853 -0.3789 -0.8241 -0.0882
 9201SOL    HW139239   2.841   4.357   4.840 -0.2825 -0.4453  1.3680
 9201SOL    HW239240   2.762   4.243   4.885 -2.4852 -1.0915 -0.0069
 9202SOL     OW39241   2.848   0.960   8.646 -0.1865 -0.2442 -0.1788
 9202SOL    HW139242   2.855   0.970   8.551 -1.5730 -0.6094 -0.3198
 9202SOL    HW239243   2.783   0.896   8.674 -3.0574  2.2070 -1.1719
 9203SOL     OW39244   3.481   0.150   4.986 -0.2333 -0.8239  0.3678
 9203SOL    HW139245   3.480   0.222   5.049  1.8330 -0.3107 -0.2013
 9203SOL    HW239246   3.420   0.093   5.034 -1.8195  0.9033  0.3871
 9204SOL     OW39247   1.436   2.532   6.252 -0.1740  0.3325 -0.2032
 9204SOL    HW139248   1.411   2.440   6.262  1.2519  0.1639  1.8229
 9204SOL    HW239249   1.392   2.562   6.332  0.7175  2.5526 -0.5394
 9205SOL     OW39250   1.962   0.292   5.280  0.0322 -0.4771 -0.4099
 9205SOL    HW139251   2.042   0.284   5.333  0.2886 -1.6498 -0.9552
 9205SOL    HW239252   1.898   0.296   5.351 -1.5210 -0.2806 -1.8335
 9206SOL     OW39253   0.779   0.265   8.719 -0.3249  0.0934  0.1073
 9206SOL    HW139254   0.836   0.188   8.723 -1.2396 -0.5993 -0.0692
 9206SOL    HW239255   0.759   0.281   8.811 -1.1780  1.9483 -0.4192
 9207SOL     OW39256   3.762   2.738   9.637  0.4941  0.5360 -0.4557
 9207SOL    HW139257   3.776   2.805   9.704 -1.7782 -0.3965  0.9427
 9207SOL    HW239258   3.783   2.655   9.680 -0.2571  0.4495 -0.2409
 9208SOL     OW39259   1.545   3.293   3.185 -0.2071 -0.0805 -0.4635
 9208SOL    HW139260   1.482   3.361   3.208  2.2565  1.7112  0.9375
 9208SOL    HW239261   1.528   3.223   3.248  0.6615 -0.2755 -0.4544
 9209SOL     OW39262   0.910   3.973   4.366  0.1293 -0.0096  0.5141
 9209SOL    HW139263   0.959   3.910   4.313 -0.2497  0.5265 -0.4855
 9209SOL    HW239264   0.855   3.912   4.415  1.2870 -0.8895  0.7188
 9210SOL     OW39265   2.037   3.326   3.893 -0.3582 -0.4506  0.0214
 9210SOL    HW139266   2.131   3.319   3.911 -0.0312  3.7184  0.0098
 9210SOL    HW239267   2.027   3.421   3.889  1.9444 -0.1933  0.4102
 9211SOL     OW39268   1.817   4.255  16.705  0.6635 -0.2161 -0.0773
 9211SOL    HW139269   1.881   4.187  16.685  0.0379 -0.5691 -0.8467
 9211SOL    HW239270   1.778   4.268  16.619 -0.0463  0.5817  0.3725
 9212SOL     OW39271   1.953   0.252   2.134 -0.0145 -0.0590 -0.4815
 9212SOL    HW139272   1.972   0.330   2.082  5.1784  0.2295  1.8294
 9212SOL    HW239273   2.006   0.254   2.214  2.0077 -0.1296 -1.7940
 9213SOL     OW39274   0.005   1.699   5.590  0.0426  0.4624 -0.6199
 9213SOL    HW139275   0.026   1.606   5.583  2.8879  1.1238 -0.5889
 9213SOL    HW239276   0.091   1.739   5.575 -0.4138  1.4803 -0.5682
 9214SOL     OW39277   0.220   0.062  16.233 -0.4928  0.3977  0.9088
 9214SOL    HW139278   0.181   0.031  16.314  0.1627 -0.2665  0.9703
 9214SOL    HW239279   0.158   0.134  16.221 -0.5083  0.4817  1.5364
 9215SOL     OW39280   1.427   2.467  11.062  0.1396 -0.3627 -0.6591
 9215SOL    HW139281   1.478   2.499  11.136 -0.3826  1.1904 -0.9790
 9215SOL    HW239282   1.363   2.412  11.107 -1.7278  1.3649 -1.1820
 9216SOL     OW39283   1.149   1.495   2.078 -0.0490 -0.1236 -0.2696
 9216SOL    HW139284   1.243   1.511   2.066  0.1975 -0.3116  1.4886
 9216SOL    HW239285   1.134   1.432   2.007 -0.2432 -0.8868  0.4562
 9217SOL     OW39286   3.177   4.226   4.642  0.0893  0.0439  0.6591
 9217SOL    HW139287   3.175   4.282   4.720  0.9301 -0.3722  0.9699
 9217SOL    HW239288   3.106   4.269   4.593 -0.0009  0.3062  1.0192
 9218SOL     OW39289   0.296   2.892   6.449 -0.1090  0.3898 -0.1864
 9218SOL    HW139290   0.236   2.820   6.430 -2.0303  2.3444 -1.5178
 9218SOL    HW239291   0.232   2.948   6.493  0.6361  0.9342  0.2094
 9219SOL     OW39292   0.301   2.266  14.622 -0.1130 -0.3540  0.3323
 9219SOL    HW139293   0.243   2.196  14.652  0.3247 -0.9126 -0.1268
 9219SOL    HW239294   0.384   2.247  14.666  1.0831  0.9971 -1.3555
 9220SOL     OW39295   3.807   4.408   7.182  0.4268  0.3277  0.0938
 9220SOL    HW139296   3.885   4.410   7.128  1.0785  1.1853  1.0659
 9220SOL    HW239297   3.848   4.420   7.268 -1.0340  0.7544  0.7410
 9221SOL     OW39298   1.723   1.494   9.986  0.4712 -0.2073  0.5615
 9221SOL    HW139299   1.740   1.447  10.067 -1.8135  0.9078  1.6872
 9221SOL    HW239300   1.808   1.493   9.942 -0.6548 -0.0890 -1.6291
 9222SOL     OW39301   0.606   2.392   7.233  0.3699 -0.3767  0.0630
 9222SOL    HW139302   0.544   2.439   7.177 -0.7496 -0.3206  1.3478
 9222SOL    HW239303   0.564   2.410   7.317  0.1698 -2.2252  0.3601
 9223SOL     OW39304   1.108   1.512  10.018 -0.1146 -0.7375  0.2109
 9223SOL    HW139305   1.069   1.467  10.093 -1.9302 -1.0974 -0.9536
 9223SOL    HW239306   1.047   1.491   9.947  2.3092 -2.8559 -1.2390
 9224SOL     OW39307   2.011   3.959   8.801  0.5964  0.2872  0.7815
 9224SOL    HW139308   2.074   4.030   8.798 -1.3916  2.0657  1.4649
 9224SOL    HW239309   2.017   3.928   8.891  0.1917 -2.5228 -0.1499
 9225SOL     OW39310   0.642   4.578   0.105  0.1311 -0.2483  0.4420
 9225SOL    HW139311   0.592   4.609   0.181 -1.2086  0.3919 -0.6985
 9225SOL    HW239312   0.716   4.545   0.155  0.1218 -0.9317  0.0042
 9226SOL     OW39313   1.722   0.254   2.020 -0.5544  0.0179  0.9100
 9226SOL    HW139314   1.803   0.253   2.070 -1.0041  0.1784  1.6385
 9226SOL    HW239315   1.749   0.296   1.939  0.9910 -1.3547  0.7201
 9227SOL     OW39316   1.807   1.831   3.665 -0.5339  0.2115  0.6631
 9227SOL    HW139317   1.761   1.795   3.741 -1.2177  1.0567  0.6520
 9227SOL    HW239318   1.744   1.817   3.595  2.0486  0.8830 -1.8081
 9228SOL     OW39319   2.977   2.874  10.601  0.4958 -0.3954  0.6248
 9228SOL    HW139320   3.032   2.825  10.540  0.5929  0.5559 -0.0578
 9228SOL    HW239321   2.936   2.935  10.539  1.0955 -0.5338  0.1048
 9229SOL     OW39322   1.354   3.404   5.933 -0.1769 -0.1542 -0.2586
 9229SOL    HW139323   1.362   3.429   5.840  1.4307  1.2709  0.2692
 9229SOL    HW239324   1.335   3.311   5.918  0.9861 -0.3599 -0.4594
 9230SOL     OW39325   0.272   0.886   0.165  0.4715  0.0700 -0.0275
 9230SOL    HW139326   0.253   0.866   0.257  0.8098  0.3984  0.1159
 9230SOL    HW239327   0.198   0.849   0.118  0.7011 -0.6928  0.2109
 9231SOL     OW39328   1.464   4.119   4.401  0.6264 -0.2222  0.5666
 9231SOL    HW139329   1.417   4.035   4.397 -0.2311  0.3164 -0.8341
 9231SOL    HW239330   1.500   4.128   4.313  1.9937 -2.4256  0.9064
 9232SOL     OW39331   3.230   4.097   6.035 -0.3495  0.3245 -0.4430
 9232SOL    HW139332   3.306   4.094   5.976 -0.5837 -2.6630 -0.5591
 9232SOL    HW239333   3.160   4.092   5.970 -1.2347 -1.8230  0.6897
 9233SOL     OW39334   0.438   3.409   8.189  0.0574  0.0332 -0.6448
 9233SOL    HW139335   0.491   3.429   8.266  2.0291  1.3883 -2.3673
 9233SOL    HW239336   0.490   3.447   8.119  0.2404 -0.0883 -0.5748
 9234SOL     OW39337   1.025   2.974   0.191 -0.0975  0.2170 -0.0672
 9234SOL    HW139338   0.931   2.979   0.176  0.0071 -5.1781 -2.7889
 9234SOL    HW239339   1.046   2.895   0.139 -0.9045 -0.8040  1.1641
 9235SOL     OW39340   2.143   0.642   3.656 -0.4990  0.1929 -0.1039
 9235SOL    HW139341   2.186   0.600   3.731 -3.3790 -0.7968  0.9664
 9235SOL    HW239342   2.167   0.733   3.675  0.9345  0.4730 -3.1023
 9236SOL     OW39343   4.222   2.976   3.632 -0.2089 -0.1193 -0.4828
 9236SOL    HW139344   4.274   2.908   3.676  2.2641 -0.1493 -3.4059
 9236SOL    HW239345   4.138   2.956   3.673 -0.3112  0.4637 -0.4139
 9237SOL     OW39346   0.657   4.468   8.111  0.0409  0.1956 -0.3827
 9237SOL    HW139347   0.626   4.438   8.196  1.1575 -0.8644 -0.3460
 9237SOL    HW239348   0.612   4.551   8.122  0.4913  0.4264 -0.2583
 9238SOL     OW39349   2.858   1.092  10.260 -0.0754  0.1358  0.3040
 9238SOL    HW139350   2.791   1.144  10.217  0.5995 -0.5351 -1.5580
 9238SOL    HW239351   2.909   1.079  10.180  0.6642  2.2488  0.4399
 9239SOL     OW39352   3.066   3.883  14.491 -0.3582  0.1909  0.2333
 9239SOL    HW139353   3.145   3.926  14.457 -1.0278 -0.7206 -2.4134
 9239SOL    HW239354   3.060   3.909  14.583  1.2190 -0.4577  0.5288
 9240SOL     OW39355   3.046   4.467   1.228 -0.1772 -0.1469 -0.1606
 9240SOL    HW139356   3.031   4.373   1.235 -0.3294 -0.1812 -0.8905
 9240SOL    HW239357   2.967   4.483   1.175  0.6805  3.0285 -0.4945
 9241SOL     OW39358   2.502   1.420   3.044 -0.5917 -0.0428  0.0926
 9241SOL    HW139359   2.423   1.461   3.008 -0.0213  1.3445  0.3896
 9241SOL    HW239360   2.495   1.447   3.136  1.1478  2.0325 -0.3691
 9242SOL     OW39361   4.290   1.501   6.013 -0.1836 -0.2812  0.0177
 9242SOL    HW139362   4.284   1.583   6.063  2.3307  0.2487 -0.5430
 9242SOL    HW239363   4.318   1.539   5.930  0.0286  1.0884  0.7021
 9243SOL     OW39364   4.042   3.713   0.245  0.7808  1.0236  0.2738
 9243SOL    HW139365   4.079   3.801   0.246  0.5953  1.0778  2.1037
 9243SOL    HW239366   4.092   3.673   0.174  0.6944 -2.0369  1.9192
 9244SOL     OW39367   3.175   1.393   1.624  0.2518 -0.0414 -0.1648
 9244SOL    HW139368   3.145   1.329   1.689  1.5396  2.4705  2.8746
 9244SOL    HW239369   3.091   1.407   1.580 -0.6173 -1.2142  1.0839
 9245SOL     OW39370   3.069   2.707   1.948  0.0729  0.1683  0.3295
 9245SOL    HW139371   3.087   2.614   1.939 -0.4271  0.2175 -1.0973
 9245SOL    HW239372   3.154   2.748   1.935  1.1647 -1.8932  1.1065
 9246SOL     OW39373   0.748   0.684   0.774  0.0372 -0.1274 -0.1513
 9246SOL    HW139374   0.799   0.731   0.840  0.0038 -2.4650  1.5160
 9246SOL    HW239375   0.721   0.601   0.813 -0.5475 -0.1643 -0.6216
 9247SOL     OW39376   2.367   0.111  15.116 -0.4100 -0.0392  0.0810
 9247SOL    HW139377   2.406   0.168  15.050 -2.0114 -0.4888 -1.2351
 9247SOL    HW239378   2.382   0.024  15.079  2.4516  0.4260  0.1707
 9248SOL     OW39379   2.636   4.349   2.119 -0.3730  0.0175 -0.1779
 9248SOL    HW139380   2.575   4.413   2.082  0.0921  1.0313  0.8071
 9248SOL    HW239381   2.574   4.288   2.158 -1.5415  0.1954 -1.7731
 9249SOL     OW39382   0.867   0.923   2.655  0.0852 -0.1960  0.0557
 9249SOL    HW139383   0.921   0.856   2.696 -0.0664  0.2404  0.9736
 9249SOL    HW239384   0.786   0.875   2.634 -0.9067  1.0112  1.1117
 9250SOL     OW39385   0.774   4.380   3.115 -0.2807 -0.1529 -0.2437
 9250SOL    HW139386   0.850   4.380   3.057  0.0031 -1.0309  0.1361
 9250SOL    HW239387   0.808   4.331   3.189 -0.6792  0.9967  0.7028
 9251SOL     OW39388   0.043   4.119   2.660 -0.1194 -0.3101 -0.0375
 9251SOL    HW139389   0.034   4.030   2.624 -1.8685  0.2060 -0.8734
 9251SOL    HW239390   0.133   4.125   2.692 -0.8885 -0.0521  2.0546
 9252SOL     OW39391   0.669   4.580   2.376 -0.1972 -0.1909  0.5783
 9252SOL    HW139392   0.677   4.656   2.433 -2.9696 -1.1185  2.1855
 9252SOL    HW239393   0.609   4.611   2.307 -0.7874 -3.9606 -0.5806
 9253SOL     OW39394   0.418   0.116   2.501  0.1002 -0.0883 -0.3435
 9253SOL    HW139395   0.507   0.143   2.476  0.1602  0.0469  0.0119
 9253SOL    HW239396   0.431   0.039   2.556  2.0760  0.0625 -0.5816
 9254SOL     OW39397   0.521   1.511  14.352 -0.0489  0.1284 -0.1492
 9254SOL    HW139398   0.601   1.524  14.302  0.5349 -1.0607  0.4727
 9254SOL    HW239399   0.450   1.507  14.287  0.4415  0.5348 -0.7063
 9255SOL     OW39400   0.250   1.442  13.530  0.3529 -0.0079 -0.3403
 9255SOL    HW139401   0.311   1.382  13.573 -0.7066 -0.3176  0.6946
 9255SOL    HW239402   0.183   1.441  13.598  0.5423  0.7113 -0.1443
 9256SOL     OW39403   4.253   1.313   9.116  0.0707  0.2776 -0.3567
 9256SOL    HW139404   4.183   1.290   9.178 -0.1053 -1.4430 -1.1946
 9256SOL    HW239405   4.208   1.309   9.032  1.0656 -0.3840 -0.8564
 9257SOL     OW39406   1.123   3.834  17.092 -0.3752  0.3569 -0.1242
 9257SOL    HW139407   1.114   3.757  17.036 -1.3545  2.5838 -3.0000
 9257SOL    HW239408   1.107   3.903  17.028 -3.8653  0.5341  0.9702
 9258SOL     OW39409   2.000   3.156   8.639  0.6444 -0.1413 -0.0981
 9258SOL    HW139410   1.986   3.073   8.594 -3.4706  0.3731  0.2413
 9258SOL    HW239411   1.924   3.208   8.617  0.7566  0.1232  0.1415
 9259SOL     OW39412   3.939   3.959   3.555 -0.0739  0.4791  0.3024
 9259SOL    HW139413   4.032   3.949   3.574 -0.3062 -1.5726  0.3639
 9259SOL    HW239414   3.916   3.867   3.569 -0.7087  0.3372 -1.7635
 9260SOL     OW39415   2.995   2.814   5.026  0.8354  0.6369  0.1410
 9260SOL    HW139416   3.085   2.843   5.012  1.4239 -2.4249 -2.5628
 9260SOL    HW239417   2.984   2.753   4.953 -0.4345  3.5457 -2.1282
 9261SOL     OW39418   2.938   4.408   2.055  0.5806  0.7312 -0.6623
 9261SOL    HW139419   2.978   4.322   2.046 -0.4661  0.3350 -1.5820
 9261SOL    HW239420   2.848   4.378   2.050  0.2745  1.4126  0.9598
 9262SOL     OW39421   2.275   1.008   5.170 -0.6087 -0.1830  0.5603
 9262SOL    HW139422   2.255   1.022   5.262 -0.7999 -2.9820  0.9276
 9262SOL    HW239423   2.297   1.097   5.140 -2.0362  0.9634  2.9285
 9263SOL     OW39424   4.321   2.652  12.944 -0.1910  0.2094  0.2884
 9263SOL    HW139425   4.355   2.727  12.896 -1.0338  1.1811  1.2211
 9263SOL    HW239426   4.370   2.667  13.025 -0.7702 -1.2896  0.9254
 9264SOL     OW39427   1.304   3.341  16.634 -0.9049  0.1529  0.2161
 9264SOL    HW139428   1.288   3.247  16.635 -0.3431  0.0921  1.9961
 9264SOL    HW239429   1.397   3.338  16.658 -0.6836  1.4603 -0.4542
 9265SOL     OW39430   3.276   2.234   8.576  0.1408  0.2607 -0.2544
 9265SOL    HW139431   3.183   2.256   8.573  0.5094  1.9646  0.9087
 9265SOL    HW239432   3.306   2.272   8.658  0.7730  0.1556 -0.4360
 9266SOL     OW39433   2.763   3.466   3.662 -0.1856  0.7470  0.0363
 9266SOL    HW139434   2.703   3.401   3.697  1.2515 -0.0097  1.1172
 9266SOL    HW239435   2.792   3.419   3.584  0.9136  2.4351 -0.5850
 9267SOL     OW39436   0.688   2.737   9.335  0.6015  0.1173 -0.4058
 9267SOL    HW139437   0.613   2.796   9.337  1.1637  0.6580  3.2431
 9267SOL    HW239438   0.698   2.717   9.428 -0.6935 -1.2992 -0.5594
 9268SOL     OW39439   1.818   0.186  13.725 -0.6651  0.1926  0.3700
 9268SOL    HW139440   1.798   0.092  13.729  1.0072 -0.2501 -1.5580
 9268SOL    HW239441   1.733   0.228  13.717 -0.1205  1.1299 -0.4099
 9269SOL     OW39442   0.886   4.212   6.077  0.0524  0.0873  0.3413
 9269SOL    HW139443   0.891   4.149   6.150  0.8685 -0.7392 -0.4207
 9269SOL    HW239444   0.820   4.177   6.018 -0.5292  1.8131 -0.0191
 9270SOL     OW39445   1.447   2.233   3.847 -0.0592  0.0797 -0.2010
 9270SOL    HW139446   1.481   2.255   3.760  0.0177 -0.5805 -0.3446
 9270SOL    HW239447   1.392   2.310   3.857  1.0764  0.8146  0.2981
 9271SOL     OW39448   0.812   2.232   7.385 -0.5255 -0.5676  0.3642
 9271SOL    HW139449   0.783   2.256   7.473 -0.0880 -3.3987  1.2713
 9271SOL    HW239450   0.746   2.273   7.330 -1.1402 -1.6582  0.2889
 9272SOL     OW39451   2.819   2.550   8.292 -0.2026 -0.2146 -0.0835
 9272SOL    HW139452   2.779   2.565   8.207 -0.6891  0.5236  0.2766
 9272SOL    HW239453   2.772   2.604   8.355  2.8039  1.2163  0.9789
 9273SOL     OW39454   3.834   0.194   9.579  0.5114 -0.1554  0.6078
 9273SOL    HW139455   3.828   0.266   9.517 -0.1775  0.9836  1.9874
 9273SOL    HW239456   3.853   0.122   9.518  2.1780  1.1573 -0.4041
 9274SOL     OW39457   2.426   1.128   1.748 -0.4335 -0.1820 -0.1970
 9274SOL    HW139458   2.361   1.190   1.783 -0.6361 -0.1396 -0.6451
 9274SOL    HW239459   2.373   1.049   1.745 -1.8154  0.7497 -0.3613
 9275SOL     OW39460   1.920   1.492   3.508  0.1165  0.7816 -0.2557
 9275SOL    HW139461   1.960   1.578   3.511  0.0811  0.7987 -0.2730
 9275SOL    HW239462   1.946   1.460   3.421  2.2831  1.6008  0.1101
 9276SOL     OW39463   3.318   4.607  13.622  0.3120  0.0779  0.2401
 9276SOL    HW139464   3.390   4.633  13.679  0.9441 -0.4147 -0.3350
 9276SOL    HW239465   3.322   4.674  13.553  2.1939 -0.4659 -0.1796
 9277SOL     OW39466   1.387   1.595  14.487  0.0983 -0.7573 -0.4698
 9277SOL    HW139467   1.399   1.590  14.392  1.0982  0.0951 -0.3885
 9277SOL    HW239468   1.450   1.531  14.521 -1.8834 -1.9371  0.9553
 9278SOL     OW39469   0.403   2.801   3.858 -0.1325 -0.4122 -0.1805
 9278SOL    HW139470   0.493   2.822   3.830  0.1393  0.6260  1.4421
 9278SOL    HW239471   0.368   2.884   3.890 -0.8081 -0.6273 -0.3736
 9279SOL     OW39472   2.510   4.232   8.936  0.6100  0.1758 -0.0970
 9279SOL    HW139473   2.508   4.328   8.939 -3.3970  0.0894  0.4483
 9279SOL    HW239474   2.541   4.204   9.022  1.6840  0.0203 -0.5305
 9280SOL     OW39475   3.070   3.821   5.581  0.2803  0.1589  0.3645
 9280SOL    HW139476   3.137   3.756   5.560  0.5351  0.5542 -0.0363
 9280SOL    HW239477   3.029   3.779   5.657 -1.2959  1.9635  0.4877
 9281SOL     OW39478   3.942   3.871   4.649  0.1238 -0.3244  0.6265
 9281SOL    HW139479   3.965   3.883   4.741 -1.4427  1.7179  0.7652
 9281SOL    HW239480   4.024   3.837   4.613  0.5643 -0.3515  1.6640
 9282SOL     OW39481   3.319   0.846   4.067 -0.2122 -0.5031 -0.8225
 9282SOL    HW139482   3.229   0.815   4.076 -0.8111  0.8678 -2.0688
 9282SOL    HW239483   3.357   0.818   4.151 -1.2735  1.4735  0.3309
 9283SOL     OW39484   2.275   4.524   5.623 -0.2332  0.1032  0.1082
 9283SOL    HW139485   2.268   4.613   5.659 -2.4713 -0.7163  1.7167
 9283SOL    HW239486   2.202   4.480   5.666 -0.1439 -1.5067 -1.4207
 9284SOL     OW39487   3.654   2.768   5.255 -0.1619 -0.0284 -0.2060
 9284SOL    HW139488   3.704   2.749   5.334 -1.9635  0.3236  1.0086
 9284SOL    HW239489   3.659   2.685   5.209  0.1302  1.0297 -2.0940
 9285SOL     OW39490   2.387   4.315  11.536 -0.0596  0.7175 -0.3286
 9285SOL    HW139491   2.405   4.402  11.501 -0.3329  0.6813 -0.5533
 9285SOL    HW239492   2.403   4.335  11.629 -1.4055  0.8418 -0.1274
 9286SOL     OW39493   4.731   2.718   9.649 -0.1341 -0.4039  0.4160
 9286SOL    HW139494   4.687   2.794   9.688 -0.3667 -1.1487  1.5899
 9286SOL    HW239495   4.674   2.702   9.574  1.0637  0.1928 -0.6207
 9287SOL     OW39496   3.578   2.072   3.011 -0.3860 -0.3556  0.1830
 9287SOL    HW139497   3.578   2.159   2.971 -0.1881 -0.0013  0.9523
 9287SOL    HW239498   3.671   2.058   3.030 -0.8618 -2.5409  0.8942
 9288SOL     OW39499   4.420   0.760  12.076  0.4944  0.1171  0.5081
 9288SOL    HW139500   4.372   0.686  12.040  0.7108 -0.4998  1.4894
 9288SOL    HW239501   4.471   0.716  12.145 -0.8149 -2.3233 -0.1034
 9289SOL     OW39502   2.629   3.255   3.283  0.3759  0.0369  0.4191
 9289SOL    HW139503   2.576   3.323   3.324 -0.1565  0.2053 -0.5382
 9289SOL    HW239504   2.602   3.169   3.315  1.3737  0.1077  1.4275
 9290SOL     OW39505   3.415   0.625   2.688 -0.6384  0.4626 -0.6742
 9290SOL    HW139506   3.506   0.600   2.702 -0.7206 -0.6747 -2.1463
 9290SOL    HW239507   3.426   0.720   2.679 -0.7042  0.6857  1.5562
 9291SOL     OW39508   1.205   3.154  13.034  0.7308  0.1765  0.2264
 9291SOL    HW139509   1.124   3.174  13.081 -0.5670  1.0087 -2.3749
 9291SOL    HW239510   1.189   3.174  12.942 -0.4588  0.3674  0.4733
 9292SOL     OW39511   2.521   4.399  12.331 -0.1281  0.2667 -0.7472
 9292SOL    HW139512   2.525   4.485  12.290 -2.9431  0.0942 -1.3675
 9292SOL    HW239513   2.613   4.386  12.355 -0.2316  0.2728 -0.3494
 9293SOL     OW39514   4.124   1.318   3.521  0.5168 -0.1820 -0.6714
 9293SOL    HW139515   4.046   1.266   3.503 -0.9466  1.3753  1.1299
 9293SOL    HW239516   4.093   1.387   3.579 -0.3982 -0.3745 -0.9343
 9294SOL     OW39517   1.087   2.389   2.839 -0.3226 -0.3708  0.2979
 9294SOL    HW139518   1.002   2.434   2.838  1.3586  2.7879 -0.2324
 9294SOL    HW239519   1.145   2.463   2.858 -0.6528  0.2406 -0.9949
 9295SOL     OW39520   1.447   3.867  13.225 -0.3292  0.4744 -0.5544
 9295SOL    HW139521   1.419   3.925  13.296  0.1320 -1.7269  1.4298
 9295SOL    HW239522   1.431   3.931  13.155 -1.1636  1.9311  0.9667
 9296SOL     OW39523   1.393   3.160   0.123  0.2763  0.3864 -0.6621
 9296SOL    HW139524   1.312   3.201   0.154 -0.3435 -1.4703  0.1671
 9296SOL    HW239525   1.371   3.136   0.033  0.2253 -0.3570 -0.4467
 9297SOL     OW39526   3.887   3.718   0.905  0.2887  0.0808 -0.1376
 9297SOL    HW139527   3.901   3.788   0.842  1.6102  1.1184  1.3030
 9297SOL    HW239528   3.972   3.701   0.944  1.4685 -1.8789 -3.6017
 9298SOL     OW39529   0.869   0.051  10.938  0.3194 -0.1065 -0.3823
 9298SOL    HW139530   0.818   0.043  11.019  0.5315 -0.7942 -0.3147
 9298SOL    HW239531   0.948   4.737  10.953  0.4818  0.3643  0.3629
 9299SOL     OW39532   1.303   2.502  17.268 -0.3490 -0.2286  0.7760
 9299SOL    HW139533   1.209   2.508  17.249 -0.2757 -2.5075 -0.2721
 9299SOL    HW239534   1.320   2.409  17.280 -0.3635 -0.3778 -0.4104
 9300SOL     OW39535   2.302   3.822   4.996  0.2310  0.1524 -0.0163
 9300SOL    HW139536   2.373   3.780   4.947 -1.1565 -1.8804 -0.2718
 9300SOL    HW239537   2.344   3.908   4.999 -0.3465  0.4439 -0.2413
 9301SOL     OW39538   0.184   4.166   8.514  0.3812 -0.1918 -0.0462
 9301SOL    HW139539   0.259   4.110   8.493  0.1194 -0.2908 -0.6900
 9301SOL    HW239540   0.139   4.121   8.585 -1.2647  2.4645  0.5781
 9302SOL     OW39541   1.028   0.326   5.345  0.0779  0.0158  0.5015
 9302SOL    HW139542   1.112   0.281   5.340  0.0791  0.3807 -2.8690
 9302SOL    HW239543   1.034   0.380   5.424  1.1880  0.4120  0.1406
 9303SOL     OW39544   4.059   4.373   8.092  0.3681 -0.1043 -0.5646
 9303SOL    HW139545   4.064   4.340   8.002 -0.8516 -0.3910 -0.5256
 9303SOL    HW239546   4.084   4.304   8.153 -0.1211  1.7109  1.6864
 9304SOL     OW39547   0.538   0.209   5.427 -0.1852 -0.8291  0.0845
 9304SOL    HW139548   0.473   0.264   5.471 -0.8396  0.3728 -2.3999
 9304SOL    HW239549   0.517   0.210   5.334 -0.7264 -3.0194  0.1737
 9305SOL     OW39550   3.842   3.517  15.788  0.4556  0.4578  0.3113
 9305SOL    HW139551   3.775   3.524  15.720  1.4165 -2.7009 -0.9770
 9305SOL    HW239552   3.850   3.608  15.816  0.0640  0.5173  0.2313
 9306SOL     OW39553   1.897   1.986   4.824 -0.3524  0.2280  0.2309
 9306SOL    HW139554   1.872   1.897   4.852 -0.1520  0.1617  0.1976
 9306SOL    HW239555   1.966   2.002   4.889 -0.6103 -0.2310  0.6226
 9307SOL     OW39556   0.507   0.196   3.022 -0.7308  0.4588  0.2120
 9307SOL    HW139557   0.582   0.173   3.077 -1.0575 -0.8578  0.1094
 9307SOL    HW239558   0.443   0.136   3.060  0.5160  1.1039  3.3799
 9308SOL     OW39559   1.400   1.173   6.165 -0.1602  0.0645 -0.7098
 9308SOL    HW139560   1.435   1.252   6.205  1.0512 -0.9978  0.3104
 9308SOL    HW239561   1.372   1.119   6.239 -0.1733  1.0697  0.0255
 9309SOL     OW39562   1.081   2.911   6.006 -0.0470  0.0558  0.5335
 9309SOL    HW139563   1.033   2.833   6.033  1.4404 -1.1277 -0.2162
 9309SOL    HW239564   1.164   2.899   6.052 -0.0004 -0.1750  0.3918
 9310SOL     OW39565   1.191   3.061  12.130  0.0812 -0.0586  0.0075
 9310SOL    HW139566   1.243   2.982  12.122  1.0393  0.8692 -2.9301
 9310SOL    HW239567   1.112   3.040  12.079  0.5466  1.2541 -1.2570
 9311SOL     OW39568   0.687   1.018   2.953  0.0690  0.2250  0.4243
 9311SOL    HW139569   0.630   1.082   2.909 -0.2458  0.1714  0.7555
 9311SOL    HW239570   0.740   0.992   2.878 -0.6268  1.7306 -0.5963
 9312SOL     OW39571   2.940   0.886   2.740 -0.1387 -0.0500  0.3885
 9312SOL    HW139572   2.878   0.876   2.813  0.0330  0.4928  0.6124
 9312SOL    HW239573   3.005   0.947   2.774 -0.0828  0.4674 -0.6406
 9313SOL     OW39574   1.926   1.024  12.202  0.5529  0.3300 -0.2051
 9313SOL    HW139575   1.979   0.991  12.129  1.1504 -0.9747  0.8421
 9313SOL    HW239576   1.934   1.119  12.193  1.5868  0.3063  0.3873
 9314SOL     OW39577   1.747   4.403  16.276  0.1613  0.2991  0.3713
 9314SOL    HW139578   1.738   4.471  16.209 -0.8774 -1.0397 -0.8326
 9314SOL    HW239579   1.792   4.334  16.227  1.5431  0.7111  1.0834
 9315SOL     OW39580   0.018   1.334  15.720 -0.4012 -0.6063 -0.4004
 9315SOL    HW139581   0.037   1.269  15.652 -0.2436  0.2088 -1.1483
 9315SOL    HW239582   4.698   1.393  15.670 -1.7777 -4.0892 -2.9881
 9316SOL     OW39583   0.255   0.059   8.021 -1.4637 -0.1831  0.2459
 9316SOL    HW139584   0.280   4.722   7.965 -2.0000 -0.6365  0.6130
 9316SOL    HW239585   0.329   0.120   8.017 -1.4176 -0.2606 -0.0665
 9317SOL     OW39586   3.395   0.392  10.245 -0.0329  0.0805 -0.2438
 9317SOL    HW139587   3.366   0.309  10.206 -1.3407 -0.5044  2.0037
 9317SOL    HW239588   3.327   0.415  10.307  1.2335 -1.3617  1.6966
 9318SOL     OW39589   3.992   3.486  14.166  0.2031 -0.0759 -0.3879
 9318SOL    HW139590   3.977   3.487  14.260  0.8957  3.5085 -0.3329
 9318SOL    HW239591   3.917   3.433  14.139  0.6055 -0.9861  0.2658
 9319SOL     OW39592   0.008   4.052   8.713  0.1125  0.1266  0.5055
 9319SOL    HW139593   4.672   4.100   8.752  1.2508  0.9023  1.7074
 9319SOL    HW239594   4.714   3.964   8.731  1.9551 -0.7077 -0.3442
 9320SOL     OW39595   0.795   3.153   2.159 -0.1646  0.0496  0.5068
 9320SOL    HW139596   0.832   3.206   2.088  0.7597 -0.5049  0.5804
 9320SOL    HW239597   0.866   3.091   2.175 -2.6697 -2.2754  2.5264
 9321SOL     OW39598   2.071   3.832   0.790  0.2981  0.1240 -0.2006
 9321SOL    HW139599   2.012   3.796   0.724  0.9833  0.9691 -1.2779
 9321SOL    HW239600   2.093   3.748   0.829  0.8431 -0.1838 -1.1709
 9322SOL     OW39601   4.062   4.176  10.753 -0.1129 -0.4267  0.1753
 9322SOL    HW139602   3.968   4.190  10.744  0.1821  2.0439  0.9881
 9322SOL    HW239603   4.070   4.166  10.848 -1.0134  0.9132  0.3877
 9323SOL     OW39604   4.202   3.317   5.900  1.2144 -0.0733 -0.3062
 9323SOL    HW139605   4.189   3.396   5.952 -1.1930 -0.0767 -0.9437
 9323SOL    HW239606   4.153   3.352   5.826 -0.7946 -3.1234 -0.4173
 9324SOL     OW39607   0.519   1.497   8.470  0.2636  0.4588 -0.2944
 9324SOL    HW139608   0.515   1.542   8.554 -3.0729  0.3567 -0.3974
 9324SOL    HW239609   0.458   1.544   8.413 -0.5316  1.0271  1.0116
 9325SOL     OW39610   2.069   3.747   6.499 -0.1530 -0.1692  0.5053
 9325SOL    HW139611   2.092   3.658   6.528 -1.2810 -0.6054  0.0453
 9325SOL    HW239612   2.156   3.787   6.501 -0.0466 -0.3142 -1.4315
 9326SOL     OW39613   1.480   2.782  16.406 -0.5217 -0.3630 -0.1282
 9326SOL    HW139614   1.476   2.698  16.360 -2.5041  0.5617 -1.6544
 9326SOL    HW239615   1.520   2.752  16.487 -1.4254  1.2332  0.8964
 9327SOL     OW39616   1.440   1.310   6.773  0.1251 -0.8117  0.0599
 9327SOL    HW139617   1.355   1.315   6.730 -1.5054 -0.6082  3.2866
 9327SOL    HW239618   1.497   1.357   6.712 -0.2615  0.7285  0.8682
 9328SOL     OW39619   1.677   2.484   2.828  0.6637 -0.2855  0.2584
 9328SOL    HW139620   1.618   2.468   2.754  1.5495 -0.5237 -0.3965
 9328SOL    HW239621   1.716   2.397   2.836  0.4979 -0.2590  1.3803
 9329SOL     OW39622   4.200   2.581   7.186  0.1631 -0.1057  0.2463
 9329SOL    HW139623   4.234   2.519   7.251 -0.1043 -0.4620  0.0471
 9329SOL    HW239624   4.221   2.538   7.103  0.9991 -1.1891  1.0206
 9330SOL     OW39625   3.979   3.133   1.567 -0.3893  0.3258  0.2380
 9330SOL    HW139626   3.992   3.183   1.648 -1.8737  1.2668 -0.1047
 9330SOL    HW239627   3.894   3.170   1.542 -1.0657 -0.7751  0.9302
 9331SOL     OW39628   2.113   3.240  10.769  0.6882 -0.1135 -0.7959
 9331SOL    HW139629   2.153   3.160  10.734  1.3324 -0.5751  1.0265
 9331SOL    HW239630   2.041   3.231  10.706  2.4332 -0.5576 -2.7270
 9332SOL     OW39631   1.541   0.709  14.804 -0.1113  0.4786  0.4525
 9332SOL    HW139632   1.588   0.643  14.755 -1.2977 -0.1141  0.1104
 9332SOL    HW239633   1.579   0.684  14.888 -0.2976 -0.0821  0.3664
 9333SOL     OW39634   4.620   3.414   7.297  0.1307  0.5844  0.2759
 9333SOL    HW139635   4.649   3.376   7.380  0.9957  0.0159 -0.2945
 9333SOL    HW239636   4.699   3.424   7.243 -0.6297  2.6467 -0.4689
 9334SOL     OW39637   2.243   3.909   4.316 -0.3343 -0.1074  0.2499
 9334SOL    HW139638   2.188   3.987   4.309  0.0239 -0.0355 -1.8174
 9334SOL    HW239639   2.296   3.923   4.237 -1.3129  1.2732 -0.1597
 9335SOL     OW39640   3.011   0.572   1.632 -0.4928  0.2638 -0.6528
 9335SOL    HW139641   3.077   0.523   1.681 -0.7054  1.4312  0.8316
 9335SOL    HW239642   2.937   0.579   1.694  0.5493  1.6637  0.4324
 9336SOL     OW39643   1.739   2.986  16.449  0.2452 -0.0519 -0.0440
 9336SOL    HW139644   1.678   3.048  16.408  1.9017  0.9312 -1.0144
 9336SOL    HW239645   1.681   2.926  16.496  2.1063 -3.3835 -2.0094
 9337SOL     OW39646   2.609   1.188   0.728  0.0006  0.7895  0.2383
 9337SOL    HW139647   2.684   1.176   0.669  0.2463  0.6201  0.5820
 9337SOL    HW239648   2.596   1.094   0.745 -0.9856  0.5734 -1.7212
 9338SOL     OW39649   3.608   1.564  10.304 -0.0904  0.2007 -0.4896
 9338SOL    HW139650   3.679   1.535  10.361  0.5018 -1.3354 -2.0224
 9338SOL    HW239651   3.524   1.561  10.350 -0.5905  1.3780 -1.3249
 9339SOL     OW39652   3.572   1.327  13.414  0.0547  0.1504  0.0611
 9339SOL    HW139653   3.496   1.371  13.452 -0.4297  0.3050 -1.0833
 9339SOL    HW239654   3.598   1.393  13.350 -0.1584 -0.6599 -0.8624
 9340SOL     OW39655   2.550   0.329   9.392 -0.1641  0.1432 -0.0252
 9340SOL    HW139656   2.530   0.319   9.485  0.3973  0.3180  0.1179
 9340SOL    HW239657   2.610   0.257   9.375 -0.6599 -0.7793  2.1455
 9341SOL     OW39658   1.305   1.064   4.878 -0.1198  0.1490  0.3631
 9341SOL    HW139659   1.365   1.010   4.931 -1.6491 -2.2393 -0.3195
 9341SOL    HW239660   1.286   1.138   4.935  0.3839 -0.1146  0.8746
 9342SOL     OW39661   4.101   0.814   8.787  0.0524  0.5026 -0.3275
 9342SOL    HW139662   4.087   0.905   8.813 -1.2172 -0.3991  2.1984
 9342SOL    HW239663   4.193   0.827   8.810  0.2572 -3.2138  0.9147
 9343SOL     OW39664   1.270   0.769   9.119 -0.1660 -0.1575 -0.4857
 9343SOL    HW139665   1.350   0.820   9.109 -0.2510  0.3658  1.5380
 9343SOL    HW239666   1.297   0.702   9.182  0.3733  1.1684  0.7047
 9344SOL     OW39667   3.351   4.118   0.110  0.5725 -0.0035 -0.3200
 9344SOL    HW139668   3.361   4.069   0.192  1.5242  0.6854 -0.0203
 9344SOL    HW239669   3.360   4.202   0.156  1.6738 -0.1346 -0.2985
 9345SOL     OW39670   0.012   1.156   6.080 -0.6003 -0.3072 -0.4383
 9345SOL    HW139671   0.016   1.238   6.030 -0.1172  0.0152  0.1310
 9345SOL    HW239672   0.042   1.102   6.007 -0.3340  0.7600 -1.1293
 9346SOL     OW39673   3.351   2.709   6.925 -0.0760 -0.0966 -0.5703
 9346SOL    HW139674   3.323   2.799   6.909 -0.1474  0.4418  2.5001
 9346SOL    HW239675   3.364   2.714   7.020  0.8509  0.7876 -0.7390
 9347SOL     OW39676   0.132   3.525   1.267 -0.7759  0.5140  0.2948
 9347SOL    HW139677   0.077   3.462   1.314 -0.6819 -0.5035 -0.9804
 9347SOL    HW239678   0.211   3.473   1.253 -0.4133  0.8958  0.8815
 9348SOL     OW39679   0.756   3.124   0.376  0.1668  0.2384 -0.0321
 9348SOL    HW139680   0.743   3.177   0.297  1.1087  0.2800 -0.1582
 9348SOL    HW239681   0.684   3.141   0.436 -0.4807 -1.1119 -0.4161
 9349SOL     OW39682   2.516   3.039  11.209  0.0275 -0.0878 -0.8356
 9349SOL    HW139683   2.531   3.106  11.276 -0.3202 -1.8111  0.9524
 9349SOL    HW239684   2.586   3.069  11.151  1.4874  0.2072  1.0507
 9350SOL     OW39685   2.692   1.711  11.462  0.1232 -0.2624 -0.3256
 9350SOL    HW139686   2.731   1.626  11.483  1.5107  0.5056  0.1203
 9350SOL    HW239687   2.644   1.724  11.544 -0.3299  2.2703 -0.9870
 9351SOL     OW39688   0.394   3.799   1.903 -0.4143  0.3829 -0.0526
 9351SOL    HW139689   0.453   3.737   1.860  0.5123  1.5076 -0.4268
 9351SOL    HW239690   0.313   3.764   1.865  0.4329 -1.6522  0.0287
 9352SOL     OW39691   3.424   1.994   6.386  0.0701 -0.8492  0.0072
 9352SOL    HW139692   3.492   1.937   6.349 -0.5763 -0.5119 -1.7063
 9352SOL    HW239693   3.486   2.065   6.401 -0.5844 -0.0569 -1.0384
 9353SOL     OW39694   1.569   3.488  14.199  0.0014  0.3067 -0.3485
 9353SOL    HW139695   1.655   3.497  14.239 -0.4939 -0.6159  0.9267
 9353SOL    HW239696   1.522   3.566  14.230 -1.2333 -0.8770  0.7569
 9354SOL     OW39697   2.223   2.629   6.495  0.2353 -0.3532 -0.8730
 9354SOL    HW139698   2.146   2.597   6.448 -1.2490 -0.3624  1.5907
 9354SOL    HW239699   2.200   2.581   6.574 -1.3004 -0.3451 -1.3106
 9355SOL     OW39700   1.093   2.146   4.074 -0.1561 -0.3541  0.4270
 9355SOL    HW139701   1.062   2.234   4.050  2.7790  0.0587 -1.9227
 9355SOL    HW239702   1.107   2.141   4.168 -2.1989  0.2079  0.7748
 9356SOL     OW39703   1.231   3.103   6.616 -0.3725 -0.2062 -0.0569
 9356SOL    HW139704   1.266   3.150   6.692  0.4894  1.6323 -1.6141
 9356SOL    HW239705   1.143   3.141   6.609  0.0370  1.1606  2.0648
 9357SOL     OW39706   0.262   2.931   2.755  0.0040 -0.4808 -0.1388
 9357SOL    HW139707   0.320   3.003   2.780  1.1131 -1.6040  0.5143
 9357SOL    HW239708   0.179   2.975   2.738 -0.0981 -0.8202 -0.5231
 9358SOL     OW39709   4.329   0.368  12.432 -0.1897  0.2912  0.3809
 9358SOL    HW139710   4.382   0.420  12.491  1.6553  0.5903 -1.5368
 9358SOL    HW239711   4.255   0.342  12.488  1.5992 -0.0209  2.5833
 9359SOL     OW39712   0.907   4.579   6.552 -0.3692 -0.7459  0.3211
 9359SOL    HW139713   0.991   4.533   6.542  0.1206  0.2339 -0.0887
 9359SOL    HW239714   0.869   4.540   6.631  0.0548 -0.3817  0.7123
 9360SOL     OW39715   0.430   1.337   6.507 -0.0910  0.4312 -0.2240
 9360SOL    HW139716   0.347   1.365   6.547 -0.7065 -1.3499 -0.2447
 9360SOL    HW239717   0.480   1.319   6.586 -0.4747 -2.8884 -0.7649
 9361SOL     OW39718   4.023   4.320   5.032 -0.0447 -0.2074  0.0624
 9361SOL    HW139719   3.983   4.235   5.051  2.1445 -0.8917  1.5650
 9361SOL    HW239720   4.090   4.291   4.970  1.4580 -1.1723  2.1216
 9362SOL     OW39721   2.035   1.425   1.103  0.4195 -0.4437 -0.2437
 9362SOL    HW139722   1.997   1.338   1.117 -1.3593  0.4224  0.2683
 9362SOL    HW239723   2.077   1.404   1.019  0.7566 -0.2207 -0.1287
 9363SOL     OW39724   0.943   4.451   0.922  0.8360  0.4866 -0.6594
 9363SOL    HW139725   0.924   4.358   0.931  0.0582  0.6819 -0.2806
 9363SOL    HW239726   0.854   4.478   0.900  0.1042 -0.0526  1.5728
 9364SOL     OW39727   3.764   2.763   2.473  0.1198 -0.5440  0.7178
 9364SOL    HW139728   3.726   2.692   2.422 -0.6539  0.6381 -0.3635
 9364SOL    HW239729   3.812   2.811   2.405 -0.8460 -0.5790  0.0002
 9365SOL     OW39730   2.904   0.570  14.748 -0.3028  0.2626  0.1769
 9365SOL    HW139731   2.965   0.592  14.678 -0.8888 -2.1434 -1.0725
 9365SOL    HW239732   2.834   0.627  14.716 -1.2451 -0.0317  1.6970
 9366SOL     OW39733   2.623   0.764  16.801  0.6402 -0.5606  0.1193
 9366SOL    HW139734   2.665   0.694  16.751 -0.3679 -1.9342  1.1738
 9366SOL    HW239735   2.538   0.733  16.833  1.5320 -3.8039 -0.6810
 9367SOL     OW39736   4.529   4.122   0.192  0.5289 -0.8047 -0.0684
 9367SOL    HW139737   4.510   4.084   0.106 -0.3963  1.2889 -0.7982
 9367SOL    HW239738   4.594   4.065   0.232 -0.6234 -2.3818 -0.4433
 9368SOL     OW39739   3.550   3.004   4.154 -0.1264 -0.6570 -0.6746
 9368SOL    HW139740   3.488   3.038   4.219 -0.6748 -0.7068 -1.1785
 9368SOL    HW239741   3.573   3.085   4.108  0.2351  0.1770  0.9678
 9369SOL     OW39742   1.286   4.599   9.347 -0.2477 -0.3871  0.2088
 9369SOL    HW139743   1.208   4.620   9.297  1.7718 -0.6609 -3.0732
 9369SOL    HW239744   1.336   4.672   9.309  1.2465 -2.3073 -1.5256
 9370SOL     OW39745   4.699   4.336   5.167  0.3031  0.6889 -0.2666
 9370SOL    HW139746   0.019   4.412   5.181 -0.8399  1.5280 -0.1659
 9370SOL    HW239747   4.670   4.341   5.076 -0.9488 -0.2970  0.0789
 9371SOL     OW39748   0.281   2.716   4.992  0.0653 -0.1432  0.2290
 9371SOL    HW139749   0.262   2.719   4.899  1.4746  0.1318 -0.0614
 9371SOL    HW239750   0.229   2.639   5.016 -1.8072  0.5337 -1.6730
 9372SOL     OW39751   2.507   4.019   5.791 -0.2909  0.5825  0.2281
 9372SOL    HW139752   2.582   3.960   5.780  0.8668  2.1866 -0.5310
 9372SOL    HW239753   2.432   3.964   5.770  0.4038 -1.5352  3.2382
 9373SOL     OW39754   2.198   3.560   3.300  0.1109 -0.0091  0.5788
 9373SOL    HW139755   2.124   3.501   3.314 -1.6787  2.0022 -0.3779
 9373SOL    HW239756   2.265   3.506   3.342  1.1534  1.7167  1.1532
 9374SOL     OW39757   3.857   4.175   9.644 -0.0503  0.4363  0.5962
 9374SOL    HW139758   3.809   4.171   9.726 -1.8271 -2.3365 -0.5854
 9374SOL    HW239759   3.814   4.097   9.610 -0.8419  0.7780  0.8067
 9375SOL     OW39760   4.584   3.757  17.620 -0.2158 -0.3266  0.6245
 9375SOL    HW139761   4.524   3.685  17.597 -0.3369 -0.1696  0.4519
 9375SOL    HW239762   4.649   3.740  17.552 -0.1261  1.2784  0.3185
 9376SOL     OW39763   4.667   3.387   4.450 -0.0231  0.1084 -0.0273
 9376SOL    HW139764   4.623   3.332   4.385  0.7795 -1.6836  0.9447
 9376SOL    HW239765   4.687   3.327   4.521 -1.8321  0.4094  0.7309
 9377SOL     OW39766   3.378   3.783  14.578  0.5463 -0.3322  0.0730
 9377SOL    HW139767   3.361   3.853  14.515 -0.2854  0.0777  0.7526
 9377SOL    HW239768   3.469   3.802  14.600 -0.0412 -0.4300  2.5929
 9378SOL     OW39769   3.141   4.133  13.298 -0.2259  0.0772  0.2876
 9378SOL    HW139770   3.173   4.080  13.372  0.0103 -3.0020 -2.0384
 9378SOL    HW239771   3.202   4.207  13.299  1.0363 -0.9525 -0.7644
 9379SOL     OW39772   3.162   2.031   7.240 -0.6325  0.0037 -0.5482
 9379SOL    HW139773   3.205   1.957   7.198  0.1037  1.2009 -1.9116
 9379SOL    HW239774   3.135   2.069   7.156 -0.1578 -1.7606 -1.5137
 9380SOL     OW39775   4.343   1.524   8.934 -0.3188 -0.6849 -0.4938
 9380SOL    HW139776   4.323   1.609   8.972  0.6933 -0.0455 -1.3819
 9380SOL    HW239777   4.281   1.459   8.967 -0.2319 -0.6813 -0.3218
 9381SOL     OW39778   0.959   2.697   8.131  0.1785  0.0181  0.0063
 9381SOL    HW139779   0.938   2.705   8.224  0.2844 -0.4113  0.0676
 9381SOL    HW239780   0.897   2.627   8.111  1.9573 -1.5511 -0.1224
 9382SOL     OW39781   1.868   3.540   4.110 -0.0976 -0.4181 -0.3735
 9382SOL    HW139782   1.946   3.564   4.060  0.3485  0.9786  0.9843
 9382SOL    HW239783   1.845   3.629   4.137 -3.1528 -1.5811  0.8942
 9383SOL     OW39784   1.286   4.146   9.695 -0.2589  0.5032 -0.6980
 9383SOL    HW139785   1.264   4.087   9.768 -1.4427  2.1027  0.2317
 9383SOL    HW239786   1.381   4.133   9.697 -0.4751 -1.2818 -1.5080
 9384SOL     OW39787   4.677   0.493   7.815  0.5248 -0.4583 -0.1094
 9384SOL    HW139788   0.028   0.478   7.849 -0.5221 -1.6826  2.0489
 9384SOL    HW239789   4.625   0.492   7.895  0.8739  0.9069  0.1458
 9385SOL     OW39790   1.880   4.349   4.140 -0.1113 -0.2380 -0.2578
 9385SOL    HW139791   1.845   4.430   4.176  1.6208  0.8530 -1.0091
 9385SOL    HW239792   1.858   4.373   4.050 -0.5834 -0.5461 -0.2258
 9386SOL     OW39793   1.692   2.999   6.320  0.6655 -0.8247  0.8023
 9386SOL    HW139794   1.753   3.061   6.282  0.5294 -1.4133 -0.3901
 9386SOL    HW239795   1.659   2.958   6.240 -0.7327  1.7196  0.0870
 9387SOL     OW39796   4.011   4.636   3.672 -0.6472  0.7204  0.1849
 9387SOL    HW139797   4.103   4.664   3.666 -0.8342  1.4068  0.5157
 9387SOL    HW239798   4.014   4.542   3.688 -0.9339  0.5659 -0.6548
 9388SOL     OW39799   0.428   2.849   6.977 -0.0840 -0.2830 -0.7614
 9388SOL    HW139800   0.408   2.878   7.066  0.5756 -0.1836 -0.6507
 9388SOL    HW239801   0.516   2.883   6.965 -0.2756  0.4968  0.0155
 9389SOL     OW39802   1.684   3.021   4.925  0.0925 -0.1033 -0.2887
 9389SOL    HW139803   1.719   3.024   4.835  0.1340  2.1081 -0.2012
 9389SOL    HW239804   1.694   2.932   4.957  2.4358  0.1847 -0.2366
 9390SOL     OW39805   0.493   2.586   6.384  0.4955 -0.0312 -0.4676
 9390SOL    HW139806   0.584   2.565   6.405  0.9892 -0.4867 -3.1309
 9390SOL    HW239807   0.510   2.588   6.290  2.5335  0.2724 -0.0991
 9391SOL     OW39808   1.089   0.937   9.655 -0.6023  0.0770 -0.0166
 9391SOL    HW139809   1.180   0.910   9.665 -0.1264  0.4245 -3.3996
 9391SOL    HW239810   1.057   0.912   9.742  0.9563 -3.0437 -0.3593
 9392SOL     OW39811   0.186   1.134   8.303 -0.4734  0.0759  0.9979
 9392SOL    HW139812   0.128   1.159   8.230  1.9148  1.4792 -0.4357
 9392SOL    HW239813   0.183   1.217   8.350 -0.9715  1.9169 -2.2339
 9393SOL     OW39814   2.329   2.821   3.226 -0.1875 -0.2783 -0.5353
 9393SOL    HW139815   2.340   2.726   3.227  0.1454 -0.2549 -2.6030
 9393SOL    HW239816   2.415   2.853   3.197  0.6010 -1.7118  0.2192
 9394SOL     OW39817   4.723   1.144  10.721 -1.0128 -0.4386  0.8863
 9394SOL    HW139818   0.043   1.218  10.740 -1.5255 -0.4244  2.4255
 9394SOL    HW239819   0.019   1.123  10.634 -1.2165 -1.7389  1.1160
 9395SOL     OW39820   1.619   4.101   3.079  0.2957  0.1787 -0.4363
 9395SOL    HW139821   1.620   4.194   3.057 -0.5357 -0.2158 -2.2250
 9395SOL    HW239822   1.697   4.096   3.133 -0.2483 -0.0566  0.3379
 9396SOL     OW39823   0.192   2.421   8.005  0.4883 -0.2105  0.2721
 9396SOL    HW139824   0.129   2.371   7.954  1.2719 -0.4142 -0.4886
 9396SOL    HW239825   0.136   2.473   8.063 -0.5023 -0.5507 -0.3735
 9397SOL     OW39826   3.501   0.915  15.991  0.1924  0.5960  0.0237
 9397SOL    HW139827   3.494   0.989  15.929  1.3307  1.5615  1.0576
 9397SOL    HW239828   3.434   0.854  15.963 -0.2092  0.9089  0.3053
 9398SOL     OW39829   0.892   4.210   8.245  0.3201 -0.2814  0.1132
 9398SOL    HW139830   0.897   4.305   8.240  0.6331 -0.2004  2.0053
 9398SOL    HW239831   0.970   4.175   8.201 -0.4382 -0.0829 -1.3711
 9399SOL     OW39832   3.595   1.878   4.486 -0.3988  1.1788 -0.0378
 9399SOL    HW139833   3.587   1.953   4.427 -1.0730  1.9622  1.0431
 9399SOL    HW239834   3.562   1.913   4.568 -2.2754  0.1929 -0.3688
 9400SOL     OW39835   0.476   0.147   5.012  0.3015 -0.4988 -0.0099
 9400SOL    HW139836   0.505   0.057   5.000  0.3186 -0.6719  1.4174
 9400SOL    HW239837   0.513   0.191   4.936 -1.6105  1.3895  0.1403
 9401SOL     OW39838   3.806   1.810   5.904  0.1605  1.1694 -0.2055
 9401SOL    HW139839   3.804   1.898   5.941 -0.1211  0.9175  0.3788
 9401SOL    HW239840   3.870   1.780   5.967 -0.8790 -0.9539 -0.1678
 9402SOL     OW39841   1.442   3.225   9.406 -0.3022  0.0437  0.2620
 9402SOL    HW139842   1.358   3.256   9.372  0.6120  2.8822  0.6503
 9402SOL    HW239843   1.426   3.159   9.474 -0.9116  2.1434  2.1416
 9403SOL     OW39844   0.297   1.834  16.342 -0.0331  0.0428 -0.0336
 9403SOL    HW139845   0.254   1.869  16.420  1.6293 -0.1622  0.9946
 9403SOL    HW239846   0.280   1.903  16.279  0.2527  1.0649  1.0035
 9404SOL     OW39847   0.147   1.869   3.195  0.2682  0.3140 -0.2268
 9404SOL    HW139848   0.115   1.936   3.255  1.1294  0.3978  0.1522
 9404SOL    HW239849   0.238   1.856   3.222 -0.1146 -0.0330  0.8800
 9405SOL     OW39850   0.240   1.255  17.395 -0.0264  0.1003  0.2591
 9405SOL    HW139851   0.331   1.242  17.369 -0.6271 -2.8929 -0.3390
 9405SOL    HW239852   0.214   1.344  17.370 -0.5696 -0.3253 -0.6838
 9406SOL     OW39853   3.071   0.021  13.564 -0.1784 -0.1582  0.5140
 9406SOL    HW139854   3.060   4.675  13.518  1.0485  0.4729 -0.8840
 9406SOL    HW239855   2.984   0.035  13.602 -0.5836 -1.1975 -0.0276
 9407SOL     OW39856   0.599   3.371  11.525  0.7545 -0.4721 -0.4370
 9407SOL    HW139857   0.640   3.285  11.516  1.3140  0.0686 -3.1464
 9407SOL    HW239858   0.527   3.364  11.587  0.8682 -1.6461 -0.4385
 9408SOL     OW39859   1.045   2.028  11.789  0.0363  0.2979 -0.0131
 9408SOL    HW139860   1.078   2.097  11.846  1.9383 -1.6242  1.2145
 9408SOL    HW239861   0.952   2.031  11.809 -0.1520 -1.3200 -0.6522
 9409SOL     OW39862   2.153   0.145   6.991 -0.1727  0.1097 -0.0304
 9409SOL    HW139863   2.167   0.179   7.080 -4.0678  3.0166 -0.4932
 9409SOL    HW239864   2.172   0.223   6.940 -1.8894  0.3124 -0.3591
 9410SOL     OW39865   1.664   3.067   6.633  0.2384 -0.8116 -0.0015
 9410SOL    HW139866   1.741   3.084   6.687 -0.1359 -1.2703  0.6737
 9410SOL    HW239867   1.596   3.091   6.696 -0.7762  0.5996 -1.6295
 9411SOL     OW39868   4.517   2.465   8.070  0.2048 -0.7684  0.3330
 9411SOL    HW139869   4.503   2.420   7.987  1.0662  0.5823 -0.5385
 9411SOL    HW239870   4.612   2.466   8.079  0.2255 -0.4957  0.0812
 9412SOL     OW39871   3.704   3.584   7.596  0.0614 -0.0839  0.1096
 9412SOL    HW139872   3.757   3.658   7.626 -2.1596  0.1990  3.3215
 9412SOL    HW239873   3.614   3.595   7.626 -1.3265 -2.8212 -3.0523
 9413SOL     OW39874   1.839   3.976   3.178 -0.1835  0.7070 -0.8643
 9413SOL    HW139875   1.925   3.964   3.219  0.1446  0.0802 -1.7385
 9413SOL    HW239876   1.846   3.914   3.106 -1.0705  0.5858 -0.8509
 9414SOL     OW39877   3.515   1.780   7.292  0.2147  0.1183 -0.6801
 9414SOL    HW139878   3.530   1.761   7.385  0.9224 -1.4999 -1.1248
 9414SOL    HW239879   3.574   1.855   7.285  2.8414 -1.9131 -0.7312
 9415SOL     OW39880   0.513   1.094   8.083  0.6162 -0.7891 -0.1533
 9415SOL    HW139881   0.514   1.129   8.172  0.1318 -0.3376 -0.3282
 9415SOL    HW239882   0.598   1.120   8.049  1.7210  0.2387  3.4464
 9416SOL     OW39883   3.788   4.395   2.567 -0.1462 -0.7069  0.4156
 9416SOL    HW139884   3.811   4.318   2.620 -0.2743 -0.6362  0.5758
 9416SOL    HW239885   3.870   4.443   2.564 -1.9608  2.4431  1.3605
 9417SOL     OW39886   0.913   3.415   5.874  0.1305  0.0049  0.1855
 9417SOL    HW139887   0.939   3.462   5.953 -0.5445  0.8873 -0.1205
 9417SOL    HW239888   0.966   3.335   5.883  0.1684  0.0488  0.3515
 9418SOL     OW39889   2.363   3.866   6.453 -0.2585 -0.3981 -0.4941
 9418SOL    HW139890   2.438   3.921   6.431 -1.6331  0.6868 -2.5604
 9418SOL    HW239891   2.398   3.817   6.527 -0.1047  2.8888  1.6174
 9419SOL     OW39892   4.340   1.856   9.965  0.5556 -0.0265  0.0787
 9419SOL    HW139893   4.289   1.936   9.965 -0.6426 -0.7871  0.2544
 9419SOL    HW239894   4.276   1.785   9.962 -0.2073  0.6994 -0.5978
 9420SOL     OW39895   1.184   2.745   8.938  0.4044 -0.5790  0.1313
 9420SOL    HW139896   1.209   2.652   8.942  2.9327  0.0726 -0.8471
 9420SOL    HW239897   1.155   2.771   9.026  1.1245 -0.7079  0.4072
 9421SOL     OW39898   0.864   0.728   3.484 -0.0212  0.1337 -0.5657
 9421SOL    HW139899   0.936   0.764   3.431 -0.0971  0.4042 -0.4863
 9421SOL    HW239900   0.899   0.640   3.494  0.1196 -0.0309 -2.6872
 9422SOL     OW39901   0.968   3.892   7.975  0.3759  0.2855 -0.3262
 9422SOL    HW139902   0.883   3.850   7.965  0.8971 -0.4906 -1.5949
 9422SOL    HW239903   0.980   3.936   7.891  2.8244 -1.3319 -0.8208
 9423SOL     OW39904   1.395   4.556   2.685 -0.4020 -0.7048 -0.5851
 9423SOL    HW139905   1.442   4.633   2.654 -0.4848  0.1091  1.3455
 9423SOL    HW239906   1.311   4.591   2.715 -0.5649 -1.1143 -0.5533
 9424SOL     OW39907   3.031   0.717   8.837  0.6746 -0.3216 -0.1575
 9424SOL    HW139908   3.068   0.804   8.821  0.4709  0.1691  2.0927
 9424SOL    HW239909   3.017   0.692   8.746  0.3092 -2.1889  0.4175
 9425SOL     OW39910   1.983   4.572   3.110  0.2413  0.2153 -0.2339
 9425SOL    HW139911   2.071   4.595   3.081  0.7475 -1.1815  0.1856
 9425SOL    HW239912   1.923   4.606   3.044  0.8453  2.1098  0.2093
 9426SOL     OW39913   0.260   1.044   2.348 -0.6033 -0.3122 -0.2815
 9426SOL    HW139914   0.211   0.962   2.345  1.1994 -1.4391  1.4349
 9426SOL    HW239915   0.234   1.079   2.263  1.0416  0.6093 -0.4155
 9427SOL     OW39916   1.487   0.679   4.611  0.2927 -0.0492  0.1204
 9427SOL    HW139917   1.436   0.742   4.663 -0.5098 -0.1474 -0.5544
 9427SOL    HW239918   1.425   0.606   4.607  0.5043 -0.2529  0.5186
 9428SOL     OW39919   0.630   1.746   3.899 -0.5672  0.1662  0.0548
 9428SOL    HW139920   0.637   1.697   3.981  0.7890 -1.7938 -1.2112
 9428SOL    HW239921   0.719   1.777   3.881 -0.6180  0.5782  0.5342
 9429SOL     OW39922   0.735   1.482  15.303 -0.0331 -0.5423 -0.2261
 9429SOL    HW139923   0.704   1.444  15.385 -0.8960  0.8124  0.0914
 9429SOL    HW239924   0.710   1.415  15.240 -0.1441 -1.0642  0.3676
 9430SOL     OW39925   0.668   1.013   6.563  0.5239 -0.4861 -0.0908
 9430SOL    HW139926   0.653   1.102   6.595  2.1679 -0.4150  0.4784
 9430SOL    HW239927   0.579   0.983   6.543 -0.7834  2.0280  1.9346
 9431SOL     OW39928   0.834   2.907   0.522  0.7537  0.1672 -0.6119
 9431SOL    HW139929   0.869   2.968   0.588 -0.9842 -0.3137  0.7673
 9431SOL    HW239930   0.800   2.973   0.462 -0.4564 -0.4667 -0.6270
 9432SOL     OW39931   2.409   1.442  17.693  0.1448 -0.3018  0.2630
 9432SOL    HW139932   2.454   1.425  17.610  0.9090  1.2112  0.3639
 9432SOL    HW239933   2.445   1.525  17.722  0.1570 -0.5717  1.0123
 9433SOL     OW39934   2.623   3.586   7.894  0.1429 -0.3469 -0.2854
 9433SOL    HW139935   2.541   3.635   7.882 -1.3671 -2.2280  2.3665
 9433SOL    HW239936   2.674   3.609   7.816 -0.8761 -0.0618 -0.8737
 9434SOL     OW39937   1.555   2.191   9.837  0.2414 -0.1263  0.4062
 9434SOL    HW139938   1.582   2.258   9.899  0.4915 -2.5798  2.9567
 9434SOL    HW239939   1.638   2.191   9.789  0.4983  0.7223  0.8545
 9435SOL     OW39940   4.380   0.071  12.263  0.4876  0.4592  0.0243
 9435SOL    HW139941   4.345   0.030  12.342  1.0945 -0.5779 -0.2384
 9435SOL    HW239942   4.452   0.125  12.296  0.1546  1.1365 -0.3725
 9436SOL     OW39943   1.589   4.166   6.754 -0.4413 -1.0236  0.9009
 9436SOL    HW139944   1.621   4.166   6.664 -2.8500 -0.1488  0.0442
 9436SOL    HW239945   1.514   4.224   6.745 -0.2427 -0.8128  0.6107
 9437SOL     OW39946   2.218   4.505   9.499  0.2241 -0.6334 -0.2171
 9437SOL    HW139947   2.125   4.514   9.477  0.4707  0.4937 -0.8356
 9437SOL    HW239948   2.254   4.590   9.472  0.8784 -0.1413  2.2767
 9438SOL     OW39949   3.770   4.591   7.862  0.0247 -0.0777  0.0425
 9438SOL    HW139950   3.702   4.655   7.841  0.3145  0.5962  1.1713
 9438SOL    HW239951   3.722   4.520   7.905 -0.0921 -1.2815 -2.0620
 9439SOL     OW39952   1.408   0.031   8.976  0.2596  0.3726 -0.4418
 9439SOL    HW139953   1.440   4.719   8.901 -0.3433  0.6090 -0.8533
 9439SOL    HW239954   1.315   0.038   8.955  0.5705  0.8135 -1.6394
 9440SOL     OW39955   0.982   2.331   5.533 -0.5239  0.1473 -0.2175
 9440SOL    HW139956   1.005   2.242   5.560 -0.5104 -0.3694 -1.9113
 9440SOL    HW239957   0.979   2.321   5.438  0.0552 -3.3220  0.1074
 9441SOL     OW39958   3.419   2.064   6.794  0.3458 -0.2559  0.0094
 9441SOL    HW139959   3.328   2.096   6.799  0.0457 -1.0206 -0.5480
 9441SOL    HW239960   3.438   2.085   6.885 -1.0493  0.5477  0.1229
 9442SOL     OW39961   4.356   0.854   5.415  0.7505  0.7113 -0.2772
 9442SOL    HW139962   4.361   0.761   5.434  0.6991  0.1123 -3.2501
 9442SOL    HW239963   4.339   0.851   5.321 -0.5370  0.8669 -0.0378
 9443SOL     OW39964   4.409   4.069   5.181  0.1831 -0.3963 -0.3059
 9443SOL    HW139965   4.386   4.132   5.113  2.5768 -0.7205 -1.4181
 9443SOL    HW239966   4.428   4.137   5.245 -1.4937  0.1049 -0.3404
 9444SOL     OW39967   0.767   0.823   4.429 -0.1365 -0.0656 -0.5109
 9444SOL    HW139968   0.776   0.795   4.520  1.0413  1.5405 -0.1159
 9444SOL    HW239969   0.850   0.793   4.391  0.5441  4.6141 -2.8067
 9445SOL     OW39970   3.555   1.045   7.354 -0.5412  0.3775 -0.1790
 9445SOL    HW139971   3.491   1.073   7.289  0.4691  2.1554 -0.3893
 9445SOL    HW239972   3.532   0.952   7.358  0.9020 -0.0040 -0.9617
 9446SOL     OW39973   3.070   0.585   8.153  0.3415 -0.2251  0.2662
 9446SOL    HW139974   3.145   0.545   8.109 -0.6098  1.9823 -3.3624
 9446SOL    HW239975   3.036   0.507   8.196  0.8242 -0.5642  0.0251
 9447SOL     OW39976   0.048   1.582   7.225 -0.2174  0.3224 -0.3478
 9447SOL    HW139977   0.080   1.668   7.251  0.8748 -0.2779  0.3110
 9447SOL    HW239978   4.701   1.612   7.192 -1.1498 -2.0104 -0.0530
 9448SOL     OW39979   2.724   0.607   5.712 -0.1000  0.3152 -0.2686
 9448SOL    HW139980   2.661   0.656   5.658 -1.1085  1.8898  2.3461
 9448SOL    HW239981   2.735   0.679   5.774  2.9617  0.1159 -0.5980
 9449SOL     OW39982   4.061   1.509   2.114  0.3740  0.3612  0.1318
 9449SOL    HW139983   3.972   1.545   2.112  0.6411  0.9789 -0.5494
 9449SOL    HW239984   4.071   1.503   2.209 -0.0838 -0.8439  0.1127
 9450SOL     OW39985   2.673   4.185   6.563  0.0691 -0.1677 -0.2822
 9450SOL    HW139986   2.680   4.266   6.513 -0.7159 -0.3346 -0.6511
 9450SOL    HW239987   2.746   4.198   6.623  0.2975  0.8062 -0.7695
 9451SOL     OW39988   3.705   0.964   2.648 -0.4406  0.2034  0.0403
 9451SOL    HW139989   3.610   0.961   2.663 -0.2337  0.5754  1.4035
 9451SOL    HW239990   3.733   0.940   2.736  0.9353 -1.0221 -0.7396
 9452SOL     OW39991   4.641   4.121   5.428 -0.2906 -0.0393  0.2902
 9452SOL    HW139992   4.627   4.027   5.444 -0.6029 -0.1666 -0.7721
 9452SOL    HW239993   4.672   4.154   5.512 -0.1741 -1.1146  0.6699
 9453SOL     OW39994   3.646   3.862   5.142 -0.5798 -0.1279  0.2826
 9453SOL    HW139995   3.715   3.798   5.124 -0.4621  0.8035 -2.5920
 9453SOL    HW239996   3.629   3.841   5.234 -0.3577 -1.1352  0.0955
 9454SOL     OW39997   0.643   2.243   9.906  0.0480 -0.4325  0.4903
 9454SOL    HW139998   0.595   2.291   9.838 -1.7554 -0.0764  2.0068
 9454SOL    HW239999   0.581   2.189   9.954 -2.7423  2.2977  0.0123
 9455SOL     OW40000   0.602   4.456   4.725 -0.2120  0.0030 -0.5548
 9455SOL    HW140001   0.549   4.434   4.648 -0.4576 -1.1017 -0.0659
 9455SOL    HW240002   0.611   4.372   4.769 -2.3435 -0.6529 -1.3748
 9456SOL     OW40003   2.677   1.107   2.423 -0.4754  0.0515 -0.0429
 9456SOL    HW140004   2.767   1.077   2.407 -0.3112 -0.7591  2.4321
 9456SOL    HW240005   2.657   1.161   2.347  0.8980  1.6428  0.7215
 9457SOL     OW40006   2.333   1.130   8.900  0.3085 -0.2019 -0.3172
 9457SOL    HW140007   2.342   1.178   8.982  2.2487 -0.1882 -0.5305
 9457SOL    HW240008   2.239   1.140   8.889  0.4419 -0.1476 -1.3587
 9458SOL     OW40009   3.516   3.884   7.488  0.0708  0.4765 -0.4511
 9458SOL    HW140010   3.478   3.797   7.475  2.0396 -0.1413 -2.0043
 9458SOL    HW240011   3.498   3.903   7.580  0.3588  1.1419 -0.5356
 9459SOL     OW40012   4.076   3.471  16.564  0.0173 -0.0967  0.1936
 9459SOL    HW140013   4.054   3.497  16.653  0.0443 -3.7664  1.2593
 9459SOL    HW240014   3.992   3.482  16.519 -1.6877 -2.9388  2.7606
 9460SOL     OW40015   3.394   1.013   2.082  0.0773 -0.0067  0.2260
 9460SOL    HW140016   3.472   0.987   2.033 -0.2051 -1.4913  0.5728
 9460SOL    HW240017   3.352   0.927   2.080  0.8737 -0.3724 -0.7512
 9461SOL     OW40018   0.653   2.593  11.449  0.2509 -0.1066  0.1913
 9461SOL    HW140019   0.730   2.550  11.412 -0.0918 -0.5874  0.0450
 9461SOL    HW240020   0.597   2.518  11.432  0.8468 -0.3041 -0.9244
 9462SOL     OW40021   2.833   1.053   3.047 -0.1182 -0.2964 -0.3482
 9462SOL    HW140022   2.758   1.089   2.999  0.3100  0.1582 -0.6735
 9462SOL    HW240023   2.814   1.086   3.135  0.1926 -0.4718 -0.2158
 9463SOL     OW40024   0.715   2.515   9.160  0.4606 -0.2769 -0.4147
 9463SOL    HW140025   0.690   2.600   9.194 -0.6961 -1.3870  1.5358
 9463SOL    HW240026   0.625   2.482   9.154  1.9549 -4.1277 -1.9413
 9464SOL     OW40027   1.257   1.917   8.177  0.4429  0.1073  0.5166
 9464SOL    HW140028   1.262   1.939   8.270 -0.9803  2.4809  0.0433
 9464SOL    HW240029   1.350   1.927   8.160  0.1624 -0.1081 -1.1311
 9465SOL     OW40030   0.231   3.060   1.720  0.0937 -0.2291 -0.1339
 9465SOL    HW140031   0.159   3.002   1.699 -0.4726  0.1220  0.8363
 9465SOL    HW240032   0.189   3.089   1.802 -0.3171  0.7984 -0.7139
 9466SOL     OW40033   4.041   1.567   3.668  0.0822  0.9585 -0.6677
 9466SOL    HW140034   4.113   1.629   3.653 -0.3827  1.1149 -2.3443
 9466SOL    HW240035   3.967   1.624   3.645 -0.5292 -0.1952 -1.5878
 9467SOL     OW40036   4.071   2.614   8.331 -0.6885  0.4578 -0.0882
 9467SOL    HW140037   4.082   2.570   8.415  0.4289  1.3893  0.2643
 9467SOL    HW240038   3.979   2.617   8.304 -0.7742 -1.4216 -0.0128
 9468SOL     OW40039   0.631   4.677   7.744  0.4555 -0.3752 -0.4681
 9468SOL    HW140040   0.671   0.000   7.806  0.5702 -2.6269  1.6319
 9468SOL    HW240041   0.711   4.634   7.712 -0.5494 -0.9264 -2.2394
 9469SOL     OW40042   1.203   0.942   6.029  0.5521 -0.3580 -0.1775
 9469SOL    HW140043   1.198   0.982   5.942 -1.4188 -1.2124 -0.4555
 9469SOL    HW240044   1.148   0.999   6.082  1.3176  0.3300 -0.1248
 9470SOL     OW40045   0.858   0.752   8.173  0.4664  0.2294  0.1783
 9470SOL    HW140046   0.872   0.672   8.223 -0.4703  0.1956  0.3865
 9470SOL    HW240047   0.864   0.823   8.237  0.1417 -0.6347  1.1622
 9471SOL     OW40048   1.906   1.139   2.993 -1.1820 -0.9087 -0.4628
 9471SOL    HW140049   1.987   1.139   2.942  0.1901 -1.9988  1.7072
 9471SOL    HW240050   1.871   1.219   2.953  1.6340  0.9913  0.9384
 9472SOL     OW40051   2.902   3.519   3.230  0.0803 -0.2919  0.0942
 9472SOL    HW140052   2.819   3.557   3.202 -0.7573 -1.4996  0.9237
 9472SOL    HW240053   2.953   3.554   3.157  0.8471  1.3706  1.4452
 9473SOL     OW40054   2.444   0.786   0.097  0.3998 -0.0004 -0.1155
 9473SOL    HW140055   2.471   0.838   0.021 -1.8589  2.2352  0.6295
 9473SOL    HW240056   2.531   0.747   0.111  0.2455 -0.4402 -0.3611
 9474SOL     OW40057   2.484   1.020  17.654 -1.1559 -0.2565 -0.4986
 9474SOL    HW140058   2.389   1.030  17.649 -1.0568 -1.0507 -3.7744
 9474SOL    HW240059   2.502   1.048  17.565 -1.1169 -0.6763 -0.6245
 9475SOL     OW40060   1.378   2.275   3.095  0.4887  0.3308  0.1457
 9475SOL    HW140061   1.367   2.342   3.162 -0.6710  3.2227 -2.9943
 9475SOL    HW240062   1.326   2.320   3.029  0.6543  1.1634  0.5935
 9476SOL     OW40063   0.641   3.215   3.655  0.0098 -0.0600  0.5089
 9476SOL    HW140064   0.663   3.122   3.644 -0.0666 -0.3378  2.6899
 9476SOL    HW240065   0.579   3.224   3.583 -1.5217  2.4705  2.1221
 9477SOL     OW40066   1.078   0.807   4.607  0.0554 -0.2098  0.4496
 9477SOL    HW140067   1.147   0.824   4.544  1.1447  1.4722  2.0782
 9477SOL    HW240068   1.067   0.895   4.644 -1.1158 -0.3617  0.4705
 9478SOL     OW40069   4.584   4.593   7.709  0.6579  0.1291 -0.5050
 9478SOL    HW140070   4.612   4.573   7.620  0.7202 -1.4832 -0.1185
 9478SOL    HW240071   4.604   4.687   7.716  0.3914  0.1520 -0.0124
 9479SOL     OW40072   0.409   1.790   3.413 -0.2326  0.1665 -0.3650
 9479SOL    HW140073   0.489   1.797   3.360  0.5683 -0.8024  0.7054
 9479SOL    HW240074   0.453   1.779   3.497  0.2418 -3.4667 -1.1096
 9480SOL     OW40075   3.982   4.487  17.320 -0.3583  0.3927  0.3908
 9480SOL    HW140076   3.901   4.535  17.302 -1.1508 -1.0281  0.1307
 9480SOL    HW240077   3.947   4.428  17.387  0.0764  1.9153  1.9543
 9481SOL     OW40078   4.474   1.570  16.851 -0.1445  0.2703  0.3344
 9481SOL    HW140079   4.401   1.559  16.912 -0.1055  1.3697  0.5751
 9481SOL    HW240080   4.536   1.499  16.869  2.3622  2.8008  1.5012
 9482SOL     OW40081   4.324   4.367   8.676  1.1225 -0.0411  0.2793
 9482SOL    HW140082   4.406   4.346   8.630  1.0521  0.9129 -0.2795
 9482SOL    HW240083   4.350   4.448   8.719  3.0043 -0.4133 -0.1181
 9483SOL     OW40084   0.419   2.739   6.105 -0.2080  0.2534 -0.1780
 9483SOL    HW140085   0.422   2.802   6.033 -1.7163 -0.7820 -1.1406
 9483SOL    HW240086   0.334   2.701   6.082 -0.6572  0.1153  1.7154
 9484SOL     OW40087   1.806   0.824   9.732 -0.2659  0.2130  0.0848
 9484SOL    HW140088   1.797   0.731   9.749 -1.9002  0.1589 -1.0861
 9484SOL    HW240089   1.900   0.835   9.717 -0.3234  0.5463 -0.0417
 9485SOL     OW40090   2.677   0.528   9.560  0.7612 -0.3555 -0.2071
 9485SOL    HW140091   2.741   0.472   9.603 -1.0437 -2.4984 -0.2855
 9485SOL    HW240092   2.639   0.468   9.496 -1.0324 -1.4555  1.8950
 9486SOL     OW40093   2.500   1.098   3.309 -0.3639  0.2637 -0.6606
 9486SOL    HW140094   2.582   1.063   3.344 -0.7851 -0.7999 -0.7425
 9486SOL    HW240095   2.499   1.193   3.322 -1.0559  0.1947 -0.2506
 9487SOL     OW40096   3.752   3.325  14.152 -0.1698  0.1566  0.4754
 9487SOL    HW140097   3.695   3.296  14.080 -1.4447  0.2790  1.4386
 9487SOL    HW240098   3.690   3.352  14.220  0.6573 -1.6013  1.8942
 9488SOL     OW40099   4.655   3.610  12.280 -0.0628 -0.5232 -0.0520
 9488SOL    HW140100   4.632   3.546  12.348  0.4203  0.6711  1.2358
 9488SOL    HW240101   0.005   3.633  12.311 -0.3465 -0.2281  0.5291
 9489SOL     OW40102   0.970   1.509  15.719  0.0325 -0.3299 -0.1329
 9489SOL    HW140103   0.952   1.415  15.728  2.8456 -0.8085  0.4837
 9489SOL    HW240104   1.009   1.506  15.632  0.2696 -2.4026  0.0328
 9490SOL     OW40105   0.372   1.920   5.206 -0.0751  0.4020 -0.1616
 9490SOL    HW140106   0.459   1.894   5.238 -0.4999  1.1622  1.6428
 9490SOL    HW240107   0.312   1.880   5.269  0.4007 -0.3210 -0.1635
 9491SOL     OW40108   3.680   2.710   3.446  0.0622 -0.6231  0.1781
 9491SOL    HW140109   3.648   2.793   3.410 -0.5384 -0.3784  1.2954
 9491SOL    HW240110   3.652   2.709   3.537 -1.6787  0.7297 -0.3492
 9492SOL     OW40111   3.058   0.009  13.002  0.4748  0.7597 -0.1153
 9492SOL    HW140112   2.964   4.732  12.996  0.7954 -1.8154  0.8147
 9492SOL    HW240113   3.093   4.664  12.967 -1.1120  0.4320 -0.9151
 9493SOL     OW40114   4.392   2.389   7.467  0.0367  0.4148  0.3028
 9493SOL    HW140115   4.444   2.463   7.434 -0.4827  0.7536  0.2444
 9493SOL    HW240116   4.400   2.335   7.388 -1.6415 -0.7696  0.9501
 9494SOL     OW40117   2.089   2.512  13.057 -0.4475 -0.1684  0.1014
 9494SOL    HW140118   2.078   2.444  13.123 -1.8834 -2.4346 -2.4770
 9494SOL    HW240119   2.182   2.534  13.060 -1.0963  2.5749  0.1174
 9495SOL     OW40120   1.210   3.479   8.093 -0.3738 -0.4696 -0.6401
 9495SOL    HW140121   1.167   3.397   8.070  1.9392 -2.2256  1.3066
 9495SOL    HW240122   1.276   3.458   8.160  2.4062  0.2790 -3.1598
 9496SOL     OW40123   4.400   2.087   3.271  0.5765  0.0186  0.0271
 9496SOL    HW140124   4.362   2.112   3.187  1.7813  1.5661 -0.0711
 9496SOL    HW240125   4.479   2.141   3.267 -0.1380  1.0935  0.2780
 9497SOL     OW40126   1.277   2.658   5.627  0.2716 -0.1381 -0.5049
 9497SOL    HW140127   1.314   2.746   5.617 -0.0736 -0.2257 -2.5767
 9497SOL    HW240128   1.276   2.633   5.534  0.1109 -0.1176 -0.5079
 9498SOL     OW40129   2.903   0.404  11.099  0.3443 -0.5913  0.2278
 9498SOL    HW140130   2.859   0.320  11.083  2.2944 -1.5895  0.0673
 9498SOL    HW240131   2.975   0.359  11.144  1.1649  0.6249  0.1224
 9499SOL     OW40132   4.017   0.324   3.215  0.0490  0.8678 -0.3764
 9499SOL    HW140133   4.105   0.356   3.237  0.2914 -0.2910  0.3050
 9499SOL    HW240134   4.028   0.238   3.254  2.8247  1.5611  0.3954
 9500SOL     OW40135   3.238   4.521   8.636  0.3563 -0.2142  0.5111
 9500SOL    HW140136   3.323   4.554   8.667 -0.9186  0.0280  3.6732
 9500SOL    HW240137   3.186   4.549   8.710 -0.6329 -0.9700  0.0951
 9501SOL     OW40138   2.203   1.579  12.205  0.6728  0.1158  0.3469
 9501SOL    HW140139   2.243   1.639  12.268  2.7739 -0.5313 -0.3565
 9501SOL    HW240140   2.277   1.519  12.191 -0.5518 -1.2350 -0.3522
 9502SOL     OW40141   1.706   0.391   0.479  0.0129  0.0117 -0.0845
 9502SOL    HW140142   1.612   0.398   0.463 -0.0518  0.4305  0.4831
 9502SOL    HW240143   1.717   0.296   0.473 -0.2295 -0.0379  0.2523
 9503SOL     OW40144   3.103   2.287   1.544 -0.0105 -0.2094 -0.6374
 9503SOL    HW140145   3.155   2.215   1.509 -0.4229 -0.4755 -0.6985
 9503SOL    HW240146   3.046   2.238   1.603 -1.4900  0.8393 -1.2053
 9504SOL     OW40147   3.168   3.491  16.828  0.1702  0.1503  0.0690
 9504SOL    HW140148   3.101   3.542  16.782  1.9007  0.6713 -1.8816
 9504SOL    HW240149   3.203   3.444  16.752 -0.1536  2.8579 -1.7389
 9505SOL     OW40150   3.921   4.157   7.044  0.0711 -0.5369 -0.2575
 9505SOL    HW140151   3.925   4.120   7.132 -0.6240  1.8296  0.7773
 9505SOL    HW240152   3.946   4.085   6.987 -0.4914 -0.6916 -0.3045
 9506SOL     OW40153   0.713   1.312   7.273  0.6771  0.4449 -0.3726
 9506SOL    HW140154   0.682   1.247   7.337  0.4163 -0.1040 -1.0498
 9506SOL    HW240155   0.636   1.357   7.237  0.3924 -0.4530 -0.9054
 9507SOL     OW40156   1.064   4.266   7.681 -0.2344 -0.2509 -0.3676
 9507SOL    HW140157   0.992   4.320   7.647 -1.7884 -2.5003 -0.6780
 9507SOL    HW240158   1.128   4.281   7.612  0.6066  0.4293  0.5762
 9508SOL     OW40159   1.636   2.503   1.022  0.2229  0.1517 -0.3905
 9508SOL    HW140160   1.719   2.457   1.035 -1.6005 -3.1828 -0.7172
 9508SOL    HW240161   1.579   2.442   1.068  1.3821 -2.3863 -2.3422
 9509SOL     OW40162   0.349   2.240  17.567 -0.4966  0.1860 -0.7660
 9509SOL    HW140163   0.382   2.317  17.613  0.0291 -1.0018  0.8542
 9509SOL    HW240164   0.349   2.180  17.641  0.9698  0.3690 -0.6163
 9510SOL     OW40165   2.232   3.679  12.334  0.0316 -0.0012  0.4584
 9510SOL    HW140166   2.315   3.690  12.287  1.0884 -1.0686  2.1000
 9510SOL    HW240167   2.263   3.710  12.419 -0.6150 -0.5452  0.8841
 9511SOL     OW40168   1.881   1.126   6.083  0.3180  0.0603  0.7634
 9511SOL    HW140169   1.819   1.054   6.072  0.4927 -0.0240  0.3086
 9511SOL    HW240170   1.857   1.152   6.171 -2.2895  1.4618 -0.3763
 9512SOL     OW40171   0.811   3.476   6.360  0.6238 -0.4031 -0.3618
 9512SOL    HW140172   0.879   3.420   6.323  0.8068 -0.4412  0.0302
 9512SOL    HW240173   0.875   3.525   6.411  0.6186  0.1768 -0.9205
 9513SOL     OW40174   4.140   2.721  14.178  0.8635 -0.6843  0.1481
 9513SOL    HW140175   4.083   2.655  14.140  0.2837  0.0269 -0.2048
 9513SOL    HW240176   4.094   2.750  14.257  0.0208 -1.4051 -0.0892
 9514SOL     OW40177   1.145   2.789   7.175  0.3530 -0.3918 -0.2650
 9514SOL    HW140178   1.125   2.765   7.265  0.2901  0.8561  0.0511
 9514SOL    HW240179   1.056   2.794   7.141  1.1159  2.4196 -1.9328
 9515SOL     OW40180   3.835   1.057   4.819 -0.5425  0.3104 -0.7165
 9515SOL    HW140181   3.890   1.123   4.861 -1.2636  1.4283 -1.5286
 9515SOL    HW240182   3.862   1.078   4.729  1.0428  3.0886  0.3780
 9516SOL     OW40183   2.305   3.398   3.978 -0.3429  0.4175  0.1528
 9516SOL    HW140184   2.313   3.331   4.047  0.3752  1.0685  0.6943
 9516SOL    HW240185   2.257   3.463   4.029 -2.0948 -0.3338 -0.5424
 9517SOL     OW40186   3.826   2.865  17.339 -0.2781  0.5416  0.6221
 9517SOL    HW140187   3.892   2.837  17.403  0.8894 -1.0124 -1.2458
 9517SOL    HW240188   3.810   2.776  17.309  2.2593  0.1932  0.2592
 9518SOL     OW40189   3.967   4.347   3.360  0.0844  0.0724 -0.1437
 9518SOL    HW140190   3.890   4.369   3.413 -0.4633  0.1049 -0.9450
 9518SOL    HW240191   4.029   4.331   3.432  0.9793  2.2618 -0.4341
 9519SOL     OW40192   2.030   4.143   9.318  0.0888  0.3944  0.3366
 9519SOL    HW140193   1.991   4.193   9.390  3.5833  1.1899  1.6314
 9519SOL    HW240194   2.039   4.052   9.347 -0.8567 -0.0788 -0.8120
 9520SOL     OW40195   2.860   1.753   5.640  0.0106  0.6507 -0.3629
 9520SOL    HW140196   2.955   1.742   5.645  0.1567  1.7143 -0.9406
 9520SOL    HW240197   2.854   1.836   5.595  1.0784 -0.0578 -1.7988
 9521SOL     OW40198   2.351   2.064   9.156  0.0892  0.3094 -0.5537
 9521SOL    HW140199   2.262   2.086   9.131 -0.1948  0.1255  0.3108
 9521SOL    HW240200   2.335   2.007   9.231  1.8440 -1.4722 -1.5290
 9522SOL     OW40201   3.033   4.451  10.508 -0.0892 -0.3706 -0.2404
 9522SOL    HW140202   3.102   4.399  10.548 -1.3232 -1.8101  0.0114
 9522SOL    HW240203   2.984   4.387  10.456  1.6055 -0.5874 -1.5928
 9523SOL     OW40204   3.538   4.718   7.640 -0.4107 -0.0205  1.1160
 9523SOL    HW140205   3.461   4.714   7.697 -2.3214 -0.6362 -1.5231
 9523SOL    HW240206   3.491   4.732   7.558  0.1369 -0.3996  0.7397
 9524SOL     OW40207   3.804   1.650   7.968 -0.2332  0.3575 -0.2488
 9524SOL    HW140208   3.838   1.680   7.884 -1.2052  0.0485 -0.7569
 9524SOL    HW240209   3.836   1.560   7.966 -1.8337 -0.1994 -1.0727
 9525SOL     OW40210   1.098   4.616   9.868 -0.2278 -0.5259 -0.2974
 9525SOL    HW140211   1.168   4.680   9.856  0.4828 -1.0807  0.8092
 9525SOL    HW240212   1.125   4.551   9.803  1.3113 -0.2025  0.0075
 9526SOL     OW40213   1.448   1.048   9.218  0.0331 -0.5462  0.3296
 9526SOL    HW140214   1.377   1.077   9.160 -1.2277  1.9496  3.1151
 9526SOL    HW240215   1.421   1.099   9.295 -2.8812 -0.5432 -0.6821
 9527SOL     OW40216   3.168   4.374   6.041  0.5167 -0.0174 -0.4487
 9527SOL    HW140217   3.102   4.357   5.974 -0.8563 -0.3683  0.9916
 9527SOL    HW240218   3.182   4.281   6.057 -1.2318  0.1849  2.2424
 9528SOL     OW40219   0.753   2.910   4.154 -0.1279 -0.7044 -0.7364
 9528SOL    HW140220   0.816   2.982   4.157  0.9158 -1.6947  0.8665
 9528SOL    HW240221   0.723   2.930   4.065 -2.6128 -0.6179  0.1428
 9529SOL     OW40222   1.330   4.690   5.851 -0.3206 -0.2270  0.4113
 9529SOL    HW140223   1.368   0.024   5.800  0.5925 -1.2027 -0.2395
 9529SOL    HW240224   1.389   4.692   5.926 -1.5154  0.4769  1.3486
 9530SOL     OW40225   0.146   2.425   1.216 -0.8675  0.1209  0.0616
 9530SOL    HW140226   0.200   2.363   1.168  0.6972 -0.6771  2.8169
 9530SOL    HW240227   0.057   2.412   1.185 -1.2214  0.8779  0.7377
 9531SOL     OW40228   1.309   0.382   4.789 -0.0485  0.2381 -0.0608
 9531SOL    HW140229   1.255   0.304   4.801  1.2558 -0.6983 -0.2744
 9531SOL    HW240230   1.276   0.423   4.709 -0.6566 -0.4705 -0.1694
 9532SOL     OW40231   1.638   2.217  13.664  0.4153  0.0943 -0.0276
 9532SOL    HW140232   1.645   2.198  13.758  1.8719 -0.5122 -0.2537
 9532SOL    HW240233   1.722   2.257  13.643  0.7196 -0.9576 -0.8422
 9533SOL     OW40234   3.722   2.766  16.381 -0.1100  0.5894  0.0195
 9533SOL    HW140235   3.771   2.704  16.327  0.3725  1.3614 -0.4217
 9533SOL    HW240236   3.633   2.731  16.374  0.3034 -1.1188  2.9211
 9534SOL     OW40237   3.347   1.965   8.501  0.0746  0.1950  0.4402
 9534SOL    HW140238   3.378   1.950   8.591  1.2008 -1.8273 -0.2714
 9534SOL    HW240239   3.313   2.053   8.515 -2.6726 -1.0741  1.7503
 9535SOL     OW40240   2.992   0.835   8.340  0.0355  0.1317 -0.0845
 9535SOL    HW140241   2.932   0.795   8.277 -2.4355  2.3945  0.7806
 9535SOL    HW240242   3.071   0.851   8.288 -0.6326  1.0686 -0.8202
 9536SOL     OW40243   1.053   3.607   2.499 -0.3761 -0.5680  0.2878
 9536SOL    HW140244   1.024   3.580   2.586 -1.5350 -1.9521 -0.5120
 9536SOL    HW240245   1.029   3.529   2.449 -1.1473  0.6657 -1.2580
 9537SOL     OW40246   3.224   1.818  14.819 -0.1757 -0.3925  0.1890
 9537SOL    HW140247   3.248   1.743  14.873  0.9029 -0.2067 -0.0439
 9537SOL    HW240248   3.137   1.792  14.788  0.4053 -2.1705  0.0491
 9538SOL     OW40249   2.159   2.479  14.787  0.7101 -0.1778  0.3422
 9538SOL    HW140250   2.107   2.553  14.819  1.1346  0.2745 -0.0264
 9538SOL    HW240251   2.201   2.472  14.873  0.3527  0.0170  0.5290
 9539SOL     OW40252   1.102   2.305   7.618  0.1673 -0.5236 -0.0361
 9539SOL    HW140253   1.130   2.262   7.537 -0.6891 -0.0517 -0.5732
 9539SOL    HW240254   1.192   2.328   7.643 -0.2272  0.9683  0.0080
 9540SOL     OW40255   1.408   1.948   1.168  0.1075 -0.7317 -0.2765
 9540SOL    HW140256   1.396   1.853   1.160  1.8971 -0.9869  0.1074
 9540SOL    HW240257   1.356   1.974   1.092  1.0472 -2.3132 -1.4689
 9541SOL     OW40258   4.445   4.330   5.298 -0.3824  0.4004  0.3758
 9541SOL    HW140259   4.450   4.421   5.270 -1.1064  0.1603 -0.5165
 9541SOL    HW240260   4.534   4.298   5.314 -0.9527 -1.2031  0.3632
 9542SOL     OW40261   1.557   0.795   9.190  0.0093 -0.1162  0.3026
 9542SOL    HW140262   1.623   0.799   9.259  0.8130  0.3625 -0.4928
 9542SOL    HW240263   1.514   0.879   9.206 -1.2696 -0.5810 -0.6731
 9543SOL     OW40264   0.783   3.705   2.088  0.0136 -0.0387  0.5291
 9543SOL    HW140265   0.698   3.689   2.129 -0.7505  1.4938 -0.4724
 9543SOL    HW240266   0.831   3.737   2.165  0.8935 -0.0015 -0.0314
 9544SOL     OW40267   0.430   0.176  13.359 -0.5315 -0.3025 -0.6527
 9544SOL    HW140268   0.429   0.134  13.274 -1.7331 -2.2014  0.2963
 9544SOL    HW240269   0.335   0.181  13.370 -0.7376 -0.0888 -2.5589
 9545SOL     OW40270   2.031   1.028   4.742 -1.3165 -0.1669 -0.6006
 9545SOL    HW140271   2.018   0.949   4.795  1.7225 -0.8654 -0.8963
 9545SOL    HW240272   2.023   0.998   4.651  1.3268 -2.8231  0.0335
 9546SOL     OW40273   1.824   2.820   7.233  0.2098 -0.2718 -0.5832
 9546SOL    HW140274   1.753   2.774   7.188 -1.0027 -0.7785  1.8715
 9546SOL    HW240275   1.777   2.841   7.313  1.5973 -0.8185  0.3821
 9547SOL     OW40276   2.188   1.128   1.566  0.4862 -0.4376  0.5962
 9547SOL    HW140277   2.259   1.096   1.510 -0.8087 -2.8984  0.3777
 9547SOL    HW240278   2.162   1.048   1.612  1.1792 -1.3243 -0.5552
 9548SOL     OW40279   3.308   2.624   3.725 -0.0486 -0.0305 -0.2561
 9548SOL    HW140280   3.309   2.710   3.767  1.2973 -0.9602  1.6143
 9548SOL    HW240281   3.301   2.648   3.632  3.4001  1.1059 -0.2326
 9549SOL     OW40282   0.171   0.955   7.720 -0.6378 -0.3286  0.8454
 9549SOL    HW140283   0.121   0.875   7.705 -0.5503 -0.2986  0.3893
 9549SOL    HW240284   0.096   1.010   7.742  0.8873  2.0992  0.0087
 9550SOL     OW40285   4.543   0.768   7.531 -0.2772 -0.6770 -0.1246
 9550SOL    HW140286   4.474   0.702   7.521 -0.0920 -0.9232  0.2275
 9550SOL    HW240287   4.522   0.815   7.611 -1.5308 -0.7839 -0.3881
 9551SOL     OW40288   2.696   2.473  12.532 -0.3875  0.2601 -0.1122
 9551SOL    HW140289   2.775   2.427  12.505 -0.0932  0.2263  0.8292
 9551SOL    HW240290   2.627   2.477  12.465 -2.5537 -2.7056  1.9221
 9552SOL     OW40291   2.820   2.694   4.285 -0.1233  0.2352 -0.0917
 9552SOL    HW140292   2.846   2.610   4.246  0.9091  1.1076 -1.2710
 9552SOL    HW240293   2.890   2.744   4.244 -1.4871  1.2450 -1.2000
 9553SOL     OW40294   4.651   2.634   6.652  1.2446 -0.2523  0.0230
 9553SOL    HW140295   4.723   2.590   6.697 -1.1703 -1.8578  2.2567
 9553SOL    HW240296   4.695   2.658   6.570  0.2775  1.4010 -0.0081
 9554SOL     OW40297   2.577   1.586   6.872  0.1081  0.2684  0.3686
 9554SOL    HW140298   2.657   1.563   6.825 -0.3986 -0.2047 -0.2545
 9554SOL    HW240299   2.505   1.563   6.814  0.1122  0.4378  0.2966
 9555SOL     OW40300   0.163   2.894   2.153  0.6726 -0.2507  0.0455
 9555SOL    HW140301   0.182   2.980   2.188 -3.0027 -0.1201  1.6762
 9555SOL    HW240302   0.178   2.909   2.059  3.7810  0.3240  0.6421
 9556SOL     OW40303   0.533   2.007  11.056  0.1166  0.0115 -0.2019
 9556SOL    HW140304   0.480   2.014  10.976 -1.7590 -0.6800  0.9703
 9556SOL    HW240305   0.588   2.081  11.032  1.2868 -0.5564  0.7919
 9557SOL     OW40306   0.235   1.152   7.463  0.6113 -0.5144 -0.1136
 9557SOL    HW140307   0.196   1.211   7.398 -1.3924 -1.3618  0.2907
 9557SOL    HW240308   0.164   1.106   7.508 -0.4827  1.2394 -0.0440
 9558SOL     OW40309   4.367   3.513  14.997  0.2307 -0.5326 -0.4798
 9558SOL    HW140310   4.348   3.605  15.016  1.9463  0.1479 -2.0151
 9558SOL    HW240311   4.300   3.461  15.041 -0.2182  2.2445  2.1073
 9559SOL     OW40312   0.031   1.006  17.724 -0.1297  0.1463  0.5097
 9559SOL    HW140313   0.056   0.920   0.010 -2.0124 -0.1157  1.2935
 9559SOL    HW240314   4.674   0.992  17.710  0.2233  0.2671 -1.9488
 9560SOL     OW40315   2.173   0.003   5.902  0.2517 -0.3735  0.6876
 9560SOL    HW140316   2.220   4.730   5.819 -0.6063 -1.4540  0.3385
 9560SOL    HW240317   2.221   0.081   5.929  0.3945  1.0567 -3.6194
 9561SOL     OW40318   2.074   2.229   3.685 -0.0484  0.3395 -0.3530
 9561SOL    HW140319   2.026   2.146   3.689  2.6084 -1.1890 -0.2328
 9561SOL    HW240320   2.084   2.245   3.779  0.4664 -2.2157  0.0143
 9562SOL     OW40321   1.106   4.501   4.381  0.4089  0.2286 -0.0799
 9562SOL    HW140322   1.015   4.498   4.412  0.8257 -1.0350  1.0316
 9562SOL    HW240323   1.152   4.444   4.444 -0.4693 -0.2661  0.1149
 9563SOL     OW40324   1.773   2.784   5.139  0.0973 -0.3247 -0.0495
 9563SOL    HW140325   1.721   2.711   5.106  2.0367 -1.4387 -0.6559
 9563SOL    HW240326   1.859   2.743   5.134  0.4232  0.3636 -0.1944
 9564SOL     OW40327   3.462   0.785   8.007  0.0714 -0.4959  0.0493
 9564SOL    HW140328   3.551   0.771   7.976  0.1895  0.7109 -0.1840
 9564SOL    HW240329   3.476   0.836   8.087  2.1208  2.4012 -2.1524
 9565SOL     OW40330   0.840   2.798   6.752  0.3311 -0.3139  0.2430
 9565SOL    HW140331   0.899   2.761   6.686 -1.0074 -0.5879 -0.8099
 9565SOL    HW240332   0.754   2.796   6.709  1.2903  2.1392 -1.7803
 9566SOL     OW40333   4.267   3.692   1.707 -0.1763 -0.1666  0.5982
 9566SOL    HW140334   4.258   3.786   1.721  1.5492  0.2299 -1.1140
 9566SOL    HW240335   4.240   3.670   1.797  2.3861  0.4998  1.5178
 9567SOL     OW40336   1.909   0.308  16.368 -0.0472 -0.7498  0.6755
 9567SOL    HW140337   1.881   0.368  16.437 -0.9550 -0.0014 -0.3555
 9567SOL    HW240338   1.925   0.372  16.299 -1.9039  0.6252  1.5242
 9568SOL     OW40339   0.607   0.120  13.062  0.1711 -0.1263  0.4466
 9568SOL    HW140340   0.654   0.051  13.109  0.7839 -0.5374 -0.7844
 9568SOL    HW240341   0.514   0.098  13.059 -0.0181  0.5161  1.7311
 9569SOL     OW40342   2.573   4.279   1.012  0.1651  0.0724 -0.0308
 9569SOL    HW140343   2.620   4.269   1.095  1.7634  0.7875 -0.8565
 9569SOL    HW240344   2.512   4.347   1.041 -0.6061 -0.9772  0.8595
   4.73720   4.73720  17.74713
